<event>
 7    1  0.2404951E-015  0.9000774E+02  0.7816164E-02  0.1186339E+00
        -11   -1    0    0    0    0  0.00000000000E+00  0.00000000000E+00  0.45593999997E+02  0.45594000000E+02  0.51100000000E-03 0. -1.
         11   -1    0    0    0    0 -0.00000000000E+00 -0.00000000000E+00 -0.45593999997E+02  0.45594000000E+02  0.51100000000E-03 0.  1.
    9900012    2    1    2    0    0 -0.37373284553E+00 -0.29111376367E+00 -0.10810098025E+01  0.90007743394E+02  0.90000004807E+02 0.  0.
         12    1    1    2    0    0  0.37373284553E+00  0.29111376367E+00  0.10810098025E+01  0.11802566062E+01  0.00000000000E+00 0. -1.
         11    1    3    3    0    0 -0.31034572781E+01  0.12769755372E+02  0.36333090232E+02  0.38636660640E+02  0.51100000000E-03 0. -1.
        -11    1    3    3    0    0  0.34811776494E+01  0.62335943194E+01  0.20569454838E+01  0.74301629155E+01  0.51100000000E-03 0.  1.
        -12    1    3    3    0    0 -0.75145321681E+00 -0.19294463455E+02 -0.39471045518E+02  0.43940919839E+02  0.00000000000E+00 0.  1.
</event>
<event>
 7    1  0.2404951E-015  0.9000772E+02  0.7816164E-02  0.1186339E+00
        -11   -1    0    0    0    0  0.00000000000E+00  0.00000000000E+00  0.45593999997E+02  0.45594000000E+02  0.51100000000E-03 0.  1.
         11   -1    0    0    0    0 -0.00000000000E+00 -0.00000000000E+00 -0.45593999997E+02  0.45594000000E+02  0.51100000000E-03 0. -1.
    9900012    2    1    2    0    0  0.56886629232E+00  0.57318270088E+00  0.86075799393E+00  0.90007723934E+02  0.89999985090E+02 0.  0.
         12    1    1    2    0    0 -0.56886629232E+00 -0.57318270088E+00 -0.86075799393E+00  0.11802760657E+01  0.00000000000E+00 0. -1.
         11    1    3    3    0    0  0.85448964774E+01 -0.36090365785E+02 -0.82329069554E+01  0.37990926752E+02  0.51100000000E-03 0. -1.
        -11    1    3    3    0    0  0.94980750297E+01  0.31235198266E+00 -0.29042162707E+01  0.99370752961E+01  0.51100000000E-03 0.  1.
        -12    1    3    3    0    0 -0.17474105215E+02  0.36351196503E+02  0.11997881220E+02  0.42079721886E+02  0.00000000000E+00 0.  1.
</event>
<event>
 7    1  0.2404951E-015  0.9000775E+02  0.7816164E-02  0.1186339E+00
        -11   -1    0    0    0    0  0.00000000000E+00  0.00000000000E+00  0.45593999997E+02  0.45594000000E+02  0.51100000000E-03 0.  1.
         11   -1    0    0    0    0 -0.00000000000E+00 -0.00000000000E+00 -0.45593999997E+02  0.45594000000E+02  0.51100000000E-03 0. -1.
    9900012    2    1    2    0    0 -0.10435168108E+01  0.36471761635E+00  0.41358862861E+00  0.90007745016E+02  0.90000006450E+02 0.  0.
         12    1    1    2    0    0  0.10435168108E+01 -0.36471761635E+00 -0.41358862861E+00  0.11802549843E+01  0.00000000000E+00 0. -1.
         11    1    3    3    0    0 -0.14500628051E+02 -0.15909076854E+02  0.32622728745E+02  0.39084643676E+02  0.51100000000E-03 0. -1.
        -11    1    3    3    0    0  0.64677383299E+01 -0.83712848286E+01 -0.11175177212E+01  0.10637616975E+02  0.51100000000E-03 0.  1.
        -12    1    3    3    0    0  0.69893729107E+01  0.24645079299E+02 -0.31091622396E+02  0.40285484365E+02  0.00000000000E+00 0.  1.
</event>
<event>
 7    1  0.2404951E-015  0.9000784E+02  0.7816164E-02  0.1186339E+00
        -11   -1    0    0    0    0  0.00000000000E+00  0.00000000000E+00  0.45593999997E+02  0.45594000000E+02  0.51100000000E-03 0.  1.
         11   -1    0    0    0    0 -0.00000000000E+00 -0.00000000000E+00 -0.45593999997E+02  0.45594000000E+02  0.51100000000E-03 0. -1.
    9900012    2    1    2    0    0  0.41954000448E+00  0.69722320728E+00  0.85478295761E+00  0.90007835638E+02  0.90000098269E+02 0.  0.
         12    1    1    2    0    0 -0.41954000448E+00 -0.69722320728E+00 -0.85478295761E+00  0.11801643618E+01  0.00000000000E+00 0. -1.
         11    1    3    3    0    0 -0.69778154699E+01  0.97836064289E+00  0.69228137167E+01  0.98778767099E+01  0.51100000000E-03 0. -1.
        -11    1    3    3    0    0  0.36874483663E+01 -0.21134802706E+01  0.36809088713E+02  0.37053651459E+02  0.51100000000E-03 0.  1.
         12    1    3    3    0    0  0.37099071081E+01  0.18323428350E+01 -0.42877119472E+02  0.43076307470E+02  0.00000000000E+00 0. -1.
</event>
<event>
 7    1  0.2404951E-015  0.9000789E+02  0.7816164E-02  0.1186339E+00
        -11   -1    0    0    0    0  0.00000000000E+00  0.00000000000E+00  0.45593999997E+02  0.45594000000E+02  0.51100000000E-03 0.  1.
         11   -1    0    0    0    0 -0.00000000000E+00 -0.00000000000E+00 -0.45593999997E+02  0.45594000000E+02  0.51100000000E-03 0. -1.
    9900012    2    1    2    0    0 -0.12659518746E+00  0.56512860367E+00  0.10282341354E+01  0.90007888939E+02  0.90000152272E+02 0.  0.
         12    1    1    2    0    0  0.12659518746E+00 -0.56512860367E+00 -0.10282341354E+01  0.11801110615E+01  0.00000000000E+00 0. -1.
         11    1    3    3    0    0 -0.23347473746E+02  0.28578276021E+02 -0.14871189210E+02  0.39786614074E+02  0.51100000000E-03 0. -1.
        -11    1    3    3    0    0 -0.48237529786E+01 -0.80438887553E+01 -0.42860838095E+01  0.10312286545E+02  0.51100000000E-03 0.  1.
        -12    1    3    3    0    0  0.28044631537E+02 -0.19969258662E+02  0.20185507155E+02  0.39908988320E+02  0.00000000000E+00 0.  1.
</event>
<event>
 7    1  0.2404951E-015  0.9000761E+02  0.7816164E-02  0.1186339E+00
        -11   -1    0    0    0    0  0.00000000000E+00  0.00000000000E+00  0.45593999997E+02  0.45594000000E+02  0.51100000000E-03 0.  1.
         11   -1    0    0    0    0 -0.00000000000E+00 -0.00000000000E+00 -0.45593999997E+02  0.45594000000E+02  0.51100000000E-03 0. -1.
    9900012    2    1    2    0    0 -0.10829249239E+01 -0.67305036355E-01 -0.46483483878E+00  0.90007606936E+02  0.89999866547E+02 0.  0.
         12    1    1    2    0    0  0.10829249239E+01  0.67305036355E-01  0.46483483878E+00  0.11803930642E+01  0.00000000000E+00 0. -1.
         11    1    3    3    0    0  0.43767036288E+01 -0.32018867819E+02  0.29289528607E+02  0.43614675481E+02  0.51100000000E-03 0. -1.
        -11    1    3    3    0    0 -0.11860768188E+01  0.24170681055E+01 -0.10590561959E+02  0.10927442487E+02  0.51100000000E-03 0.  1.
        -12    1    3    3    0    0 -0.42735517339E+01  0.29534494677E+02 -0.19163801488E+02  0.35465488967E+02  0.00000000000E+00 0.  1.
</event>
<event>
 7    1  0.2404951E-015  0.9000781E+02  0.7816164E-02  0.1186339E+00
        -11   -1    0    0    0    0  0.00000000000E+00  0.00000000000E+00  0.45593999997E+02  0.45594000000E+02  0.51100000000E-03 0.  1.
         11   -1    0    0    0    0 -0.00000000000E+00 -0.00000000000E+00 -0.45593999997E+02  0.45594000000E+02  0.51100000000E-03 0. -1.
    9900012    2    1    2    0    0  0.35430279937E+00  0.10913825536E+01  0.27606793202E+00  0.90007805162E+02  0.90000067390E+02 0.  0.
         12    1    1    2    0    0 -0.35430279937E+00 -0.10913825536E+01 -0.27606793202E+00  0.11801948378E+01  0.00000000000E+00 0. -1.
         11    1    3    3    0    0  0.30838066598E+02  0.10510581452E+02 -0.23378500201E+02  0.40100036732E+02  0.51100000000E-03 0. -1.
        -11    1    3    3    0    0  0.14360619583E+00 -0.91769364965E+01 -0.26297698563E+01  0.95473805810E+01  0.51100000000E-03 0.  1.
        -12    1    3    3    0    0 -0.30627369994E+02 -0.24226240202E+00  0.26284337989E+02  0.40360387850E+02  0.00000000000E+00 0.  1.
</event>
<event>
 7    1  0.2404951E-015  0.9000762E+02  0.7816164E-02  0.1186339E+00
        -11   -1    0    0    0    0  0.00000000000E+00  0.00000000000E+00  0.45593999997E+02  0.45594000000E+02  0.51100000000E-03 0. -1.
         11   -1    0    0    0    0 -0.00000000000E+00 -0.00000000000E+00 -0.45593999997E+02  0.45594000000E+02  0.51100000000E-03 0.  1.
    9900012    2    1    2    0    0  0.86059089787E+00  0.62200421801E+00 -0.51554821620E+00  0.90007620441E+02  0.89999880230E+02 0.  0.
         12    1    1    2    0    0 -0.86059089787E+00 -0.62200421801E+00  0.51554821620E+00  0.11803795593E+01  0.00000000000E+00 0. -1.
         11    1    3    3    0    0  0.32204113323E+02 -0.29118865782E+02 -0.54779266952E+01  0.43760952235E+02  0.51100000000E-03 0. -1.
        -11    1    3    3    0    0 -0.30430482232E+01  0.11859501814E+02  0.35187574107E+01  0.12739292749E+02  0.51100000000E-03 0.  1.
        -12    1    3    3    0    0 -0.28300474202E+02  0.17881368186E+02  0.14436210683E+01  0.33507375458E+02  0.00000000000E+00 0.  1.
</event>
<event>
 7    1  0.2404951E-015  0.9000769E+02  0.7816164E-02  0.1186339E+00
        -11   -1    0    0    0    0  0.00000000000E+00  0.00000000000E+00  0.45593999997E+02  0.45594000000E+02  0.51100000000E-03 0. -1.
         11   -1    0    0    0    0 -0.00000000000E+00 -0.00000000000E+00 -0.45593999997E+02  0.45594000000E+02  0.51100000000E-03 0.  1.
    9900012    2    1    2    0    0 -0.41375510628E+00  0.94318775800E+00  0.57648106273E+00  0.90007692053E+02  0.89999952788E+02 0.  0.
         12    1    1    2    0    0  0.41375510628E+00 -0.94318775800E+00 -0.57648106273E+00  0.11803079473E+01  0.00000000000E+00 0. -1.
         11    1    3    3    0    0  0.28643390207E+01 -0.49955661532E+01 -0.83735585293E+01  0.10162509627E+02  0.51100000000E-03 0. -1.
        -11    1    3    3    0    0 -0.32977040745E+02  0.11601050594E+02 -0.18020753522E+02  0.39329596349E+02  0.51100000000E-03 0.  1.
         12    1    3    3    0    0  0.29698946618E+02 -0.56622966827E+01  0.26970793114E+02  0.40515586077E+02  0.00000000000E+00 0. -1.
</event>
<event>
 7    1  0.2404951E-015  0.9000766E+02  0.7816164E-02  0.1186339E+00
        -11   -1    0    0    0    0  0.00000000000E+00  0.00000000000E+00  0.45593999997E+02  0.45594000000E+02  0.51100000000E-03 0.  1.
         11   -1    0    0    0    0 -0.00000000000E+00 -0.00000000000E+00 -0.45593999997E+02  0.45594000000E+02  0.51100000000E-03 0. -1.
    9900012    2    1    2    0    0 -0.54300480256E+00 -0.67773574219E+00  0.79939361390E+00  0.90007656786E+02  0.89999917056E+02 0.  0.
         12    1    1    2    0    0  0.54300480256E+00  0.67773574219E+00 -0.79939361390E+00  0.11803432136E+01  0.00000000000E+00 0. -1.
         11    1    3    3    0    0 -0.44513352695E+01 -0.48590819395E+01  0.60875722951E+01  0.89712652221E+01  0.51100000000E-03 0. -1.
        -11    1    3    3    0    0 -0.22676274859E+02  0.31133737348E+02  0.10648583092E+02  0.39961423459E+02  0.51100000000E-03 0.  1.
         12    1    3    3    0    0  0.26584605326E+02 -0.26952391151E+02 -0.15936761773E+02  0.41074968106E+02  0.00000000000E+00 0. -1.
</event>
<event>
 7    1  0.2404951E-015  0.9000783E+02  0.7816164E-02  0.1186339E+00
        -11   -1    0    0    0    0  0.00000000000E+00  0.00000000000E+00  0.45593999997E+02  0.45594000000E+02  0.51100000000E-03 0. -1.
         11   -1    0    0    0    0 -0.00000000000E+00 -0.00000000000E+00 -0.45593999997E+02  0.45594000000E+02  0.51100000000E-03 0.  1.
    9900012    2    1    2    0    0 -0.15255926958E+00  0.27372287426E+00 -0.11378061209E+01  0.90007829965E+02  0.90000092521E+02 0.  0.
         12    1    1    2    0    0  0.15255926958E+00 -0.27372287426E+00  0.11378061209E+01  0.11801700349E+01  0.00000000000E+00 0. -1.
         11    1    3    3    0    0  0.38974140845E+01 -0.34337794499E+00  0.88550671329E+01  0.96809069383E+01  0.51100000000E-03 0. -1.
        -11    1    3    3    0    0 -0.10409472822E+02 -0.21988199180E+02  0.27104993673E+02  0.36421404557E+02  0.51100000000E-03 0.  1.
         12    1    3    3    0    0  0.63594994679E+01  0.22605299999E+02 -0.37097866927E+02  0.43905518470E+02  0.00000000000E+00 0. -1.
</event>
<event>
 7    1  0.2404951E-015  0.9000782E+02  0.7816164E-02  0.1186339E+00
        -11   -1    0    0    0    0  0.00000000000E+00  0.00000000000E+00  0.45593999997E+02  0.45594000000E+02  0.51100000000E-03 0. -1.
         11   -1    0    0    0    0 -0.00000000000E+00 -0.00000000000E+00 -0.45593999997E+02  0.45594000000E+02  0.51100000000E-03 0.  1.
    9900012    2    1    2    0    0 -0.10994395456E+01  0.27456090878E+00  0.32966596070E+00  0.90007817534E+02  0.90000079926E+02 0.  0.
         12    1    1    2    0    0  0.10994395456E+01 -0.27456090878E+00 -0.32966596070E+00  0.11801824658E+01  0.00000000000E+00 0. -1.
         11    1    3    3    0    0  0.12434651199E+02 -0.31829010892E+02 -0.21570134269E+02  0.40410112317E+02  0.51100000000E-03 0. -1.
        -11    1    3    3    0    0  0.24423613583E+01  0.76191526235E+01 -0.53554368546E+01  0.96279447375E+01  0.51100000000E-03 0.  1.
        -12    1    3    3    0    0 -0.15976452102E+02  0.24484419178E+02  0.27255237085E+02  0.39969760480E+02  0.00000000000E+00 0.  1.
</event>
<event>
 7    1  0.2404951E-015  0.9000777E+02  0.7816164E-02  0.1186339E+00
        -11   -1    0    0    0    0  0.00000000000E+00  0.00000000000E+00  0.45593999997E+02  0.45594000000E+02  0.51100000000E-03 0.  1.
         11   -1    0    0    0    0 -0.00000000000E+00 -0.00000000000E+00 -0.45593999997E+02  0.45594000000E+02  0.51100000000E-03 0. -1.
    9900012    2    1    2    0    0 -0.10139722327E+01 -0.15024951168E-01  0.60380615432E+00  0.90007768112E+02  0.90000029851E+02 0.  0.
         12    1    1    2    0    0  0.10139722327E+01  0.15024951168E-01 -0.60380615432E+00  0.11802318881E+01  0.00000000000E+00 0. -1.
         11    1    3    3    0    0 -0.50335689587E+01 -0.70073817154E+01 -0.39175525377E+01  0.94756230990E+01  0.51100000000E-03 0. -1.
        -11    1    3    3    0    0 -0.96176680160E+01 -0.23509934363E+02  0.29416102362E+02  0.38865455487E+02  0.51100000000E-03 0.  1.
         12    1    3    3    0    0  0.13637264742E+02  0.30502291127E+02 -0.24894743670E+02  0.41666689526E+02  0.00000000000E+00 0. -1.
</event>
<event>
 7    1  0.2404951E-015  0.9000766E+02  0.7816164E-02  0.1186339E+00
        -11   -1    0    0    0    0  0.00000000000E+00  0.00000000000E+00  0.45593999997E+02  0.45594000000E+02  0.51100000000E-03 0.  1.
         11   -1    0    0    0    0 -0.00000000000E+00 -0.00000000000E+00 -0.45593999997E+02  0.45594000000E+02  0.51100000000E-03 0. -1.
    9900012    2    1    2    0    0 -0.39526270513E+00  0.11044606481E+01 -0.13093657667E+00  0.90007656696E+02  0.89999916964E+02 0.  0.
         12    1    1    2    0    0  0.39526270513E+00 -0.11044606481E+01  0.13093657667E+00  0.11803433045E+01  0.00000000000E+00 0. -1.
         11    1    3    3    0    0  0.14281561196E+01 -0.42589792488E+00  0.98511882483E+01  0.99632790340E+01  0.51100000000E-03 0. -1.
        -11    1    3    3    0    0 -0.30076247089E+02 -0.25357069268E+02 -0.11585055227E+02  0.41009451419E+02  0.51100000000E-03 0.  1.
         12    1    3    3    0    0  0.28252828264E+02  0.26887427841E+02  0.16029304026E+01  0.39034926242E+02  0.00000000000E+00 0. -1.
</event>
<event>
 7    1  0.2404951E-015  0.9000829E+02  0.7816164E-02  0.1186338E+00
        -11   -1    0    0    0    0  0.00000000000E+00  0.00000000000E+00  0.45593999997E+02  0.45594000000E+02  0.51100000000E-03 0. -1.
         11   -1    0    0    0    0 -0.00000000000E+00 -0.00000000000E+00 -0.45593999997E+02  0.45594000000E+02  0.51100000000E-03 0.  1.
    9900012    2    1    2    0    0  0.92894692347E+00 -0.25584576514E+00  0.68068020900E+00  0.90008286056E+02  0.90000554630E+02 0.  0.
         12    1    1    2    0    0 -0.92894692347E+00  0.25584576514E+00 -0.68068020900E+00  0.11797139438E+01  0.00000000000E+00 0. -1.
         11    1    3    3    0    0  0.15090628803E+02  0.31964449710E+02  0.15040038171E+02  0.38414266509E+02  0.51100000000E-03 0. -1.
        -11    1    3    3    0    0  0.86731686438E+01  0.14411396851E+01 -0.13945394082E+01  0.89019929419E+01  0.51100000000E-03 0.  1.
        -12    1    3    3    0    0 -0.22834850524E+02 -0.33661435161E+02 -0.12964818554E+02  0.42692026605E+02  0.00000000000E+00 0.  1.
</event>
<event>
 7    1  0.2404951E-015  0.9000800E+02  0.7816164E-02  0.1186339E+00
        -11   -1    0    0    0    0  0.00000000000E+00  0.00000000000E+00  0.45593999997E+02  0.45594000000E+02  0.51100000000E-03 0. -1.
         11   -1    0    0    0    0 -0.00000000000E+00 -0.00000000000E+00 -0.45593999997E+02  0.45594000000E+02  0.51100000000E-03 0.  1.
    9900012    2    1    2    0    0  0.29016489836E+00 -0.40521422560E+00 -0.10695872487E+01  0.90007995288E+02  0.90000260026E+02 0.  0.
         12    1    1    2    0    0 -0.29016489836E+00  0.40521422560E+00  0.10695872487E+01  0.11800047116E+01  0.00000000000E+00 0. -1.
         11    1    3    3    0    0  0.73065980776E+01 -0.22775220862E+01 -0.71266690670E+01  0.10457671566E+02  0.51100000000E-03 0. -1.
        -11    1    3    3    0    0  0.58356886230E+01 -0.28242854081E+02 -0.22125445315E+02  0.36348994470E+02  0.51100000000E-03 0.  1.
         12    1    3    3    0    0 -0.12852121802E+02  0.30115161941E+02  0.28182527134E+02  0.43201329253E+02  0.00000000000E+00 0. -1.
</event>
<event>
 7    1  0.2404951E-015  0.9000770E+02  0.7816164E-02  0.1186339E+00
        -11   -1    0    0    0    0  0.00000000000E+00  0.00000000000E+00  0.45593999997E+02  0.45594000000E+02  0.51100000000E-03 0.  1.
         11   -1    0    0    0    0 -0.00000000000E+00 -0.00000000000E+00 -0.45593999997E+02  0.45594000000E+02  0.51100000000E-03 0. -1.
    9900012    2    1    2    0    0  0.55389753002E+00  0.43796319978E+00  0.94577869373E+00  0.90007698523E+02  0.89999959344E+02 0.  0.
         12    1    1    2    0    0 -0.55389753002E+00 -0.43796319978E+00 -0.94577869373E+00  0.11803014766E+01  0.00000000000E+00 0. -1.
         11    1    3    3    0    0 -0.42142388830E+00 -0.43105334377E+01 -0.13067053757E+01  0.45239115609E+01  0.51100000000E-03 0. -1.
        -11    1    3    3    0    0  0.33779823974E+01  0.12537943496E+02  0.42489499470E+02  0.44429363687E+02  0.51100000000E-03 0.  1.
         12    1    3    3    0    0 -0.24026609791E+01 -0.77894468588E+01 -0.40237015400E+02  0.41054423275E+02  0.00000000000E+00 0. -1.
</event>
<event>
 7    1  0.2404951E-015  0.9000793E+02  0.7816164E-02  0.1186339E+00
        -11   -1    0    0    0    0  0.00000000000E+00  0.00000000000E+00  0.45593999997E+02  0.45594000000E+02  0.51100000000E-03 0.  1.
         11   -1    0    0    0    0 -0.00000000000E+00 -0.00000000000E+00 -0.45593999997E+02  0.45594000000E+02  0.51100000000E-03 0. -1.
    9900012    2    1    2    0    0 -0.10215231488E+01  0.25720888685E+00 -0.53188366065E+00  0.90007929585E+02  0.90000193456E+02 0.  0.
         12    1    1    2    0    0  0.10215231488E+01 -0.25720888685E+00  0.53188366065E+00  0.11800704146E+01  0.00000000000E+00 0. -1.
         11    1    3    3    0    0 -0.32478364548E+02 -0.15215912112E+02 -0.83768582668E+01  0.36831235383E+02  0.51100000000E-03 0. -1.
        -11    1    3    3    0    0 -0.48769292879E+01 -0.74406464033E+01 -0.19746461756E+01  0.91130064171E+01  0.51100000000E-03 0.  1.
        -12    1    3    3    0    0  0.36333770687E+02  0.22913767402E+02  0.98196207817E+01  0.44063687785E+02  0.00000000000E+00 0.  1.
</event>
<event>
 7    1  0.2404951E-015  0.9000771E+02  0.7816164E-02  0.1186339E+00
        -11   -1    0    0    0    0  0.00000000000E+00  0.00000000000E+00  0.45593999997E+02  0.45594000000E+02  0.51100000000E-03 0.  1.
         11   -1    0    0    0    0 -0.00000000000E+00 -0.00000000000E+00 -0.45593999997E+02  0.45594000000E+02  0.51100000000E-03 0. -1.
    9900012    2    1    2    0    0 -0.11124385522E+01  0.23820374929E-01 -0.39368422111E+00  0.90007714353E+02  0.89999975382E+02 0.  0.
         12    1    1    2    0    0  0.11124385522E+01 -0.23820374929E-01  0.39368422111E+00  0.11802856470E+01  0.00000000000E+00 0. -1.
         11    1    3    3    0    0  0.23428183460E+01 -0.73948344028E+01  0.17697838760E+02  0.19323195147E+02  0.51100000000E-03 0. -1.
        -11    1    3    3    0    0 -0.24410865195E+02 -0.17154754149E+02  0.59496764756E+01  0.30423257220E+02  0.51100000000E-03 0.  1.
         12    1    3    3    0    0  0.20955608297E+02  0.24573408926E+02 -0.24041199457E+02  0.40261261986E+02  0.00000000000E+00 0. -1.
</event>
<event>
 7    1  0.2404951E-015  0.9000777E+02  0.7816164E-02  0.1186339E+00
        -11   -1    0    0    0    0  0.00000000000E+00  0.00000000000E+00  0.45593999997E+02  0.45594000000E+02  0.51100000000E-03 0.  1.
         11   -1    0    0    0    0 -0.00000000000E+00 -0.00000000000E+00 -0.45593999997E+02  0.45594000000E+02  0.51100000000E-03 0. -1.
    9900012    2    1    2    0    0 -0.10457152873E+01 -0.48403806875E+00  0.25518523310E+00  0.90007774252E+02  0.90000036072E+02 0.  0.
         12    1    1    2    0    0  0.10457152873E+01  0.48403806875E+00 -0.25518523310E+00  0.11802257484E+01  0.00000000000E+00 0. -1.
         11    1    3    3    0    0  0.94770790579E+01 -0.14461606068E+02 -0.27364415190E+02  0.32369187455E+02  0.51100000000E-03 0. -1.
        -11    1    3    3    0    0 -0.83663523962E+00  0.69385090000E+01 -0.13288456091E+02  0.15014190994E+02  0.51100000000E-03 0.  1.
        -12    1    3    3    0    0 -0.96861591055E+01  0.70390589991E+01  0.40908056514E+02  0.42624395803E+02  0.00000000000E+00 0.  1.
</event>
<event>
 7    1  0.2404951E-015  0.9000777E+02  0.7816164E-02  0.1186339E+00
        -11   -1    0    0    0    0  0.00000000000E+00  0.00000000000E+00  0.45593999997E+02  0.45594000000E+02  0.51100000000E-03 0.  1.
         11   -1    0    0    0    0 -0.00000000000E+00 -0.00000000000E+00 -0.45593999997E+02  0.45594000000E+02  0.51100000000E-03 0. -1.
    9900012    2    1    2    0    0 -0.37438557582E+00  0.10146709537E+01  0.47247082570E+00  0.90007766809E+02  0.90000028531E+02 0.  0.
         12    1    1    2    0    0  0.37438557582E+00 -0.10146709537E+01 -0.47247082570E+00  0.11802331908E+01  0.00000000000E+00 0. -1.
         11    1    3    3    0    0  0.61230504187E+01 -0.76678475350E+01  0.27509117228E+01  0.10190934590E+02  0.51100000000E-03 0. -1.
        -11    1    3    3    0    0 -0.40158287487E+02  0.91900513223E+01  0.12500157987E+02  0.43051121323E+02  0.51100000000E-03 0.  1.
         12    1    3    3    0    0  0.33660851492E+02 -0.50753283368E+00 -0.14778598884E+02  0.36765710897E+02  0.00000000000E+00 0. -1.
</event>
<event>
 7    1  0.2404951E-015  0.9000778E+02  0.7816164E-02  0.1186339E+00
        -11   -1    0    0    0    0  0.00000000000E+00  0.00000000000E+00  0.45593999997E+02  0.45594000000E+02  0.51100000000E-03 0. -1.
         11   -1    0    0    0    0 -0.00000000000E+00 -0.00000000000E+00 -0.45593999997E+02  0.45594000000E+02  0.51100000000E-03 0.  1.
    9900012    2    1    2    0    0  0.82354316155E-02 -0.10812036256E+01  0.47313315256E+00  0.90007777952E+02  0.90000039821E+02 0.  0.
         12    1    1    2    0    0 -0.82354316155E-02  0.10812036256E+01 -0.47313315256E+00  0.11802220479E+01  0.00000000000E+00 0. -1.
         11    1    3    3    0    0  0.60993061884E+01  0.56215553655E+01  0.43318331050E+01  0.93577881478E+01  0.51100000000E-03 0. -1.
        -11    1    3    3    0    0  0.17470037156E+02 -0.13661018700E+02 -0.34723656746E+02  0.41201431629E+02  0.51100000000E-03 0.  1.
         12    1    3    3    0    0 -0.23561107912E+02  0.69582597093E+01  0.30864956794E+02  0.39448558176E+02  0.00000000000E+00 0. -1.
</event>
<event>
 7    1  0.3461540E-015  0.9000777E+02  0.7816164E-02  0.1186339E+00
        -11   -1    0    0    0    0  0.00000000000E+00  0.00000000000E+00  0.45593999997E+02  0.45594000000E+02  0.51100000000E-03 0. -1.
         11   -1    0    0    0    0 -0.00000000000E+00 -0.00000000000E+00 -0.45593999997E+02  0.45594000000E+02  0.51100000000E-03 0.  1.
    9900012    2    1    2    0    0  0.59840128086E-01  0.30062163349E+00 -0.11397353361E+01  0.90007766615E+02  0.90000028334E+02 0.  0.
         12    1    1    2    0    0 -0.59840128086E-01 -0.30062163349E+00  0.11397353361E+01  0.11802333853E+01  0.00000000000E+00 0. -1.
         11    1    3    3    0    0 -0.38636373747E+02  0.55218527313E+00  0.68849806808E+01  0.39248913923E+02  0.51100000000E-03 0. -1.
        -11    1    3    3    0    0 -0.21102221127E+01  0.13447817995E+01 -0.95702441082E+01  0.98919688639E+01  0.51100000000E-03 0.  1.
        -12    1    3    3    0    0  0.40806435987E+02 -0.15963454391E+01  0.15455280913E+01  0.40866883828E+02  0.00000000000E+00 0.  1.
</event>
<event>
 7    1  0.2404951E-015  0.9000781E+02  0.7816164E-02  0.1186339E+00
        -11   -1    0    0    0    0  0.00000000000E+00  0.00000000000E+00  0.45593999997E+02  0.45594000000E+02  0.51100000000E-03 0.  1.
         11   -1    0    0    0    0 -0.00000000000E+00 -0.00000000000E+00 -0.45593999997E+02  0.45594000000E+02  0.51100000000E-03 0. -1.
    9900012    2    1    2    0    0  0.74294241966E+00 -0.74793566902E+00  0.53053735251E+00  0.90007813114E+02  0.90000075447E+02 0.  0.
         12    1    1    2    0    0 -0.74294241966E+00  0.74793566902E+00 -0.53053735251E+00  0.11801868862E+01  0.00000000000E+00 0. -1.
         11    1    3    3    0    0  0.32065866974E+02  0.21582245072E+02  0.11577068898E+01  0.38669799749E+02  0.51100000000E-03 0. -1.
        -11    1    3    3    0    0  0.20053828603E+01 -0.45422414884E+01  0.10785607715E+02  0.11873620013E+02  0.51100000000E-03 0.  1.
        -12    1    3    3    0    0 -0.33328307415E+02 -0.17787939252E+02 -0.11412777253E+02  0.39464393352E+02  0.00000000000E+00 0.  1.
</event>
<event>
 7    1  0.2404951E-015  0.9000771E+02  0.7816164E-02  0.1186339E+00
        -11   -1    0    0    0    0  0.00000000000E+00  0.00000000000E+00  0.45593999997E+02  0.45594000000E+02  0.51100000000E-03 0.  1.
         11   -1    0    0    0    0 -0.00000000000E+00 -0.00000000000E+00 -0.45593999997E+02  0.45594000000E+02  0.51100000000E-03 0. -1.
    9900012    2    1    2    0    0 -0.10604690572E+01 -0.38050990939E+00 -0.35170199958E+00  0.90007713294E+02  0.89999974309E+02 0.  0.
         12    1    1    2    0    0  0.10604690572E+01  0.38050990939E+00  0.35170199958E+00  0.11802867063E+01  0.00000000000E+00 0. -1.
         11    1    3    3    0    0  0.48374701377E+01  0.54330892798E+01 -0.52915652545E+01  0.89955677731E+01  0.51100000000E-03 0. -1.
        -11    1    3    3    0    0 -0.18849975806E+02  0.27082078669E+02 -0.19225475685E+02  0.38188735099E+02  0.51100000000E-03 0.  1.
         12    1    3    3    0    0  0.12952036611E+02 -0.32895677858E+02  0.24165338940E+02  0.42823410422E+02  0.00000000000E+00 0. -1.
</event>
<event>
 7    1  0.2404951E-015  0.9000770E+02  0.7816164E-02  0.1186339E+00
        -11   -1    0    0    0    0  0.00000000000E+00  0.00000000000E+00  0.45593999997E+02  0.45594000000E+02  0.51100000000E-03 0.  1.
         11   -1    0    0    0    0 -0.00000000000E+00 -0.00000000000E+00 -0.45593999997E+02  0.45594000000E+02  0.51100000000E-03 0. -1.
    9900012    2    1    2    0    0  0.11491734815E+01  0.15530445826E+00  0.21998212309E+00  0.90007698640E+02  0.89999959462E+02 0.  0.
         12    1    1    2    0    0 -0.11491734815E+01 -0.15530445826E+00 -0.21998212309E+00  0.11803013598E+01  0.00000000000E+00 0. -1.
         11    1    3    3    0    0 -0.89301194506E+01  0.22967781656E+01 -0.28546918381E+00  0.92251675464E+01  0.51100000000E-03 0. -1.
        -11    1    3    3    0    0  0.29589800630E+02 -0.35489050897E+01  0.31987030574E+02  0.43718659104E+02  0.51100000000E-03 0.  1.
         12    1    3    3    0    0 -0.19510507698E+02  0.14074313824E+01 -0.31481579267E+02  0.37063871990E+02  0.00000000000E+00 0. -1.
</event>
<event>
 7    1  0.2404951E-015  0.9000773E+02  0.7816164E-02  0.1186339E+00
        -11   -1    0    0    0    0  0.00000000000E+00  0.00000000000E+00  0.45593999997E+02  0.45594000000E+02  0.51100000000E-03 0.  1.
         11   -1    0    0    0    0 -0.00000000000E+00 -0.00000000000E+00 -0.45593999997E+02  0.45594000000E+02  0.51100000000E-03 0. -1.
    9900012    2    1    2    0    0 -0.39388392788E+00  0.10849107831E+01  0.24668285960E+00  0.90007733763E+02  0.89999995049E+02 0.  0.
         12    1    1    2    0    0  0.39388392788E+00 -0.10849107831E+01 -0.24668285960E+00  0.11802662366E+01  0.00000000000E+00 0. -1.
         11    1    3    3    0    0 -0.68670228330E+01  0.29643315386E+01 -0.37242704181E+01  0.83554446003E+01  0.51100000000E-03 0. -1.
        -11    1    3    3    0    0 -0.29876318067E+02  0.96365965921E+01 -0.19425700432E+02  0.36916340727E+02  0.51100000000E-03 0.  1.
         12    1    3    3    0    0  0.36349456972E+02 -0.11516017348E+02  0.23396653709E+02  0.44735948437E+02  0.00000000000E+00 0. -1.
</event>
<event>
 7    1  0.2404951E-015  0.9000772E+02  0.7816164E-02  0.1186339E+00
        -11   -1    0    0    0    0  0.00000000000E+00  0.00000000000E+00  0.45593999997E+02  0.45594000000E+02  0.51100000000E-03 0. -1.
         11   -1    0    0    0    0 -0.00000000000E+00 -0.00000000000E+00 -0.45593999997E+02  0.45594000000E+02  0.51100000000E-03 0.  1.
    9900012    2    1    2    0    0 -0.53144719587E+00  0.38634400972E-01 -0.10531479436E+01  0.90007724892E+02  0.89999986061E+02 0.  0.
         12    1    1    2    0    0  0.53144719587E+00 -0.38634400972E-01  0.10531479436E+01  0.11802751078E+01  0.00000000000E+00 0. -1.
         11    1    3    3    0    0 -0.13667097108E+02 -0.12307445496E+02 -0.39457386877E+01  0.18810412331E+02  0.51100000000E-03 0. -1.
        -11    1    3    3    0    0  0.28908941635E+02  0.21551732854E+02 -0.20532311495E+02  0.41494335892E+02  0.51100000000E-03 0.  1.
         12    1    3    3    0    0 -0.15773291723E+02 -0.92056529573E+01  0.23424902239E+02  0.29702976670E+02  0.00000000000E+00 0. -1.
</event>
<event>
 7    1  0.2404951E-015  0.9000767E+02  0.7816164E-02  0.1186339E+00
        -11   -1    0    0    0    0  0.00000000000E+00  0.00000000000E+00  0.45593999997E+02  0.45594000000E+02  0.51100000000E-03 0.  1.
         11   -1    0    0    0    0 -0.00000000000E+00 -0.00000000000E+00 -0.45593999997E+02  0.45594000000E+02  0.51100000000E-03 0. -1.
    9900012    2    1    2    0    0  0.64023341191E+00  0.49601675405E+00  0.85862980446E+00  0.90007670985E+02  0.89999931442E+02 0.  0.
         12    1    1    2    0    0 -0.64023341191E+00 -0.49601675405E+00 -0.85862980446E+00  0.11803290148E+01  0.00000000000E+00 0. -1.
         11    1    3    3    0    0 -0.37136810648E+02  0.81194141831E+01  0.51101747692E+01  0.38355983604E+02  0.51100000000E-03 0. -1.
        -11    1    3    3    0    0 -0.41043880119E+01 -0.86361944097E+01 -0.21933773705E+00  0.95644113325E+01  0.51100000000E-03 0.  1.
        -12    1    3    3    0    0  0.41881432072E+02  0.10127969806E+01 -0.40322072277E+01  0.42087276049E+02  0.00000000000E+00 0.  1.
</event>
<event>
 7    1  0.2404951E-015  0.9000772E+02  0.7816164E-02  0.1186339E+00
        -11   -1    0    0    0    0  0.00000000000E+00  0.00000000000E+00  0.45593999997E+02  0.45594000000E+02  0.51100000000E-03 0. -1.
         11   -1    0    0    0    0 -0.00000000000E+00 -0.00000000000E+00 -0.45593999997E+02  0.45594000000E+02  0.51100000000E-03 0.  1.
    9900012    2    1    2    0    0 -0.75587888900E+00 -0.90648097485E+00 -0.12216667408E-02  0.90007719463E+02  0.89999980560E+02 0.  0.
         12    1    1    2    0    0  0.75587888900E+00  0.90648097485E+00  0.12216667409E-02  0.11802805366E+01  0.00000000000E+00 0. -1.
         11    1    3    3    0    0 -0.48469197015E+01  0.23916015133E+01 -0.80231963092E+01  0.96738858619E+01  0.51100000000E-03 0. -1.
        -11    1    3    3    0    0 -0.20071760628E+02 -0.51245131320E+00 -0.29460076514E+02  0.35651567842E+02  0.51100000000E-03 0.  1.
         12    1    3    3    0    0  0.24162801441E+02 -0.27856311750E+01  0.37482051157E+02  0.44682265760E+02  0.00000000000E+00 0. -1.
</event>
<event>
 7    1  0.2404951E-015  0.9000772E+02  0.7816164E-02  0.1186339E+00
        -11   -1    0    0    0    0  0.00000000000E+00  0.00000000000E+00  0.45593999997E+02  0.45594000000E+02  0.51100000000E-03 0. -1.
         11   -1    0    0    0    0 -0.00000000000E+00 -0.00000000000E+00 -0.45593999997E+02  0.45594000000E+02  0.51100000000E-03 0.  1.
    9900012    2    1    2    0    0 -0.79547970492E+00  0.45004980593E-01  0.87077379392E+00  0.90007720199E+02  0.89999981305E+02 0.  0.
         12    1    1    2    0    0  0.79547970492E+00 -0.45004980593E-01 -0.87077379392E+00  0.11802798013E+01  0.00000000000E+00 0. -1.
         11    1    3    3    0    0 -0.37619313162E+02 -0.25428811909E+01  0.59852651608E+01  0.38177249336E+02  0.51100000000E-03 0. -1.
        -11    1    3    3    0    0 -0.46527201802E+01  0.90545536904E+00  0.71208279082E+01  0.85541711966E+01  0.51100000000E-03 0.  1.
        -12    1    3    3    0    0  0.41476553637E+02  0.16824308024E+01 -0.12235319275E+02  0.43276299666E+02  0.00000000000E+00 0.  1.
</event>
<event>
 7    1  0.2404951E-015  0.9000791E+02  0.7816164E-02  0.1186339E+00
        -11   -1    0    0    0    0  0.00000000000E+00  0.00000000000E+00  0.45593999997E+02  0.45594000000E+02  0.51100000000E-03 0.  1.
         11   -1    0    0    0    0 -0.00000000000E+00 -0.00000000000E+00 -0.45593999997E+02  0.45594000000E+02  0.51100000000E-03 0. -1.
    9900012    2    1    2    0    0 -0.11259997251E+01 -0.34732987702E+00  0.64095709713E-01  0.90007906070E+02  0.90000169630E+02 0.  0.
         12    1    1    2    0    0  0.11259997251E+01  0.34732987702E+00 -0.64095709713E-01  0.11800939303E+01  0.00000000000E+00 0. -1.
         11    1    3    3    0    0 -0.38715904848E+01 -0.69169268905E+01 -0.67892057409E+01  0.10436781369E+02  0.51100000000E-03 0. -1.
        -11    1    3    3    0    0 -0.46111024155E+01 -0.31904025910E+02  0.20371981083E+02  0.38133276128E+02  0.51100000000E-03 0.  1.
         12    1    3    3    0    0  0.73566931752E+01  0.38473622924E+02 -0.13518679632E+02  0.41437848573E+02  0.00000000000E+00 0. -1.
</event>
<event>
 7    1  0.2404951E-015  0.9000769E+02  0.7816164E-02  0.1186339E+00
        -11   -1    0    0    0    0  0.00000000000E+00  0.00000000000E+00  0.45593999997E+02  0.45594000000E+02  0.51100000000E-03 0.  1.
         11   -1    0    0    0    0 -0.00000000000E+00 -0.00000000000E+00 -0.45593999997E+02  0.45594000000E+02  0.51100000000E-03 0. -1.
    9900012    2    1    2    0    0 -0.61853823871E+00  0.34480696473E-01  0.10046704297E+01  0.90007685998E+02  0.89999946653E+02 0.  0.
         12    1    1    2    0    0  0.61853823871E+00 -0.34480696473E-01 -0.10046704297E+01  0.11803140021E+01  0.00000000000E+00 0. -1.
         11    1    3    3    0    0 -0.24287882412E+02 -0.26029213207E+02 -0.20563451679E+02  0.41112975050E+02  0.51100000000E-03 0. -1.
        -11    1    3    3    0    0  0.80227942361E+01  0.18151021321E+01 -0.50356999019E+01  0.96445889942E+01  0.51100000000E-03 0.  1.
        -12    1    3    3    0    0  0.15646549937E+02  0.24248591772E+02  0.26603822010E+02  0.39250121954E+02  0.00000000000E+00 0.  1.
</event>
<event>
 7    1  0.2404951E-015  0.9000787E+02  0.7816164E-02  0.1186339E+00
        -11   -1    0    0    0    0  0.00000000000E+00  0.00000000000E+00  0.45593999997E+02  0.45594000000E+02  0.51100000000E-03 0.  1.
         11   -1    0    0    0    0 -0.00000000000E+00 -0.00000000000E+00 -0.45593999997E+02  0.45594000000E+02  0.51100000000E-03 0. -1.
    9900012    2    1    2    0    0  0.10079301375E+01 -0.12541275342E-02  0.61382081940E+00  0.90007872578E+02  0.90000135695E+02 0.  0.
         12    1    1    2    0    0 -0.10079301375E+01  0.12541275342E-02 -0.61382081940E+00  0.11801274224E+01  0.00000000000E+00 0. -1.
         11    1    3    3    0    0  0.28896369356E+02 -0.10831827154E+02 -0.24689226102E+02  0.39520710105E+02  0.51100000000E-03 0. -1.
        -11    1    3    3    0    0 -0.55565696754E+01 -0.77909392179E+01 -0.28798154725E+01  0.99933746988E+01  0.51100000000E-03 0.  1.
        -12    1    3    3    0    0 -0.22331869543E+02  0.18621512245E+02  0.28182862394E+02  0.40493787774E+02  0.00000000000E+00 0.  1.
</event>
<event>
 7    1  0.2404951E-015  0.9000769E+02  0.7816164E-02  0.1186339E+00
        -11   -1    0    0    0    0  0.00000000000E+00  0.00000000000E+00  0.45593999997E+02  0.45594000000E+02  0.51100000000E-03 0. -1.
         11   -1    0    0    0    0 -0.00000000000E+00 -0.00000000000E+00 -0.45593999997E+02  0.45594000000E+02  0.51100000000E-03 0.  1.
    9900012    2    1    2    0    0  0.12949386506E+00 -0.11697005504E+01 -0.90288156112E-01  0.90007694959E+02  0.89999955732E+02 0.  0.
         12    1    1    2    0    0 -0.12949386506E+00  0.11697005504E+01  0.90288156112E-01  0.11803050410E+01  0.00000000000E+00 0. -1.
         11    1    3    3    0    0 -0.24346021094E+01  0.33838214383E+02  0.13586065957E+02  0.36544948057E+02  0.51100000000E-03 0. -1.
        -11    1    3    3    0    0  0.37654757676E+01  0.63943475766E+01  0.39986636534E+01  0.84294602414E+01  0.51100000000E-03 0.  1.
        -12    1    3    3    0    0 -0.12013797931E+01 -0.41402262510E+02 -0.17675017766E+02  0.45033286660E+02  0.00000000000E+00 0.  1.
</event>
<event>
 7    1  0.2404951E-015  0.9000777E+02  0.7816164E-02  0.1186339E+00
        -11   -1    0    0    0    0  0.00000000000E+00  0.00000000000E+00  0.45593999997E+02  0.45594000000E+02  0.51100000000E-03 0.  1.
         11   -1    0    0    0    0 -0.00000000000E+00 -0.00000000000E+00 -0.45593999997E+02  0.45594000000E+02  0.51100000000E-03 0. -1.
    9900012    2    1    2    0    0  0.25338946953E+00  0.94357789566E+00 -0.66212241281E+00  0.90007766312E+02  0.90000028027E+02 0.  0.
         12    1    1    2    0    0 -0.25338946953E+00 -0.94357789566E+00  0.66212241281E+00  0.11802336879E+01  0.00000000000E+00 0. -1.
         11    1    3    3    0    0  0.28849155219E+02 -0.18776891679E+02 -0.10775437769E+02  0.36068760408E+02  0.51100000000E-03 0. -1.
        -11    1    3    3    0    0  0.48807641423E+01 -0.44198280916E+01 -0.66808503535E+01  0.93803251905E+01  0.51100000000E-03 0.  1.
        -12    1    3    3    0    0 -0.33476529892E+02  0.24140297667E+02  0.16794165709E+02  0.44558680714E+02  0.00000000000E+00 0.  1.
</event>
<event>
 7    1  0.2404951E-015  0.9000785E+02  0.7816164E-02  0.1186339E+00
        -11   -1    0    0    0    0  0.00000000000E+00  0.00000000000E+00  0.45593999997E+02  0.45594000000E+02  0.51100000000E-03 0. -1.
         11   -1    0    0    0    0 -0.00000000000E+00 -0.00000000000E+00 -0.45593999997E+02  0.45594000000E+02  0.51100000000E-03 0.  1.
    9900012    2    1    2    0    0 -0.37715364906E+00  0.98054112330E+00  0.53764121428E+00  0.90007845839E+02  0.90000108604E+02 0.  0.
         12    1    1    2    0    0  0.37715364906E+00 -0.98054112330E+00 -0.53764121428E+00  0.11801541614E+01  0.00000000000E+00 0. -1.
         11    1    3    3    0    0 -0.34949576626E+01  0.67657140419E+01 -0.56108333020E+01  0.94589146398E+01  0.51100000000E-03 0. -1.
        -11    1    3    3    0    0  0.21894066442E+02 -0.26596081557E+02 -0.21960629820E+02  0.40853041037E+02  0.51100000000E-03 0.  1.
         12    1    3    3    0    0 -0.18776262429E+02  0.20810908639E+02  0.28109104336E+02  0.39695890162E+02  0.00000000000E+00 0. -1.
</event>
<event>
 7    1  0.2404951E-015  0.9000772E+02  0.7816164E-02  0.1186339E+00
        -11   -1    0    0    0    0  0.00000000000E+00  0.00000000000E+00  0.45593999997E+02  0.45594000000E+02  0.51100000000E-03 0. -1.
         11   -1    0    0    0    0 -0.00000000000E+00 -0.00000000000E+00 -0.45593999997E+02  0.45594000000E+02  0.51100000000E-03 0.  1.
    9900012    2    1    2    0    0  0.11540302381E+01  0.11791811070E+00  0.21762924543E+00  0.90007723355E+02  0.89999984503E+02 0.  0.
         12    1    1    2    0    0 -0.11540302381E+01 -0.11791811070E+00 -0.21762924543E+00  0.11802766454E+01  0.00000000000E+00 0. -1.
         11    1    3    3    0    0  0.62649854185E+01  0.35728616303E+01  0.42140281906E+02  0.42752996877E+02  0.51100000000E-03 0. -1.
        -11    1    3    3    0    0  0.72632685874E+01 -0.10228245780E+01 -0.70573312666E+01  0.10178760512E+02  0.51100000000E-03 0.  1.
        -12    1    3    3    0    0 -0.12374223768E+02 -0.24321189416E+01 -0.34865321394E+02  0.37075965966E+02  0.00000000000E+00 0.  1.
</event>
<event>
 7    1  0.2404951E-015  0.9000777E+02  0.7816164E-02  0.1186339E+00
        -11   -1    0    0    0    0  0.00000000000E+00  0.00000000000E+00  0.45593999997E+02  0.45594000000E+02  0.51100000000E-03 0. -1.
         11   -1    0    0    0    0 -0.00000000000E+00 -0.00000000000E+00 -0.45593999997E+02  0.45594000000E+02  0.51100000000E-03 0.  1.
    9900012    2    1    2    0    0  0.93619040757E+00 -0.12939070363E+00 -0.70693037154E+00  0.90007769097E+02  0.90000030849E+02 0.  0.
         12    1    1    2    0    0 -0.93619040757E+00  0.12939070363E+00  0.70693037154E+00  0.11802309027E+01  0.00000000000E+00 0. -1.
         11    1    3    3    0    0 -0.16903281858E+01  0.61114175229E+01 -0.65955821335E+01  0.91492260578E+01  0.51100000000E-03 0. -1.
        -11    1    3    3    0    0 -0.25700616872E+02 -0.24090873635E+02  0.24160160712E+02  0.42715398465E+02  0.51100000000E-03 0.  1.
         12    1    3    3    0    0  0.28327135465E+02  0.17850065409E+02 -0.18271508950E+02  0.38143144575E+02  0.00000000000E+00 0. -1.
</event>
<event>
 7    1  0.2404951E-015  0.9000781E+02  0.7816164E-02  0.1186339E+00
        -11   -1    0    0    0    0  0.00000000000E+00  0.00000000000E+00  0.45593999997E+02  0.45594000000E+02  0.51100000000E-03 0.  1.
         11   -1    0    0    0    0 -0.00000000000E+00 -0.00000000000E+00 -0.45593999997E+02  0.45594000000E+02  0.51100000000E-03 0. -1.
    9900012    2    1    2    0    0  0.62090687090E+00  0.60314795620E+00  0.80220355961E+00  0.90007812155E+02  0.90000074475E+02 0.  0.
         12    1    1    2    0    0 -0.62090687090E+00 -0.60314795620E+00 -0.80220355961E+00  0.11801878454E+01  0.00000000000E+00 0. -1.
         11    1    3    3    0    0 -0.20209846102E+02  0.16218444147E+02 -0.23995110728E+02  0.35316301465E+02  0.51100000000E-03 0. -1.
        -11    1    3    3    0    0 -0.12014417007E+02 -0.94123464226E+00  0.23197039943E+01  0.12272455563E+02  0.51100000000E-03 0.  1.
        -12    1    3    3    0    0  0.32845169980E+02 -0.14674061549E+02  0.22477610294E+02  0.42419055127E+02  0.00000000000E+00 0.  1.
</event>
<event>
 7    1  0.2404951E-015  0.9000788E+02  0.7816164E-02  0.1186339E+00
        -11   -1    0    0    0    0  0.00000000000E+00  0.00000000000E+00  0.45593999997E+02  0.45594000000E+02  0.51100000000E-03 0. -1.
         11   -1    0    0    0    0 -0.00000000000E+00 -0.00000000000E+00 -0.45593999997E+02  0.45594000000E+02  0.51100000000E-03 0.  1.
    9900012    2    1    2    0    0 -0.51901466099E+00 -0.49152155124E+00 -0.93899917757E+00  0.90007877502E+02  0.90000140685E+02 0.  0.
         12    1    1    2    0    0  0.51901466099E+00  0.49152155124E+00  0.93899917757E+00  0.11801224975E+01  0.00000000000E+00 0. -1.
         11    1    3    3    0    0 -0.61001283688E+01  0.48758011094E+01 -0.37594601089E+01  0.86670954273E+01  0.51100000000E-03 0. -1.
        -11    1    3    3    0    0 -0.15010547217E+02  0.15640160191E+02 -0.30163315569E+02  0.37145076994E+02  0.51100000000E-03 0.  1.
         12    1    3    3    0    0  0.20591660925E+02 -0.21007482851E+02  0.32983776500E+02  0.44195705081E+02  0.00000000000E+00 0. -1.
</event>
<event>
 7    1  0.2483920E-015  0.9000779E+02  0.7816164E-02  0.1186339E+00
        -11   -1    0    0    0    0  0.00000000000E+00  0.00000000000E+00  0.45593999997E+02  0.45594000000E+02  0.51100000000E-03 0. -1.
         11   -1    0    0    0    0 -0.00000000000E+00 -0.00000000000E+00 -0.45593999997E+02  0.45594000000E+02  0.51100000000E-03 0.  1.
    9900012    2    1    2    0    0 -0.33748873084E+00 -0.21500013517E+00 -0.11102988628E+01  0.90007793549E+02  0.90000055624E+02 0.  0.
         12    1    1    2    0    0  0.33748873084E+00  0.21500013517E+00  0.11102988628E+01  0.11802064507E+01  0.00000000000E+00 0. -1.
         11    1    3    3    0    0 -0.99660806035E+01 -0.26113660096E+02  0.28527923128E+02  0.39938557866E+02  0.51100000000E-03 0. -1.
        -11    1    3    3    0    0 -0.43571354143E+01  0.84857635376E+01  0.34543472133E+01  0.10145212012E+02  0.51100000000E-03 0.  1.
        -12    1    3    3    0    0  0.13985727287E+02  0.17412896423E+02 -0.33092569204E+02  0.39924023671E+02  0.00000000000E+00 0.  1.
</event>
<event>
 7    1  0.2568440E-015  0.9000774E+02  0.7816164E-02  0.1186339E+00
        -11   -1    0    0    0    0  0.00000000000E+00  0.00000000000E+00  0.45593999997E+02  0.45594000000E+02  0.51100000000E-03 0.  1.
         11   -1    0    0    0    0 -0.00000000000E+00 -0.00000000000E+00 -0.45593999997E+02  0.45594000000E+02  0.51100000000E-03 0. -1.
    9900012    2    1    2    0    0 -0.18797025294E+00  0.11365786263E+01 -0.25664814860E+00  0.90007740680E+02  0.90000002057E+02 0.  0.
         12    1    1    2    0    0  0.18797025294E+00 -0.11365786263E+01  0.25664814860E+00  0.11802593198E+01  0.00000000000E+00 0. -1.
         11    1    3    3    0    0 -0.39671916695E+02  0.10879198372E+02 -0.11314268730E+02  0.42664160705E+02  0.51100000000E-03 0. -1.
        -11    1    3    3    0    0  0.54425193088E+01  0.55638643538E+01  0.56765705389E+01  0.96333304894E+01  0.51100000000E-03 0.  1.
        -12    1    3    3    0    0  0.34041427133E+02 -0.15306484099E+02  0.53810500429E+01  0.37710249486E+02  0.00000000000E+00 0.  1.
</event>
<event>
 7    1  0.2404951E-015  0.9000778E+02  0.7816164E-02  0.1186339E+00
        -11   -1    0    0    0    0  0.00000000000E+00  0.00000000000E+00  0.45593999997E+02  0.45594000000E+02  0.51100000000E-03 0. -1.
         11   -1    0    0    0    0 -0.00000000000E+00 -0.00000000000E+00 -0.45593999997E+02  0.45594000000E+02  0.51100000000E-03 0.  1.
    9900012    2    1    2    0    0  0.12414294886E+00 -0.97008117827E+00 -0.66063792621E+00  0.90007783311E+02  0.90000045250E+02 0.  0.
         12    1    1    2    0    0 -0.12414294886E+00  0.97008117827E+00  0.66063792621E+00  0.11802166893E+01  0.00000000000E+00 0. -1.
         11    1    3    3    0    0  0.57927150538E+01  0.58368104926E+01  0.67261352188E+01  0.10623784621E+02  0.51100000000E-03 0. -1.
        -11    1    3    3    0    0  0.21495150544E+02  0.61253161530E+01 -0.33010761227E+02  0.39865666330E+02  0.51100000000E-03 0.  1.
         12    1    3    3    0    0 -0.27163722649E+02 -0.12932207824E+02  0.25623988082E+02  0.39518332360E+02  0.00000000000E+00 0. -1.
</event>
<event>
 7    1  0.2404951E-015  0.9000770E+02  0.7816164E-02  0.1186339E+00
        -11   -1    0    0    0    0  0.00000000000E+00  0.00000000000E+00  0.45593999997E+02  0.45594000000E+02  0.51100000000E-03 0. -1.
         11   -1    0    0    0    0 -0.00000000000E+00 -0.00000000000E+00 -0.45593999997E+02  0.45594000000E+02  0.51100000000E-03 0.  1.
    9900012    2    1    2    0    0 -0.43024854759E+00  0.10512796440E+01 -0.32064516156E+00  0.90007696640E+02  0.89999957435E+02 0.  0.
         12    1    1    2    0    0  0.43024854759E+00 -0.10512796440E+01  0.32064516156E+00  0.11803033602E+01  0.00000000000E+00 0. -1.
         11    1    3    3    0    0 -0.26473674167E+02  0.34604801147E+01  0.14185378237E+02  0.30233347524E+02  0.51100000000E-03 0. -1.
        -11    1    3    3    0    0 -0.12239733975E+02 -0.91845238848E+01 -0.14228349961E+02  0.20895274816E+02  0.51100000000E-03 0.  1.
        -12    1    3    3    0    0  0.38283159594E+02  0.67753234142E+01 -0.27767343742E+00  0.38879074300E+02  0.00000000000E+00 0.  1.
</event>
<event>
 7    1  0.2404951E-015  0.9000762E+02  0.7816164E-02  0.1186339E+00
        -11   -1    0    0    0    0  0.00000000000E+00  0.00000000000E+00  0.45593999997E+02  0.45594000000E+02  0.51100000000E-03 0.  1.
         11   -1    0    0    0    0 -0.00000000000E+00 -0.00000000000E+00 -0.45593999997E+02  0.45594000000E+02  0.51100000000E-03 0. -1.
    9900012    2    1    2    0    0  0.65967619389E+00  0.97134076194E+00 -0.12095025389E+00  0.90007616791E+02  0.89999876532E+02 0.  0.
         12    1    1    2    0    0 -0.65967619389E+00 -0.97134076194E+00  0.12095025389E+00  0.11803832092E+01  0.00000000000E+00 0. -1.
         11    1    3    3    0    0 -0.95475050942E+01 -0.12109836290E+02 -0.37850255839E+02  0.40871076030E+02  0.51100000000E-03 0. -1.
        -11    1    3    3    0    0 -0.14050905756E+00 -0.64085789813E+01  0.12929718916E+01  0.65392204374E+01  0.51100000000E-03 0.  1.
        -12    1    3    3    0    0  0.10347690346E+02  0.19489756033E+02  0.36436333694E+02  0.42597320324E+02  0.00000000000E+00 0.  1.
</event>
<event>
 7    1  0.2404951E-015  0.9000773E+02  0.7816164E-02  0.1186339E+00
        -11   -1    0    0    0    0  0.00000000000E+00  0.00000000000E+00  0.45593999997E+02  0.45594000000E+02  0.51100000000E-03 0.  1.
         11   -1    0    0    0    0 -0.00000000000E+00 -0.00000000000E+00 -0.45593999997E+02  0.45594000000E+02  0.51100000000E-03 0. -1.
    9900012    2    1    2    0    0  0.11195409829E+01 -0.55872250794E-01  0.36951059028E+00  0.90007732320E+02  0.89999993586E+02 0.  0.
         12    1    1    2    0    0 -0.11195409829E+01  0.55872250794E-01 -0.36951059028E+00  0.11802676803E+01  0.00000000000E+00 0. -1.
         11    1    3    3    0    0  0.56934378641E+01 -0.26872316804E+01  0.66211079045E+01  0.91364938002E+01  0.51100000000E-03 0. -1.
        -11    1    3    3    0    0  0.22175923030E+02  0.47497763194E+00  0.29035607405E+02  0.36538523008E+02  0.51100000000E-03 0.  1.
         12    1    3    3    0    0 -0.26749819912E+02  0.21563817977E+01 -0.35287204719E+02  0.44332715511E+02  0.00000000000E+00 0. -1.
</event>
<event>
 7    1  0.2404951E-015  0.9000774E+02  0.7816164E-02  0.1186339E+00
        -11   -1    0    0    0    0  0.00000000000E+00  0.00000000000E+00  0.45593999997E+02  0.45594000000E+02  0.51100000000E-03 0. -1.
         11   -1    0    0    0    0 -0.00000000000E+00 -0.00000000000E+00 -0.45593999997E+02  0.45594000000E+02  0.51100000000E-03 0.  1.
    9900012    2    1    2    0    0  0.14619186505E+00  0.10987464933E+01  0.40547283888E+00  0.90007735563E+02  0.89999996872E+02 0.  0.
         12    1    1    2    0    0 -0.14619186505E+00 -0.10987464933E+01 -0.40547283888E+00  0.11802644369E+01  0.00000000000E+00 0. -1.
         11    1    3    3    0    0 -0.21456900348E+02 -0.35686794969E+02  0.49111354791E+01  0.41929287612E+02  0.51100000000E-03 0. -1.
        -11    1    3    3    0    0  0.27423710789E+01  0.44070423009E+01 -0.89482710784E+01  0.10344765659E+02  0.51100000000E-03 0.  1.
        -12    1    3    3    0    0  0.18860721134E+02  0.32378499161E+02  0.44426084382E+01  0.37733682293E+02  0.00000000000E+00 0.  1.
</event>
<event>
 7    1  0.2404951E-015  0.9000769E+02  0.7816164E-02  0.1186339E+00
        -11   -1    0    0    0    0  0.00000000000E+00  0.00000000000E+00  0.45593999997E+02  0.45594000000E+02  0.51100000000E-03 0. -1.
         11   -1    0    0    0    0 -0.00000000000E+00 -0.00000000000E+00 -0.45593999997E+02  0.45594000000E+02  0.51100000000E-03 0.  1.
    9900012    2    1    2    0    0  0.48610361553E+00  0.68742353994E+00 -0.82722034271E+00  0.90007685913E+02  0.89999946567E+02 0.  0.
         12    1    1    2    0    0 -0.48610361553E+00 -0.68742353994E+00  0.82722034271E+00  0.11803140869E+01  0.00000000000E+00 0. -1.
         11    1    3    3    0    0 -0.11278800737E+01 -0.12388243326E+01 -0.86228109349E+01  0.87840575970E+01  0.51100000000E-03 0. -1.
        -11    1    3    3    0    0 -0.28713809257E+02 -0.23149862580E+02 -0.97300123889E+01  0.38145407598E+02  0.51100000000E-03 0.  1.
         12    1    3    3    0    0  0.30327792946E+02  0.25076110452E+02  0.17525602981E+02  0.43078220718E+02  0.00000000000E+00 0. -1.
</event>
<event>
 7    1  0.2404951E-015  0.9000779E+02  0.7816164E-02  0.1186339E+00
        -11   -1    0    0    0    0  0.00000000000E+00  0.00000000000E+00  0.45593999997E+02  0.45594000000E+02  0.51100000000E-03 0.  1.
         11   -1    0    0    0    0 -0.00000000000E+00 -0.00000000000E+00 -0.45593999997E+02  0.45594000000E+02  0.51100000000E-03 0. -1.
    9900012    2    1    2    0    0  0.58540443881E+00 -0.10166024961E+01 -0.12926921349E+00  0.90007792594E+02  0.90000054656E+02 0.  0.
         12    1    1    2    0    0 -0.58540443881E+00  0.10166024961E+01  0.12926921349E+00  0.11802074062E+01  0.00000000000E+00 0. -1.
         11    1    3    3    0    0  0.59296117861E+01 -0.15538797515E+00  0.92832367487E+01  0.11016484292E+02  0.51100000000E-03 0. -1.
        -11    1    3    3    0    0  0.24857241747E+01  0.30935859236E+02  0.18354524171E+02  0.36056826943E+02  0.51100000000E-03 0.  1.
         12    1    3    3    0    0 -0.78299315219E+01 -0.31797073757E+02 -0.27767030133E+02  0.42934481359E+02  0.00000000000E+00 0. -1.
</event>
<event>
 7    1  0.2404951E-015  0.9000806E+02  0.7816164E-02  0.1186338E+00
        -11   -1    0    0    0    0  0.00000000000E+00  0.00000000000E+00  0.45593999997E+02  0.45594000000E+02  0.51100000000E-03 0.  1.
         11   -1    0    0    0    0 -0.00000000000E+00 -0.00000000000E+00 -0.45593999997E+02  0.45594000000E+02  0.51100000000E-03 0. -1.
    9900012    2    1    2    0    0 -0.30063761162E+00  0.10256573956E+00  0.11363763886E+01  0.90008061866E+02  0.90000327482E+02 0.  0.
         12    1    1    2    0    0  0.30063761162E+00 -0.10256573956E+00 -0.11363763886E+01  0.11799381344E+01  0.00000000000E+00 0. -1.
         11    1    3    3    0    0 -0.62518825935E+01 -0.17094219891E+01 -0.58989176616E+01  0.87638684004E+01  0.51100000000E-03 0. -1.
        -11    1    3    3    0    0 -0.37013324724E+02 -0.19081964190E+01  0.87627101470E+01  0.38084281667E+02  0.51100000000E-03 0.  1.
         12    1    3    3    0    0  0.42964569706E+02  0.37201841477E+01 -0.17274160969E+01  0.43159911799E+02  0.00000000000E+00 0. -1.
</event>
<event>
 7    1  0.2404951E-015  0.9000782E+02  0.7816164E-02  0.1186339E+00
        -11   -1    0    0    0    0  0.00000000000E+00  0.00000000000E+00  0.45593999997E+02  0.45594000000E+02  0.51100000000E-03 0. -1.
         11   -1    0    0    0    0 -0.00000000000E+00 -0.00000000000E+00 -0.45593999997E+02  0.45594000000E+02  0.51100000000E-03 0.  1.
    9900012    2    1    2    0    0 -0.11397320050E+01  0.52932933853E-01 -0.30170165614E+00  0.90007824238E+02  0.90000086718E+02 0.  0.
         12    1    1    2    0    0  0.11397320050E+01 -0.52932933853E-01  0.30170165614E+00  0.11801757615E+01  0.00000000000E+00 0. -1.
         11    1    3    3    0    0 -0.31766600528E+01 -0.83688165206E+00  0.54501535288E+01  0.63636242613E+01  0.51100000000E-03 0. -1.
        -11    1    3    3    0    0 -0.35803275092E+02  0.19869423479E+02 -0.54627963200E+01  0.41309933922E+02  0.51100000000E-03 0.  1.
         12    1    3    3    0    0  0.37840203140E+02 -0.18979608893E+02 -0.28905886489E+00  0.42334266055E+02  0.00000000000E+00 0. -1.
</event>
<event>
 7    1  0.2404951E-015  0.9000742E+02  0.7816164E-02  0.1186340E+00
        -11   -1    0    0    0    0  0.00000000000E+00  0.00000000000E+00  0.45593999997E+02  0.45594000000E+02  0.51100000000E-03 0. -1.
         11   -1    0    0    0    0 -0.00000000000E+00 -0.00000000000E+00 -0.45593999997E+02  0.45594000000E+02  0.51100000000E-03 0.  1.
    9900012    2    1    2    0    0  0.58470371710E+00  0.81314310053E+00  0.62504783519E+00  0.90007421779E+02  0.89999678946E+02 0.  0.
         12    1    1    2    0    0 -0.58470371710E+00 -0.81314310053E+00 -0.62504783519E+00  0.11805782206E+01  0.00000000000E+00 0. -1.
         11    1    3    3    0    0  0.24598464743E+01  0.16445776852E+01  0.94971330597E+01  0.99474125809E+01  0.51100000000E-03 0. -1.
        -11    1    3    3    0    0 -0.25666168724E+02 -0.10879766092E+02  0.25014008510E+02  0.37454267436E+02  0.51100000000E-03 0.  1.
         12    1    3    3    0    0  0.23791025966E+02  0.10048331507E+02 -0.33886093734E+02  0.42605741763E+02  0.00000000000E+00 0. -1.
</event>
<event>
 7    1  0.2404951E-015  0.9000774E+02  0.7816164E-02  0.1186339E+00
        -11   -1    0    0    0    0  0.00000000000E+00  0.00000000000E+00  0.45593999997E+02  0.45594000000E+02  0.51100000000E-03 0. -1.
         11   -1    0    0    0    0 -0.00000000000E+00 -0.00000000000E+00 -0.45593999997E+02  0.45594000000E+02  0.51100000000E-03 0.  1.
    9900012    2    1    2    0    0 -0.68962960477E+00  0.68409027343E+00 -0.67040177687E+00  0.90007742809E+02  0.90000004214E+02 0.  0.
         12    1    1    2    0    0  0.68962960477E+00 -0.68409027343E+00  0.67040177687E+00  0.11802571908E+01  0.00000000000E+00 0. -1.
         11    1    3    3    0    0 -0.95749637593E+00 -0.88031366972E+01  0.44283974792E+01  0.99006423789E+01  0.51100000000E-03 0. -1.
        -11    1    3    3    0    0  0.24761462584E+02 -0.26591699544E+02 -0.25862976861E+01  0.36427152646E+02  0.51100000000E-03 0.  1.
         12    1    3    3    0    0 -0.24493595812E+02  0.36078926515E+02 -0.25125015700E+01  0.43679947784E+02  0.00000000000E+00 0. -1.
</event>
<event>
 7    1  0.2404951E-015  0.9000782E+02  0.7816164E-02  0.1186339E+00
        -11   -1    0    0    0    0  0.00000000000E+00  0.00000000000E+00  0.45593999997E+02  0.45594000000E+02  0.51100000000E-03 0.  1.
         11   -1    0    0    0    0 -0.00000000000E+00 -0.00000000000E+00 -0.45593999997E+02  0.45594000000E+02  0.51100000000E-03 0. -1.
    9900012    2    1    2    0    0 -0.84885714395E+00 -0.70243339563E+00  0.42289751765E+00  0.90007824828E+02  0.90000087316E+02 0.  0.
         12    1    1    2    0    0  0.84885714395E+00  0.70243339563E+00 -0.42289751765E+00  0.11801751720E+01  0.00000000000E+00 0. -1.
         11    1    3    3    0    0  0.72963212675E+01  0.33303100943E+01 -0.52161658422E+01  0.95674268076E+01  0.51100000000E-03 0. -1.
        -11    1    3    3    0    0 -0.12413493950E+02  0.36537173691E+02  0.86144843946E+01  0.39538199694E+02  0.51100000000E-03 0.  1.
         12    1    3    3    0    0  0.42683155386E+01 -0.40569917181E+02 -0.29754210347E+01  0.40902198327E+02  0.00000000000E+00 0. -1.
</event>
<event>
 7    1  0.2404951E-015  0.9000772E+02  0.7816164E-02  0.1186339E+00
        -11   -1    0    0    0    0  0.00000000000E+00  0.00000000000E+00  0.45593999997E+02  0.45594000000E+02  0.51100000000E-03 0. -1.
         11   -1    0    0    0    0 -0.00000000000E+00 -0.00000000000E+00 -0.45593999997E+02  0.45594000000E+02  0.51100000000E-03 0.  1.
    9900012    2    1    2    0    0 -0.45343801829E+00  0.39485810715E+00 -0.10156461544E+01  0.90007722036E+02  0.89999983167E+02 0.  0.
         12    1    1    2    0    0  0.45343801829E+00 -0.39485810715E+00  0.10156461544E+01  0.11802779639E+01  0.00000000000E+00 0. -1.
         11    1    3    3    0    0 -0.77022454033E+01 -0.94865310095E+00 -0.46503027020E+01  0.90470902747E+01  0.51100000000E-03 0. -1.
        -11    1    3    3    0    0  0.33797740232E+02 -0.10436158967E+02 -0.22472287195E+02  0.41907091892E+02  0.51100000000E-03 0.  1.
         12    1    3    3    0    0 -0.26548932847E+02  0.11779670175E+02  0.26106943743E+02  0.39053539870E+02  0.00000000000E+00 0. -1.
</event>
<event>
 7    1  0.2404951E-015  0.9000772E+02  0.7816164E-02  0.1186339E+00
        -11   -1    0    0    0    0  0.00000000000E+00  0.00000000000E+00  0.45593999997E+02  0.45594000000E+02  0.51100000000E-03 0.  1.
         11   -1    0    0    0    0 -0.00000000000E+00 -0.00000000000E+00 -0.45593999997E+02  0.45594000000E+02  0.51100000000E-03 0. -1.
    9900012    2    1    2    0    0  0.87543616407E+00 -0.76848651951E+00  0.18998344601E+00  0.90007723033E+02  0.89999984177E+02 0.  0.
         12    1    1    2    0    0 -0.87543616407E+00  0.76848651951E+00 -0.18998344601E+00  0.11802769666E+01  0.00000000000E+00 0. -1.
         11    1    3    3    0    0  0.18635865680E+02  0.15043861170E+02 -0.29975301178E+02  0.38368371474E+02  0.51100000000E-03 0. -1.
        -11    1    3    3    0    0 -0.54874280434E+01 -0.38710729433E+01 -0.76189124422E+01  0.10156027734E+02  0.51100000000E-03 0.  1.
        -12    1    3    3    0    0 -0.12273001473E+02 -0.11941274746E+02  0.37784197066E+02  0.41483323826E+02  0.00000000000E+00 0.  1.
</event>
<event>
 7    1  0.3594487E-015  0.9000783E+02  0.7816164E-02  0.1186339E+00
        -11   -1    0    0    0    0  0.00000000000E+00  0.00000000000E+00  0.45593999997E+02  0.45594000000E+02  0.51100000000E-03 0. -1.
         11   -1    0    0    0    0 -0.00000000000E+00 -0.00000000000E+00 -0.45593999997E+02  0.45594000000E+02  0.51100000000E-03 0.  1.
    9900012    2    1    2    0    0 -0.81198005448E+00  0.43127409686E+00 -0.73993062262E+00  0.90007827859E+02  0.90000090387E+02 0.  0.
         12    1    1    2    0    0  0.81198005448E+00 -0.43127409686E+00  0.73993062262E+00  0.11801721407E+01  0.00000000000E+00 0. -1.
         11    1    3    3    0    0 -0.16410564850E+02 -0.71278263531E+01  0.30618340127E+02  0.35462590142E+02  0.51100000000E-03 0. -1.
        -11    1    3    3    0    0  0.33151652148E+00 -0.34674173936E+01  0.91948827842E+01  0.98325355967E+01  0.51100000000E-03 0.  1.
        -12    1    3    3    0    0  0.15267068274E+02  0.11026517843E+02 -0.40553153533E+02  0.44712702121E+02  0.00000000000E+00 0.  1.
</event>
<event>
 7    1  0.2404951E-015  0.9000781E+02  0.7816164E-02  0.1186339E+00
        -11   -1    0    0    0    0  0.00000000000E+00  0.00000000000E+00  0.45593999997E+02  0.45594000000E+02  0.51100000000E-03 0.  1.
         11   -1    0    0    0    0 -0.00000000000E+00 -0.00000000000E+00 -0.45593999997E+02  0.45594000000E+02  0.51100000000E-03 0. -1.
    9900012    2    1    2    0    0  0.36327329029E+00 -0.11033231159E+01 -0.20870077221E+00  0.90007811289E+02  0.90000073598E+02 0.  0.
         12    1    1    2    0    0 -0.36327329029E+00  0.11033231159E+01  0.20870077221E+00  0.11801887111E+01  0.00000000000E+00 0. -1.
         11    1    3    3    0    0 -0.44244340786E+01 -0.71061651536E+01  0.59372358207E+01  0.10262746687E+02  0.51100000000E-03 0. -1.
        -11    1    3    3    0    0  0.70518853855E+01 -0.34436732868E+02  0.93588640729E+01  0.36375898547E+02  0.51100000000E-03 0.  1.
         12    1    3    3    0    0 -0.22641780167E+01  0.40439574906E+02 -0.15504800666E+02  0.43369166055E+02  0.00000000000E+00 0. -1.
</event>
<event>
 7    1  0.2404951E-015  0.9000788E+02  0.7816164E-02  0.1186339E+00
        -11   -1    0    0    0    0  0.00000000000E+00  0.00000000000E+00  0.45593999997E+02  0.45594000000E+02  0.51100000000E-03 0. -1.
         11   -1    0    0    0    0 -0.00000000000E+00 -0.00000000000E+00 -0.45593999997E+02  0.45594000000E+02  0.51100000000E-03 0.  1.
    9900012    2    1    2    0    0 -0.91607177908E+00 -0.41735396454E+00 -0.61587659232E+00  0.90007883136E+02  0.90000146393E+02 0.  0.
         12    1    1    2    0    0  0.91607177908E+00  0.41735396454E+00  0.61587659232E+00  0.11801168642E+01  0.00000000000E+00 0. -1.
         11    1    3    3    0    0 -0.31537314974E+02 -0.28197888173E+02  0.32794672787E+01  0.42432040242E+02  0.51100000000E-03 0. -1.
        -11    1    3    3    0    0  0.17882386027E+01 -0.53588673902E+00 -0.68073348649E+01  0.70586670216E+01  0.51100000000E-03 0.  1.
        -12    1    3    3    0    0  0.28833004593E+02  0.28316420947E+02  0.29119909939E+01  0.40517175872E+02  0.00000000000E+00 0.  1.
</event>
<event>
 7    1  0.2404951E-015  0.9000775E+02  0.7816164E-02  0.1186339E+00
        -11   -1    0    0    0    0  0.00000000000E+00  0.00000000000E+00  0.45593999997E+02  0.45594000000E+02  0.51100000000E-03 0.  1.
         11   -1    0    0    0    0 -0.00000000000E+00 -0.00000000000E+00 -0.45593999997E+02  0.45594000000E+02  0.51100000000E-03 0. -1.
    9900012    2    1    2    0    0  0.43755871573E+00 -0.59255685307E+00  0.92217147438E+00  0.90007753635E+02  0.90000015183E+02 0.  0.
         12    1    1    2    0    0 -0.43755871573E+00  0.59255685307E+00 -0.92217147438E+00  0.11802463650E+01  0.00000000000E+00 0. -1.
         11    1    3    3    0    0  0.50953766695E+00 -0.36228256640E+01  0.35725237603E+01  0.51134548697E+01  0.51100000000E-03 0. -1.
        -11    1    3    3    0    0 -0.20276092485E+02 -0.29625243888E+02  0.19201233188E+02  0.40711943678E+02  0.51100000000E-03 0.  1.
         12    1    3    3    0    0  0.20204113534E+02  0.32655512699E+02 -0.21851585474E+02  0.44182355087E+02  0.00000000000E+00 0. -1.
</event>
<event>
 7    1  0.2404951E-015  0.9000779E+02  0.7816164E-02  0.1186339E+00
        -11   -1    0    0    0    0  0.00000000000E+00  0.00000000000E+00  0.45593999997E+02  0.45594000000E+02  0.51100000000E-03 0.  1.
         11   -1    0    0    0    0 -0.00000000000E+00 -0.00000000000E+00 -0.45593999997E+02  0.45594000000E+02  0.51100000000E-03 0. -1.
    9900012    2    1    2    0    0 -0.42830967636E+00 -0.95344146034E+00  0.54807762097E+00  0.90007792867E+02  0.90000054933E+02 0.  0.
         12    1    1    2    0    0  0.42830967636E+00  0.95344146034E+00 -0.54807762097E+00  0.11802071326E+01  0.00000000000E+00 0. -1.
         11    1    3    3    0    0  0.37411334948E+00  0.84623489278E+01 -0.69786346122E+01  0.10975092322E+02  0.51100000000E-03 0. -1.
        -11    1    3    3    0    0  0.36213019630E+02  0.49545155959E+01 -0.60930704624E+01  0.37054763843E+02  0.51100000000E-03 0.  1.
         12    1    3    3    0    0 -0.37015442656E+02 -0.14370305984E+02  0.13619782696E+02  0.41977936702E+02  0.00000000000E+00 0. -1.
</event>
<event>
 7    1  0.2404951E-015  0.9000774E+02  0.7816164E-02  0.1186339E+00
        -11   -1    0    0    0    0  0.00000000000E+00  0.00000000000E+00  0.45593999997E+02  0.45594000000E+02  0.51100000000E-03 0.  1.
         11   -1    0    0    0    0 -0.00000000000E+00 -0.00000000000E+00 -0.45593999997E+02  0.45594000000E+02  0.51100000000E-03 0. -1.
    9900012    2    1    2    0    0 -0.97081537071E+00 -0.44807440265E+00 -0.49975689788E+00  0.90007741507E+02  0.90000002894E+02 0.  0.
         12    1    1    2    0    0  0.97081537071E+00  0.44807440265E+00  0.49975689788E+00  0.11802584934E+01  0.00000000000E+00 0. -1.
         11    1    3    3    0    0 -0.17409568090E+01  0.12196062013E+02 -0.93947262422E+00  0.12355463096E+02  0.51100000000E-03 0. -1.
        -11    1    3    3    0    0  0.27313326452E+02  0.20642255476E+02 -0.54694741557E+01  0.34670385934E+02  0.51100000000E-03 0.  1.
         12    1    3    3    0    0 -0.26543185013E+02 -0.33286391892E+02  0.59091898821E+01  0.42981892477E+02  0.00000000000E+00 0. -1.
</event>
<event>
 7    1  0.2404951E-015  0.9000772E+02  0.7816164E-02  0.1186339E+00
        -11   -1    0    0    0    0  0.00000000000E+00  0.00000000000E+00  0.45593999997E+02  0.45594000000E+02  0.51100000000E-03 0. -1.
         11   -1    0    0    0    0 -0.00000000000E+00 -0.00000000000E+00 -0.45593999997E+02  0.45594000000E+02  0.51100000000E-03 0.  1.
    9900012    2    1    2    0    0  0.23057902291E+00 -0.90088930043E+00 -0.72683601303E+00  0.90007720877E+02  0.89999981993E+02 0.  0.
         12    1    1    2    0    0 -0.23057902291E+00  0.90088930043E+00  0.72683601303E+00  0.11802791226E+01  0.00000000000E+00 0. -1.
         11    1    3    3    0    0  0.35854459906E+02  0.17671918537E+01 -0.68694555549E+01  0.36549345851E+02  0.51100000000E-03 0. -1.
        -11    1    3    3    0    0  0.20055939173E+01  0.98773951021E+01 -0.63012039561E+01  0.11886568576E+02  0.51100000000E-03 0.  1.
        -12    1    3    3    0    0 -0.37629474801E+02 -0.12545476256E+02  0.12443823498E+02  0.41571806450E+02  0.00000000000E+00 0.  1.
</event>
<event>
 7    1  0.2404951E-015  0.9000774E+02  0.7816164E-02  0.1186339E+00
        -11   -1    0    0    0    0  0.00000000000E+00  0.00000000000E+00  0.45593999997E+02  0.45594000000E+02  0.51100000000E-03 0. -1.
         11   -1    0    0    0    0 -0.00000000000E+00 -0.00000000000E+00 -0.45593999997E+02  0.45594000000E+02  0.51100000000E-03 0.  1.
    9900012    2    1    2    0    0 -0.69601131734E-01  0.81453532648E+00  0.85129163894E+00  0.90007741736E+02  0.90000003127E+02 0.  0.
         12    1    1    2    0    0  0.69601131734E-01 -0.81453532648E+00 -0.85129163894E+00  0.11802582642E+01  0.00000000000E+00 0. -1.
         11    1    3    3    0    0 -0.76490399713E+01  0.34548486021E+02 -0.37673374856E+01  0.35585088602E+02  0.51100000000E-03 0. -1.
        -11    1    3    3    0    0  0.79132255764E+01  0.81142323193E+01 -0.33553172687E+01  0.11820239396E+02  0.51100000000E-03 0.  1.
        -12    1    3    3    0    0 -0.33378673685E+00 -0.41848183014E+02  0.79739463932E+01  0.42602413737E+02  0.00000000000E+00 0.  1.
</event>
<event>
 7    1  0.2404951E-015  0.9000793E+02  0.7816164E-02  0.1186339E+00
        -11   -1    0    0    0    0  0.00000000000E+00  0.00000000000E+00  0.45593999997E+02  0.45594000000E+02  0.51100000000E-03 0. -1.
         11   -1    0    0    0    0 -0.00000000000E+00 -0.00000000000E+00 -0.45593999997E+02  0.45594000000E+02  0.51100000000E-03 0.  1.
    9900012    2    1    2    0    0 -0.11324632136E+01  0.17217722919E+00 -0.28364366028E+00  0.90007927267E+02  0.90000191107E+02 0.  0.
         12    1    1    2    0    0  0.11324632136E+01 -0.17217722919E+00  0.28364366028E+00  0.11800727326E+01  0.00000000000E+00 0. -1.
         11    1    3    3    0    0 -0.40002569199E+01  0.93531831654E+01  0.20834626063E+01  0.10383877284E+02  0.51100000000E-03 0. -1.
        -11    1    3    3    0    0 -0.87417453537E+01  0.27632043524E+02  0.19811168846E+02  0.35105987416E+02  0.51100000000E-03 0.  1.
         12    1    3    3    0    0  0.11609539060E+02 -0.36813049461E+02 -0.22178275113E+02  0.44518062567E+02  0.00000000000E+00 0. -1.
</event>
<event>
 7    1  0.2404951E-015  0.9000776E+02  0.7816164E-02  0.1186339E+00
        -11   -1    0    0    0    0  0.00000000000E+00  0.00000000000E+00  0.45593999997E+02  0.45594000000E+02  0.51100000000E-03 0.  1.
         11   -1    0    0    0    0 -0.00000000000E+00 -0.00000000000E+00 -0.45593999997E+02  0.45594000000E+02  0.51100000000E-03 0. -1.
    9900012    2    1    2    0    0 -0.24621757268E+00  0.32146840072E+00  0.11086056442E+01  0.90007757864E+02  0.90000019468E+02 0.  0.
         12    1    1    2    0    0  0.24621757268E+00 -0.32146840072E+00 -0.11086056442E+01  0.11802421362E+01  0.00000000000E+00 0. -1.
         11    1    3    3    0    0  0.32637431651E+02  0.21405148505E+01 -0.37383232057E+01  0.32920492239E+02  0.51100000000E-03 0. -1.
        -11    1    3    3    0    0  0.11160357456E+02  0.41215325048E+01 -0.21716125836E+01  0.12093655783E+02  0.51100000000E-03 0.  1.
        -12    1    3    3    0    0 -0.44044006680E+02 -0.59405789546E+01  0.70185414335E+01  0.44993609841E+02  0.00000000000E+00 0.  1.
</event>
<event>
 7    1  0.2404951E-015  0.9000771E+02  0.7816164E-02  0.1186339E+00
        -11   -1    0    0    0    0  0.00000000000E+00  0.00000000000E+00  0.45593999997E+02  0.45594000000E+02  0.51100000000E-03 0. -1.
         11   -1    0    0    0    0 -0.00000000000E+00 -0.00000000000E+00 -0.45593999997E+02  0.45594000000E+02  0.51100000000E-03 0.  1.
    9900012    2    1    2    0    0  0.10007538829E+01 -0.61464365279E+00  0.11742186808E+00  0.90007710608E+02  0.89999971588E+02 0.  0.
         12    1    1    2    0    0 -0.10007538829E+01  0.61464365279E+00 -0.11742186808E+00  0.11802893921E+01  0.00000000000E+00 0. -1.
         11    1    3    3    0    0 -0.95099982458E+01  0.35029923881E+01 -0.24717135871E+01  0.10431701233E+02  0.51100000000E-03 0. -1.
        -11    1    3    3    0    0 -0.22074784037E+02 -0.73030171762E+01 -0.26869532671E+02  0.35533110424E+02  0.51100000000E-03 0.  1.
         12    1    3    3    0    0  0.32585536166E+02  0.31853811354E+01  0.29458668127E+02  0.44042898951E+02  0.00000000000E+00 0. -1.
</event>
<event>
 7    1  0.2404951E-015  0.9000768E+02  0.7816164E-02  0.1186339E+00
        -11   -1    0    0    0    0  0.00000000000E+00  0.00000000000E+00  0.45593999997E+02  0.45594000000E+02  0.51100000000E-03 0. -1.
         11   -1    0    0    0    0 -0.00000000000E+00 -0.00000000000E+00 -0.45593999997E+02  0.45594000000E+02  0.51100000000E-03 0.  1.
    9900012    2    1    2    0    0 -0.11776506907E+01  0.65243042315E-01 -0.45099400048E-01  0.90007681501E+02  0.89999942097E+02 0.  0.
         12    1    1    2    0    0  0.11776506907E+01 -0.65243042315E-01  0.45099400048E-01  0.11803184992E+01  0.00000000000E+00 0. -1.
         11    1    3    3    0    0 -0.55739814442E+01  0.29241992650E+01  0.11146073456E+02  0.12800592339E+02  0.51100000000E-03 0. -1.
        -11    1    3    3    0    0 -0.32732988925E+02 -0.16720853608E+02 -0.57106618363E+01  0.37197408084E+02  0.51100000000E-03 0.  1.
         12    1    3    3    0    0  0.37129319678E+02  0.13861897385E+02 -0.54805110197E+01  0.40009681078E+02  0.00000000000E+00 0. -1.
</event>
<event>
 7    1  0.2404951E-015  0.9000768E+02  0.7816164E-02  0.1186339E+00
        -11   -1    0    0    0    0  0.00000000000E+00  0.00000000000E+00  0.45593999997E+02  0.45594000000E+02  0.51100000000E-03 0.  1.
         11   -1    0    0    0    0 -0.00000000000E+00 -0.00000000000E+00 -0.45593999997E+02  0.45594000000E+02  0.51100000000E-03 0. -1.
    9900012    2    1    2    0    0 -0.56166883383E+00  0.42027402206E+00  0.94923334896E+00  0.90007683905E+02  0.89999944533E+02 0.  0.
         12    1    1    2    0    0  0.56166883383E+00 -0.42027402206E+00 -0.94923334896E+00  0.11803160946E+01  0.00000000000E+00 0. -1.
         11    1    3    3    0    0  0.19958873112E+02  0.59653165801E+01 -0.32297527439E+02  0.38432693072E+02  0.51100000000E-03 0. -1.
        -11    1    3    3    0    0  0.16460697307E+01  0.92377688301E+01  0.55308626284E+00  0.93995650534E+01  0.51100000000E-03 0.  1.
        -12    1    3    3    0    0 -0.22166611677E+02 -0.14782811388E+02  0.32693674525E+02  0.42175425780E+02  0.00000000000E+00 0.  1.
</event>
<event>
 7    1  0.2404951E-015  0.9000768E+02  0.7816164E-02  0.1186339E+00
        -11   -1    0    0    0    0  0.00000000000E+00  0.00000000000E+00  0.45593999997E+02  0.45594000000E+02  0.51100000000E-03 0. -1.
         11   -1    0    0    0    0 -0.00000000000E+00 -0.00000000000E+00 -0.45593999997E+02  0.45594000000E+02  0.51100000000E-03 0.  1.
    9900012    2    1    2    0    0 -0.33783900796E+00 -0.10834253348E+01 -0.32437762486E+00  0.90007675259E+02  0.89999935772E+02 0.  0.
         12    1    1    2    0    0  0.33783900796E+00  0.10834253348E+01  0.32437762486E+00  0.11803247412E+01  0.00000000000E+00 0. -1.
         11    1    3    3    0    0 -0.22354422453E+02 -0.27357918992E+02 -0.25092622069E+01  0.35418530910E+02  0.51100000000E-03 0. -1.
        -11    1    3    3    0    0 -0.36253557696E+01 -0.94882956758E+01  0.29498118594E+01  0.10576972608E+02  0.51100000000E-03 0.  1.
        -12    1    3    3    0    0  0.25641939215E+02  0.35762789333E+02 -0.76492727739E+00  0.44012171740E+02  0.00000000000E+00 0.  1.
</event>
<event>
 7    1  0.2404951E-015  0.9000774E+02  0.7816164E-02  0.1186339E+00
        -11   -1    0    0    0    0  0.00000000000E+00  0.00000000000E+00  0.45593999997E+02  0.45594000000E+02  0.51100000000E-03 0. -1.
         11   -1    0    0    0    0 -0.00000000000E+00 -0.00000000000E+00 -0.45593999997E+02  0.45594000000E+02  0.51100000000E-03 0.  1.
    9900012    2    1    2    0    0 -0.36963202637E+00  0.10655621464E+01 -0.34779984312E+00  0.90007739328E+02  0.90000000687E+02 0.  0.
         12    1    1    2    0    0  0.36963202637E+00 -0.10655621464E+01  0.34779984312E+00  0.11802606719E+01  0.00000000000E+00 0. -1.
         11    1    3    3    0    0  0.45941757733E+01  0.26978047290E+01 -0.13296232608E+02  0.14323910193E+02  0.51100000000E-03 0. -1.
        -11    1    3    3    0    0  0.72912437955E+01  0.37317776485E+01 -0.29792682285E+02  0.30898095710E+02  0.51100000000E-03 0.  1.
         12    1    3    3    0    0 -0.12255051595E+02 -0.53640202311E+01  0.42741115050E+02  0.44785733425E+02  0.00000000000E+00 0. -1.
</event>
<event>
 7    1  0.2404951E-015  0.9000775E+02  0.7816164E-02  0.1186339E+00
        -11   -1    0    0    0    0  0.00000000000E+00  0.00000000000E+00  0.45593999997E+02  0.45594000000E+02  0.51100000000E-03 0. -1.
         11   -1    0    0    0    0 -0.00000000000E+00 -0.00000000000E+00 -0.45593999997E+02  0.45594000000E+02  0.51100000000E-03 0.  1.
    9900012    2    1    2    0    0  0.79799467675E-01 -0.11645945856E+01  0.17415870681E+00  0.90007754365E+02  0.90000015923E+02 0.  0.
         12    1    1    2    0    0 -0.79799467675E-01  0.11645945856E+01 -0.17415870681E+00  0.11802456351E+01  0.00000000000E+00 0. -1.
         11    1    3    3    0    0  0.11671137089E+02 -0.24585768990E+02  0.30409836209E+02  0.40809724531E+02  0.51100000000E-03 0. -1.
        -11    1    3    3    0    0 -0.91609511734E+01 -0.24143147543E+00  0.17572471430E+01  0.93310896117E+01  0.51100000000E-03 0.  1.
        -12    1    3    3    0    0 -0.24303864480E+01  0.23662605880E+02 -0.31992924645E+02  0.39866940222E+02  0.00000000000E+00 0.  1.
</event>
<event>
 7    1  0.2404951E-015  0.9000775E+02  0.7816164E-02  0.1186339E+00
        -11   -1    0    0    0    0  0.00000000000E+00  0.00000000000E+00  0.45593999997E+02  0.45594000000E+02  0.51100000000E-03 0.  1.
         11   -1    0    0    0    0 -0.00000000000E+00 -0.00000000000E+00 -0.45593999997E+02  0.45594000000E+02  0.51100000000E-03 0. -1.
    9900012    2    1    2    0    0  0.11064117666E+01 -0.16480937373E+00  0.37639939666E+00  0.90007751877E+02  0.90000013401E+02 0.  0.
         12    1    1    2    0    0 -0.11064117666E+01  0.16480937373E+00 -0.37639939666E+00  0.11802481234E+01  0.00000000000E+00 0. -1.
         11    1    3    3    0    0 -0.24462551759E+02  0.15978411822E+02 -0.16952988877E+02  0.33780614486E+02  0.51100000000E-03 0. -1.
        -11    1    3    3    0    0 -0.10618242308E+02  0.47140504061E+01  0.52426666993E+01  0.12745779510E+02  0.51100000000E-03 0.  1.
        -12    1    3    3    0    0  0.36187205834E+02 -0.20857271602E+02  0.12086721574E+02  0.43481357880E+02  0.00000000000E+00 0.  1.
</event>
<event>
 7    1  0.2404951E-015  0.9000757E+02  0.7816164E-02  0.1186339E+00
        -11   -1    0    0    0    0  0.00000000000E+00  0.00000000000E+00  0.45593999997E+02  0.45594000000E+02  0.51100000000E-03 0.  1.
         11   -1    0    0    0    0 -0.00000000000E+00 -0.00000000000E+00 -0.45593999997E+02  0.45594000000E+02  0.51100000000E-03 0. -1.
    9900012    2    1    2    0    0  0.10287350226E+01  0.71944522223E-01 -0.57441663662E+00  0.90007565235E+02  0.89999824296E+02 0.  0.
         12    1    1    2    0    0 -0.10287350226E+01 -0.71944522223E-01  0.57441663662E+00  0.11804347646E+01  0.00000000000E+00 0. -1.
         11    1    3    3    0    0  0.74551439496E+01 -0.45483954143E+00 -0.78654965100E+01  0.10846754626E+02  0.51100000000E-03 0. -1.
        -11    1    3    3    0    0 -0.55830308558E+01  0.14787955723E+02  0.40248043338E+02  0.43240708375E+02  0.51100000000E-03 0.  1.
         12    1    3    3    0    0 -0.84337807123E+00 -0.14261171659E+02 -0.32956963465E+02  0.35920102234E+02  0.00000000000E+00 0. -1.
</event>
<event>
 7    1  0.2404951E-015  0.9000766E+02  0.7816164E-02  0.1186339E+00
        -11   -1    0    0    0    0  0.00000000000E+00  0.00000000000E+00  0.45593999997E+02  0.45594000000E+02  0.51100000000E-03 0. -1.
         11   -1    0    0    0    0 -0.00000000000E+00 -0.00000000000E+00 -0.45593999997E+02  0.45594000000E+02  0.51100000000E-03 0.  1.
    9900012    2    1    2    0    0  0.79306730808E+00  0.19030676084E+00 -0.85324301857E+00  0.90007662732E+02  0.89999923080E+02 0.  0.
         12    1    1    2    0    0 -0.79306730808E+00 -0.19030676084E+00  0.85324301857E+00  0.11803372684E+01  0.00000000000E+00 0. -1.
         11    1    3    3    0    0 -0.30112905611E+01  0.25502833086E+02  0.29865374871E+02  0.39387853238E+02  0.51100000000E-03 0. -1.
        -11    1    3    3    0    0 -0.71539049493E+01 -0.35103096589E+01  0.34080067968E+01  0.86668991291E+01  0.51100000000E-03 0.  1.
        -12    1    3    3    0    0  0.10958262818E+02 -0.21802216666E+02 -0.34126624686E+02  0.41952910364E+02  0.00000000000E+00 0.  1.
</event>
<event>
 7    1  0.2404951E-015  0.9000771E+02  0.7816164E-02  0.1186339E+00
        -11   -1    0    0    0    0  0.00000000000E+00  0.00000000000E+00  0.45593999997E+02  0.45594000000E+02  0.51100000000E-03 0.  1.
         11   -1    0    0    0    0 -0.00000000000E+00 -0.00000000000E+00 -0.45593999997E+02  0.45594000000E+02  0.51100000000E-03 0. -1.
    9900012    2    1    2    0    0  0.45723581422E+00 -0.61902255718E+00  0.89488961653E+00  0.90007711501E+02  0.89999972492E+02 0.  0.
         12    1    1    2    0    0 -0.45723581422E+00  0.61902255718E+00 -0.89488961653E+00  0.11802884994E+01  0.00000000000E+00 0. -1.
         11    1    3    3    0    0 -0.22705290795E+02 -0.15276836781E+02 -0.21264107250E+02  0.34656517850E+02  0.51100000000E-03 0. -1.
        -11    1    3    3    0    0 -0.27582530237E+01 -0.44531737156E+01 -0.90814134582E+01  0.10483834534E+02  0.51100000000E-03 0.  1.
        -12    1    3    3    0    0  0.25920779632E+02  0.19110987939E+02  0.31240410325E+02  0.44867359116E+02  0.00000000000E+00 0.  1.
</event>
<event>
 7    1  0.2404951E-015  0.9000780E+02  0.7816164E-02  0.1186339E+00
        -11   -1    0    0    0    0  0.00000000000E+00  0.00000000000E+00  0.45593999997E+02  0.45594000000E+02  0.51100000000E-03 0. -1.
         11   -1    0    0    0    0 -0.00000000000E+00 -0.00000000000E+00 -0.45593999997E+02  0.45594000000E+02  0.51100000000E-03 0.  1.
    9900012    2    1    2    0    0  0.60591764386E+00  0.10103634388E+01  0.69988042751E-01  0.90007801374E+02  0.90000063553E+02 0.  0.
         12    1    1    2    0    0 -0.60591764386E+00 -0.10103634388E+01 -0.69988042751E-01  0.11801986255E+01  0.00000000000E+00 0. -1.
         11    1    3    3    0    0  0.37378413005E+01  0.30179475222E+02  0.23060002691E+02  0.38164589696E+02  0.51100000000E-03 0. -1.
        -11    1    3    3    0    0  0.33084284048E+01  0.57762320997E+01  0.35011796077E+01  0.75212242810E+01  0.51100000000E-03 0.  1.
        -12    1    3    3    0    0 -0.64403520615E+01 -0.34945343883E+02 -0.26491194255E+02  0.44321987398E+02  0.00000000000E+00 0.  1.
</event>
<event>
 7    1  0.2404951E-015  0.9000769E+02  0.7816164E-02  0.1186339E+00
        -11   -1    0    0    0    0  0.00000000000E+00  0.00000000000E+00  0.45593999997E+02  0.45594000000E+02  0.51100000000E-03 0. -1.
         11   -1    0    0    0    0 -0.00000000000E+00 -0.00000000000E+00 -0.45593999997E+02  0.45594000000E+02  0.51100000000E-03 0.  1.
    9900012    2    1    2    0    0 -0.95144850827E+00  0.69421288694E+00 -0.77137518152E-01  0.90007688180E+02  0.89999948864E+02 0.  0.
         12    1    1    2    0    0  0.95144850827E+00 -0.69421288694E+00  0.77137518152E-01  0.11803118202E+01  0.00000000000E+00 0. -1.
         11    1    3    3    0    0  0.97223734365E+01  0.26011120503E+02  0.32096826277E+02  0.42441833047E+02  0.51100000000E-03 0. -1.
        -11    1    3    3    0    0  0.36746201121E+01  0.30067915862E+00 -0.10333510108E+02  0.10971539196E+02  0.51100000000E-03 0.  1.
        -12    1    3    3    0    0 -0.14348442057E+02 -0.25617586774E+02 -0.21840453687E+02  0.36594315937E+02  0.00000000000E+00 0.  1.
</event>
<event>
 7    1  0.2404951E-015  0.9000777E+02  0.7816164E-02  0.1186339E+00
        -11   -1    0    0    0    0  0.00000000000E+00  0.00000000000E+00  0.45593999997E+02  0.45594000000E+02  0.51100000000E-03 0. -1.
         11   -1    0    0    0    0 -0.00000000000E+00 -0.00000000000E+00 -0.45593999997E+02  0.45594000000E+02  0.51100000000E-03 0.  1.
    9900012    2    1    2    0    0 -0.97513487284E-01 -0.10766122258E+01  0.47365787381E+00  0.90007765046E+02  0.90000026745E+02 0.  0.
         12    1    1    2    0    0  0.97513487284E-01  0.10766122258E+01 -0.47365787381E+00  0.11802349538E+01  0.00000000000E+00 0. -1.
         11    1    3    3    0    0  0.30699965614E+02 -0.28413434079E+02 -0.89981394553E+01  0.42787587438E+02  0.51100000000E-03 0. -1.
        -11    1    3    3    0    0 -0.40811257649E+01  0.13092400745E+01 -0.55480931972E+01  0.70107799471E+01  0.51100000000E-03 0.  1.
        -12    1    3    3    0    0 -0.26716353336E+02  0.26027581779E+02  0.15019890526E+02  0.40209397661E+02  0.00000000000E+00 0.  1.
</event>
<event>
 7    1  0.2404951E-015  0.9000769E+02  0.7816164E-02  0.1186339E+00
        -11   -1    0    0    0    0  0.00000000000E+00  0.00000000000E+00  0.45593999997E+02  0.45594000000E+02  0.51100000000E-03 0. -1.
         11   -1    0    0    0    0 -0.00000000000E+00 -0.00000000000E+00 -0.45593999997E+02  0.45594000000E+02  0.51100000000E-03 0.  1.
    9900012    2    1    2    0    0 -0.57966110621E+00 -0.24217457993E+00 -0.99923675665E+00  0.90007690879E+02  0.89999951599E+02 0.  0.
         12    1    1    2    0    0  0.57966110621E+00  0.24217457993E+00  0.99923675665E+00  0.11803091210E+01  0.00000000000E+00 0. -1.
         11    1    3    3    0    0 -0.23481629110E+02  0.10275578090E+01  0.77026127329E+01  0.24734045846E+02  0.51100000000E-03 0. -1.
        -11    1    3    3    0    0  0.44301973104E+01  0.58716570822E+01  0.25068139475E+02  0.26124980806E+02  0.51100000000E-03 0.  1.
        -12    1    3    3    0    0  0.18471770694E+02 -0.71413894711E+01 -0.33769988964E+02  0.39148664228E+02  0.00000000000E+00 0.  1.
</event>
<event>
 7    1  0.2404951E-015  0.9000774E+02  0.7816164E-02  0.1186339E+00
        -11   -1    0    0    0    0  0.00000000000E+00  0.00000000000E+00  0.45593999997E+02  0.45594000000E+02  0.51100000000E-03 0.  1.
         11   -1    0    0    0    0 -0.00000000000E+00 -0.00000000000E+00 -0.45593999997E+02  0.45594000000E+02  0.51100000000E-03 0. -1.
    9900012    2    1    2    0    0  0.10180753459E+01 -0.72967454965E-01  0.59263288902E+00  0.90007739266E+02  0.90000000624E+02 0.  0.
         12    1    1    2    0    0 -0.10180753459E+01  0.72967454965E-01 -0.59263288902E+00  0.11802607342E+01  0.00000000000E+00 0. -1.
         11    1    3    3    0    0  0.43446705053E+02 -0.11665088810E+02  0.51572045337E+00  0.44988403447E+02  0.51100000000E-03 0. -1.
        -11    1    3    3    0    0 -0.83043592537E+01  0.63813353560E+01 -0.63420903612E+00  0.10492189710E+02  0.51100000000E-03 0.  1.
        -12    1    3    3    0    0 -0.34124270453E+02  0.52107859991E+01  0.71112147177E+00  0.34527146109E+02  0.00000000000E+00 0.  1.
</event>
<event>
 7    1  0.2404951E-015  0.9000778E+02  0.7816164E-02  0.1186339E+00
        -11   -1    0    0    0    0  0.00000000000E+00  0.00000000000E+00  0.45593999997E+02  0.45594000000E+02  0.51100000000E-03 0.  1.
         11   -1    0    0    0    0 -0.00000000000E+00 -0.00000000000E+00 -0.45593999997E+02  0.45594000000E+02  0.51100000000E-03 0. -1.
    9900012    2    1    2    0    0 -0.38790062306E+00 -0.81620438273E-02 -0.11146234429E+01  0.90007780134E+02  0.90000042032E+02 0.  0.
         12    1    1    2    0    0  0.38790062306E+00  0.81620438273E-02  0.11146234429E+01  0.11802198658E+01  0.00000000000E+00 0. -1.
         11    1    3    3    0    0 -0.39695844789E+01  0.34352370509E+01  0.57012747151E+01  0.77500314947E+01  0.51100000000E-03 0. -1.
        -11    1    3    3    0    0 -0.59368301267E+01 -0.25004789885E+02  0.29399168587E+02  0.39048643805E+02  0.51100000000E-03 0.  1.
         12    1    3    3    0    0  0.95185139826E+01  0.21561390790E+02 -0.36215066745E+02  0.43209104834E+02  0.00000000000E+00 0. -1.
</event>
<event>
 7    1  0.2404951E-015  0.9000763E+02  0.7816164E-02  0.1186339E+00
        -11   -1    0    0    0    0  0.00000000000E+00  0.00000000000E+00  0.45593999997E+02  0.45594000000E+02  0.51100000000E-03 0. -1.
         11   -1    0    0    0    0 -0.00000000000E+00 -0.00000000000E+00 -0.45593999997E+02  0.45594000000E+02  0.51100000000E-03 0.  1.
    9900012    2    1    2    0    0 -0.71809697134E-01 -0.29746192479E+00 -0.11400175285E+01  0.90007627095E+02  0.89999886973E+02 0.  0.
         12    1    1    2    0    0  0.71809697134E-01  0.29746192479E+00  0.11400175285E+01  0.11803729049E+01  0.00000000000E+00 0. -1.
         11    1    3    3    0    0  0.10356602328E+01 -0.58140649488E+01 -0.67593165164E+01  0.89757619942E+01  0.51100000000E-03 0. -1.
        -11    1    3    3    0    0  0.28757063840E+02 -0.10252113443E+02 -0.21813536040E+02  0.37522058919E+02  0.51100000000E-03 0.  1.
         12    1    3    3    0    0 -0.29864533770E+02  0.15768716467E+02  0.27432835028E+02  0.43509806182E+02  0.00000000000E+00 0. -1.
</event>
<event>
 7    1  0.2404951E-015  0.9000787E+02  0.7816164E-02  0.1186339E+00
        -11   -1    0    0    0    0  0.00000000000E+00  0.00000000000E+00  0.45593999997E+02  0.45594000000E+02  0.51100000000E-03 0. -1.
         11   -1    0    0    0    0 -0.00000000000E+00 -0.00000000000E+00 -0.45593999997E+02  0.45594000000E+02  0.51100000000E-03 0.  1.
    9900012    2    1    2    0    0 -0.24288958165E+00  0.95382372177E+00 -0.65110643149E+00  0.90007866691E+02  0.90000129732E+02 0.  0.
         12    1    1    2    0    0  0.24288958165E+00 -0.95382372177E+00  0.65110643149E+00  0.11801333087E+01  0.00000000000E+00 0. -1.
         11    1    3    3    0    0  0.12718997338E+01  0.14475073565E+01 -0.10005437657E+02  0.10189297790E+02  0.51100000000E-03 0. -1.
        -11    1    3    3    0    0 -0.33429059483E+02 -0.13251050199E+01 -0.17810052682E+02  0.37900605510E+02  0.51100000000E-03 0.  1.
         12    1    3    3    0    0  0.31914270168E+02  0.83142138513E+00  0.27164383907E+02  0.41917963392E+02  0.00000000000E+00 0. -1.
</event>
<event>
 7    1  0.2404951E-015  0.9000777E+02  0.7816164E-02  0.1186339E+00
        -11   -1    0    0    0    0  0.00000000000E+00  0.00000000000E+00  0.45593999997E+02  0.45594000000E+02  0.51100000000E-03 0.  1.
         11   -1    0    0    0    0 -0.00000000000E+00 -0.00000000000E+00 -0.45593999997E+02  0.45594000000E+02  0.51100000000E-03 0. -1.
    9900012    2    1    2    0    0 -0.15049872076E+00 -0.99473063824E+00  0.61709074328E+00  0.90007771254E+02  0.90000033034E+02 0.  0.
         12    1    1    2    0    0  0.15049872076E+00  0.99473063824E+00 -0.61709074328E+00  0.11802287461E+01  0.00000000000E+00 0. -1.
         11    1    3    3    0    0  0.56840264077E+01 -0.84088345656E+01 -0.33047782906E+01  0.10674184501E+02  0.51100000000E-03 0. -1.
        -11    1    3    3    0    0 -0.21951787980E+02 -0.26729948943E+02  0.18056074059E+02  0.39017854588E+02  0.51100000000E-03 0.  1.
         12    1    3    3    0    0  0.16117262851E+02  0.34144052871E+02 -0.14134205025E+02  0.40315732164E+02  0.00000000000E+00 0. -1.
</event>
<event>
 7    1  0.2404951E-015  0.9000771E+02  0.7816164E-02  0.1186339E+00
        -11   -1    0    0    0    0  0.00000000000E+00  0.00000000000E+00  0.45593999997E+02  0.45594000000E+02  0.51100000000E-03 0. -1.
         11   -1    0    0    0    0 -0.00000000000E+00 -0.00000000000E+00 -0.45593999997E+02  0.45594000000E+02  0.51100000000E-03 0.  1.
    9900012    2    1    2    0    0  0.12994830659E-01  0.11363961722E+00 -0.11747382006E+01  0.90007706533E+02  0.89999967459E+02 0.  0.
         12    1    1    2    0    0 -0.12994830659E-01 -0.11363961722E+00  0.11747382006E+01  0.11802934670E+01  0.00000000000E+00 0. -1.
         11    1    3    3    0    0  0.83709871988E+01 -0.26480837296E+01 -0.20171860323E+01  0.90085966650E+01  0.51100000000E-03 0. -1.
        -11    1    3    3    0    0  0.59385785681E+01 -0.36618890038E+02  0.93301034078E+01  0.38252590146E+02  0.51100000000E-03 0.  1.
         12    1    3    3    0    0 -0.14296570936E+02  0.39380613385E+02 -0.84876555761E+01  0.42746519722E+02  0.00000000000E+00 0. -1.
</event>
<event>
 7    1  0.2404951E-015  0.9000845E+02  0.7816164E-02  0.1186338E+00
        -11   -1    0    0    0    0  0.00000000000E+00  0.00000000000E+00  0.45593999997E+02  0.45594000000E+02  0.51100000000E-03 0.  1.
         11   -1    0    0    0    0 -0.00000000000E+00 -0.00000000000E+00 -0.45593999997E+02  0.45594000000E+02  0.51100000000E-03 0. -1.
    9900012    2    1    2    0    0 -0.72144697342E+00  0.56349055556E+00  0.74385427925E+00  0.90008454948E+02  0.90000725750E+02 0.  0.
         12    1    1    2    0    0  0.72144697342E+00 -0.56349055556E+00 -0.74385427925E+00  0.11795450523E+01  0.00000000000E+00 0. -1.
         11    1    3    3    0    0 -0.73831487852E+01  0.62837768166E+01  0.38517557153E+01  0.10432294063E+02  0.51100000000E-03 0. -1.
        -11    1    3    3    0    0 -0.20351643487E+01  0.33984072888E+02 -0.15034401663E+02  0.37216828688E+02  0.51100000000E-03 0.  1.
         12    1    3    3    0    0  0.86968661605E+01 -0.39704359149E+02  0.11926500227E+02  0.42359332196E+02  0.00000000000E+00 0. -1.
</event>
<event>
 7    1  0.2404951E-015  0.9000774E+02  0.7816164E-02  0.1186339E+00
        -11   -1    0    0    0    0  0.00000000000E+00  0.00000000000E+00  0.45593999997E+02  0.45594000000E+02  0.51100000000E-03 0.  1.
         11   -1    0    0    0    0 -0.00000000000E+00 -0.00000000000E+00 -0.45593999997E+02  0.45594000000E+02  0.51100000000E-03 0. -1.
    9900012    2    1    2    0    0 -0.45589944890E+00 -0.81683985381E+00  0.71967705754E+00  0.90007742943E+02  0.90000004349E+02 0.  0.
         12    1    1    2    0    0  0.45589944890E+00  0.81683985381E+00 -0.71967705754E+00  0.11802570574E+01  0.00000000000E+00 0. -1.
         11    1    3    3    0    0 -0.12135450050E+02 -0.31500447130E+02 -0.14060478055E+02  0.36568351901E+02  0.51100000000E-03 0. -1.
        -11    1    3    3    0    0 -0.45988833252E+01 -0.76556362711E+01 -0.80536573129E+00  0.89670011027E+01  0.51100000000E-03 0.  1.
        -12    1    3    3    0    0  0.16278433926E+02  0.38339243548E+02  0.15585520844E+02  0.44472389939E+02  0.00000000000E+00 0.  1.
</event>
<event>
 7    1  0.2404951E-015  0.9000773E+02  0.7816164E-02  0.1186339E+00
        -11   -1    0    0    0    0  0.00000000000E+00  0.00000000000E+00  0.45593999997E+02  0.45594000000E+02  0.51100000000E-03 0.  1.
         11   -1    0    0    0    0 -0.00000000000E+00 -0.00000000000E+00 -0.45593999997E+02  0.45594000000E+02  0.51100000000E-03 0. -1.
    9900012    2    1    2    0    0 -0.73233934078E+00 -0.92483047847E+00  0.37579676141E-01  0.90007726915E+02  0.89999988110E+02 0.  0.
         12    1    1    2    0    0  0.73233934078E+00  0.92483047847E+00 -0.37579676141E-01  0.11802730854E+01  0.00000000000E+00 0. -1.
         11    1    3    3    0    0 -0.17743260332E+02 -0.10007508227E+02 -0.34730292284E+02  0.40263714564E+02  0.51100000000E-03 0. -1.
        -11    1    3    3    0    0  0.32041885762E+01  0.73051155812E+01 -0.37304897097E+01  0.88061394392E+01  0.51100000000E-03 0.  1.
        -12    1    3    3    0    0  0.13806732415E+02  0.17775621673E+01  0.38498361670E+02  0.40937872911E+02  0.00000000000E+00 0.  1.
</event>
<event>
 7    1  0.2404951E-015  0.9000771E+02  0.7816164E-02  0.1186339E+00
        -11   -1    0    0    0    0  0.00000000000E+00  0.00000000000E+00  0.45593999997E+02  0.45594000000E+02  0.51100000000E-03 0. -1.
         11   -1    0    0    0    0 -0.00000000000E+00 -0.00000000000E+00 -0.45593999997E+02  0.45594000000E+02  0.51100000000E-03 0.  1.
    9900012    2    1    2    0    0 -0.56661763685E+00  0.77672041249E+00  0.68463592859E+00  0.90007713382E+02  0.89999974399E+02 0.  0.
         12    1    1    2    0    0  0.56661763685E+00 -0.77672041249E+00 -0.68463592859E+00  0.11802866179E+01  0.00000000000E+00 0. -1.
         11    1    3    3    0    0 -0.61746722171E+01  0.20664337534E+02  0.33527678409E+02  0.39865356420E+02  0.51100000000E-03 0. -1.
        -11    1    3    3    0    0  0.14016570208E+02 -0.59879905152E+01 -0.21199471011E+01  0.15388776650E+02  0.51100000000E-03 0.  1.
        -12    1    3    3    0    0 -0.84085156282E+01 -0.13899626607E+02 -0.30723095379E+02  0.34753580312E+02  0.00000000000E+00 0.  1.
</event>
<event>
 7    1  0.2404951E-015  0.9000774E+02  0.7816164E-02  0.1186339E+00
        -11   -1    0    0    0    0  0.00000000000E+00  0.00000000000E+00  0.45593999997E+02  0.45594000000E+02  0.51100000000E-03 0. -1.
         11   -1    0    0    0    0 -0.00000000000E+00 -0.00000000000E+00 -0.45593999997E+02  0.45594000000E+02  0.51100000000E-03 0.  1.
    9900012    2    1    2    0    0 -0.58998647811E+00 -0.44974920033E+00 -0.91796258901E+00  0.90007739985E+02  0.90000001353E+02 0.  0.
         12    1    1    2    0    0  0.58998647811E+00  0.44974920033E+00  0.91796258901E+00  0.11802600147E+01  0.00000000000E+00 0. -1.
         11    1    3    3    0    0 -0.23724267294E+01  0.84389714473E+01  0.23743066520E+01  0.90819590405E+01  0.51100000000E-03 0. -1.
        -11    1    3    3    0    0  0.29930450715E+02  0.52761397376E+01 -0.27658078055E+02  0.41093050660E+02  0.51100000000E-03 0.  1.
         12    1    3    3    0    0 -0.28148010464E+02 -0.14164860385E+02  0.24365808814E+02  0.39832730285E+02  0.00000000000E+00 0. -1.
</event>
<event>
 7    1  0.2404951E-015  0.9000781E+02  0.7816164E-02  0.1186339E+00
        -11   -1    0    0    0    0  0.00000000000E+00  0.00000000000E+00  0.45593999997E+02  0.45594000000E+02  0.51100000000E-03 0.  1.
         11   -1    0    0    0    0 -0.00000000000E+00 -0.00000000000E+00 -0.45593999997E+02  0.45594000000E+02  0.51100000000E-03 0. -1.
    9900012    2    1    2    0    0  0.48804165743E+00 -0.10521356161E+01 -0.21832918824E+00  0.90007812876E+02  0.90000075206E+02 0.  0.
         12    1    1    2    0    0 -0.48804165743E+00  0.10521356161E+01  0.21832918824E+00  0.11801871243E+01  0.00000000000E+00 0. -1.
         11    1    3    3    0    0 -0.33242148805E+02 -0.71085492560E+01  0.84064854579E+01  0.35017723052E+02  0.51100000000E-03 0. -1.
        -11    1    3    3    0    0 -0.77731131818E+01 -0.15479613963E+00  0.67508148999E+01  0.10296540800E+02  0.51100000000E-03 0.  1.
        -12    1    3    3    0    0  0.41503303645E+02  0.62112097796E+01 -0.15375629546E+02  0.44693549023E+02  0.00000000000E+00 0.  1.
</event>
<event>
 7    1  0.2404951E-015  0.9000825E+02  0.7816164E-02  0.1186338E+00
        -11   -1    0    0    0    0  0.00000000000E+00  0.00000000000E+00  0.45593999997E+02  0.45594000000E+02  0.51100000000E-03 0.  1.
         11   -1    0    0    0    0 -0.00000000000E+00 -0.00000000000E+00 -0.45593999997E+02  0.45594000000E+02  0.51100000000E-03 0. -1.
    9900012    2    1    2    0    0 -0.42588384756E+00  0.10421795851E+01  0.35254997902E+00  0.90008251371E+02  0.90000519488E+02 0.  0.
         12    1    1    2    0    0  0.42588384756E+00 -0.10421795851E+01 -0.35254997902E+00  0.11797486287E+01  0.00000000000E+00 0. -1.
         11    1    3    3    0    0  0.24197298122E+02 -0.21374114237E+02 -0.19025427136E+02  0.37474376230E+02  0.51100000000E-03 0. -1.
        -11    1    3    3    0    0 -0.19944277294E+01 -0.93711252123E+01  0.18475357311E+01  0.97575159878E+01  0.51100000000E-03 0.  1.
        -12    1    3    3    0    0 -0.22628754240E+02  0.31787419035E+02  0.17530441384E+02  0.42776359154E+02  0.00000000000E+00 0.  1.
</event>
<event>
 7    1  0.2404951E-015  0.9000774E+02  0.7816164E-02  0.1186339E+00
        -11   -1    0    0    0    0  0.00000000000E+00  0.00000000000E+00  0.45593999997E+02  0.45594000000E+02  0.51100000000E-03 0. -1.
         11   -1    0    0    0    0 -0.00000000000E+00 -0.00000000000E+00 -0.45593999997E+02  0.45594000000E+02  0.51100000000E-03 0.  1.
    9900012    2    1    2    0    0 -0.63657890355E+00  0.32686743333E+00 -0.93858412325E+00  0.90007739361E+02  0.90000000721E+02 0.  0.
         12    1    1    2    0    0  0.63657890355E+00 -0.32686743333E+00  0.93858412325E+00  0.11802606389E+01  0.00000000000E+00 0. -1.
         11    1    3    3    0    0 -0.21125820126E+02 -0.30055343351E+02 -0.19470125037E+01  0.36788786306E+02  0.51100000000E-03 0. -1.
        -11    1    3    3    0    0  0.37437397496E+01 -0.93416389945E+01 -0.57994821223E+00  0.10080582652E+02  0.51100000000E-03 0.  1.
        -12    1    3    3    0    0  0.16745501473E+02  0.39723849778E+02  0.15883765926E+01  0.43138370403E+02  0.00000000000E+00 0.  1.
</event>
<event>
 7    1  0.2404951E-015  0.9000778E+02  0.7816164E-02  0.1186339E+00
        -11   -1    0    0    0    0  0.00000000000E+00  0.00000000000E+00  0.45593999997E+02  0.45594000000E+02  0.51100000000E-03 0. -1.
         11   -1    0    0    0    0 -0.00000000000E+00 -0.00000000000E+00 -0.45593999997E+02  0.45594000000E+02  0.51100000000E-03 0.  1.
    9900012    2    1    2    0    0  0.95451739721E+00  0.12332293606E-01 -0.69401924181E+00  0.90007780421E+02  0.90000042322E+02 0.  0.
         12    1    1    2    0    0 -0.95451739721E+00 -0.12332293606E-01  0.69401924181E+00  0.11802195792E+01  0.00000000000E+00 0. -1.
         11    1    3    3    0    0 -0.70546665209E+00 -0.80394186022E+01  0.24762593015E+01  0.84416701575E+01  0.51100000000E-03 0. -1.
        -11    1    3    3    0    0  0.34175561766E+02 -0.18575833063E+02 -0.63758425859E+01  0.39416772635E+02  0.51100000000E-03 0.  1.
         12    1    3    3    0    0 -0.32515577716E+02  0.26627583959E+02  0.32055640426E+01  0.42149337629E+02  0.00000000000E+00 0. -1.
</event>
<event>
 7    1  0.2404951E-015  0.9000774E+02  0.7816164E-02  0.1186339E+00
        -11   -1    0    0    0    0  0.00000000000E+00  0.00000000000E+00  0.45593999997E+02  0.45594000000E+02  0.51100000000E-03 0.  1.
         11   -1    0    0    0    0 -0.00000000000E+00 -0.00000000000E+00 -0.45593999997E+02  0.45594000000E+02  0.51100000000E-03 0. -1.
    9900012    2    1    2    0    0  0.74437450550E+00  0.52363962885E-01  0.91443092485E+00  0.90007737612E+02  0.89999998948E+02 0.  0.
         12    1    1    2    0    0 -0.74437450550E+00 -0.52363962885E-01 -0.91443092485E+00  0.11802623884E+01  0.00000000000E+00 0. -1.
         11    1    3    3    0    0 -0.16555162270E+02 -0.16740112685E+02 -0.27145309317E+02  0.35932890069E+02  0.51100000000E-03 0. -1.
        -11    1    3    3    0    0 -0.15618978241E+00 -0.12175989003E+02  0.51297075714E+01  0.13213364578E+02  0.51100000000E-03 0.  1.
        -12    1    3    3    0    0  0.17455726558E+02  0.28968465651E+02  0.22930032670E+02  0.40861482965E+02  0.00000000000E+00 0.  1.
</event>
<event>
 7    1  0.2404951E-015  0.9000773E+02  0.7816164E-02  0.1186339E+00
        -11   -1    0    0    0    0  0.00000000000E+00  0.00000000000E+00  0.45593999997E+02  0.45594000000E+02  0.51100000000E-03 0. -1.
         11   -1    0    0    0    0 -0.00000000000E+00 -0.00000000000E+00 -0.45593999997E+02  0.45594000000E+02  0.51100000000E-03 0.  1.
    9900012    2    1    2    0    0  0.48814479320E+00  0.12107761830E+00 -0.10677483751E+01  0.90007732352E+02  0.89999993619E+02 0.  0.
         12    1    1    2    0    0 -0.48814479320E+00 -0.12107761830E+00  0.10677483751E+01  0.11802676482E+01  0.00000000000E+00 0. -1.
         11    1    3    3    0    0  0.79186906694E+00 -0.17631938585E+02  0.73957270832E+01  0.19136590455E+02  0.51100000000E-03 0. -1.
        -11    1    3    3    0    0 -0.81997866221E+01 -0.16377113140E+02 -0.25914624701E+02  0.31733485612E+02  0.51100000000E-03 0.  1.
         12    1    3    3    0    0  0.78960623484E+01  0.34130129343E+02  0.17451149243E+02  0.39137656285E+02  0.00000000000E+00 0. -1.
</event>
<event>
 7    1  0.2404951E-015  0.9000759E+02  0.7816164E-02  0.1186339E+00
        -11   -1    0    0    0    0  0.00000000000E+00  0.00000000000E+00  0.45593999997E+02  0.45594000000E+02  0.51100000000E-03 0.  1.
         11   -1    0    0    0    0 -0.00000000000E+00 -0.00000000000E+00 -0.45593999997E+02  0.45594000000E+02  0.51100000000E-03 0. -1.
    9900012    2    1    2    0    0 -0.49223953610E-01 -0.71995108475E+00  0.93414439312E+00  0.90007585535E+02  0.89999844864E+02 0.  0.
         12    1    1    2    0    0  0.49223953610E-01  0.71995108475E+00 -0.93414439312E+00  0.11804144650E+01  0.00000000000E+00 0. -1.
         11    1    3    3    0    0 -0.24550454702E+02  0.75011600149E+01 -0.25084390944E+02  0.35891766422E+02  0.51100000000E-03 0. -1.
        -11    1    3    3    0    0 -0.34752626852E+01  0.69564339044E+01 -0.53412159996E+01  0.94338757684E+01  0.51100000000E-03 0.  1.
        -12    1    3    3    0    0  0.27976493433E+02 -0.15177545004E+02  0.31359751336E+02  0.44681943345E+02  0.00000000000E+00 0.  1.
</event>
<event>
 7    1  0.2404951E-015  0.9000773E+02  0.7816164E-02  0.1186339E+00
        -11   -1    0    0    0    0  0.00000000000E+00  0.00000000000E+00  0.45593999997E+02  0.45594000000E+02  0.51100000000E-03 0.  1.
         11   -1    0    0    0    0 -0.00000000000E+00 -0.00000000000E+00 -0.45593999997E+02  0.45594000000E+02  0.51100000000E-03 0. -1.
    9900012    2    1    2    0    0  0.30054587400E+00 -0.11413147728E+01 -0.10573286277E-01  0.90007729257E+02  0.89999990483E+02 0.  0.
         12    1    1    2    0    0 -0.30054587400E+00  0.11413147728E+01  0.10573286277E-01  0.11802707432E+01  0.00000000000E+00 0. -1.
         11    1    3    3    0    0 -0.10062152478E+02 -0.24390157636E+01 -0.19576814098E+00  0.10355386801E+02  0.51100000000E-03 0. -1.
        -11    1    3    3    0    0 -0.22216769258E+02 -0.19608966721E+02 -0.20238402363E+02  0.35884388564E+02  0.51100000000E-03 0.  1.
         12    1    3    3    0    0  0.32579467609E+02  0.20906667712E+02  0.20423597218E+02  0.43767953892E+02  0.00000000000E+00 0. -1.
</event>
<event>
 7    1  0.2404951E-015  0.9000775E+02  0.7816164E-02  0.1186339E+00
        -11   -1    0    0    0    0  0.00000000000E+00  0.00000000000E+00  0.45593999997E+02  0.45594000000E+02  0.51100000000E-03 0.  1.
         11   -1    0    0    0    0 -0.00000000000E+00 -0.00000000000E+00 -0.45593999997E+02  0.45594000000E+02  0.51100000000E-03 0. -1.
    9900012    2    1    2    0    0  0.46964316196E+00 -0.84097960974E+00  0.68204127728E+00  0.90007749303E+02  0.90000010794E+02 0.  0.
         12    1    1    2    0    0 -0.46964316196E+00  0.84097960974E+00 -0.68204127728E+00  0.11802506969E+01  0.00000000000E+00 0. -1.
         11    1    3    3    0    0 -0.14842243193E+00  0.84633694518E+01 -0.10348306534E+02  0.13369296918E+02  0.51100000000E-03 0. -1.
        -11    1    3    3    0    0 -0.23301321343E+02  0.24813910982E+02  0.72221507280E+01  0.34797143791E+02  0.51100000000E-03 0.  1.
         12    1    3    3    0    0  0.23919386937E+02 -0.34118260044E+02  0.38081970835E+01  0.41841308595E+02  0.00000000000E+00 0. -1.
</event>
<event>
 7    1  0.2404951E-015  0.9000776E+02  0.7816164E-02  0.1186339E+00
        -11   -1    0    0    0    0  0.00000000000E+00  0.00000000000E+00  0.45593999997E+02  0.45594000000E+02  0.51100000000E-03 0.  1.
         11   -1    0    0    0    0 -0.00000000000E+00 -0.00000000000E+00 -0.45593999997E+02  0.45594000000E+02  0.51100000000E-03 0. -1.
    9900012    2    1    2    0    0 -0.11064702403E+01  0.40307633688E+00 -0.78862864290E-01  0.90007760076E+02  0.90000021709E+02 0.  0.
         12    1    1    2    0    0  0.11064702403E+01 -0.40307633688E+00  0.78862864290E-01  0.11802399237E+01  0.00000000000E+00 0. -1.
         11    1    3    3    0    0 -0.35753607709E+02 -0.15467552254E+02  0.13821240930E+02  0.41335122330E+02  0.51100000000E-03 0. -1.
        -11    1    3    3    0    0  0.46404934860E+01  0.98315642874E+01  0.57509925845E+01  0.12299095581E+02  0.51100000000E-03 0.  1.
        -12    1    3    3    0    0  0.30006643983E+02  0.60390643033E+01 -0.19651096379E+02  0.36373542166E+02  0.00000000000E+00 0.  1.
</event>
<event>
 7    1  0.2404951E-015  0.9000777E+02  0.7816164E-02  0.1186339E+00
        -11   -1    0    0    0    0  0.00000000000E+00  0.00000000000E+00  0.45593999997E+02  0.45594000000E+02  0.51100000000E-03 0.  1.
         11   -1    0    0    0    0 -0.00000000000E+00 -0.00000000000E+00 -0.45593999997E+02  0.45594000000E+02  0.51100000000E-03 0. -1.
    9900012    2    1    2    0    0  0.30471123609E+00 -0.44397330246E+00 -0.10502258885E+01  0.90007773052E+02  0.90000034857E+02 0.  0.
         12    1    1    2    0    0 -0.30471123609E+00  0.44397330246E+00  0.10502258885E+01  0.11802269475E+01  0.00000000000E+00 0. -1.
         11    1    3    3    0    0  0.38846522919E+02  0.69717638508E+01  0.30662282134E+01  0.39586103494E+02  0.51100000000E-03 0. -1.
        -11    1    3    3    0    0  0.13995648697E+01 -0.67119856773E+01 -0.77042040375E+01  0.10313306631E+02  0.51100000000E-03 0.  1.
        -12    1    3    3    0    0 -0.39941376553E+02 -0.70375147589E+00  0.35877499356E+01  0.40108362927E+02  0.00000000000E+00 0.  1.
</event>
<event>
 7    1  0.2404951E-015  0.9000772E+02  0.7816164E-02  0.1186339E+00
        -11   -1    0    0    0    0  0.00000000000E+00  0.00000000000E+00  0.45593999997E+02  0.45594000000E+02  0.51100000000E-03 0.  1.
         11   -1    0    0    0    0 -0.00000000000E+00 -0.00000000000E+00 -0.45593999997E+02  0.45594000000E+02  0.51100000000E-03 0. -1.
    9900012    2    1    2    0    0 -0.99997398320E+00  0.60173731075E+00  0.17615127420E+00  0.90007718241E+02  0.89999979322E+02 0.  0.
         12    1    1    2    0    0  0.99997398320E+00 -0.60173731075E+00 -0.17615127420E+00  0.11802817586E+01  0.00000000000E+00 0. -1.
         11    1    3    3    0    0 -0.10060275018E+01  0.36954940295E+02 -0.80107945455E+01  0.37826611441E+02  0.51100000000E-03 0. -1.
        -11    1    3    3    0    0 -0.69610840707E+01  0.51701333197E+01  0.48744471477E+01  0.99472209807E+01  0.51100000000E-03 0.  1.
        -12    1    3    3    0    0  0.69671375893E+01 -0.41523336304E+02  0.33124986721E+01  0.42233885820E+02  0.00000000000E+00 0.  1.
</event>
<event>
 7    1  0.2404951E-015  0.9000778E+02  0.7816164E-02  0.1186339E+00
        -11   -1    0    0    0    0  0.00000000000E+00  0.00000000000E+00  0.45593999997E+02  0.45594000000E+02  0.51100000000E-03 0. -1.
         11   -1    0    0    0    0 -0.00000000000E+00 -0.00000000000E+00 -0.45593999997E+02  0.45594000000E+02  0.51100000000E-03 0.  1.
    9900012    2    1    2    0    0  0.12728797180E+00 -0.10552658041E+01  0.51295857882E+00  0.90007781949E+02  0.90000043870E+02 0.  0.
         12    1    1    2    0    0 -0.12728797180E+00  0.10552658041E+01 -0.51295857882E+00  0.11802180513E+01  0.00000000000E+00 0. -1.
         11    1    3    3    0    0 -0.62256861866E+01  0.46632546166E+01 -0.47552764092E+01  0.91168945427E+01  0.51100000000E-03 0. -1.
        -11    1    3    3    0    0 -0.15546360583E+02  0.24742193301E+02 -0.20220965026E+02  0.35535234396E+02  0.51100000000E-03 0.  1.
         12    1    3    3    0    0  0.21899334742E+02 -0.30460713722E+02  0.25489200014E+02  0.45355653010E+02  0.00000000000E+00 0. -1.
</event>
<event>
 7    1  0.2404951E-015  0.9000773E+02  0.7816164E-02  0.1186339E+00
        -11   -1    0    0    0    0  0.00000000000E+00  0.00000000000E+00  0.45593999997E+02  0.45594000000E+02  0.51100000000E-03 0. -1.
         11   -1    0    0    0    0 -0.00000000000E+00 -0.00000000000E+00 -0.45593999997E+02  0.45594000000E+02  0.51100000000E-03 0.  1.
    9900012    2    1    2    0    0  0.91034101602E+00  0.36312601530E+00 -0.65762002588E+00  0.90007726571E+02  0.89999987762E+02 0.  0.
         12    1    1    2    0    0 -0.91034101602E+00 -0.36312601530E+00  0.65762002588E+00  0.11802734289E+01  0.00000000000E+00 0. -1.
         11    1    3    3    0    0  0.72314562461E+01 -0.30189479553E+02  0.22866145091E+02  0.38555923367E+02  0.51100000000E-03 0. -1.
        -11    1    3    3    0    0  0.11903379618E+02  0.25801263599E+01 -0.42369834789E+01  0.12895717414E+02  0.51100000000E-03 0.  1.
        -12    1    3    3    0    0 -0.18224494848E+02  0.27972479208E+02 -0.19286781638E+02  0.38556085790E+02  0.00000000000E+00 0.  1.
</event>
<event>
 7    1  0.2615555E-015  0.9000765E+02  0.7816164E-02  0.1186339E+00
        -11   -1    0    0    0    0  0.00000000000E+00  0.00000000000E+00  0.45593999997E+02  0.45594000000E+02  0.51100000000E-03 0.  1.
         11   -1    0    0    0    0 -0.00000000000E+00 -0.00000000000E+00 -0.45593999997E+02  0.45594000000E+02  0.51100000000E-03 0. -1.
    9900012    2    1    2    0    0  0.81432646244E+00 -0.82382436192E+00  0.22676528673E+00  0.90007645535E+02  0.89999905656E+02 0.  0.
         12    1    1    2    0    0 -0.81432646244E+00  0.82382436192E+00 -0.22676528673E+00  0.11803544645E+01  0.00000000000E+00 0. -1.
         11    1    3    3    0    0 -0.51765259351E+01  0.29584411678E+02 -0.24661056008E+02  0.38861311336E+02  0.51100000000E-03 0. -1.
        -11    1    3    3    0    0 -0.36712521047E+01 -0.45345396985E+01 -0.69000492053E+01  0.90360844170E+01  0.51100000000E-03 0.  1.
        -12    1    3    3    0    0  0.96621045022E+01 -0.25873696342E+02  0.31787870500E+02  0.42110249782E+02  0.00000000000E+00 0.  1.
</event>
<event>
 7    1  0.2404951E-015  0.9000777E+02  0.7816164E-02  0.1186339E+00
        -11   -1    0    0    0    0  0.00000000000E+00  0.00000000000E+00  0.45593999997E+02  0.45594000000E+02  0.51100000000E-03 0.  1.
         11   -1    0    0    0    0 -0.00000000000E+00 -0.00000000000E+00 -0.45593999997E+02  0.45594000000E+02  0.51100000000E-03 0. -1.
    9900012    2    1    2    0    0 -0.72956308538E+00  0.92117735429E+00 -0.11000729372E+00  0.90007774760E+02  0.90000036586E+02 0.  0.
         12    1    1    2    0    0  0.72956308538E+00 -0.92117735429E+00  0.11000729372E+00  0.11802252405E+01  0.00000000000E+00 0. -1.
         11    1    3    3    0    0  0.37427855481E+01  0.43729044687E+01  0.54132598644E+01  0.79015264204E+01  0.51100000000E-03 0. -1.
        -11    1    3    3    0    0  0.29646290661E+02  0.43717347685E+01  0.22330803857E+02  0.37372174355E+02  0.51100000000E-03 0.  1.
         12    1    3    3    0    0 -0.34118639294E+02 -0.78234618829E+01 -0.27854071016E+02  0.44734073984E+02  0.00000000000E+00 0. -1.
</event>
<event>
 7    1  0.2404951E-015  0.9000801E+02  0.7816164E-02  0.1186339E+00
        -11   -1    0    0    0    0  0.00000000000E+00  0.00000000000E+00  0.45593999997E+02  0.45594000000E+02  0.51100000000E-03 0.  1.
         11   -1    0    0    0    0 -0.00000000000E+00 -0.00000000000E+00 -0.45593999997E+02  0.45594000000E+02  0.51100000000E-03 0. -1.
    9900012    2    1    2    0    0  0.64769129655E+00 -0.48328343520E+00  0.85983560034E+00  0.90008006714E+02  0.90000271603E+02 0.  0.
         12    1    1    2    0    0 -0.64769129655E+00  0.48328343520E+00 -0.85983560034E+00  0.11799932856E+01  0.00000000000E+00 0. -1.
         11    1    3    3    0    0 -0.13597133708E+02  0.34126463805E+02  0.82106174901E+01  0.37641889122E+02  0.51100000000E-03 0. -1.
        -11    1    3    3    0    0 -0.10346102369E+02 -0.20144092753E+01  0.13257459779E+01  0.10623430784E+02  0.51100000000E-03 0.  1.
        -12    1    3    3    0    0  0.24590927374E+02 -0.32595337964E+02 -0.86765278677E+01  0.41742686808E+02  0.00000000000E+00 0.  1.
</event>
<event>
 7    1  0.2404951E-015  0.9000771E+02  0.7816164E-02  0.1186339E+00
        -11   -1    0    0    0    0  0.00000000000E+00  0.00000000000E+00  0.45593999997E+02  0.45594000000E+02  0.51100000000E-03 0.  1.
         11   -1    0    0    0    0 -0.00000000000E+00 -0.00000000000E+00 -0.45593999997E+02  0.45594000000E+02  0.51100000000E-03 0. -1.
    9900012    2    1    2    0    0  0.46091133521E+00  0.10568788424E+01  0.25227961026E+00  0.90007713108E+02  0.89999974121E+02 0.  0.
         12    1    1    2    0    0 -0.46091133521E+00 -0.10568788424E+01 -0.25227961026E+00  0.11802868923E+01  0.00000000000E+00 0. -1.
         11    1    3    3    0    0  0.48588376956E+01  0.31327438514E+02 -0.18512674886E+02  0.36711521887E+02  0.51100000000E-03 0. -1.
        -11    1    3    3    0    0 -0.14021081125E+02  0.37536805447E+01  0.59398633997E+01  0.15683201555E+02  0.51100000000E-03 0.  1.
        -12    1    3    3    0    0  0.96231547647E+01 -0.34024240216E+02  0.12825091097E+02  0.37612989665E+02  0.00000000000E+00 0.  1.
</event>
<event>
 7    1  0.2404951E-015  0.9000743E+02  0.7816164E-02  0.1186340E+00
        -11   -1    0    0    0    0  0.00000000000E+00  0.00000000000E+00  0.45593999997E+02  0.45594000000E+02  0.51100000000E-03 0. -1.
         11   -1    0    0    0    0 -0.00000000000E+00 -0.00000000000E+00 -0.45593999997E+02  0.45594000000E+02  0.51100000000E-03 0.  1.
    9900012    2    1    2    0    0  0.10016708582E+01 -0.34211128800E+00 -0.52283874639E+00  0.90007430224E+02  0.89999687502E+02 0.  0.
         12    1    1    2    0    0 -0.10016708582E+01  0.34211128800E+00  0.52283874639E+00  0.11805697761E+01  0.00000000000E+00 0. -1.
         11    1    3    3    0    0 -0.22714159296E+02 -0.31683225544E+02  0.12460211680E+02  0.40926967745E+02  0.51100000000E-03 0. -1.
        -11    1    3    3    0    0 -0.20747426124E+01  0.27550591915E+01 -0.98685218712E+01  0.10453833375E+02  0.51100000000E-03 0.  1.
        -12    1    3    3    0    0  0.25790572767E+02  0.28586055065E+02 -0.31145285551E+01  0.38626629104E+02  0.00000000000E+00 0.  1.
</event>
<event>
 7    1  0.2404951E-015  0.9000791E+02  0.7816164E-02  0.1186339E+00
        -11   -1    0    0    0    0  0.00000000000E+00  0.00000000000E+00  0.45593999997E+02  0.45594000000E+02  0.51100000000E-03 0.  1.
         11   -1    0    0    0    0 -0.00000000000E+00 -0.00000000000E+00 -0.45593999997E+02  0.45594000000E+02  0.51100000000E-03 0. -1.
    9900012    2    1    2    0    0  0.74834822426E+00 -0.22657379727E-01  0.91218364833E+00  0.90007907872E+02  0.90000171456E+02 0.  0.
         12    1    1    2    0    0 -0.74834822426E+00  0.22657379727E-01 -0.91218364833E+00  0.11800921277E+01  0.00000000000E+00 0. -1.
         11    1    3    3    0    0 -0.22849272968E+01  0.97674475892E+00 -0.83447662711E+01  0.87068965456E+01  0.51100000000E-03 0. -1.
        -11    1    3    3    0    0 -0.28673575181E+02 -0.41772224597E+01  0.31223747795E+02  0.42597482646E+02  0.51100000000E-03 0.  1.
         12    1    3    3    0    0  0.31706850702E+02  0.31778203210E+01 -0.21966797876E+02  0.38703528681E+02  0.00000000000E+00 0. -1.
</event>
<event>
 7    1  0.2404951E-015  0.9000771E+02  0.7816164E-02  0.1186339E+00
        -11   -1    0    0    0    0  0.00000000000E+00  0.00000000000E+00  0.45593999997E+02  0.45594000000E+02  0.51100000000E-03 0.  1.
         11   -1    0    0    0    0 -0.00000000000E+00 -0.00000000000E+00 -0.45593999997E+02  0.45594000000E+02  0.51100000000E-03 0. -1.
    9900012    2    1    2    0    0 -0.11142276110E+01  0.21711996536E+00 -0.32316003879E+00  0.90007713315E+02  0.89999974331E+02 0.  0.
         12    1    1    2    0    0  0.11142276110E+01 -0.21711996536E+00  0.32316003879E+00  0.11802866852E+01  0.00000000000E+00 0. -1.
         11    1    3    3    0    0  0.36232517508E+02  0.43273495657E+01 -0.14042199429E+02  0.39098652718E+02  0.51100000000E-03 0. -1.
        -11    1    3    3    0    0 -0.25609505150E+01 -0.71330763758E+01 -0.69922546648E+01  0.10311686171E+02  0.51100000000E-03 0.  1.
        -12    1    3    3    0    0 -0.34785794604E+02  0.30228467754E+01  0.20711294055E+02  0.40597374427E+02  0.00000000000E+00 0.  1.
</event>
<event>
 7    1  0.2404951E-015  0.9000774E+02  0.7816164E-02  0.1186339E+00
        -11   -1    0    0    0    0  0.00000000000E+00  0.00000000000E+00  0.45593999997E+02  0.45594000000E+02  0.51100000000E-03 0.  1.
         11   -1    0    0    0    0 -0.00000000000E+00 -0.00000000000E+00 -0.45593999997E+02  0.45594000000E+02  0.51100000000E-03 0. -1.
    9900012    2    1    2    0    0  0.10915606709E+01  0.41090674756E+00  0.18072870931E+00  0.90007740740E+02  0.90000002118E+02 0.  0.
         12    1    1    2    0    0 -0.10915606709E+01 -0.41090674756E+00 -0.18072870931E+00  0.11802592596E+01  0.00000000000E+00 0. -1.
         11    1    3    3    0    0 -0.30068000973E+02 -0.88481416410E+01  0.29416212626E+02  0.42984739834E+02  0.51100000000E-03 0. -1.
        -11    1    3    3    0    0  0.83756670584E+01 -0.53745174533E+00  0.37149390260E+00  0.84011107023E+01  0.51100000000E-03 0.  1.
        -12    1    3    3    0    0  0.22783894586E+02  0.97965001339E+01 -0.29606977819E+02  0.38621890205E+02  0.00000000000E+00 0.  1.
</event>
<event>
 7    1  0.2404951E-015  0.9000769E+02  0.7816164E-02  0.1186339E+00
        -11   -1    0    0    0    0  0.00000000000E+00  0.00000000000E+00  0.45593999997E+02  0.45594000000E+02  0.51100000000E-03 0. -1.
         11   -1    0    0    0    0 -0.00000000000E+00 -0.00000000000E+00 -0.45593999997E+02  0.45594000000E+02  0.51100000000E-03 0.  1.
    9900012    2    1    2    0    0 -0.10773456003E+00 -0.11217310910E+01  0.35106821845E+00  0.90007688062E+02  0.89999948745E+02 0.  0.
         12    1    1    2    0    0  0.10773456003E+00  0.11217310910E+01 -0.35106821845E+00  0.11803119376E+01  0.00000000000E+00 0. -1.
         11    1    3    3    0    0 -0.43606637800E+01 -0.19163903681E+01 -0.81174652206E+01  0.94117576740E+01  0.51100000000E-03 0. -1.
        -11    1    3    3    0    0 -0.27716013469E+01 -0.13394857805E+02 -0.33260895825E+02  0.35963748150E+02  0.51100000000E-03 0.  1.
         12    1    3    3    0    0  0.70245305669E+01  0.14189517082E+02  0.41729429264E+02  0.44632182239E+02  0.00000000000E+00 0. -1.
</event>
<event>
 7    1  0.2404951E-015  0.9000774E+02  0.7816164E-02  0.1186339E+00
        -11   -1    0    0    0    0  0.00000000000E+00  0.00000000000E+00  0.45593999997E+02  0.45594000000E+02  0.51100000000E-03 0.  1.
         11   -1    0    0    0    0 -0.00000000000E+00 -0.00000000000E+00 -0.45593999997E+02  0.45594000000E+02  0.51100000000E-03 0. -1.
    9900012    2    1    2    0    0 -0.11706095008E-01  0.11800587448E+01 -0.18689050243E-01  0.90007735219E+02  0.89999996523E+02 0.  0.
         12    1    1    2    0    0  0.11706095008E-01 -0.11800587448E+01  0.18689050243E-01  0.11802647815E+01  0.00000000000E+00 0. -1.
         11    1    3    3    0    0  0.27366834539E+01  0.40114718199E+01 -0.84993773409E+01  0.97888077891E+01  0.51100000000E-03 0. -1.
        -11    1    3    3    0    0  0.36439200915E+02  0.11054490619E+02  0.19017187562E+01  0.38126547977E+02  0.51100000000E-03 0.  1.
         12    1    3    3    0    0 -0.39187590464E+02 -0.13885903694E+02  0.65789695344E+01  0.42092379452E+02  0.00000000000E+00 0. -1.
</event>
<event>
 7    1  0.2404951E-015  0.9000774E+02  0.7816164E-02  0.1186339E+00
        -11   -1    0    0    0    0  0.00000000000E+00  0.00000000000E+00  0.45593999997E+02  0.45594000000E+02  0.51100000000E-03 0.  1.
         11   -1    0    0    0    0 -0.00000000000E+00 -0.00000000000E+00 -0.45593999997E+02  0.45594000000E+02  0.51100000000E-03 0. -1.
    9900012    2    1    2    0    0  0.46306806357E+00  0.90429391383E+00  0.60070318094E+00  0.90007735697E+02  0.89999997008E+02 0.  0.
         12    1    1    2    0    0 -0.46306806357E+00 -0.90429391383E+00 -0.60070318094E+00  0.11802643033E+01  0.00000000000E+00 0. -1.
         11    1    3    3    0    0  0.22082520161E+02 -0.24040350223E+02 -0.16572881744E+02  0.36609241252E+02  0.51100000000E-03 0. -1.
        -11    1    3    3    0    0 -0.27254388851E+01 -0.92100465511E+01 -0.21533648260E+01  0.98432695241E+01  0.51100000000E-03 0.  1.
        -12    1    3    3    0    0 -0.18894013212E+02  0.34154690688E+02  0.19326949751E+02  0.43555224921E+02  0.00000000000E+00 0.  1.
</event>
<event>
 7    1  0.2404951E-015  0.9000771E+02  0.7816164E-02  0.1186339E+00
        -11   -1    0    0    0    0  0.00000000000E+00  0.00000000000E+00  0.45593999997E+02  0.45594000000E+02  0.51100000000E-03 0.  1.
         11   -1    0    0    0    0 -0.00000000000E+00 -0.00000000000E+00 -0.45593999997E+02  0.45594000000E+02  0.51100000000E-03 0. -1.
    9900012    2    1    2    0    0  0.21116609241E+00  0.85389156214E+00  0.78699956172E+00  0.90007707566E+02  0.89999968506E+02 0.  0.
         12    1    1    2    0    0 -0.21116609241E+00 -0.85389156214E+00 -0.78699956172E+00  0.11802924335E+01  0.00000000000E+00 0. -1.
         11    1    3    3    0    0 -0.13324609486E+02  0.80739937339E+01 -0.30193784998E+02  0.33976451338E+02  0.51100000000E-03 0. -1.
        -11    1    3    3    0    0 -0.57722134084E+01 -0.13744168792E+02 -0.40994936686E+01  0.15460480976E+02  0.51100000000E-03 0.  1.
        -12    1    3    3    0    0  0.19307988987E+02  0.65240666199E+01  0.35080278228E+02  0.40570775252E+02  0.00000000000E+00 0.  1.
</event>
<event>
 7    1  0.2404951E-015  0.9000772E+02  0.7816164E-02  0.1186339E+00
        -11   -1    0    0    0    0  0.00000000000E+00  0.00000000000E+00  0.45593999997E+02  0.45594000000E+02  0.51100000000E-03 0.  1.
         11   -1    0    0    0    0 -0.00000000000E+00 -0.00000000000E+00 -0.45593999997E+02  0.45594000000E+02  0.51100000000E-03 0. -1.
    9900012    2    1    2    0    0 -0.97465305423E+00  0.64427914008E+00 -0.16741244768E+00  0.90007715664E+02  0.89999976711E+02 0.  0.
         12    1    1    2    0    0  0.97465305423E+00 -0.64427914008E+00  0.16741244768E+00  0.11802843361E+01  0.00000000000E+00 0. -1.
         11    1    3    3    0    0 -0.11140203982E+02 -0.24987218880E+02 -0.28879071576E+02  0.39780221561E+02  0.51100000000E-03 0. -1.
        -11    1    3    3    0    0 -0.10426758881E+02  0.70033649793E+01  0.43637582818E+01  0.13296872128E+02  0.51100000000E-03 0.  1.
        -12    1    3    3    0    0  0.20592309808E+02  0.18628133041E+02  0.24347900846E+02  0.36930621975E+02  0.00000000000E+00 0.  1.
</event>
<event>
 7    1  0.2404951E-015  0.9000770E+02  0.7816164E-02  0.1186339E+00
        -11   -1    0    0    0    0  0.00000000000E+00  0.00000000000E+00  0.45593999997E+02  0.45594000000E+02  0.51100000000E-03 0.  1.
         11   -1    0    0    0    0 -0.00000000000E+00 -0.00000000000E+00 -0.45593999997E+02  0.45594000000E+02  0.51100000000E-03 0. -1.
    9900012    2    1    2    0    0 -0.77226478416E+00  0.44916546821E-01  0.89145286910E+00  0.90007704016E+02  0.89999964909E+02 0.  0.
         12    1    1    2    0    0  0.77226478416E+00 -0.44916546821E-01 -0.89145286910E+00  0.11802959844E+01  0.00000000000E+00 0. -1.
         11    1    3    3    0    0 -0.77768781997E+01 -0.10071765874E+02 -0.26784004799E+02  0.29653047326E+02  0.51100000000E-03 0. -1.
        -11    1    3    3    0    0  0.15124358450E+02  0.18096177311E+01 -0.11760162353E+02  0.19243761423E+02  0.51100000000E-03 0.  1.
         12    1    3    3    0    0 -0.81197450342E+01  0.83070646895E+01  0.39435620022E+02  0.41110895267E+02  0.00000000000E+00 0. -1.
</event>
<event>
 7    1  0.2404951E-015  0.9000773E+02  0.7816164E-02  0.1186339E+00
        -11   -1    0    0    0    0  0.00000000000E+00  0.00000000000E+00  0.45593999997E+02  0.45594000000E+02  0.51100000000E-03 0.  1.
         11   -1    0    0    0    0 -0.00000000000E+00 -0.00000000000E+00 -0.45593999997E+02  0.45594000000E+02  0.51100000000E-03 0. -1.
    9900012    2    1    2    0    0 -0.63912265585E+00 -0.49359042760E+00 -0.86077054422E+00  0.90007730874E+02  0.89999992122E+02 0.  0.
         12    1    1    2    0    0  0.63912265585E+00  0.49359042760E+00  0.86077054422E+00  0.11802691258E+01  0.00000000000E+00 0. -1.
         11    1    3    3    0    0 -0.19512062407E+02  0.38378119717E+02 -0.37027708720E+01  0.43212395962E+02  0.51100000000E-03 0. -1.
        -11    1    3    3    0    0  0.11366646103E+01 -0.57869547467E+01 -0.58029525687E+01  0.82737603575E+01  0.51100000000E-03 0.  1.
        -12    1    3    3    0    0  0.17736275141E+02 -0.33084755398E+02  0.86449528966E+01  0.38521574555E+02  0.00000000000E+00 0.  1.
</event>
<event>
 7    1  0.2404951E-015  0.9000774E+02  0.7816164E-02  0.1186339E+00
        -11   -1    0    0    0    0  0.00000000000E+00  0.00000000000E+00  0.45593999997E+02  0.45594000000E+02  0.51100000000E-03 0.  1.
         11   -1    0    0    0    0 -0.00000000000E+00 -0.00000000000E+00 -0.45593999997E+02  0.45594000000E+02  0.51100000000E-03 0. -1.
    9900012    2    1    2    0    0  0.45725984399E+00 -0.81280226408E+00  0.72338682139E+00  0.90007736225E+02  0.89999997543E+02 0.  0.
         12    1    1    2    0    0 -0.45725984399E+00  0.81280226408E+00 -0.72338682139E+00  0.11802637751E+01  0.00000000000E+00 0. -1.
         11    1    3    3    0    0 -0.94108231628E+01 -0.21731074273E+01  0.54333538449E+01  0.11081846541E+02  0.51100000000E-03 0. -1.
        -11    1    3    3    0    0 -0.37742439727E+01  0.37500818713E+02 -0.12121843753E+02  0.39591607923E+02  0.51100000000E-03 0.  1.
         12    1    3    3    0    0  0.13642326979E+02 -0.36140513549E+02  0.74118767294E+01  0.39334281761E+02  0.00000000000E+00 0. -1.
</event>
<event>
 7    1  0.2404951E-015  0.9000776E+02  0.7816164E-02  0.1186339E+00
        -11   -1    0    0    0    0  0.00000000000E+00  0.00000000000E+00  0.45593999997E+02  0.45594000000E+02  0.51100000000E-03 0.  1.
         11   -1    0    0    0    0 -0.00000000000E+00 -0.00000000000E+00 -0.45593999997E+02  0.45594000000E+02  0.51100000000E-03 0. -1.
    9900012    2    1    2    0    0 -0.53081597421E+00  0.10344212831E+01  0.20291918833E+00  0.90007758844E+02  0.90000020461E+02 0.  0.
         12    1    1    2    0    0  0.53081597421E+00 -0.10344212831E+01 -0.20291918833E+00  0.11802411561E+01  0.00000000000E+00 0. -1.
         11    1    3    3    0    0 -0.32023740382E+02  0.21416674974E+00 -0.28329489594E+02  0.42756587753E+02  0.51100000000E-03 0. -1.
        -11    1    3    3    0    0  0.66872608141E+01 -0.66454547519E+01  0.10528274196E+01  0.94863044381E+01  0.51100000000E-03 0.  1.
        -12    1    3    3    0    0  0.24805663593E+02  0.74657092853E+01  0.27479581362E+02  0.37764866652E+02  0.00000000000E+00 0.  1.
</event>
<event>
 7    1  0.2404951E-015  0.9000787E+02  0.7816164E-02  0.1186339E+00
        -11   -1    0    0    0    0  0.00000000000E+00  0.00000000000E+00  0.45593999997E+02  0.45594000000E+02  0.51100000000E-03 0.  1.
         11   -1    0    0    0    0 -0.00000000000E+00 -0.00000000000E+00 -0.45593999997E+02  0.45594000000E+02  0.51100000000E-03 0. -1.
    9900012    2    1    2    0    0 -0.46069662987E+00 -0.18579310658E+00  0.10704846111E+01  0.90007873835E+02  0.90000136969E+02 0.  0.
         12    1    1    2    0    0  0.46069662987E+00  0.18579310658E+00 -0.10704846111E+01  0.11801261652E+01  0.00000000000E+00 0. -1.
         11    1    3    3    0    0 -0.39936742811E+01 -0.50830751995E+01 -0.38960157628E+01  0.75475841719E+01  0.51100000000E-03 0. -1.
        -11    1    3    3    0    0  0.97559644214E+01 -0.37227346297E+02  0.94946653293E+01  0.39638400877E+02  0.51100000000E-03 0.  1.
         12    1    3    3    0    0 -0.62229867702E+01  0.42124628390E+02 -0.45281649554E+01  0.42821888786E+02  0.00000000000E+00 0. -1.
</event>
<event>
 7    1  0.2404951E-015  0.9000762E+02  0.7816164E-02  0.1186339E+00
        -11   -1    0    0    0    0  0.00000000000E+00  0.00000000000E+00  0.45593999997E+02  0.45594000000E+02  0.51100000000E-03 0. -1.
         11   -1    0    0    0    0 -0.00000000000E+00 -0.00000000000E+00 -0.45593999997E+02  0.45594000000E+02  0.51100000000E-03 0.  1.
    9900012    2    1    2    0    0  0.23920429368E+00 -0.99271009629E+00 -0.59211478496E+00  0.90007622116E+02  0.89999881928E+02 0.  0.
         12    1    1    2    0    0 -0.23920429368E+00  0.99271009629E+00  0.59211478496E+00  0.11803778835E+01  0.00000000000E+00 0. -1.
         11    1    3    3    0    0 -0.12143660451E+02  0.35863187905E+02 -0.27646053709E+01  0.37964190746E+02  0.51100000000E-03 0. -1.
        -11    1    3    3    0    0 -0.67422074558E+01  0.15187322164E+01  0.57883041781E+01  0.90148973616E+01  0.51100000000E-03 0.  1.
        -12    1    3    3    0    0  0.19125072200E+02 -0.38374630218E+02 -0.36158135921E+01  0.43028534009E+02  0.00000000000E+00 0.  1.
</event>
<event>
 7    1  0.2404951E-015  0.9000774E+02  0.7816164E-02  0.1186339E+00
        -11   -1    0    0    0    0  0.00000000000E+00  0.00000000000E+00  0.45593999997E+02  0.45594000000E+02  0.51100000000E-03 0. -1.
         11   -1    0    0    0    0 -0.00000000000E+00 -0.00000000000E+00 -0.45593999997E+02  0.45594000000E+02  0.51100000000E-03 0.  1.
    9900012    2    1    2    0    0  0.19035947173E-01 -0.13572967299E+00 -0.11722799325E+01  0.90007735135E+02  0.89999996439E+02 0.  0.
         12    1    1    2    0    0 -0.19035947173E-01  0.13572967299E+00  0.11722799325E+01  0.11802648650E+01  0.00000000000E+00 0. -1.
         11    1    3    3    0    0  0.13748142385E+01 -0.87346974521E+01 -0.14454946401E+01  0.89596042762E+01  0.51100000000E-03 0. -1.
        -11    1    3    3    0    0  0.48873578679E+00  0.15321946623E+02 -0.38611546484E+02  0.41543380136E+02  0.51100000000E-03 0.  1.
         12    1    3    3    0    0 -0.18445140781E+01 -0.67229788444E+01  0.38884761192E+02  0.39504750723E+02  0.00000000000E+00 0. -1.
</event>
<event>
 7    1  0.2404951E-015  0.9000774E+02  0.7816164E-02  0.1186339E+00
        -11   -1    0    0    0    0  0.00000000000E+00  0.00000000000E+00  0.45593999997E+02  0.45594000000E+02  0.51100000000E-03 0. -1.
         11   -1    0    0    0    0 -0.00000000000E+00 -0.00000000000E+00 -0.45593999997E+02  0.45594000000E+02  0.51100000000E-03 0.  1.
    9900012    2    1    2    0    0  0.55528378829E+00 -0.10314183698E+01  0.14441692795E+00  0.90007737238E+02  0.89999998569E+02 0.  0.
         12    1    1    2    0    0 -0.55528378829E+00  0.10314183698E+01 -0.14441692795E+00  0.11802627623E+01  0.00000000000E+00 0. -1.
         11    1    3    3    0    0  0.20741506069E+01  0.21982291914E+01 -0.95499625887E+01  0.10016790805E+02  0.51100000000E-03 0. -1.
        -11    1    3    3    0    0 -0.27468757368E+02 -0.25321484158E+02 -0.12414283531E+02  0.39367812070E+02  0.51100000000E-03 0.  1.
         12    1    3    3    0    0  0.25949890550E+02  0.22091836597E+02  0.22108663047E+02  0.40623134363E+02  0.00000000000E+00 0. -1.
</event>
<event>
 7    1  0.2404951E-015  0.9000771E+02  0.7816164E-02  0.1186339E+00
        -11   -1    0    0    0    0  0.00000000000E+00  0.00000000000E+00  0.45593999997E+02  0.45594000000E+02  0.51100000000E-03 0.  1.
         11   -1    0    0    0    0 -0.00000000000E+00 -0.00000000000E+00 -0.45593999997E+02  0.45594000000E+02  0.51100000000E-03 0. -1.
    9900012    2    1    2    0    0 -0.94528423639E+00  0.61687971855E+00 -0.34494471168E+00  0.90007707778E+02  0.89999968721E+02 0.  0.
         12    1    1    2    0    0  0.94528423639E+00 -0.61687971855E+00  0.34494471168E+00  0.11802922218E+01  0.00000000000E+00 0. -1.
         11    1    3    3    0    0  0.71987981407E+01  0.40941358426E+01 -0.41256671999E+01  0.92523387894E+01  0.51100000000E-03 0. -1.
        -11    1    3    3    0    0 -0.13827310155E+02 -0.37685175495E+02 -0.13050083412E+02  0.42209852351E+02  0.51100000000E-03 0.  1.
         12    1    3    3    0    0  0.56832277779E+01  0.34207919370E+02  0.16830805900E+02  0.38545516638E+02  0.00000000000E+00 0. -1.
</event>
<event>
 7    1  0.2404951E-015  0.9000769E+02  0.7816164E-02  0.1186339E+00
        -11   -1    0    0    0    0  0.00000000000E+00  0.00000000000E+00  0.45593999997E+02  0.45594000000E+02  0.51100000000E-03 0.  1.
         11   -1    0    0    0    0 -0.00000000000E+00 -0.00000000000E+00 -0.45593999997E+02  0.45594000000E+02  0.51100000000E-03 0. -1.
    9900012    2    1    2    0    0 -0.71273550449E+00  0.94077201359E+00  0.94291293432E-02  0.90007689537E+02  0.89999950239E+02 0.  0.
         12    1    1    2    0    0  0.71273550449E+00 -0.94077201359E+00 -0.94291293432E-02  0.11803104631E+01  0.00000000000E+00 0. -1.
         11    1    3    3    0    0  0.34230674097E+02  0.13390387484E+02  0.35090635713E+01  0.36923638141E+02  0.51100000000E-03 0. -1.
        -11    1    3    3    0    0  0.81654458752E+01 -0.70818598483E+00 -0.16878754696E+01  0.83680916338E+01  0.51100000000E-03 0.  1.
        -12    1    3    3    0    0 -0.43108855477E+02 -0.11741429485E+02 -0.18117589723E+01  0.44715959762E+02  0.00000000000E+00 0.  1.
</event>
<event>
 7    1  0.2404951E-015  0.9000778E+02  0.7816164E-02  0.1186339E+00
        -11   -1    0    0    0    0  0.00000000000E+00  0.00000000000E+00  0.45593999997E+02  0.45594000000E+02  0.51100000000E-03 0. -1.
         11   -1    0    0    0    0 -0.00000000000E+00 -0.00000000000E+00 -0.45593999997E+02  0.45594000000E+02  0.51100000000E-03 0.  1.
    9900012    2    1    2    0    0 -0.31703959428E+00 -0.32609163919E-01  0.11363736808E+01  0.90007778578E+02  0.90000040455E+02 0.  0.
         12    1    1    2    0    0  0.31703959428E+00  0.32609163919E-01 -0.11363736808E+01  0.11802214217E+01  0.00000000000E+00 0. -1.
         11    1    3    3    0    0  0.24681753655E+02 -0.20931060203E+02 -0.13936313344E+02  0.35235196531E+02  0.51100000000E-03 0. -1.
        -11    1    3    3    0    0  0.38008845355E+01 -0.45491937120E+01 -0.79922406502E+01  0.99507686915E+01  0.51100000000E-03 0.  1.
        -12    1    3    3    0    0 -0.28799677785E+02  0.25447644751E+02  0.23064927675E+02  0.44821813356E+02  0.00000000000E+00 0.  1.
</event>
<event>
 7    1  0.2404951E-015  0.9000858E+02  0.7816164E-02  0.1186337E+00
        -11   -1    0    0    0    0  0.00000000000E+00  0.00000000000E+00  0.45593999997E+02  0.45594000000E+02  0.51100000000E-03 0. -1.
         11   -1    0    0    0    0 -0.00000000000E+00 -0.00000000000E+00 -0.45593999997E+02  0.45594000000E+02  0.51100000000E-03 0.  1.
    9900012    2    1    2    0    0  0.89476322732E+00 -0.65177342890E+00 -0.40695728298E+00  0.90008583167E+02  0.90000855661E+02 0.  0.
         12    1    1    2    0    0 -0.89476322732E+00  0.65177342890E+00  0.40695728298E+00  0.11794168329E+01  0.00000000000E+00 0. -1.
         11    1    3    3    0    0  0.48222206087E+01 -0.35822017457E+02 -0.41550851138E+01  0.36383175766E+02  0.51100000000E-03 0. -1.
        -11    1    3    3    0    0 -0.10317697745E+01 -0.90495502667E+01 -0.40163435705E+00  0.91170290838E+01  0.51100000000E-03 0.  1.
        -12    1    3    3    0    0 -0.28956876069E+01  0.44219794295E+02  0.41497621878E+01  0.44508378317E+02  0.00000000000E+00 0.  1.
</event>
<event>
 7    1  0.3107542E-015  0.9000790E+02  0.7816164E-02  0.1186339E+00
        -11   -1    0    0    0    0  0.00000000000E+00  0.00000000000E+00  0.45593999997E+02  0.45594000000E+02  0.51100000000E-03 0.  1.
         11   -1    0    0    0    0 -0.00000000000E+00 -0.00000000000E+00 -0.45593999997E+02  0.45594000000E+02  0.51100000000E-03 0. -1.
    9900012    2    1    2    0    0 -0.92592019045E+00 -0.67430247317E-01  0.72853458254E+00  0.90007899294E+02  0.90000162765E+02 0.  0.
         12    1    1    2    0    0  0.92592019045E+00  0.67430247317E-01 -0.72853458254E+00  0.11801007056E+01  0.00000000000E+00 0. -1.
         11    1    3    3    0    0  0.10213340062E+02 -0.65220211313E+01 -0.38429544051E+02  0.40294899566E+02  0.51100000000E-03 0. -1.
        -11    1    3    3    0    0 -0.16859892774E+00  0.99566914933E+01  0.11805785921E+01  0.10027856060E+02  0.51100000000E-03 0.  1.
        -12    1    3    3    0    0 -0.10970661324E+02 -0.35021006093E+01  0.37977500041E+02  0.39685143668E+02  0.00000000000E+00 0.  1.
</event>
<event>
 7    1  0.2404951E-015  0.9000771E+02  0.7816164E-02  0.1186339E+00
        -11   -1    0    0    0    0  0.00000000000E+00  0.00000000000E+00  0.45593999997E+02  0.45594000000E+02  0.51100000000E-03 0. -1.
         11   -1    0    0    0    0 -0.00000000000E+00 -0.00000000000E+00 -0.45593999997E+02  0.45594000000E+02  0.51100000000E-03 0.  1.
    9900012    2    1    2    0    0 -0.18397082226E+00  0.10248967191E+01 -0.55572717517E+00  0.90007707137E+02  0.89999968072E+02 0.  0.
         12    1    1    2    0    0  0.18397082226E+00 -0.10248967191E+01  0.55572717517E+00  0.11802928626E+01  0.00000000000E+00 0. -1.
         11    1    3    3    0    0  0.28525510180E+01 -0.27396452559E+01  0.75446823334E+01  0.85185054564E+01  0.51100000000E-03 0. -1.
        -11    1    3    3    0    0  0.27973872376E+02  0.19570493633E+02 -0.25465677067E+02  0.42591577401E+02  0.51100000000E-03 0.  1.
         12    1    3    3    0    0 -0.31010394216E+02 -0.15805951658E+02  0.17365267559E+02  0.38897624280E+02  0.00000000000E+00 0. -1.
</event>
<event>
 7    1  0.2404951E-015  0.9000763E+02  0.7816164E-02  0.1186339E+00
        -11   -1    0    0    0    0  0.00000000000E+00  0.00000000000E+00  0.45593999997E+02  0.45594000000E+02  0.51100000000E-03 0.  1.
         11   -1    0    0    0    0 -0.00000000000E+00 -0.00000000000E+00 -0.45593999997E+02  0.45594000000E+02  0.51100000000E-03 0. -1.
    9900012    2    1    2    0    0 -0.41213214219E+00  0.99963578285E+00  0.47345464017E+00  0.90007625527E+02  0.89999885384E+02 0.  0.
         12    1    1    2    0    0  0.41213214219E+00 -0.99963578285E+00 -0.47345464017E+00  0.11803744733E+01  0.00000000000E+00 0. -1.
         11    1    3    3    0    0  0.32208373451E+01  0.17583259781E+01  0.73670453980E+01  0.82303621796E+01  0.51100000000E-03 0. -1.
        -11    1    3    3    0    0  0.45408684185E+01  0.39825152538E+02 -0.29757039857E+01  0.40193495434E+02  0.51100000000E-03 0.  1.
         12    1    3    3    0    0 -0.81738379058E+01 -0.40583842734E+02 -0.39178867722E+01  0.41583767914E+02  0.00000000000E+00 0. -1.
</event>
<event>
 8    1  0.2404951E-015  0.9000772E+02  0.7816164E-02  0.1186339E+00
        -11   -1    0    0    0    0  0.00000000000E+00  0.00000000000E+00  0.45593999997E+02  0.45594000000E+02  0.51100000000E-03 0. -1.
         11   -1    0    0    0    0 -0.00000000000E+00 -0.00000000000E+00 -0.45593999997E+02  0.45594000000E+02  0.51100000000E-03 0.  1.
    9900012    2    1    2    0    0  0.98918048836E+00  0.37077768054E+00  0.52642032162E+00  0.90007715084E+02  0.89999976124E+02 0.  0.
         23    2    3    3    0    0  0.14742114244E+02 -0.75324065864E+01  0.24159342525E+02  0.61545134029E+02  0.54130052744E+02 0.  0.
         12    1    1    2    0    0 -0.98918048836E+00 -0.37077768054E+00 -0.52642032162E+00  0.11802849156E+01  0.00000000000E+00 0. -1.
         11    1    4    4    0    0  0.34097476589E+02 -0.12887355751E+02  0.14094317717E+02  0.39081602323E+02  0.51100000000E-03 0.  1.
        -11    1    4    4    0    0 -0.19355362345E+02  0.53549491649E+01  0.10065024808E+02  0.22463531706E+02  0.51100000000E-03 0. -1.
        -12    1    3    3    0    0 -0.13752933756E+02  0.79031842670E+01 -0.23632922203E+02  0.28462581055E+02  0.00000000000E+00 0.  1.
</event>
<event>
 7    1  0.2404951E-015  0.9000790E+02  0.7816164E-02  0.1186339E+00
        -11   -1    0    0    0    0  0.00000000000E+00  0.00000000000E+00  0.45593999997E+02  0.45594000000E+02  0.51100000000E-03 0. -1.
         11   -1    0    0    0    0 -0.00000000000E+00 -0.00000000000E+00 -0.45593999997E+02  0.45594000000E+02  0.51100000000E-03 0.  1.
    9900012    2    1    2    0    0  0.35789090136E+00  0.54560446040E+00 -0.98329678666E+00  0.90007897168E+02  0.90000160610E+02 0.  0.
         12    1    1    2    0    0 -0.35789090136E+00 -0.54560446040E+00  0.98329678666E+00  0.11801028324E+01  0.00000000000E+00 0. -1.
         11    1    3    3    0    0 -0.36330169944E+00 -0.12685372530E+01  0.99048936043E+01  0.99924017363E+01  0.51100000000E-03 0. -1.
        -11    1    3    3    0    0 -0.19557352232E+02 -0.31872840136E+02  0.47599999921E+01  0.37696492739E+02  0.51100000000E-03 0.  1.
         12    1    3    3    0    0  0.20278544832E+02  0.33686981849E+02 -0.15648190383E+02  0.42319002692E+02  0.00000000000E+00 0. -1.
</event>
<event>
 7    1  0.2404951E-015  0.9000778E+02  0.7816164E-02  0.1186339E+00
        -11   -1    0    0    0    0  0.00000000000E+00  0.00000000000E+00  0.45593999997E+02  0.45594000000E+02  0.51100000000E-03 0. -1.
         11   -1    0    0    0    0 -0.00000000000E+00 -0.00000000000E+00 -0.45593999997E+02  0.45594000000E+02  0.51100000000E-03 0.  1.
    9900012    2    1    2    0    0 -0.94840202198E-01  0.92235007986E+00 -0.73019593254E+00  0.90007783734E+02  0.90000045680E+02 0.  0.
         12    1    1    2    0    0  0.94840202198E-01 -0.92235007986E+00  0.73019593254E+00  0.11802162656E+01  0.00000000000E+00 0. -1.
         11    1    3    3    0    0 -0.10075205854E+02 -0.40733747779E+02 -0.41542891219E+01  0.42166409611E+02  0.51100000000E-03 0. -1.
        -11    1    3    3    0    0 -0.47885831232E+01  0.10996546898E+02  0.65515686087E+01  0.13666661022E+02  0.51100000000E-03 0.  1.
        -12    1    3    3    0    0  0.14768948775E+02  0.30659550961E+02 -0.31274754194E+01  0.34174713101E+02  0.00000000000E+00 0.  1.
</event>
<event>
 7    1  0.2404951E-015  0.9000780E+02  0.7816164E-02  0.1186339E+00
        -11   -1    0    0    0    0  0.00000000000E+00  0.00000000000E+00  0.45593999997E+02  0.45594000000E+02  0.51100000000E-03 0.  1.
         11   -1    0    0    0    0 -0.00000000000E+00 -0.00000000000E+00 -0.45593999997E+02  0.45594000000E+02  0.51100000000E-03 0. -1.
    9900012    2    1    2    0    0  0.36135809019E+00  0.11177151407E+01  0.11400168106E+00  0.90007803750E+02  0.90000065960E+02 0.  0.
         12    1    1    2    0    0 -0.36135809019E+00 -0.11177151407E+01 -0.11400168106E+00  0.11801962500E+01  0.00000000000E+00 0. -1.
         11    1    3    3    0    0  0.34492358155E+01 -0.32100274018E+02  0.19020291585E+02  0.37471273157E+02  0.51100000000E-03 0. -1.
        -11    1    3    3    0    0  0.86476144873E+01  0.51834178517E+01  0.72668382970E+01  0.12428032670E+02  0.51100000000E-03 0.  1.
        -12    1    3    3    0    0 -0.11735492213E+02  0.28034571307E+02 -0.26173128201E+02  0.40108497923E+02  0.00000000000E+00 0.  1.
</event>
<event>
 7    1  0.2404951E-015  0.9000778E+02  0.7816164E-02  0.1186339E+00
        -11   -1    0    0    0    0  0.00000000000E+00  0.00000000000E+00  0.45593999997E+02  0.45594000000E+02  0.51100000000E-03 0. -1.
         11   -1    0    0    0    0 -0.00000000000E+00 -0.00000000000E+00 -0.45593999997E+02  0.45594000000E+02  0.51100000000E-03 0.  1.
    9900012    2    1    2    0    0  0.11028981899E+01  0.25053095771E+00 -0.33729560305E+00  0.90007780316E+02  0.90000042216E+02 0.  0.
         12    1    1    2    0    0 -0.11028981899E+01 -0.25053095771E+00  0.33729560305E+00  0.11802196837E+01  0.00000000000E+00 0. -1.
         11    1    3    3    0    0  0.85873718123E+01  0.32314994942E+01  0.26918960135E+01  0.95620002108E+01  0.51100000000E-03 0. -1.
        -11    1    3    3    0    0  0.29750866967E+02  0.31067048371E+01  0.20240756272E+02  0.36117224629E+02  0.51100000000E-03 0.  1.
         12    1    3    3    0    0 -0.37235340589E+02 -0.60876733736E+01 -0.23269947888E+02  0.44328555476E+02  0.00000000000E+00 0. -1.
</event>
<event>
 7    1  0.2404951E-015  0.9000838E+02  0.7816164E-02  0.1186338E+00
        -11   -1    0    0    0    0  0.00000000000E+00  0.00000000000E+00  0.45593999997E+02  0.45594000000E+02  0.51100000000E-03 0.  1.
         11   -1    0    0    0    0 -0.00000000000E+00 -0.00000000000E+00 -0.45593999997E+02  0.45594000000E+02  0.51100000000E-03 0. -1.
    9900012    2    1    2    0    0  0.70944186769E-01  0.11774420393E+01  0.10174041461E-01  0.90008378728E+02  0.90000648525E+02 0.  0.
         12    1    1    2    0    0 -0.70944186769E-01 -0.11774420393E+01 -0.10174041461E-01  0.11796212717E+01  0.00000000000E+00 0. -1.
         11    1    3    3    0    0  0.60488709092E+00  0.72130381219E+01 -0.65406134830E+01  0.97556871791E+01  0.51100000000E-03 0. -1.
        -11    1    3    3    0    0  0.79676170539E+01 -0.42020463904E+02  0.66112891673E+01  0.43277147006E+02  0.51100000000E-03 0.  1.
         12    1    3    3    0    0 -0.85015599581E+01  0.35984867821E+02 -0.60501642793E-01  0.36975544544E+02  0.00000000000E+00 0. -1.
</event>
<event>
 7    1  0.2404951E-015  0.9000778E+02  0.7816164E-02  0.1186339E+00
        -11   -1    0    0    0    0  0.00000000000E+00  0.00000000000E+00  0.45593999997E+02  0.45594000000E+02  0.51100000000E-03 0. -1.
         11   -1    0    0    0    0 -0.00000000000E+00 -0.00000000000E+00 -0.45593999997E+02  0.45594000000E+02  0.51100000000E-03 0.  1.
    9900012    2    1    2    0    0 -0.75661926142E+00 -0.19877638778E-01 -0.90556345079E+00  0.90007782651E+02  0.90000044582E+02 0.  0.
         12    1    1    2    0    0  0.75661926142E+00  0.19877638778E-01  0.90556345079E+00  0.11802173489E+01  0.00000000000E+00 0. -1.
         11    1    3    3    0    0  0.22153165218E+02 -0.24458387925E+02  0.12467931165E+02  0.35276405385E+02  0.51100000000E-03 0. -1.
        -11    1    3    3    0    0  0.65467302983E+01 -0.66365989981E+01  0.14209168595E+01  0.94299060887E+01  0.51100000000E-03 0.  1.
        -12    1    3    3    0    0 -0.29456514778E+02  0.31075109285E+02 -0.14794411475E+02  0.45301471177E+02  0.00000000000E+00 0.  1.
</event>
<event>
 7    1  0.2404951E-015  0.9000773E+02  0.7816164E-02  0.1186339E+00
        -11   -1    0    0    0    0  0.00000000000E+00  0.00000000000E+00  0.45593999997E+02  0.45594000000E+02  0.51100000000E-03 0.  1.
         11   -1    0    0    0    0 -0.00000000000E+00 -0.00000000000E+00 -0.45593999997E+02  0.45594000000E+02  0.51100000000E-03 0. -1.
    9900012    2    1    2    0    0  0.77409491505E+00 -0.40797265283E+00 -0.79206425102E+00  0.90007732911E+02  0.89999994186E+02 0.  0.
         12    1    1    2    0    0 -0.77409491505E+00  0.40797265283E+00  0.79206425102E+00  0.11802670887E+01  0.00000000000E+00 0. -1.
         11    1    3    3    0    0 -0.11671893694E+02 -0.13918204371E+02  0.28328812973E+02  0.33652208844E+02  0.51100000000E-03 0. -1.
        -11    1    3    3    0    0 -0.97229321909E+01  0.20418521419E+02 -0.55883899025E+01  0.23295525950E+02  0.51100000000E-03 0.  1.
        -12    1    3    3    0    0  0.22168920800E+02 -0.69082897004E+01 -0.23532487322E+02  0.33059998118E+02  0.00000000000E+00 0.  1.
</event>
<event>
 7    1  0.2404951E-015  0.9000782E+02  0.7816164E-02  0.1186339E+00
        -11   -1    0    0    0    0  0.00000000000E+00  0.00000000000E+00  0.45593999997E+02  0.45594000000E+02  0.51100000000E-03 0. -1.
         11   -1    0    0    0    0 -0.00000000000E+00 -0.00000000000E+00 -0.45593999997E+02  0.45594000000E+02  0.51100000000E-03 0.  1.
    9900012    2    1    2    0    0 -0.61781807965E+00 -0.81885542401E+00 -0.58361971254E+00  0.90007815542E+02  0.90000077908E+02 0.  0.
         12    1    1    2    0    0  0.61781807965E+00  0.81885542401E+00  0.58361971254E+00  0.11801844575E+01  0.00000000000E+00 0. -1.
         11    1    3    3    0    0  0.29656410204E+00  0.21119114969E+01  0.10175118378E+02  0.10396208669E+02  0.51100000000E-03 0. -1.
        -11    1    3    3    0    0 -0.12598202438E+02  0.35649623048E+02 -0.10721198994E+02  0.39300819791E+02  0.51100000000E-03 0.  1.
         12    1    3    3    0    0  0.11683820256E+02 -0.38580389969E+02 -0.37539095967E-01  0.40310787082E+02  0.00000000000E+00 0. -1.
</event>
<event>
 7    1  0.2404951E-015  0.9000801E+02  0.7816164E-02  0.1186338E+00
        -11   -1    0    0    0    0  0.00000000000E+00  0.00000000000E+00  0.45593999997E+02  0.45594000000E+02  0.51100000000E-03 0.  1.
         11   -1    0    0    0    0 -0.00000000000E+00 -0.00000000000E+00 -0.45593999997E+02  0.45594000000E+02  0.51100000000E-03 0. -1.
    9900012    2    1    2    0    0  0.10993975115E+00  0.46734836996E+00  0.10778990902E+01  0.90008013688E+02  0.90000278668E+02 0.  0.
         12    1    1    2    0    0 -0.10993975115E+00 -0.46734836996E+00 -0.10778990902E+01  0.11799863120E+01  0.00000000000E+00 0. -1.
         11    1    3    3    0    0 -0.13079628354E+02  0.12688278886E+02 -0.71433843420E+01  0.19572864867E+02  0.51100000000E-03 0. -1.
        -11    1    3    3    0    0 -0.19794922420E+02 -0.26407448657E+02  0.10001612263E+02  0.34485135150E+02  0.51100000000E-03 0.  1.
         12    1    3    3    0    0  0.32984490526E+02  0.14186518141E+02 -0.17803288306E+01  0.35950013671E+02  0.00000000000E+00 0. -1.
</event>
<event>
 7    1  0.2404951E-015  0.9000773E+02  0.7816164E-02  0.1186339E+00
        -11   -1    0    0    0    0  0.00000000000E+00  0.00000000000E+00  0.45593999997E+02  0.45594000000E+02  0.51100000000E-03 0.  1.
         11   -1    0    0    0    0 -0.00000000000E+00 -0.00000000000E+00 -0.45593999997E+02  0.45594000000E+02  0.51100000000E-03 0. -1.
    9900012    2    1    2    0    0 -0.82836167278E+00 -0.64351218655E+00  0.54106892334E+00  0.90007726059E+02  0.89999987243E+02 0.  0.
         12    1    1    2    0    0  0.82836167278E+00  0.64351218655E+00 -0.54106892334E+00  0.11802739406E+01  0.00000000000E+00 0. -1.
         11    1    3    3    0    0 -0.26531393697E+01 -0.10567288813E+02  0.21103222155E+01  0.11097756597E+02  0.51100000000E-03 0. -1.
        -11    1    3    3    0    0 -0.21138564449E+01  0.36644817430E+02  0.22228650268E+02  0.42911815699E+02  0.51100000000E-03 0.  1.
         12    1    3    3    0    0  0.39386341418E+01 -0.26721040803E+02 -0.23797903560E+02  0.35998153763E+02  0.00000000000E+00 0. -1.
</event>
<event>
 7    1  0.2404951E-015  0.9000707E+02  0.7816164E-02  0.1186340E+00
        -11   -1    0    0    0    0  0.00000000000E+00  0.00000000000E+00  0.45593999997E+02  0.45594000000E+02  0.51100000000E-03 0. -1.
         11   -1    0    0    0    0 -0.00000000000E+00 -0.00000000000E+00 -0.45593999997E+02  0.45594000000E+02  0.51100000000E-03 0.  1.
    9900012    2    1    2    0    0  0.95023997780E+00  0.69948093907E+00  0.48723549708E-01  0.90007066647E+02  0.89999319124E+02 0.  0.
         12    1    1    2    0    0 -0.95023997780E+00 -0.69948093907E+00 -0.48723549708E-01  0.11809333528E+01  0.00000000000E+00 0. -1.
         11    1    3    3    0    0 -0.87703864988E+01 -0.34548338622E+01 -0.34867650935E+01  0.10050526724E+02  0.51100000000E-03 0. -1.
        -11    1    3    3    0    0 -0.25059981397E+02 -0.20638662797E+01 -0.24306845429E+02  0.34972631394E+02  0.51100000000E-03 0.  1.
         12    1    3    3    0    0  0.34780607874E+02  0.62181810810E+01  0.27842334072E+02  0.44983908529E+02  0.00000000000E+00 0. -1.
</event>
<event>
 7    1  0.2404951E-015  0.9000752E+02  0.7816164E-02  0.1186339E+00
        -11   -1    0    0    0    0  0.00000000000E+00  0.00000000000E+00  0.45593999997E+02  0.45594000000E+02  0.51100000000E-03 0. -1.
         11   -1    0    0    0    0 -0.00000000000E+00 -0.00000000000E+00 -0.45593999997E+02  0.45594000000E+02  0.51100000000E-03 0.  1.
    9900012    2    1    2    0    0  0.11071060240E+01 -0.23331022182E+00 -0.33677855538E+00  0.90007518232E+02  0.89999776673E+02 0.  0.
         12    1    1    2    0    0 -0.11071060240E+01  0.23331022182E+00  0.33677855538E+00  0.11804817675E+01  0.00000000000E+00 0. -1.
         11    1    3    3    0    0  0.78168332331E+01 -0.14986024952E+02 -0.70991224507E+01  0.18332522071E+02  0.51100000000E-03 0. -1.
        -11    1    3    3    0    0 -0.25969538034E+02 -0.17400925449E+02 -0.64779642844E+01  0.31924491127E+02  0.51100000000E-03 0.  1.
         12    1    3    3    0    0  0.19259810825E+02  0.32153640179E+02  0.13240308180E+02  0.39750505034E+02  0.00000000000E+00 0. -1.
</event>
<event>
 7    1  0.2404951E-015  0.9000769E+02  0.7816164E-02  0.1186339E+00
        -11   -1    0    0    0    0  0.00000000000E+00  0.00000000000E+00  0.45593999997E+02  0.45594000000E+02  0.51100000000E-03 0. -1.
         11   -1    0    0    0    0 -0.00000000000E+00 -0.00000000000E+00 -0.45593999997E+02  0.45594000000E+02  0.51100000000E-03 0.  1.
    9900012    2    1    2    0    0  0.97560031487E+00 -0.21388498256E-01  0.66398762426E+00  0.90007689445E+02  0.89999950145E+02 0.  0.
         12    1    1    2    0    0 -0.97560031487E+00  0.21388498256E-01 -0.66398762426E+00  0.11803105555E+01  0.00000000000E+00 0. -1.
         11    1    3    3    0    0  0.69014473600E+01 -0.74642162132E+01  0.81797627272E+01  0.13048103995E+02  0.51100000000E-03 0. -1.
        -11    1    3    3    0    0  0.23517129421E+02  0.30980833387E+02 -0.40073695732E+01  0.39101488778E+02  0.51100000000E-03 0.  1.
         12    1    3    3    0    0 -0.29442976466E+02 -0.23538005672E+02 -0.35084055298E+01  0.37858096671E+02  0.00000000000E+00 0. -1.
</event>
<event>
 7    1  0.2404951E-015  0.9000772E+02  0.7816164E-02  0.1186339E+00
        -11   -1    0    0    0    0  0.00000000000E+00  0.00000000000E+00  0.45593999997E+02  0.45594000000E+02  0.51100000000E-03 0.  1.
         11   -1    0    0    0    0 -0.00000000000E+00 -0.00000000000E+00 -0.45593999997E+02  0.45594000000E+02  0.51100000000E-03 0. -1.
    9900012    2    1    2    0    0  0.10195697297E+01 -0.56379218076E+00  0.18886920928E+00  0.90007722221E+02  0.89999983355E+02 0.  0.
         12    1    1    2    0    0 -0.10195697297E+01  0.56379218076E+00 -0.18886920928E+00  0.11802777787E+01  0.00000000000E+00 0. -1.
         11    1    3    3    0    0 -0.19000969225E+02 -0.15932162387E+02 -0.25962934186E+02  0.35901874347E+02  0.51100000000E-03 0. -1.
        -11    1    3    3    0    0 -0.10042052601E+02  0.72212493520E-01 -0.19178005987E+01  0.10223795503E+02  0.51100000000E-03 0.  1.
        -12    1    3    3    0    0  0.30062591556E+02  0.15296157713E+02  0.28069603994E+02  0.43882052371E+02  0.00000000000E+00 0.  1.
</event>
<event>
 7    1  0.2404951E-015  0.9000786E+02  0.7816164E-02  0.1186339E+00
        -11   -1    0    0    0    0  0.00000000000E+00  0.00000000000E+00  0.45593999997E+02  0.45594000000E+02  0.51100000000E-03 0. -1.
         11   -1    0    0    0    0 -0.00000000000E+00 -0.00000000000E+00 -0.45593999997E+02  0.45594000000E+02  0.51100000000E-03 0.  1.
    9900012    2    1    2    0    0 -0.10108754931E+00 -0.94425017831E+00 -0.70064848221E+00  0.90007857895E+02  0.90000120819E+02 0.  0.
         12    1    1    2    0    0  0.10108754931E+00  0.94425017831E+00  0.70064848221E+00  0.11801421048E+01  0.00000000000E+00 0. -1.
         11    1    3    3    0    0  0.30647770525E+02  0.18848582644E+02  0.13424978970E+02  0.38402929139E+02  0.51100000000E-03 0. -1.
        -11    1    3    3    0    0  0.65736162793E+01 -0.82514366795E+01 -0.24383898783E+01  0.10827944575E+02  0.51100000000E-03 0.  1.
        -12    1    3    3    0    0 -0.37322474354E+02 -0.11541396143E+02 -0.11687237574E+02  0.40776984181E+02  0.00000000000E+00 0.  1.
</event>
<event>
 7    1  0.2404951E-015  0.9000767E+02  0.7816164E-02  0.1186339E+00
        -11   -1    0    0    0    0  0.00000000000E+00  0.00000000000E+00  0.45593999997E+02  0.45594000000E+02  0.51100000000E-03 0. -1.
         11   -1    0    0    0    0 -0.00000000000E+00 -0.00000000000E+00 -0.45593999997E+02  0.45594000000E+02  0.51100000000E-03 0.  1.
    9900012    2    1    2    0    0 -0.41104720111E+00 -0.92084598229E+00 -0.61340884189E+00  0.90007666347E+02  0.89999926743E+02 0.  0.
         12    1    1    2    0    0  0.41104720111E+00  0.92084598229E+00  0.61340884189E+00  0.11803336528E+01  0.00000000000E+00 0. -1.
         11    1    3    3    0    0  0.11512846940E+02 -0.29585371270E+02  0.22693775377E+02  0.39023675877E+02  0.51100000000E-03 0. -1.
        -11    1    3    3    0    0 -0.38694616202E+01  0.87024871756E+00  0.76443086886E+01  0.86119406436E+01  0.51100000000E-03 0.  1.
        -12    1    3    3    0    0 -0.80544325208E+01  0.27794276570E+02 -0.30951492907E+02  0.42372049826E+02  0.00000000000E+00 0.  1.
</event>
<event>
 7    1  0.2404951E-015  0.9000770E+02  0.7816164E-02  0.1186339E+00
        -11   -1    0    0    0    0  0.00000000000E+00  0.00000000000E+00  0.45593999997E+02  0.45594000000E+02  0.51100000000E-03 0.  1.
         11   -1    0    0    0    0 -0.00000000000E+00 -0.00000000000E+00 -0.45593999997E+02  0.45594000000E+02  0.51100000000E-03 0. -1.
    9900012    2    1    2    0    0  0.36252825342E+00  0.65146127859E+00 -0.91503268566E+00  0.90007697773E+02  0.89999958583E+02 0.  0.
         12    1    1    2    0    0 -0.36252825342E+00 -0.65146127859E+00  0.91503268566E+00  0.11803022273E+01  0.00000000000E+00 0. -1.
         11    1    3    3    0    0  0.30638900177E+01  0.81119792069E+01 -0.46330066231E+01  0.98313976282E+01  0.51100000000E-03 0. -1.
        -11    1    3    3    0    0 -0.18941885517E+01  0.18148379064E+02  0.35162417026E+02  0.39614986865E+02  0.51100000000E-03 0.  1.
         12    1    3    3    0    0 -0.80717321255E+00 -0.25608896993E+02 -0.31444443089E+02  0.40561313279E+02  0.00000000000E+00 0. -1.
</event>
<event>
 7    1  0.2404951E-015  0.9000779E+02  0.7816164E-02  0.1186339E+00
        -11   -1    0    0    0    0  0.00000000000E+00  0.00000000000E+00  0.45593999997E+02  0.45594000000E+02  0.51100000000E-03 0. -1.
         11   -1    0    0    0    0 -0.00000000000E+00 -0.00000000000E+00 -0.45593999997E+02  0.45594000000E+02  0.51100000000E-03 0.  1.
    9900012    2    1    2    0    0 -0.97398596096E+00  0.16955331015E+00 -0.64459460230E+00  0.90007788503E+02  0.90000050511E+02 0.  0.
         12    1    1    2    0    0  0.97398596096E+00 -0.16955331015E+00  0.64459460230E+00  0.11802114973E+01  0.00000000000E+00 0. -1.
         11    1    3    3    0    0  0.85500809348E+01  0.31225868782E+01 -0.40582300404E+00  0.91114831601E+01  0.51100000000E-03 0. -1.
        -11    1    3    3    0    0 -0.54041468814E+01  0.38104712255E+02 -0.68955405510E+01  0.39098879514E+02  0.51100000000E-03 0.  1.
         12    1    3    3    0    0 -0.41199200144E+01 -0.41057745823E+02  0.66567689528E+01  0.41797425828E+02  0.00000000000E+00 0. -1.
</event>
<event>
 7    1  0.2404951E-015  0.9000763E+02  0.7816164E-02  0.1186339E+00
        -11   -1    0    0    0    0  0.00000000000E+00  0.00000000000E+00  0.45593999997E+02  0.45594000000E+02  0.51100000000E-03 0. -1.
         11   -1    0    0    0    0 -0.00000000000E+00 -0.00000000000E+00 -0.45593999997E+02  0.45594000000E+02  0.51100000000E-03 0.  1.
    9900012    2    1    2    0    0  0.58921600146E-01  0.11089256863E+01 -0.40011964249E+00  0.90007625627E+02  0.89999885485E+02 0.  0.
         12    1    1    2    0    0 -0.58921600146E-01 -0.11089256863E+01  0.40011964249E+00  0.11803743732E+01  0.00000000000E+00 0. -1.
         11    1    3    3    0    0 -0.17036067321E+02 -0.22314651683E+01  0.34035587746E+02  0.38126477152E+02  0.51100000000E-03 0. -1.
        -11    1    3    3    0    0 -0.99212812179E+01  0.23433905715E+01 -0.34562463047E+01  0.10764243548E+02  0.51100000000E-03 0.  1.
        -12    1    3    3    0    0  0.27016270139E+02  0.99700028318E+00 -0.30979461083E+02  0.41116904927E+02  0.00000000000E+00 0.  1.
</event>
<event>
 7    1  0.2404951E-015  0.9000773E+02  0.7816164E-02  0.1186339E+00
        -11   -1    0    0    0    0  0.00000000000E+00  0.00000000000E+00  0.45593999997E+02  0.45594000000E+02  0.51100000000E-03 0. -1.
         11   -1    0    0    0    0 -0.00000000000E+00 -0.00000000000E+00 -0.45593999997E+02  0.45594000000E+02  0.51100000000E-03 0.  1.
    9900012    2    1    2    0    0 -0.31917359011E+00 -0.75991565068E+00 -0.84479947325E+00  0.90007733197E+02  0.89999994475E+02 0.  0.
         12    1    1    2    0    0  0.31917359011E+00  0.75991565068E+00  0.84479947325E+00  0.11802668032E+01  0.00000000000E+00 0. -1.
         11    1    3    3    0    0 -0.10299055680E+02 -0.66793278543E+01  0.11087859302E+02  0.16541601877E+02  0.51100000000E-03 0. -1.
        -11    1    3    3    0    0 -0.16067386882E+02 -0.26069082962E+02 -0.98250300670E+01  0.32160367283E+02  0.51100000000E-03 0.  1.
         12    1    3    3    0    0  0.26047268972E+02  0.31988495166E+02 -0.21076287080E+01  0.41305764037E+02  0.00000000000E+00 0. -1.
</event>
<event>
 7    1  0.2404951E-015  0.9000770E+02  0.7816164E-02  0.1186339E+00
        -11   -1    0    0    0    0  0.00000000000E+00  0.00000000000E+00  0.45593999997E+02  0.45594000000E+02  0.51100000000E-03 0.  1.
         11   -1    0    0    0    0 -0.00000000000E+00 -0.00000000000E+00 -0.45593999997E+02  0.45594000000E+02  0.51100000000E-03 0. -1.
    9900012    2    1    2    0    0  0.99252001258E+00  0.50350280015E+00 -0.39305618045E+00  0.90007701645E+02  0.89999962507E+02 0.  0.
         12    1    1    2    0    0 -0.99252001258E+00 -0.50350280015E+00  0.39305618045E+00  0.11802983547E+01  0.00000000000E+00 0. -1.
         11    1    3    3    0    0 -0.18369302957E+01  0.45686622555E-01  0.85174872626E+01  0.87134373073E+01  0.51100000000E-03 0. -1.
        -11    1    3    3    0    0  0.22615668717E+02  0.86045498510E+01  0.28995547364E+02  0.37765705566E+02  0.51100000000E-03 0.  1.
         12    1    3    3    0    0 -0.19786218409E+02 -0.81467336735E+01 -0.37906090807E+02  0.43528558772E+02  0.00000000000E+00 0. -1.
</event>
<event>
 7    1  0.2981857E-015  0.9000776E+02  0.7816164E-02  0.1186339E+00
        -11   -1    0    0    0    0  0.00000000000E+00  0.00000000000E+00  0.45593999997E+02  0.45594000000E+02  0.51100000000E-03 0.  1.
         11   -1    0    0    0    0 -0.00000000000E+00 -0.00000000000E+00 -0.45593999997E+02  0.45594000000E+02  0.51100000000E-03 0. -1.
    9900012    2    1    2    0    0 -0.59437703232E+00 -0.81828806843E+00  0.60835492292E+00  0.90007756325E+02  0.90000017909E+02 0.  0.
         12    1    1    2    0    0  0.59437703232E+00  0.81828806843E+00 -0.60835492292E+00  0.11802436747E+01  0.00000000000E+00 0. -1.
         11    1    3    3    0    0 -0.29954225463E+01 -0.23984104929E+02 -0.29239953161E+02  0.37936587967E+02  0.51100000000E-03 0. -1.
        -11    1    3    3    0    0 -0.78064824959E+01  0.79726989388E+00 -0.50864096635E+01  0.93513834147E+01  0.51100000000E-03 0.  1.
        -12    1    3    3    0    0  0.10207528010E+02  0.22368546967E+02  0.34934717748E+02  0.42719784943E+02  0.00000000000E+00 0.  1.
</event>
<event>
 7    1  0.2806790E-015  0.9000775E+02  0.7816164E-02  0.1186339E+00
        -11   -1    0    0    0    0  0.00000000000E+00  0.00000000000E+00  0.45593999997E+02  0.45594000000E+02  0.51100000000E-03 0. -1.
         11   -1    0    0    0    0 -0.00000000000E+00 -0.00000000000E+00 -0.45593999997E+02  0.45594000000E+02  0.51100000000E-03 0.  1.
    9900012    2    1    2    0    0 -0.64828617244E+00  0.17931803965E+00 -0.96982121055E+00  0.90007752949E+02  0.90000014488E+02 0.  0.
         12    1    1    2    0    0  0.64828617244E+00 -0.17931803965E+00  0.96982121055E+00  0.11802470509E+01  0.00000000000E+00 0. -1.
         11    1    3    3    0    0  0.12255221079E+02 -0.26663532521E+02  0.19176471477E+02  0.35055263067E+02  0.51100000000E-03 0. -1.
        -11    1    3    3    0    0  0.71248409246E+01 -0.50304802464E+01  0.46421405716E+01  0.98802104764E+01  0.51100000000E-03 0.  1.
        -12    1    3    3    0    0 -0.20028348176E+02  0.31873330807E+02 -0.24788433259E+02  0.45072279405E+02  0.00000000000E+00 0.  1.
</event>
<event>
 7    1  0.2404951E-015  0.9000762E+02  0.7816164E-02  0.1186339E+00
        -11   -1    0    0    0    0  0.00000000000E+00  0.00000000000E+00  0.45593999997E+02  0.45594000000E+02  0.51100000000E-03 0.  1.
         11   -1    0    0    0    0 -0.00000000000E+00 -0.00000000000E+00 -0.45593999997E+02  0.45594000000E+02  0.51100000000E-03 0. -1.
    9900012    2    1    2    0    0  0.61707873724E+00 -0.72060108309E+00  0.70231167805E+00  0.90007621340E+02  0.89999881141E+02 0.  0.
         12    1    1    2    0    0 -0.61707873724E+00  0.72060108309E+00 -0.70231167805E+00  0.11803786604E+01  0.00000000000E+00 0. -1.
         11    1    3    3    0    0 -0.34820291766E+01  0.44753295851E+01 -0.11674248199E+02  0.12978488870E+02  0.51100000000E-03 0. -1.
        -11    1    3    3    0    0 -0.35465365876E+02 -0.28189280133E+01  0.11478740499E+02  0.37383151493E+02  0.51100000000E-03 0.  1.
         12    1    3    3    0    0  0.39564473790E+02 -0.23770026550E+01  0.89781937786E+00  0.39645980976E+02  0.00000000000E+00 0. -1.
</event>
<event>
 7    1  0.2404951E-015  0.9000779E+02  0.7816164E-02  0.1186339E+00
        -11   -1    0    0    0    0  0.00000000000E+00  0.00000000000E+00  0.45593999997E+02  0.45594000000E+02  0.51100000000E-03 0.  1.
         11   -1    0    0    0    0 -0.00000000000E+00 -0.00000000000E+00 -0.45593999997E+02  0.45594000000E+02  0.51100000000E-03 0. -1.
    9900012    2    1    2    0    0 -0.84214105372E+00  0.82378113211E+00  0.71254143345E-01  0.90007790671E+02  0.90000052708E+02 0.  0.
         12    1    1    2    0    0  0.84214105372E+00 -0.82378113211E+00 -0.71254143345E-01  0.11802093293E+01  0.00000000000E+00 0. -1.
         11    1    3    3    0    0  0.12427707804E+02 -0.44229258983E+01  0.63080654582E+01  0.14621965834E+02  0.51100000000E-03 0. -1.
        -11    1    3    3    0    0 -0.28858518044E+01 -0.25521758570E+02  0.20863044656E+02  0.33090103259E+02  0.51100000000E-03 0.  1.
         12    1    3    3    0    0 -0.10383997053E+02  0.30768465600E+02 -0.27099855971E+02  0.42295721578E+02  0.00000000000E+00 0. -1.
</event>
<event>
 7    1  0.2404951E-015  0.9000768E+02  0.7816164E-02  0.1186339E+00
        -11   -1    0    0    0    0  0.00000000000E+00  0.00000000000E+00  0.45593999997E+02  0.45594000000E+02  0.51100000000E-03 0.  1.
         11   -1    0    0    0    0 -0.00000000000E+00 -0.00000000000E+00 -0.45593999997E+02  0.45594000000E+02  0.51100000000E-03 0. -1.
    9900012    2    1    2    0    0 -0.26994400389E+00 -0.41675366639E+00  0.10707954381E+01  0.90007679597E+02  0.89999940168E+02 0.  0.
         12    1    1    2    0    0  0.26994400389E+00  0.41675366639E+00 -0.10707954381E+01  0.11803204031E+01  0.00000000000E+00 0. -1.
         11    1    3    3    0    0  0.48275840668E+01 -0.63073821966E+01 -0.23724731696E+02  0.25019023410E+02  0.51100000000E-03 0. -1.
        -11    1    3    3    0    0 -0.78782033138E+01 -0.26384327588E+02  0.13627499921E+02  0.30723079013E+02  0.51100000000E-03 0.  1.
        -12    1    3    3    0    0  0.27806752431E+01  0.32274956118E+02  0.11168027213E+02  0.34265577174E+02  0.00000000000E+00 0.  1.
</event>
<event>
 7    1  0.2404951E-015  0.9000766E+02  0.7816164E-02  0.1186339E+00
        -11   -1    0    0    0    0  0.00000000000E+00  0.00000000000E+00  0.45593999997E+02  0.45594000000E+02  0.51100000000E-03 0. -1.
         11   -1    0    0    0    0 -0.00000000000E+00 -0.00000000000E+00 -0.45593999997E+02  0.45594000000E+02  0.51100000000E-03 0.  1.
    9900012    2    1    2    0    0 -0.11549144735E+01  0.24178423001E+00  0.30260049701E-01  0.90007659911E+02  0.89999920222E+02 0.  0.
         12    1    1    2    0    0  0.11549144735E+01 -0.24178423001E+00 -0.30260049701E-01  0.11803400890E+01  0.00000000000E+00 0. -1.
         11    1    3    3    0    0 -0.67916609995E+00  0.34449234342E+02  0.14813489648E+02  0.37505339476E+02  0.51100000000E-03 0. -1.
        -11    1    3    3    0    0  0.76994494465E+01  0.19753968528E+01  0.60209962658E+01  0.99717656812E+01  0.51100000000E-03 0.  1.
        -12    1    3    3    0    0 -0.81751978201E+01 -0.36182846965E+02 -0.20804225864E+02  0.42530554754E+02  0.00000000000E+00 0.  1.
</event>
<event>
 7    1  0.2404951E-015  0.9000751E+02  0.7816164E-02  0.1186340E+00
        -11   -1    0    0    0    0  0.00000000000E+00  0.00000000000E+00  0.45593999997E+02  0.45594000000E+02  0.51100000000E-03 0.  1.
         11   -1    0    0    0    0 -0.00000000000E+00 -0.00000000000E+00 -0.45593999997E+02  0.45594000000E+02  0.51100000000E-03 0. -1.
    9900012    2    1    2    0    0  0.11734977052E+01 -0.10791139345E+00 -0.69417107923E-01  0.90007508379E+02  0.89999766689E+02 0.  0.
         12    1    1    2    0    0 -0.11734977052E+01  0.10791139345E+00  0.69417107923E-01  0.11804916212E+01  0.00000000000E+00 0. -1.
         11    1    3    3    0    0 -0.17740766452E+02 -0.11804018981E+02 -0.27801257840E+02  0.35028268530E+02  0.51100000000E-03 0. -1.
        -11    1    3    3    0    0 -0.17096953655E+01 -0.14643713701E+01 -0.98675231306E+01  0.10121040201E+02  0.51100000000E-03 0.  1.
        -12    1    3    3    0    0  0.20623959523E+02  0.13160478958E+02  0.37599363863E+02  0.44858199648E+02  0.00000000000E+00 0.  1.
</event>
<event>
 7    1  0.2404951E-015  0.9000759E+02  0.7816164E-02  0.1186339E+00
        -11   -1    0    0    0    0  0.00000000000E+00  0.00000000000E+00  0.45593999997E+02  0.45594000000E+02  0.51100000000E-03 0.  1.
         11   -1    0    0    0    0 -0.00000000000E+00 -0.00000000000E+00 -0.45593999997E+02  0.45594000000E+02  0.51100000000E-03 0. -1.
    9900012    2    1    2    0    0 -0.12834133264E+00 -0.32833743028E+00  0.11265345313E+01  0.90007594554E+02  0.89999854002E+02 0.  0.
         12    1    1    2    0    0  0.12834133264E+00  0.32833743028E+00 -0.11265345313E+01  0.11804054456E+01  0.00000000000E+00 0. -1.
         11    1    3    3    0    0 -0.31220189010E+02 -0.45383543972E+01 -0.25681346734E+02  0.40679582505E+02  0.51100000000E-03 0. -1.
        -11    1    3    3    0    0  0.62404135419E+01  0.17653027513E+00 -0.55335246366E+01  0.83422910089E+01  0.51100000000E-03 0.  1.
        -12    1    3    3    0    0  0.24851434135E+02  0.40334866918E+01  0.32341405902E+02  0.40985721040E+02  0.00000000000E+00 0.  1.
</event>
<event>
 7    1  0.2404951E-015  0.9000776E+02  0.7816164E-02  0.1186339E+00
        -11   -1    0    0    0    0  0.00000000000E+00  0.00000000000E+00  0.45593999997E+02  0.45594000000E+02  0.51100000000E-03 0. -1.
         11   -1    0    0    0    0 -0.00000000000E+00 -0.00000000000E+00 -0.45593999997E+02  0.45594000000E+02  0.51100000000E-03 0.  1.
    9900012    2    1    2    0    0  0.10542014485E+00 -0.11224717720E+01 -0.34915920189E+00  0.90007759163E+02  0.90000020784E+02 0.  0.
         12    1    1    2    0    0 -0.10542014485E+00  0.11224717720E+01  0.34915920189E+00  0.11802408374E+01  0.00000000000E+00 0. -1.
         11    1    3    3    0    0  0.46919677734E+01  0.86225824107E+01  0.33975547215E+02  0.35365255518E+02  0.51100000000E-03 0. -1.
        -11    1    3    3    0    0 -0.22800216660E+01 -0.19588053872E+01  0.95555304242E+01  0.10017164234E+02  0.51100000000E-03 0.  1.
        -12    1    3    3    0    0 -0.23065259625E+01 -0.77862487955E+01 -0.43880236841E+02  0.44625339411E+02  0.00000000000E+00 0.  1.
</event>
<event>
 7    1  0.2404951E-015  0.9000770E+02  0.7816164E-02  0.1186339E+00
        -11   -1    0    0    0    0  0.00000000000E+00  0.00000000000E+00  0.45593999997E+02  0.45594000000E+02  0.51100000000E-03 0.  1.
         11   -1    0    0    0    0 -0.00000000000E+00 -0.00000000000E+00 -0.45593999997E+02  0.45594000000E+02  0.51100000000E-03 0. -1.
    9900012    2    1    2    0    0 -0.70344567915E+00  0.89369526963E+00 -0.31557789773E+00  0.90007696451E+02  0.89999957244E+02 0.  0.
         12    1    1    2    0    0  0.70344567915E+00 -0.89369526963E+00  0.31557789773E+00  0.11803035491E+01  0.00000000000E+00 0. -1.
         11    1    3    3    0    0  0.32055704542E+01  0.45542321347E+01 -0.70075988823E+01  0.89511538156E+01  0.51100000000E-03 0. -1.
        -11    1    3    3    0    0 -0.33336943358E+02  0.22698016910E+02  0.95527820268E+01  0.41446440243E+02  0.51100000000E-03 0.  1.
         12    1    3    3    0    0  0.29427927224E+02 -0.26358553775E+02 -0.28607610422E+01  0.39610102393E+02  0.00000000000E+00 0. -1.
</event>
<event>
 7    1  0.2404951E-015  0.9000766E+02  0.7816164E-02  0.1186339E+00
        -11   -1    0    0    0    0  0.00000000000E+00  0.00000000000E+00  0.45593999997E+02  0.45594000000E+02  0.51100000000E-03 0. -1.
         11   -1    0    0    0    0 -0.00000000000E+00 -0.00000000000E+00 -0.45593999997E+02  0.45594000000E+02  0.51100000000E-03 0.  1.
    9900012    2    1    2    0    0 -0.85971265498E+00 -0.76420501193E+00 -0.26475050696E+00  0.90007657685E+02  0.89999917967E+02 0.  0.
         12    1    1    2    0    0  0.85971265498E+00  0.76420501193E+00  0.26475050696E+00  0.11803423149E+01  0.00000000000E+00 0. -1.
         11    1    3    3    0    0 -0.47538267646E+01  0.93311931308E+00 -0.81576138284E+01  0.94876890861E+01  0.51100000000E-03 0. -1.
        -11    1    3    3    0    0 -0.58072263384E+01 -0.11150470741E+02 -0.34127930213E+02  0.36369939461E+02  0.51100000000E-03 0.  1.
         12    1    3    3    0    0  0.97013404480E+01  0.94531464158E+01  0.42020793534E+02  0.44150029138E+02  0.00000000000E+00 0. -1.
</event>
<event>
 7    1  0.2404951E-015  0.9000836E+02  0.7816164E-02  0.1186338E+00
        -11   -1    0    0    0    0  0.00000000000E+00  0.00000000000E+00  0.45593999997E+02  0.45594000000E+02  0.51100000000E-03 0.  1.
         11   -1    0    0    0    0 -0.00000000000E+00 -0.00000000000E+00 -0.45593999997E+02  0.45594000000E+02  0.51100000000E-03 0. -1.
    9900012    2    1    2    0    0  0.69251633398E+00 -0.95483576270E+00 -0.16041872754E-01  0.90008361264E+02  0.90000630830E+02 0.  0.
         12    1    1    2    0    0 -0.69251633398E+00  0.95483576270E+00  0.16041872754E-01  0.11796387363E+01  0.00000000000E+00 0. -1.
         11    1    3    3    0    0  0.19817943866E+02  0.24634722886E+02  0.16012485207E+02  0.35440374624E+02  0.51100000000E-03 0. -1.
        -11    1    3    3    0    0  0.35588680521E+01  0.50862466722E+01  0.75064807337E+01  0.97407751380E+01  0.51100000000E-03 0.  1.
        -12    1    3    3    0    0 -0.22684295584E+02 -0.30675805320E+02 -0.23535007813E+02  0.44827211501E+02  0.00000000000E+00 0.  1.
</event>
<event>
 7    1  0.2404951E-015  0.9000792E+02  0.7816164E-02  0.1186339E+00
        -11   -1    0    0    0    0  0.00000000000E+00  0.00000000000E+00  0.45593999997E+02  0.45594000000E+02  0.51100000000E-03 0.  1.
         11   -1    0    0    0    0 -0.00000000000E+00 -0.00000000000E+00 -0.45593999997E+02  0.45594000000E+02  0.51100000000E-03 0. -1.
    9900012    2    1    2    0    0  0.29365620346E+00  0.21839057683E+00  0.11218988965E+01  0.90007921382E+02  0.90000185144E+02 0.  0.
         12    1    1    2    0    0 -0.29365620346E+00 -0.21839057683E+00 -0.11218988965E+01  0.11800786176E+01  0.00000000000E+00 0. -1.
         11    1    3    3    0    0  0.41871640699E+01 -0.70854865513E+01 -0.57166750351E+01  0.10020820143E+02  0.51100000000E-03 0. -1.
        -11    1    3    3    0    0 -0.26020318719E+02  0.95781933017E+01 -0.27514143825E+02  0.39061834108E+02  0.51100000000E-03 0.  1.
         12    1    3    3    0    0  0.22126810852E+02 -0.22743161736E+01  0.34352717757E+02  0.40925267132E+02  0.00000000000E+00 0. -1.
</event>
<event>
 7    1  0.2404951E-015  0.9000773E+02  0.7816164E-02  0.1186339E+00
        -11   -1    0    0    0    0  0.00000000000E+00  0.00000000000E+00  0.45593999997E+02  0.45594000000E+02  0.51100000000E-03 0.  1.
         11   -1    0    0    0    0 -0.00000000000E+00 -0.00000000000E+00 -0.45593999997E+02  0.45594000000E+02  0.51100000000E-03 0. -1.
    9900012    2    1    2    0    0 -0.78700841950E+00  0.79064974444E+00  0.38538039979E+00  0.90007734215E+02  0.89999995507E+02 0.  0.
         12    1    1    2    0    0  0.78700841950E+00 -0.79064974444E+00 -0.38538039979E+00  0.11802657850E+01  0.00000000000E+00 0. -1.
         11    1    3    3    0    0 -0.86427967202E+01  0.31138289389E+01 -0.90254944327E+01  0.12878408901E+02  0.51100000000E-03 0. -1.
        -11    1    3    3    0    0 -0.25488860184E+02 -0.16972027033E+02 -0.14169408456E+02  0.33741722412E+02  0.51100000000E-03 0.  1.
         12    1    3    3    0    0  0.33344648485E+02  0.14648847838E+02  0.23580283288E+02  0.43387602902E+02  0.00000000000E+00 0. -1.
</event>
<event>
 7    1  0.2404951E-015  0.9000812E+02  0.7816164E-02  0.1186338E+00
        -11   -1    0    0    0    0  0.00000000000E+00  0.00000000000E+00  0.45593999997E+02  0.45594000000E+02  0.51100000000E-03 0.  1.
         11   -1    0    0    0    0 -0.00000000000E+00 -0.00000000000E+00 -0.45593999997E+02  0.45594000000E+02  0.51100000000E-03 0. -1.
    9900012    2    1    2    0    0  0.64093220943E+00  0.12740874287E+00  0.98238776952E+00  0.90008121695E+02  0.90000388101E+02 0.  0.
         12    1    1    2    0    0 -0.64093220943E+00 -0.12740874287E+00 -0.98238776952E+00  0.11798783050E+01  0.00000000000E+00 0. -1.
         11    1    3    3    0    0 -0.20977577209E+00 -0.10032271805E+02 -0.77615044129E+01  0.12685875392E+02  0.51100000000E-03 0. -1.
        -11    1    3    3    0    0 -0.23982801360E+01  0.41098023448E+02  0.17904732568E+02  0.44892969689E+02  0.51100000000E-03 0.  1.
         12    1    3    3    0    0  0.32489881175E+01 -0.30938342899E+02 -0.91608403854E+01  0.32429276614E+02  0.00000000000E+00 0. -1.
</event>
<event>
 7    1  0.2404951E-015  0.9000742E+02  0.7816164E-02  0.1186340E+00
        -11   -1    0    0    0    0  0.00000000000E+00  0.00000000000E+00  0.45593999997E+02  0.45594000000E+02  0.51100000000E-03 0.  1.
         11   -1    0    0    0    0 -0.00000000000E+00 -0.00000000000E+00 -0.45593999997E+02  0.45594000000E+02  0.51100000000E-03 0. -1.
    9900012    2    1    2    0    0  0.71184079365E-01 -0.24837154846E+00  0.11519557181E+01  0.90007424896E+02  0.89999682104E+02 0.  0.
         12    1    1    2    0    0 -0.71184079365E-01  0.24837154846E+00 -0.11519557181E+01  0.11805751038E+01  0.00000000000E+00 0. -1.
         11    1    3    3    0    0  0.34461205824E+01 -0.28529363663E+01 -0.77098605655E+01  0.89138624164E+01  0.51100000000E-03 0. -1.
        -11    1    3    3    0    0 -0.17088254385E+02 -0.35416723758E+02 -0.15538414605E+01  0.39354379467E+02  0.51100000000E-03 0.  1.
         12    1    3    3    0    0  0.13713317882E+02  0.38021288576E+02  0.10415657744E+02  0.41739183013E+02  0.00000000000E+00 0. -1.
</event>
<event>
 7    1  0.2404951E-015  0.9000769E+02  0.7816164E-02  0.1186339E+00
        -11   -1    0    0    0    0  0.00000000000E+00  0.00000000000E+00  0.45593999997E+02  0.45594000000E+02  0.51100000000E-03 0.  1.
         11   -1    0    0    0    0 -0.00000000000E+00 -0.00000000000E+00 -0.45593999997E+02  0.45594000000E+02  0.51100000000E-03 0. -1.
    9900012    2    1    2    0    0  0.17367531962E+00 -0.97845891328E+00  0.63686194376E+00  0.90007687288E+02  0.89999947961E+02 0.  0.
         12    1    1    2    0    0 -0.17367531962E+00  0.97845891328E+00 -0.63686194376E+00  0.11803127115E+01  0.00000000000E+00 0. -1.
         11    1    3    3    0    0  0.50747120208E+01  0.38410895077E+01 -0.44056507009E+01  0.77405703316E+01  0.51100000000E-03 0. -1.
        -11    1    3    3    0    0  0.38352249884E+02 -0.61218880803E+01  0.21152881091E+01  0.38895334281E+02  0.51100000000E-03 0.  1.
         12    1    3    3    0    0 -0.43253286585E+02  0.13023396593E+01  0.29272245355E+01  0.43371782676E+02  0.00000000000E+00 0. -1.
</event>
<event>
 7    1  0.2404951E-015  0.9000772E+02  0.7816164E-02  0.1186339E+00
        -11   -1    0    0    0    0  0.00000000000E+00  0.00000000000E+00  0.45593999997E+02  0.45594000000E+02  0.51100000000E-03 0.  1.
         11   -1    0    0    0    0 -0.00000000000E+00 -0.00000000000E+00 -0.45593999997E+02  0.45594000000E+02  0.51100000000E-03 0. -1.
    9900012    2    1    2    0    0  0.11090334726E+01 -0.16202215162E+00  0.36994969602E+00  0.90007716475E+02  0.89999977533E+02 0.  0.
         12    1    1    2    0    0 -0.11090334726E+01  0.16202215162E+00 -0.36994969602E+00  0.11802835246E+01  0.00000000000E+00 0. -1.
         11    1    3    3    0    0 -0.87557925587E+01  0.26717563458E+02  0.15706605147E+02  0.32205427275E+02  0.51100000000E-03 0. -1.
        -11    1    3    3    0    0 -0.17661966736E+01  0.12991400416E+02 -0.87194284072E+01  0.15745614230E+02  0.51100000000E-03 0.  1.
        -12    1    3    3    0    0  0.11631022705E+02 -0.39870986026E+02 -0.66172270440E+01  0.42056674971E+02  0.00000000000E+00 0.  1.
</event>
<event>
 7    1  0.2404951E-015  0.9000765E+02  0.7816164E-02  0.1186339E+00
        -11   -1    0    0    0    0  0.00000000000E+00  0.00000000000E+00  0.45593999997E+02  0.45594000000E+02  0.51100000000E-03 0.  1.
         11   -1    0    0    0    0 -0.00000000000E+00 -0.00000000000E+00 -0.45593999997E+02  0.45594000000E+02  0.51100000000E-03 0. -1.
    9900012    2    1    2    0    0  0.99897344700E+00 -0.39634445952E+00  0.48805569523E+00  0.90007646138E+02  0.89999906267E+02 0.  0.
         12    1    1    2    0    0 -0.99897344700E+00  0.39634445952E+00 -0.48805569523E+00  0.11803538622E+01  0.00000000000E+00 0. -1.
         11    1    3    3    0    0  0.70751576347E+01  0.69583799189E+01  0.35680862635E+01  0.10545527322E+02  0.51100000000E-03 0. -1.
        -11    1    3    3    0    0 -0.18882598147E+02 -0.72376133436E+01  0.34372808368E+02  0.39880139357E+02  0.51100000000E-03 0.  1.
         12    1    3    3    0    0  0.12806413960E+02 -0.11711103483E+00 -0.37452838937E+02  0.39581979459E+02  0.00000000000E+00 0. -1.
</event>
<event>
 7    1  0.2404951E-015  0.9000776E+02  0.7816164E-02  0.1186339E+00
        -11   -1    0    0    0    0  0.00000000000E+00  0.00000000000E+00  0.45593999997E+02  0.45594000000E+02  0.51100000000E-03 0.  1.
         11   -1    0    0    0    0 -0.00000000000E+00 -0.00000000000E+00 -0.45593999997E+02  0.45594000000E+02  0.51100000000E-03 0. -1.
    9900012    2    1    2    0    0  0.11751144088E+01  0.22520764130E-01  0.10751625228E+00  0.90007762395E+02  0.90000024059E+02 0.  0.
         12    1    1    2    0    0 -0.11751144088E+01 -0.22520764130E-01 -0.10751625228E+00  0.11802376045E+01  0.00000000000E+00 0. -1.
         11    1    3    3    0    0  0.23826017152E+01  0.62551873254E+01 -0.34676965751E+02  0.35317079627E+02  0.51100000000E-03 0. -1.
        -11    1    3    3    0    0 -0.12209336163E+02  0.46110104462E+01 -0.34112456326E+01  0.13489473818E+02  0.51100000000E-03 0.  1.
        -12    1    3    3    0    0  0.11001848856E+02 -0.10843677007E+02  0.38195727636E+02  0.41201208950E+02  0.00000000000E+00 0.  1.
</event>
<event>
 7    1  0.2404951E-015  0.9000771E+02  0.7816164E-02  0.1186339E+00
        -11   -1    0    0    0    0  0.00000000000E+00  0.00000000000E+00  0.45593999997E+02  0.45594000000E+02  0.51100000000E-03 0.  1.
         11   -1    0    0    0    0 -0.00000000000E+00 -0.00000000000E+00 -0.45593999997E+02  0.45594000000E+02  0.51100000000E-03 0. -1.
    9900012    2    1    2    0    0  0.11779817547E+01  0.73055844049E-01  0.10050676030E-01  0.90007712244E+02  0.89999973246E+02 0.  0.
         12    1    1    2    0    0 -0.11779817547E+01 -0.73055844049E-01 -0.10050676030E-01  0.11802877560E+01  0.00000000000E+00 0. -1.
         11    1    3    3    0    0  0.85002167848E+01 -0.65287041168E+01 -0.50044979933E+01  0.11828891041E+02  0.51100000000E-03 0. -1.
        -11    1    3    3    0    0  0.29811449320E+02  0.12330496561E+02  0.19742548771E+02  0.37822372853E+02  0.51100000000E-03 0.  1.
         12    1    3    3    0    0 -0.37133684350E+02 -0.57287366006E+01 -0.14728000102E+02  0.40356448350E+02  0.00000000000E+00 0. -1.
</event>
<event>
 7    1  0.2404951E-015  0.9000805E+02  0.7816164E-02  0.1186338E+00
        -11   -1    0    0    0    0  0.00000000000E+00  0.00000000000E+00  0.45593999997E+02  0.45594000000E+02  0.51100000000E-03 0.  1.
         11   -1    0    0    0    0 -0.00000000000E+00 -0.00000000000E+00 -0.45593999997E+02  0.45594000000E+02  0.51100000000E-03 0. -1.
    9900012    2    1    2    0    0 -0.40959476376E+00  0.77202782595E+00 -0.79277502449E+00  0.90008047851E+02  0.90000313282E+02 0.  0.
         12    1    1    2    0    0  0.40959476376E+00 -0.77202782595E+00  0.79277502449E+00  0.11799521490E+01  0.00000000000E+00 0. -1.
         11    1    3    3    0    0 -0.19775743421E+02  0.34358186976E+02 -0.72267705873E+01  0.40296293297E+02  0.51100000000E-03 0. -1.
        -11    1    3    3    0    0 -0.42583996032E+01 -0.14092099299E+01  0.86373773418E+01  0.97326320907E+01  0.51100000000E-03 0.  1.
        -12    1    3    3    0    0  0.23624548260E+02 -0.32176949220E+02 -0.22033817790E+01  0.39979122463E+02  0.00000000000E+00 0.  1.
</event>
<event>
 7    1  0.2404951E-015  0.9000733E+02  0.7816164E-02  0.1186340E+00
        -11   -1    0    0    0    0  0.00000000000E+00  0.00000000000E+00  0.45593999997E+02  0.45594000000E+02  0.51100000000E-03 0.  1.
         11   -1    0    0    0    0 -0.00000000000E+00 -0.00000000000E+00 -0.45593999997E+02  0.45594000000E+02  0.51100000000E-03 0. -1.
    9900012    2    1    2    0    0 -0.36074973154E+00 -0.24943686741E+00  0.10961813942E+01  0.90007333761E+02  0.89999589765E+02 0.  0.
         12    1    1    2    0    0  0.36074973154E+00  0.24943686741E+00 -0.10961813942E+01  0.11806662393E+01  0.00000000000E+00 0. -1.
         11    1    3    3    0    0  0.36333766023E+02  0.85505329265E+01 -0.16016027623E+02  0.40617327679E+02  0.51100000000E-03 0. -1.
        -11    1    3    3    0    0 -0.59497792776E+01  0.65803215800E+01 -0.32347254075E+01  0.94426666928E+01  0.51100000000E-03 0.  1.
        -12    1    3    3    0    0 -0.30744736477E+02 -0.15380291374E+02  0.20346934424E+02  0.39947339389E+02  0.00000000000E+00 0.  1.
</event>
<event>
 7    1  0.2404951E-015  0.9000784E+02  0.7816164E-02  0.1186339E+00
        -11   -1    0    0    0    0  0.00000000000E+00  0.00000000000E+00  0.45593999997E+02  0.45594000000E+02  0.51100000000E-03 0. -1.
         11   -1    0    0    0    0 -0.00000000000E+00 -0.00000000000E+00 -0.45593999997E+02  0.45594000000E+02  0.51100000000E-03 0.  1.
    9900012    2    1    2    0    0 -0.66989755177E+00 -0.56895983211E+00  0.78759322473E+00  0.90007838525E+02  0.90000101193E+02 0.  0.
         12    1    1    2    0    0  0.66989755177E+00  0.56895983211E+00 -0.78759322473E+00  0.11801614754E+01  0.00000000000E+00 0. -1.
         11    1    3    3    0    0 -0.21620182421E+02 -0.35453764885E+02  0.35598410938E+01  0.41678222147E+02  0.51100000000E-03 0. -1.
        -11    1    3    3    0    0  0.90327518101E+01 -0.21706754503E+01 -0.12655461494E+01  0.93757156789E+01  0.51100000000E-03 0.  1.
        -12    1    3    3    0    0  0.11917533059E+02  0.37055480504E+02 -0.15067017197E+01  0.38953900699E+02  0.00000000000E+00 0.  1.
</event>
<event>
 7    1  0.2404951E-015  0.9000773E+02  0.7816164E-02  0.1186339E+00
        -11   -1    0    0    0    0  0.00000000000E+00  0.00000000000E+00  0.45593999997E+02  0.45594000000E+02  0.51100000000E-03 0.  1.
         11   -1    0    0    0    0 -0.00000000000E+00 -0.00000000000E+00 -0.45593999997E+02  0.45594000000E+02  0.51100000000E-03 0. -1.
    9900012    2    1    2    0    0  0.36413894615E-01  0.29922237504E+00  0.11411322608E+01  0.90007727642E+02  0.89999988847E+02 0.  0.
         12    1    1    2    0    0 -0.36413894615E-01 -0.29922237504E+00 -0.11411322608E+01  0.11802723576E+01  0.00000000000E+00 0. -1.
         11    1    3    3    0    0 -0.48081365714E+01  0.37691177142E+02  0.30324561205E+01  0.38117434358E+02  0.51100000000E-03 0. -1.
        -11    1    3    3    0    0  0.36319248203E+01  0.40100582006E+01  0.76653005869E+01  0.93823386222E+01  0.51100000000E-03 0.  1.
        -12    1    3    3    0    0  0.12126256458E+01 -0.41402012968E+02 -0.95566244466E+01  0.42507954662E+02  0.00000000000E+00 0.  1.
</event>
<event>
 7    1  0.2404951E-015  0.9000768E+02  0.7816164E-02  0.1186339E+00
        -11   -1    0    0    0    0  0.00000000000E+00  0.00000000000E+00  0.45593999997E+02  0.45594000000E+02  0.51100000000E-03 0.  1.
         11   -1    0    0    0    0 -0.00000000000E+00 -0.00000000000E+00 -0.45593999997E+02  0.45594000000E+02  0.51100000000E-03 0. -1.
    9900012    2    1    2    0    0  0.15926248540E+00  0.63605489254E+00  0.98144517759E+00  0.90007675891E+02  0.89999936413E+02 0.  0.
         12    1    1    2    0    0 -0.15926248540E+00 -0.63605489254E+00 -0.98144517759E+00  0.11803241090E+01  0.00000000000E+00 0. -1.
         11    1    3    3    0    0 -0.21125122995E+02 -0.23674444974E+02 -0.16003433258E+02  0.35536742151E+02  0.51100000000E-03 0. -1.
        -11    1    3    3    0    0 -0.64198193527E+01 -0.53822580260E+01  0.10360976517E+02  0.13324136619E+02  0.51100000000E-03 0.  1.
        -12    1    3    3    0    0  0.27704204833E+02  0.29692757893E+02  0.66239019178E+01  0.41146797121E+02  0.00000000000E+00 0.  1.
</event>
<event>
 7    1  0.2404951E-015  0.9000780E+02  0.7816164E-02  0.1186339E+00
        -11   -1    0    0    0    0  0.00000000000E+00  0.00000000000E+00  0.45593999997E+02  0.45594000000E+02  0.51100000000E-03 0. -1.
         11   -1    0    0    0    0 -0.00000000000E+00 -0.00000000000E+00 -0.45593999997E+02  0.45594000000E+02  0.51100000000E-03 0.  1.
    9900012    2    1    2    0    0 -0.72461419870E+00 -0.14731162870E+00 -0.91983603400E+00  0.90007803075E+02  0.90000065275E+02 0.  0.
         12    1    1    2    0    0  0.72461419870E+00  0.14731162870E+00  0.91983603400E+00  0.11801969252E+01  0.00000000000E+00 0. -1.
         11    1    3    3    0    0  0.74051613760E+01 -0.16538696574E+01 -0.48229828153E+01  0.89907098355E+01  0.51100000000E-03 0. -1.
        -11    1    3    3    0    0 -0.22672242389E+02  0.14578965121E+02 -0.30956633823E+02  0.41047411329E+02  0.51100000000E-03 0.  1.
         12    1    3    3    0    0  0.14542466815E+02 -0.13072407092E+02  0.34859780604E+02  0.39969681910E+02  0.00000000000E+00 0. -1.
</event>
<event>
 7    1  0.2404951E-015  0.9000792E+02  0.7816164E-02  0.1186339E+00
        -11   -1    0    0    0    0  0.00000000000E+00  0.00000000000E+00  0.45593999997E+02  0.45594000000E+02  0.51100000000E-03 0. -1.
         11   -1    0    0    0    0 -0.00000000000E+00 -0.00000000000E+00 -0.45593999997E+02  0.45594000000E+02  0.51100000000E-03 0.  1.
    9900012    2    1    2    0    0  0.73323125553E+00  0.23845932803E+00 -0.89336086192E+00  0.90007921801E+02  0.90000185569E+02 0.  0.
         12    1    1    2    0    0 -0.73323125553E+00 -0.23845932803E+00  0.89336086192E+00  0.11800781986E+01  0.00000000000E+00 0. -1.
         11    1    3    3    0    0  0.16807555602E+02  0.28470308382E+02  0.15295687860E+02  0.36428154662E+02  0.51100000000E-03 0. -1.
        -11    1    3    3    0    0  0.69233809531E+01  0.42426815330E+01  0.38947363495E+01  0.90056938603E+01  0.51100000000E-03 0.  1.
        -12    1    3    3    0    0 -0.22997705300E+02 -0.32474530587E+02 -0.20083785071E+02  0.44574073279E+02  0.00000000000E+00 0.  1.
</event>
<event>
 7    1  0.2404951E-015  0.9000784E+02  0.7816164E-02  0.1186339E+00
        -11   -1    0    0    0    0  0.00000000000E+00  0.00000000000E+00  0.45593999997E+02  0.45594000000E+02  0.51100000000E-03 0. -1.
         11   -1    0    0    0    0 -0.00000000000E+00 -0.00000000000E+00 -0.45593999997E+02  0.45594000000E+02  0.51100000000E-03 0.  1.
    9900012    2    1    2    0    0  0.10859087366E+01 -0.19510714283E+00  0.41894114774E+00  0.90007840576E+02  0.90000103271E+02 0.  0.
         12    1    1    2    0    0 -0.10859087366E+01  0.19510714283E+00 -0.41894114774E+00  0.11801594243E+01  0.00000000000E+00 0. -1.
         11    1    3    3    0    0 -0.10880640604E+02  0.35686472164E+02 -0.10395065958E+02  0.38729446575E+02  0.51100000000E-03 0. -1.
        -11    1    3    3    0    0 -0.55724708203E+01 -0.38461660920E+01 -0.77646245826E+01  0.10302175490E+02  0.51100000000E-03 0.  1.
        -12    1    3    3    0    0  0.17539020161E+02 -0.32035413215E+02  0.18578631689E+02  0.40976218511E+02  0.00000000000E+00 0.  1.
</event>
<event>
 7    1  0.2404951E-015  0.9000746E+02  0.7816164E-02  0.1186340E+00
        -11   -1    0    0    0    0  0.00000000000E+00  0.00000000000E+00  0.45593999997E+02  0.45594000000E+02  0.51100000000E-03 0.  1.
         11   -1    0    0    0    0 -0.00000000000E+00 -0.00000000000E+00 -0.45593999997E+02  0.45594000000E+02  0.51100000000E-03 0. -1.
    9900012    2    1    2    0    0  0.26859128385E+00 -0.24678228362E+00  0.11227750897E+01  0.90007463395E+02  0.89999721112E+02 0.  0.
         12    1    1    2    0    0 -0.26859128385E+00  0.24678228362E+00 -0.11227750897E+01  0.11805366048E+01  0.00000000000E+00 0. -1.
         11    1    3    3    0    0  0.10682333241E+02  0.37862452031E+01 -0.33931169211E+02  0.35773903065E+02  0.51100000000E-03 0. -1.
        -11    1    3    3    0    0 -0.39425428371E+01 -0.46363924546E+01 -0.83573073808E+01  0.10338489538E+02  0.51100000000E-03 0.  1.
        -12    1    3    3    0    0 -0.64711991202E+01  0.60336496793E+00  0.43411251681E+02  0.43895070792E+02  0.00000000000E+00 0.  1.
</event>
<event>
 7    1  0.2404951E-015  0.9000767E+02  0.7816164E-02  0.1186339E+00
        -11   -1    0    0    0    0  0.00000000000E+00  0.00000000000E+00  0.45593999997E+02  0.45594000000E+02  0.51100000000E-03 0.  1.
         11   -1    0    0    0    0 -0.00000000000E+00 -0.00000000000E+00 -0.45593999997E+02  0.45594000000E+02  0.51100000000E-03 0. -1.
    9900012    2    1    2    0    0  0.41905528281E+00 -0.60659556389E+00  0.92174001410E+00  0.90007673705E+02  0.89999934198E+02 0.  0.
         12    1    1    2    0    0 -0.41905528281E+00  0.60659556389E+00 -0.92174001410E+00  0.11803262946E+01  0.00000000000E+00 0. -1.
         11    1    3    3    0    0 -0.71516720078E+01 -0.65954393479E+00  0.52833106942E+01  0.89159846826E+01  0.51100000000E-03 0. -1.
        -11    1    3    3    0    0 -0.13733538939E+02  0.36067160349E+02 -0.67527973826E+01  0.39179719501E+02  0.51100000000E-03 0.  1.
         12    1    3    3    0    0  0.21304266229E+02 -0.36014211979E+02  0.23912267025E+01  0.41911969521E+02  0.00000000000E+00 0. -1.
</event>
<event>
 7    1  0.2404951E-015  0.9000779E+02  0.7816164E-02  0.1186339E+00
        -11   -1    0    0    0    0  0.00000000000E+00  0.00000000000E+00  0.45593999997E+02  0.45594000000E+02  0.51100000000E-03 0.  1.
         11   -1    0    0    0    0 -0.00000000000E+00 -0.00000000000E+00 -0.45593999997E+02  0.45594000000E+02  0.51100000000E-03 0. -1.
    9900012    2    1    2    0    0  0.85534850657E+00 -0.74850998807E+00 -0.31783335296E+00  0.90007785481E+02  0.90000047450E+02 0.  0.
         12    1    1    2    0    0 -0.85534850657E+00  0.74850998807E+00  0.31783335296E+00  0.11802145187E+01  0.00000000000E+00 0. -1.
         11    1    3    3    0    0  0.27156280571E+02 -0.67604024506E+01  0.20121082996E+02  0.34467732692E+02  0.51100000000E-03 0. -1.
        -11    1    3    3    0    0  0.57503525048E+01 -0.55137955325E+01  0.79091146970E+01  0.11225978383E+02  0.51100000000E-03 0.  1.
        -12    1    3    3    0    0 -0.32051284569E+02  0.11525687995E+02 -0.28348031046E+02  0.44314074406E+02  0.00000000000E+00 0.  1.
</event>
<event>
 7    1  0.2404951E-015  0.9000774E+02  0.7816164E-02  0.1186339E+00
        -11   -1    0    0    0    0  0.00000000000E+00  0.00000000000E+00  0.45593999997E+02  0.45594000000E+02  0.51100000000E-03 0. -1.
         11   -1    0    0    0    0 -0.00000000000E+00 -0.00000000000E+00 -0.45593999997E+02  0.45594000000E+02  0.51100000000E-03 0.  1.
    9900012    2    1    2    0    0  0.47096219310E+00  0.65371700476E+00 -0.86247375773E+00  0.90007740583E+02  0.90000001958E+02 0.  0.
         12    1    1    2    0    0 -0.47096219310E+00 -0.65371700476E+00  0.86247375773E+00  0.11802594174E+01  0.00000000000E+00 0. -1.
         11    1    3    3    0    0  0.66626392785E+01  0.58712787811E+01 -0.36303337346E+01  0.95938521964E+01  0.51100000000E-03 0. -1.
        -11    1    3    3    0    0  0.99692014371E+01  0.29918182933E+02 -0.18211108720E+02  0.36416028455E+02  0.51100000000E-03 0.  1.
         12    1    3    3    0    0 -0.16160878522E+02 -0.35135744710E+02  0.20978968697E+02  0.43997859931E+02  0.00000000000E+00 0. -1.
</event>
<event>
 7    1  0.2404951E-015  0.9000758E+02  0.7816164E-02  0.1186339E+00
        -11   -1    0    0    0    0  0.00000000000E+00  0.00000000000E+00  0.45593999997E+02  0.45594000000E+02  0.51100000000E-03 0. -1.
         11   -1    0    0    0    0 -0.00000000000E+00 -0.00000000000E+00 -0.45593999997E+02  0.45594000000E+02  0.51100000000E-03 0.  1.
    9900012    2    1    2    0    0 -0.86029087656E+00 -0.80287682662E+00 -0.93148867165E-01  0.90007581302E+02  0.89999840575E+02 0.  0.
         12    1    1    2    0    0  0.86029087656E+00  0.80287682662E+00  0.93148867165E-01  0.11804186979E+01  0.00000000000E+00 0. -1.
         11    1    3    3    0    0 -0.45467572978E+01  0.34988290505E+02 -0.11682870502E+02  0.37166422182E+02  0.51100000000E-03 0. -1.
        -11    1    3    3    0    0 -0.26157080778E+01  0.51289722290E+01 -0.55816681655E+01  0.80189341340E+01  0.51100000000E-03 0.  1.
        -12    1    3    3    0    0  0.63021744991E+01 -0.40920139560E+02  0.17171389801E+02  0.44822224986E+02  0.00000000000E+00 0.  1.
</event>
<event>
 7    1  0.2404951E-015  0.9000780E+02  0.7816164E-02  0.1186339E+00
        -11   -1    0    0    0    0  0.00000000000E+00  0.00000000000E+00  0.45593999997E+02  0.45594000000E+02  0.51100000000E-03 0. -1.
         11   -1    0    0    0    0 -0.00000000000E+00 -0.00000000000E+00 -0.45593999997E+02  0.45594000000E+02  0.51100000000E-03 0.  1.
    9900012    2    1    2    0    0 -0.15365372219E+00  0.11698574452E+01  0.26593338027E-01  0.90007795308E+02  0.90000057406E+02 0.  0.
         12    1    1    2    0    0  0.15365372219E+00 -0.11698574452E+01 -0.26593338027E-01  0.11802046916E+01  0.00000000000E+00 0. -1.
         11    1    3    3    0    0  0.96693644186E+01  0.35593584890E+02  0.19377699874E+02  0.41664075008E+02  0.51100000000E-03 0. -1.
        -11    1    3    3    0    0  0.60776469714E+01 -0.78231710021E+00  0.53890917189E+00  0.61514417913E+01  0.51100000000E-03 0.  1.
        -12    1    3    3    0    0 -0.15900665112E+02 -0.33641410344E+02 -0.19890015708E+02  0.42192278510E+02  0.00000000000E+00 0.  1.
</event>
<event>
 7    1  0.2404951E-015  0.9000772E+02  0.7816164E-02  0.1186339E+00
        -11   -1    0    0    0    0  0.00000000000E+00  0.00000000000E+00  0.45593999997E+02  0.45594000000E+02  0.51100000000E-03 0.  1.
         11   -1    0    0    0    0 -0.00000000000E+00 -0.00000000000E+00 -0.45593999997E+02  0.45594000000E+02  0.51100000000E-03 0. -1.
    9900012    2    1    2    0    0  0.95061004161E+00  0.64215059418E+00  0.27755379551E+00  0.90007723360E+02  0.89999984509E+02 0.  0.
         12    1    1    2    0    0 -0.95061004161E+00 -0.64215059418E+00 -0.27755379551E+00  0.11802766397E+01  0.00000000000E+00 0. -1.
         11    1    3    3    0    0 -0.67941669282E+01 -0.33074830889E+01  0.43657997836E+01  0.87269901250E+01  0.51100000000E-03 0. -1.
        -11    1    3    3    0    0 -0.82876673967E+01 -0.32903989179E+02 -0.18423595212E+02  0.38610708302E+02  0.51100000000E-03 0.  1.
         12    1    3    3    0    0  0.16032444366E+02  0.36853622862E+02  0.14335349224E+02  0.42670024933E+02  0.00000000000E+00 0. -1.
</event>
<event>
 7    1  0.2404951E-015  0.9000776E+02  0.7816164E-02  0.1186339E+00
        -11   -1    0    0    0    0  0.00000000000E+00  0.00000000000E+00  0.45593999997E+02  0.45594000000E+02  0.51100000000E-03 0.  1.
         11   -1    0    0    0    0 -0.00000000000E+00 -0.00000000000E+00 -0.45593999997E+02  0.45594000000E+02  0.51100000000E-03 0. -1.
    9900012    2    1    2    0    0  0.17927157485E+00  0.83239681584E+00  0.81728310356E+00  0.90007756623E+02  0.90000018211E+02 0.  0.
         12    1    1    2    0    0 -0.17927157485E+00 -0.83239681584E+00 -0.81728310356E+00  0.11802433766E+01  0.00000000000E+00 0. -1.
         11    1    3    3    0    0 -0.18457062640E+02  0.27616787460E+02 -0.94993795195E+01  0.34548347608E+02  0.51100000000E-03 0. -1.
        -11    1    3    3    0    0  0.34554563090E+01  0.60595492511E+01 -0.11323217473E+02  0.13299382303E+02  0.51100000000E-03 0.  1.
        -12    1    3    3    0    0  0.15180877906E+02 -0.32843939895E+02  0.21639880096E+02  0.42160026713E+02  0.00000000000E+00 0.  1.
</event>
<event>
 7    1  0.2404951E-015  0.9000791E+02  0.7816164E-02  0.1186339E+00
        -11   -1    0    0    0    0  0.00000000000E+00  0.00000000000E+00  0.45593999997E+02  0.45594000000E+02  0.51100000000E-03 0.  1.
         11   -1    0    0    0    0 -0.00000000000E+00 -0.00000000000E+00 -0.45593999997E+02  0.45594000000E+02  0.51100000000E-03 0. -1.
    9900012    2    1    2    0    0 -0.38665980523E+00 -0.24924488925E+00  0.10867255419E+01  0.90007914739E+02  0.90000178413E+02 0.  0.
         12    1    1    2    0    0  0.38665980523E+00  0.24924488925E+00 -0.10867255419E+01  0.11800852610E+01  0.00000000000E+00 0. -1.
         11    1    3    3    0    0 -0.64030070918E+01  0.28847004104E+01  0.12112819637E+01  0.71265139116E+01  0.51100000000E-03 0. -1.
        -11    1    3    3    0    0 -0.16813602173E+02 -0.23861681394E+01  0.36192209819E+02  0.39978332485E+02  0.51100000000E-03 0.  1.
         12    1    3    3    0    0  0.22829949459E+02 -0.74777716022E+00 -0.36316766241E+02  0.42903068343E+02  0.00000000000E+00 0. -1.
</event>
<event>
 7    1  0.2404951E-015  0.9000774E+02  0.7816164E-02  0.1186339E+00
        -11   -1    0    0    0    0  0.00000000000E+00  0.00000000000E+00  0.45593999997E+02  0.45594000000E+02  0.51100000000E-03 0. -1.
         11   -1    0    0    0    0 -0.00000000000E+00 -0.00000000000E+00 -0.45593999997E+02  0.45594000000E+02  0.51100000000E-03 0.  1.
    9900012    2    1    2    0    0 -0.10891980177E+01  0.38082681794E+00 -0.24827107961E+00  0.90007737353E+02  0.89999998686E+02 0.  0.
         12    1    1    2    0    0  0.10891980177E+01 -0.38082681794E+00  0.24827107961E+00  0.11802626471E+01  0.00000000000E+00 0. -1.
         11    1    3    3    0    0 -0.13415976856E+02 -0.49917047158E+01  0.31845856137E+02  0.34915098515E+02  0.51100000000E-03 0. -1.
        -11    1    3    3    0    0  0.57237859357E+01  0.36860025573E+01  0.10194325913E+02  0.12258573383E+02  0.51100000000E-03 0.  1.
        -12    1    3    3    0    0  0.66029929023E+01  0.16865289764E+01 -0.42288453130E+02  0.42834065455E+02  0.00000000000E+00 0.  1.
</event>
<event>
 7    1  0.2404951E-015  0.9000775E+02  0.7816164E-02  0.1186339E+00
        -11   -1    0    0    0    0  0.00000000000E+00  0.00000000000E+00  0.45593999997E+02  0.45594000000E+02  0.51100000000E-03 0.  1.
         11   -1    0    0    0    0 -0.00000000000E+00 -0.00000000000E+00 -0.45593999997E+02  0.45594000000E+02  0.51100000000E-03 0. -1.
    9900012    2    1    2    0    0  0.10420764879E+01 -0.46166526251E+00  0.30649780075E+00  0.90007746162E+02  0.90000007611E+02 0.  0.
         12    1    1    2    0    0 -0.10420764879E+01  0.46166526251E+00 -0.30649780075E+00  0.11802538385E+01  0.00000000000E+00 0. -1.
         11    1    3    3    0    0 -0.33704696032E+01  0.74400075844E+01  0.26249101876E+01  0.85792733932E+01  0.51100000000E-03 0. -1.
        -11    1    3    3    0    0 -0.16528511090E+02 -0.38407580173E+02  0.89272096523E+01  0.42755455395E+02  0.51100000000E-03 0.  1.
         12    1    3    3    0    0  0.20941057181E+02  0.30505907327E+02 -0.11245622039E+02  0.38673017373E+02  0.00000000000E+00 0. -1.
</event>
<event>
 7    1  0.2404951E-015  0.9000781E+02  0.7816164E-02  0.1186339E+00
        -11   -1    0    0    0    0  0.00000000000E+00  0.00000000000E+00  0.45593999997E+02  0.45594000000E+02  0.51100000000E-03 0.  1.
         11   -1    0    0    0    0 -0.00000000000E+00 -0.00000000000E+00 -0.45593999997E+02  0.45594000000E+02  0.51100000000E-03 0. -1.
    9900012    2    1    2    0    0  0.11146060416E+01  0.18425117169E+00 -0.34141529873E+00  0.90007805301E+02  0.90000067531E+02 0.  0.
         12    1    1    2    0    0 -0.11146060416E+01 -0.18425117169E+00  0.34141529873E+00  0.11801946993E+01  0.00000000000E+00 0. -1.
         11    1    3    3    0    0  0.22875373613E+02  0.14251830033E+02 -0.29967975182E+02  0.40304800136E+02  0.51100000000E-03 0. -1.
        -11    1    3    3    0    0  0.77536094125E+01 -0.30673365539E+01  0.50161650959E+01  0.97308234485E+01  0.51100000000E-03 0.  1.
        -12    1    3    3    0    0 -0.29514376984E+02 -0.11000242307E+02  0.24610394787E+02  0.39972181716E+02  0.00000000000E+00 0.  1.
</event>
<event>
 7    1  0.2404951E-015  0.9000777E+02  0.7816164E-02  0.1186339E+00
        -11   -1    0    0    0    0  0.00000000000E+00  0.00000000000E+00  0.45593999997E+02  0.45594000000E+02  0.51100000000E-03 0. -1.
         11   -1    0    0    0    0 -0.00000000000E+00 -0.00000000000E+00 -0.45593999997E+02  0.45594000000E+02  0.51100000000E-03 0.  1.
    9900012    2    1    2    0    0  0.20968556631E+00  0.92839352299E+00  0.69790163674E+00  0.90007767284E+02  0.90000029012E+02 0.  0.
         12    1    1    2    0    0 -0.20968556631E+00 -0.92839352299E+00 -0.69790163674E+00  0.11802327164E+01  0.00000000000E+00 0. -1.
         11    1    3    3    0    0 -0.33599771757E+02 -0.22762870091E+02 -0.23577614735E+01  0.40652822243E+02  0.51100000000E-03 0. -1.
        -11    1    3    3    0    0 -0.55187187370E+00  0.36983757944E+01 -0.73628419865E+01  0.82579651526E+01  0.51100000000E-03 0.  1.
        -12    1    3    3    0    0  0.34361329197E+02  0.19992887819E+02  0.10418505097E+02  0.41096979889E+02  0.00000000000E+00 0.  1.
</event>
<event>
 7    1  0.2404951E-015  0.9000766E+02  0.7816164E-02  0.1186339E+00
        -11   -1    0    0    0    0  0.00000000000E+00  0.00000000000E+00  0.45593999997E+02  0.45594000000E+02  0.51100000000E-03 0. -1.
         11   -1    0    0    0    0 -0.00000000000E+00 -0.00000000000E+00 -0.45593999997E+02  0.45594000000E+02  0.51100000000E-03 0.  1.
    9900012    2    1    2    0    0  0.20326762950E+00  0.49797244288E+00 -0.10506691031E+01  0.90007661130E+02  0.89999921457E+02 0.  0.
         12    1    1    2    0    0 -0.20326762950E+00 -0.49797244288E+00  0.10506691031E+01  0.11803388697E+01  0.00000000000E+00 0. -1.
         11    1    3    3    0    0  0.19119230535E+01 -0.89626865230E+01 -0.37455005894E+01  0.99002007252E+01  0.51100000000E-03 0. -1.
        -11    1    3    3    0    0  0.22765471935E+02 -0.25927815207E+02 -0.87265652508E+01  0.35590325303E+02  0.51100000000E-03 0.  1.
         12    1    3    3    0    0 -0.24474127359E+02  0.35388474173E+02  0.11421396737E+02  0.44517135102E+02  0.00000000000E+00 0. -1.
</event>
<event>
 7    1  0.2404951E-015  0.9000772E+02  0.7816164E-02  0.1186339E+00
        -11   -1    0    0    0    0  0.00000000000E+00  0.00000000000E+00  0.45593999997E+02  0.45594000000E+02  0.51100000000E-03 0.  1.
         11   -1    0    0    0    0 -0.00000000000E+00 -0.00000000000E+00 -0.45593999997E+02  0.45594000000E+02  0.51100000000E-03 0. -1.
    9900012    2    1    2    0    0 -0.93107761462E+00 -0.71483071216E+00 -0.12313616881E+00  0.90007724190E+02  0.89999985349E+02 0.  0.
         12    1    1    2    0    0  0.93107761462E+00  0.71483071216E+00  0.12313616881E+00  0.11802758100E+01  0.00000000000E+00 0. -1.
         11    1    3    3    0    0 -0.12169538867E+01 -0.16674170319E+02  0.88952383845E+01  0.18937639736E+02  0.51100000000E-03 0. -1.
        -11    1    3    3    0    0 -0.30466361180E+01  0.25307329839E+00  0.29333795418E+02  0.29492670133E+02  0.51100000000E-03 0.  1.
         12    1    3    3    0    0  0.33325123900E+01  0.15706266308E+02 -0.38352169971E+02  0.41577414321E+02  0.00000000000E+00 0. -1.
</event>
<event>
 7    1  0.2404951E-015  0.9000774E+02  0.7816164E-02  0.1186339E+00
        -11   -1    0    0    0    0  0.00000000000E+00  0.00000000000E+00  0.45593999997E+02  0.45594000000E+02  0.51100000000E-03 0.  1.
         11   -1    0    0    0    0 -0.00000000000E+00 -0.00000000000E+00 -0.45593999997E+02  0.45594000000E+02  0.51100000000E-03 0. -1.
    9900012    2    1    2    0    0  0.71327002287E+00  0.87075164663E+00 -0.35503877235E+00  0.90007739399E+02  0.90000000759E+02 0.  0.
         12    1    1    2    0    0 -0.71327002287E+00 -0.87075164663E+00  0.35503877235E+00  0.11802606007E+01  0.00000000000E+00 0. -1.
         11    1    3    3    0    0 -0.26833644047E+01 -0.36499420447E+02 -0.13568080567E+02  0.39032050267E+02  0.51100000000E-03 0. -1.
        -11    1    3    3    0    0  0.97258252519E+01 -0.13429893107E+01  0.44611133588E+01  0.10784100787E+02  0.51100000000E-03 0.  1.
        -12    1    3    3    0    0 -0.63291908243E+01  0.38713161404E+02  0.87519284354E+01  0.40191588346E+02  0.00000000000E+00 0.  1.
</event>
<event>
 7    1  0.2404951E-015  0.9000773E+02  0.7816164E-02  0.1186339E+00
        -11   -1    0    0    0    0  0.00000000000E+00  0.00000000000E+00  0.45593999997E+02  0.45594000000E+02  0.51100000000E-03 0.  1.
         11   -1    0    0    0    0 -0.00000000000E+00 -0.00000000000E+00 -0.45593999997E+02  0.45594000000E+02  0.51100000000E-03 0. -1.
    9900012    2    1    2    0    0  0.73758128352E+00 -0.21382310436E+00  0.89627072083E+00  0.90007725593E+02  0.89999986771E+02 0.  0.
         12    1    1    2    0    0 -0.73758128352E+00  0.21382310436E+00 -0.89627072083E+00  0.11802744066E+01  0.00000000000E+00 0. -1.
         11    1    3    3    0    0 -0.79065083470E+01 -0.55814884121E+00  0.81643574907E+01  0.11378977892E+02  0.51100000000E-03 0. -1.
        -11    1    3    3    0    0 -0.11304507780E+02  0.27624155271E+02  0.19382921999E+02  0.35589092656E+02  0.51100000000E-03 0.  1.
         12    1    3    3    0    0  0.19948597411E+02 -0.27279829534E+02 -0.26651008769E+02  0.43039655046E+02  0.00000000000E+00 0. -1.
</event>
<event>
 7    1  0.2404951E-015  0.9000776E+02  0.7816164E-02  0.1186339E+00
        -11   -1    0    0    0    0  0.00000000000E+00  0.00000000000E+00  0.45593999997E+02  0.45594000000E+02  0.51100000000E-03 0.  1.
         11   -1    0    0    0    0 -0.00000000000E+00 -0.00000000000E+00 -0.45593999997E+02  0.45594000000E+02  0.51100000000E-03 0. -1.
    9900012    2    1    2    0    0 -0.52513726137E+00 -0.44444753537E+00 -0.95899225752E+00  0.90007758963E+02  0.90000020582E+02 0.  0.
         12    1    1    2    0    0  0.52513726137E+00  0.44444753537E+00  0.95899225752E+00  0.11802410368E+01  0.00000000000E+00 0. -1.
         11    1    3    3    0    0 -0.14671790533E+01 -0.78791123429E+01  0.13830335462E+02  0.15984717856E+02  0.51100000000E-03 0. -1.
        -11    1    3    3    0    0 -0.65290785915E+01 -0.15496829148E+02  0.23424122875E+02  0.28835223488E+02  0.51100000000E-03 0.  1.
         12    1    3    3    0    0  0.74711203834E+01  0.22931493955E+02 -0.38213450595E+02  0.45187817619E+02  0.00000000000E+00 0. -1.
</event>
<event>
 7    1  0.2404951E-015  0.9000758E+02  0.7816164E-02  0.1186339E+00
        -11   -1    0    0    0    0  0.00000000000E+00  0.00000000000E+00  0.45593999997E+02  0.45594000000E+02  0.51100000000E-03 0.  1.
         11   -1    0    0    0    0 -0.00000000000E+00 -0.00000000000E+00 -0.45593999997E+02  0.45594000000E+02  0.51100000000E-03 0. -1.
    9900012    2    1    2    0    0  0.66929409105E+00  0.62641519152E+00  0.74366077949E+00  0.90007584002E+02  0.89999843311E+02 0.  0.
         12    1    1    2    0    0 -0.66929409105E+00 -0.62641519152E+00 -0.74366077949E+00  0.11804159976E+01  0.00000000000E+00 0. -1.
         11    1    3    3    0    0 -0.18123572547E+02 -0.42096525974E+01  0.30640980436E+02  0.35847660163E+02  0.51100000000E-03 0. -1.
        -11    1    3    3    0    0  0.11877376430E+02  0.15212966346E+02  0.24847802126E+01  0.19459716053E+02  0.51100000000E-03 0.  1.
         12    1    3    3    0    0  0.69154902075E+01 -0.10376898557E+02 -0.32382099869E+02  0.34700207786E+02  0.00000000000E+00 0. -1.
</event>
<event>
 7    1  0.2404951E-015  0.9000761E+02  0.7816164E-02  0.1186339E+00
        -11   -1    0    0    0    0  0.00000000000E+00  0.00000000000E+00  0.45593999997E+02  0.45594000000E+02  0.51100000000E-03 0.  1.
         11   -1    0    0    0    0 -0.00000000000E+00 -0.00000000000E+00 -0.45593999997E+02  0.45594000000E+02  0.51100000000E-03 0. -1.
    9900012    2    1    2    0    0  0.11349063755E+01 -0.31096486748E+00  0.92730728496E-01  0.90007614208E+02  0.89999873915E+02 0.  0.
         12    1    1    2    0    0 -0.11349063755E+01  0.31096486748E+00 -0.92730728496E-01  0.11803857920E+01  0.00000000000E+00 0. -1.
         11    1    3    3    0    0 -0.39864953651E+02  0.70390971268E+00 -0.11047028871E+02  0.41373262690E+02  0.51100000000E-03 0. -1.
        -11    1    3    3    0    0  0.36260131518E+01 -0.56891871552E+01  0.85349813938E+01  0.10879371743E+02  0.51100000000E-03 0.  1.
        -12    1    3    3    0    0  0.37373846875E+02  0.46743125751E+01  0.26047782060E+01  0.37754979775E+02  0.00000000000E+00 0.  1.
</event>
<event>
 7    1  0.2404951E-015  0.9000765E+02  0.7816164E-02  0.1186339E+00
        -11   -1    0    0    0    0  0.00000000000E+00  0.00000000000E+00  0.45593999997E+02  0.45594000000E+02  0.51100000000E-03 0.  1.
         11   -1    0    0    0    0 -0.00000000000E+00 -0.00000000000E+00 -0.45593999997E+02  0.45594000000E+02  0.51100000000E-03 0. -1.
    9900012    2    1    2    0    0  0.65920457653E+00 -0.89306036960E+00  0.40139180858E+00  0.90007651373E+02  0.89999911571E+02 0.  0.
         12    1    1    2    0    0 -0.65920457653E+00  0.89306036960E+00 -0.40139180858E+00  0.11803486271E+01  0.00000000000E+00 0. -1.
         11    1    3    3    0    0  0.12848012745E+02  0.18031632250E+02 -0.31364024992E+02  0.38391577945E+02  0.51100000000E-03 0. -1.
        -11    1    3    3    0    0 -0.33880752314E+01  0.65578195925E+01 -0.26994804038E+01  0.78594685757E+01  0.51100000000E-03 0.  1.
        -12    1    3    3    0    0 -0.88007329368E+01 -0.25482512212E+02  0.34464897205E+02  0.43756604852E+02  0.00000000000E+00 0.  1.
</event>
<event>
 7    1  0.2404951E-015  0.9000771E+02  0.7816164E-02  0.1186339E+00
        -11   -1    0    0    0    0  0.00000000000E+00  0.00000000000E+00  0.45593999997E+02  0.45594000000E+02  0.51100000000E-03 0. -1.
         11   -1    0    0    0    0 -0.00000000000E+00 -0.00000000000E+00 -0.45593999997E+02  0.45594000000E+02  0.51100000000E-03 0.  1.
    9900012    2    1    2    0    0 -0.42466738549E+00  0.17691914294E+00 -0.10869431938E+01  0.90007708393E+02  0.89999969344E+02 0.  0.
         12    1    1    2    0    0  0.42466738549E+00 -0.17691914294E+00  0.10869431938E+01  0.11802916072E+01  0.00000000000E+00 0. -1.
         11    1    3    3    0    0 -0.70851965361E+01 -0.63684002277E+01  0.11015800132E+01  0.95900995929E+01  0.51100000000E-03 0. -1.
        -11    1    3    3    0    0  0.31239853937E+01  0.41475622510E+02 -0.13175010672E+02  0.43629891747E+02  0.51100000000E-03 0.  1.
         12    1    3    3    0    0  0.35365437569E+01 -0.34930303140E+02  0.10986487465E+02  0.36787717053E+02  0.00000000000E+00 0. -1.
</event>
<event>
 7    1  0.2404951E-015  0.9000772E+02  0.7816164E-02  0.1186339E+00
        -11   -1    0    0    0    0  0.00000000000E+00  0.00000000000E+00  0.45593999997E+02  0.45594000000E+02  0.51100000000E-03 0. -1.
         11   -1    0    0    0    0 -0.00000000000E+00 -0.00000000000E+00 -0.45593999997E+02  0.45594000000E+02  0.51100000000E-03 0.  1.
    9900012    2    1    2    0    0  0.54440308236E+00 -0.78439381968E+00 -0.69383484674E+00  0.90007722416E+02  0.89999983552E+02 0.  0.
         12    1    1    2    0    0 -0.54440308236E+00  0.78439381968E+00  0.69383484674E+00  0.11802775839E+01  0.00000000000E+00 0. -1.
         11    1    3    3    0    0 -0.75634515907E+00  0.62369194008E+01 -0.64451250015E+01  0.90006032108E+01  0.51100000000E-03 0. -1.
        -11    1    3    3    0    0  0.24340240986E+02 -0.18870746959E+02 -0.25803343337E+02  0.40179160639E+02  0.51100000000E-03 0.  1.
         12    1    3    3    0    0 -0.23039492745E+02  0.11849433739E+02  0.31554633492E+02  0.40827958566E+02  0.00000000000E+00 0. -1.
</event>
<event>
 7    1  0.2404951E-015  0.9000774E+02  0.7816164E-02  0.1186339E+00
        -11   -1    0    0    0    0  0.00000000000E+00  0.00000000000E+00  0.45593999997E+02  0.45594000000E+02  0.51100000000E-03 0. -1.
         11   -1    0    0    0    0 -0.00000000000E+00 -0.00000000000E+00 -0.45593999997E+02  0.45594000000E+02  0.51100000000E-03 0.  1.
    9900012    2    1    2    0    0  0.78257199822E+00 -0.76675309253E+00  0.43896127742E+00  0.90007738910E+02  0.90000000264E+02 0.  0.
         12    1    1    2    0    0 -0.78257199822E+00  0.76675309253E+00 -0.43896127742E+00  0.11802610899E+01  0.00000000000E+00 0. -1.
         11    1    3    3    0    0  0.36036412015E+01 -0.11202790472E+02  0.11334675899E+00  0.11768669934E+02  0.51100000000E-03 0. -1.
        -11    1    3    3    0    0 -0.40065391229E+02  0.37197047001E+01 -0.22973497542E+01  0.40303220634E+02  0.51100000000E-03 0.  1.
         12    1    3    3    0    0  0.37244322025E+02  0.67163326797E+01  0.26229642727E+01  0.37935848341E+02  0.00000000000E+00 0. -1.
</event>
<event>
 7    1  0.2404951E-015  0.9000811E+02  0.7816164E-02  0.1186338E+00
        -11   -1    0    0    0    0  0.00000000000E+00  0.00000000000E+00  0.45593999997E+02  0.45594000000E+02  0.51100000000E-03 0.  1.
         11   -1    0    0    0    0 -0.00000000000E+00 -0.00000000000E+00 -0.45593999997E+02  0.45594000000E+02  0.51100000000E-03 0. -1.
    9900012    2    1    2    0    0 -0.19335349508E+00  0.11603125394E+01 -0.91783298471E-01  0.90008112320E+02  0.90000378602E+02 0.  0.
         12    1    1    2    0    0  0.19335349508E+00 -0.11603125394E+01  0.91783298471E-01  0.11798876798E+01  0.00000000000E+00 0. -1.
         11    1    3    3    0    0  0.36881204939E+02  0.43010731273E+01  0.48243795454E+01  0.37443252343E+02  0.51100000000E-03 0. -1.
        -11    1    3    3    0    0  0.28642661162E+01 -0.10373391844E+02 -0.52526363811E+01  0.11975035196E+02  0.51100000000E-03 0.  1.
        -12    1    3    3    0    0 -0.39938824550E+02  0.72326312561E+01  0.33647353724E+00  0.40589824781E+02  0.00000000000E+00 0.  1.
</event>
<event>
 7    1  0.2404951E-015  0.9000777E+02  0.7816164E-02  0.1186339E+00
        -11   -1    0    0    0    0  0.00000000000E+00  0.00000000000E+00  0.45593999997E+02  0.45594000000E+02  0.51100000000E-03 0. -1.
         11   -1    0    0    0    0 -0.00000000000E+00 -0.00000000000E+00 -0.45593999997E+02  0.45594000000E+02  0.51100000000E-03 0.  1.
    9900012    2    1    2    0    0  0.23218844597E+00 -0.11426559338E+01  0.18269808495E+00  0.90007765850E+02  0.90000027560E+02 0.  0.
         12    1    1    2    0    0 -0.23218844597E+00  0.11426559338E+01 -0.18269808495E+00  0.11802341496E+01  0.00000000000E+00 0. -1.
         11    1    3    3    0    0  0.35987412129E+00 -0.90638186504E+01 -0.23722182661E+01  0.93760192872E+01  0.51100000000E-03 0. -1.
        -11    1    3    3    0    0 -0.13283960961E+02 -0.17742189178E+02 -0.29897356308E+02  0.37216942514E+02  0.51100000000E-03 0.  1.
         12    1    3    3    0    0  0.13156275286E+02  0.25663351895E+02  0.32452272659E+02  0.43414804049E+02  0.00000000000E+00 0. -1.
</event>
<event>
 7    1  0.2404951E-015  0.9000779E+02  0.7816164E-02  0.1186339E+00
        -11   -1    0    0    0    0  0.00000000000E+00  0.00000000000E+00  0.45593999997E+02  0.45594000000E+02  0.51100000000E-03 0.  1.
         11   -1    0    0    0    0 -0.00000000000E+00 -0.00000000000E+00 -0.45593999997E+02  0.45594000000E+02  0.51100000000E-03 0. -1.
    9900012    2    1    2    0    0 -0.43796249768E+00 -0.45577393425E+00  0.99666590846E+00  0.90007794949E+02  0.90000057043E+02 0.  0.
         12    1    1    2    0    0  0.43796249768E+00  0.45577393425E+00 -0.99666590846E+00  0.11802050507E+01  0.00000000000E+00 0. -1.
         11    1    3    3    0    0 -0.24634112545E+02 -0.86590139904E+01 -0.33106957670E+02  0.42165017142E+02  0.51100000000E-03 0. -1.
        -11    1    3    3    0    0  0.41687367465E+01  0.10048929077E+02  0.39033712738E+01  0.11558358414E+02  0.51100000000E-03 0.  1.
        -12    1    3    3    0    0  0.20027413300E+02 -0.18456890209E+01  0.30200252305E+02  0.36284419394E+02  0.00000000000E+00 0.  1.
</event>
<event>
 7    1  0.2404951E-015  0.9000770E+02  0.7816164E-02  0.1186339E+00
        -11   -1    0    0    0    0  0.00000000000E+00  0.00000000000E+00  0.45593999997E+02  0.45594000000E+02  0.51100000000E-03 0.  1.
         11   -1    0    0    0    0 -0.00000000000E+00 -0.00000000000E+00 -0.45593999997E+02  0.45594000000E+02  0.51100000000E-03 0. -1.
    9900012    2    1    2    0    0 -0.89369854669E+00  0.71688649753E+00 -0.28369428692E+00  0.90007700974E+02  0.89999961827E+02 0.  0.
         12    1    1    2    0    0  0.89369854669E+00 -0.71688649753E+00  0.28369428692E+00  0.11802990262E+01  0.00000000000E+00 0. -1.
         11    1    3    3    0    0  0.85689978155E+01  0.21335575201E+02 -0.26875240702E+02  0.35368249261E+02  0.51100000000E-03 0. -1.
        -11    1    3    3    0    0  0.10491847419E+02 -0.49079582383E+01 -0.62197916978E+01  0.13147346704E+02  0.51100000000E-03 0.  1.
        -12    1    3    3    0    0 -0.19954543781E+02 -0.15710730465E+02  0.32811338113E+02  0.41492105009E+02  0.00000000000E+00 0.  1.
</event>
<event>
 7    1  0.2404951E-015  0.9000778E+02  0.7816164E-02  0.1186339E+00
        -11   -1    0    0    0    0  0.00000000000E+00  0.00000000000E+00  0.45593999997E+02  0.45594000000E+02  0.51100000000E-03 0. -1.
         11   -1    0    0    0    0 -0.00000000000E+00 -0.00000000000E+00 -0.45593999997E+02  0.45594000000E+02  0.51100000000E-03 0.  1.
    9900012    2    1    2    0    0  0.10806828036E+01  0.10971585640E+00 -0.46152969168E+00  0.90007778602E+02  0.90000040480E+02 0.  0.
         12    1    1    2    0    0 -0.10806828036E+01 -0.10971585640E+00  0.46152969168E+00  0.11802213976E+01  0.00000000000E+00 0. -1.
         11    1    3    3    0    0  0.81870386933E+01  0.41273401432E+00 -0.32753479528E+01  0.88275623139E+01  0.51100000000E-03 0. -1.
        -11    1    3    3    0    0  0.10805373953E+02 -0.37615028616E+02  0.63204135296E+01  0.39643336281E+02  0.51100000000E-03 0.  1.
         12    1    3    3    0    0 -0.17911729843E+02  0.37312010458E+02 -0.35065952684E+01  0.41536880007E+02  0.00000000000E+00 0. -1.
</event>
<event>
 7    1  0.2404951E-015  0.9000774E+02  0.7816164E-02  0.1186339E+00
        -11   -1    0    0    0    0  0.00000000000E+00  0.00000000000E+00  0.45593999997E+02  0.45594000000E+02  0.51100000000E-03 0.  1.
         11   -1    0    0    0    0 -0.00000000000E+00 -0.00000000000E+00 -0.45593999997E+02  0.45594000000E+02  0.51100000000E-03 0. -1.
    9900012    2    1    2    0    0  0.11077030758E+01 -0.22381063849E+00 -0.34048178929E+00  0.90007735134E+02  0.89999996437E+02 0.  0.
         12    1    1    2    0    0 -0.11077030758E+01  0.22381063849E+00  0.34048178929E+00  0.11802648664E+01  0.00000000000E+00 0. -1.
         11    1    3    3    0    0  0.40273783141E+01 -0.68934455320E+01  0.41562446714E+01  0.90007631575E+01  0.51100000000E-03 0. -1.
        -11    1    3    3    0    0 -0.34865928379E+00  0.35603090424E+01  0.38075905944E+02  0.38243587403E+02  0.51100000000E-03 0.  1.
         12    1    3    3    0    0 -0.25710159546E+01  0.31093258511E+01 -0.42572632404E+02  0.42763384573E+02  0.00000000000E+00 0. -1.
</event>
<event>
 7    1  0.2404951E-015  0.9000776E+02  0.7816164E-02  0.1186339E+00
        -11   -1    0    0    0    0  0.00000000000E+00  0.00000000000E+00  0.45593999997E+02  0.45594000000E+02  0.51100000000E-03 0.  1.
         11   -1    0    0    0    0 -0.00000000000E+00 -0.00000000000E+00 -0.45593999997E+02  0.45594000000E+02  0.51100000000E-03 0. -1.
    9900012    2    1    2    0    0 -0.90108627677E+00  0.48232302933E+00  0.59024013329E+00  0.90007756213E+02  0.90000017795E+02 0.  0.
         12    1    1    2    0    0  0.90108627677E+00 -0.48232302933E+00 -0.59024013329E+00  0.11802437874E+01  0.00000000000E+00 0. -1.
         11    1    3    3    0    0  0.34419370031E+01  0.13934687806E+02 -0.30428296834E+02  0.33643776587E+02  0.51100000000E-03 0. -1.
        -11    1    3    3    0    0  0.61271246271E+01  0.37406078374E+01 -0.90330474686E+01  0.11538186600E+02  0.51100000000E-03 0.  1.
        -12    1    3    3    0    0 -0.10470147907E+02 -0.17192972614E+02  0.40051584436E+02  0.44825793025E+02  0.00000000000E+00 0.  1.
</event>
<event>
 7    1  0.2404951E-015  0.9000774E+02  0.7816164E-02  0.1186339E+00
        -11   -1    0    0    0    0  0.00000000000E+00  0.00000000000E+00  0.45593999997E+02  0.45594000000E+02  0.51100000000E-03 0. -1.
         11   -1    0    0    0    0 -0.00000000000E+00 -0.00000000000E+00 -0.45593999997E+02  0.45594000000E+02  0.51100000000E-03 0.  1.
    9900012    2    1    2    0    0  0.22602255903E+00  0.10446235613E+01 -0.50068336867E+00  0.90007742224E+02  0.90000003621E+02 0.  0.
         12    1    1    2    0    0 -0.22602255903E+00 -0.10446235613E+01  0.50068336867E+00  0.11802577760E+01  0.00000000000E+00 0. -1.
         11    1    3    3    0    0  0.26341364600E+02 -0.97212132855E+01  0.22628695881E+02  0.36061438605E+02  0.51100000000E-03 0. -1.
        -11    1    3    3    0    0  0.10407371036E+02  0.10715395023E+01 -0.19972148247E+01  0.10651311474E+02  0.51100000000E-03 0.  1.
        -12    1    3    3    0    0 -0.36522713078E+02  0.96942973445E+01 -0.21132164425E+02  0.43294992145E+02  0.00000000000E+00 0.  1.
</event>
<event>
 7    1  0.2404951E-015  0.9000778E+02  0.7816164E-02  0.1186339E+00
        -11   -1    0    0    0    0  0.00000000000E+00  0.00000000000E+00  0.45593999997E+02  0.45594000000E+02  0.51100000000E-03 0.  1.
         11   -1    0    0    0    0 -0.00000000000E+00 -0.00000000000E+00 -0.45593999997E+02  0.45594000000E+02  0.51100000000E-03 0. -1.
    9900012    2    1    2    0    0 -0.29805411469E+00  0.50118758736E+00  0.10261074185E+01  0.90007778967E+02  0.90000040849E+02 0.  0.
         12    1    1    2    0    0  0.29805411469E+00 -0.50118758736E+00 -0.10261074185E+01  0.11802210332E+01  0.00000000000E+00 0. -1.
         11    1    3    3    0    0  0.61779577880E+01 -0.75314131025E+01  0.14872609122E+01  0.98539987331E+01  0.51100000000E-03 0. -1.
        -11    1    3    3    0    0  0.18919503079E+02  0.33116472255E+02  0.15351064382E+02  0.41113300881E+02  0.51100000000E-03 0.  1.
         12    1    3    3    0    0 -0.25395514982E+02 -0.25083871566E+02 -0.15812217876E+02  0.39040479353E+02  0.00000000000E+00 0. -1.
</event>
<event>
 7    1  0.2404951E-015  0.9000771E+02  0.7816164E-02  0.1186339E+00
        -11   -1    0    0    0    0  0.00000000000E+00  0.00000000000E+00  0.45593999997E+02  0.45594000000E+02  0.51100000000E-03 0.  1.
         11   -1    0    0    0    0 -0.00000000000E+00 -0.00000000000E+00 -0.45593999997E+02  0.45594000000E+02  0.51100000000E-03 0. -1.
    9900012    2    1    2    0    0  0.56366388436E+00 -0.82558597941E+00  0.62751820310E+00  0.90007708392E+02  0.89999969343E+02 0.  0.
         12    1    1    2    0    0 -0.56366388436E+00  0.82558597941E+00 -0.62751820310E+00  0.11802916077E+01  0.00000000000E+00 0. -1.
         11    1    3    3    0    0  0.48655091628E+01  0.76526098184E+01  0.33707626431E+01  0.96745882343E+01  0.51100000000E-03 0. -1.
        -11    1    3    3    0    0  0.12290521642E+01  0.27858202701E+02 -0.24926964051E+02  0.37402453984E+02  0.51100000000E-03 0.  1.
         12    1    3    3    0    0 -0.55308974426E+01 -0.36336398498E+02  0.22183719612E+02  0.42930666174E+02  0.00000000000E+00 0. -1.
</event>
<event>
 7    1  0.2404951E-015  0.9000771E+02  0.7816164E-02  0.1186339E+00
        -11   -1    0    0    0    0  0.00000000000E+00  0.00000000000E+00  0.45593999997E+02  0.45594000000E+02  0.51100000000E-03 0.  1.
         11   -1    0    0    0    0 -0.00000000000E+00 -0.00000000000E+00 -0.45593999997E+02  0.45594000000E+02  0.51100000000E-03 0. -1.
    9900012    2    1    2    0    0 -0.80649255875E+00  0.79310466235E+00 -0.33709068885E+00  0.90007713854E+02  0.89999974877E+02 0.  0.
         12    1    1    2    0    0  0.80649255875E+00 -0.79310466235E+00  0.33709068885E+00  0.11802861455E+01  0.00000000000E+00 0. -1.
         11    1    3    3    0    0  0.18314688008E+02  0.17372586772E+02  0.90705203092E+01  0.26823663190E+02  0.51100000000E-03 0. -1.
        -11    1    3    3    0    0  0.56345640781E+01 -0.15502500047E+02  0.19216239084E+02  0.25324684891E+02  0.51100000000E-03 0.  1.
         12    1    3    3    0    0 -0.24755744645E+02 -0.10769820629E+01 -0.28623850082E+02  0.37859365774E+02  0.00000000000E+00 0. -1.
</event>
<event>
 7    1  0.2404951E-015  0.9000760E+02  0.7816164E-02  0.1186339E+00
        -11   -1    0    0    0    0  0.00000000000E+00  0.00000000000E+00  0.45593999997E+02  0.45594000000E+02  0.51100000000E-03 0. -1.
         11   -1    0    0    0    0 -0.00000000000E+00 -0.00000000000E+00 -0.45593999997E+02  0.45594000000E+02  0.51100000000E-03 0.  1.
    9900012    2    1    2    0    0 -0.11057205725E+01 -0.33916943752E+00 -0.23600729461E+00  0.90007596114E+02  0.89999855582E+02 0.  0.
         12    1    1    2    0    0  0.11057205725E+01  0.33916943752E+00  0.23600729461E+00  0.11804038863E+01  0.00000000000E+00 0. -1.
         11    1    3    3    0    0 -0.92852657180E+01  0.62119296592E+01 -0.14850879324E+02  0.18583671502E+02  0.51100000000E-03 0. -1.
        -11    1    3    3    0    0  0.14677481718E+02 -0.22591808836E+02 -0.19440797621E+02  0.33222927451E+02  0.51100000000E-03 0.  1.
         12    1    3    3    0    0 -0.64979365721E+01  0.16040709739E+02  0.34055669651E+02  0.38200997160E+02  0.00000000000E+00 0. -1.
</event>
<event>
 7    1  0.2404951E-015  0.9000783E+02  0.7816164E-02  0.1186339E+00
        -11   -1    0    0    0    0  0.00000000000E+00  0.00000000000E+00  0.45593999997E+02  0.45594000000E+02  0.51100000000E-03 0. -1.
         11   -1    0    0    0    0 -0.00000000000E+00 -0.00000000000E+00 -0.45593999997E+02  0.45594000000E+02  0.51100000000E-03 0.  1.
    9900012    2    1    2    0    0  0.10001662736E+01  0.59011556898E+00 -0.21030352913E+00  0.90007831989E+02  0.90000094571E+02 0.  0.
         12    1    1    2    0    0 -0.10001662736E+01 -0.59011556898E+00  0.21030352913E+00  0.11801680109E+01  0.00000000000E+00 0. -1.
         11    1    3    3    0    0  0.55599440451E+00  0.38697149146E+01  0.12309972339E+02  0.12915852374E+02  0.51100000000E-03 0. -1.
        -11    1    3    3    0    0 -0.33318360714E+02  0.15829490371E+02 -0.99801483507E+01  0.38213731660E+02  0.51100000000E-03 0.  1.
         12    1    3    3    0    0  0.33762532583E+02 -0.19109089716E+02 -0.25401275177E+01  0.38878247954E+02  0.00000000000E+00 0. -1.
</event>
<event>
 7    1  0.2404951E-015  0.9000760E+02  0.7816164E-02  0.1186339E+00
        -11   -1    0    0    0    0  0.00000000000E+00  0.00000000000E+00  0.45593999997E+02  0.45594000000E+02  0.51100000000E-03 0.  1.
         11   -1    0    0    0    0 -0.00000000000E+00 -0.00000000000E+00 -0.45593999997E+02  0.45594000000E+02  0.51100000000E-03 0. -1.
    9900012    2    1    2    0    0 -0.11635264082E+01  0.19733462743E+00 -0.24490025597E-01  0.90007604126E+02  0.89999863701E+02 0.  0.
         12    1    1    2    0    0  0.11635264082E+01 -0.19733462743E+00  0.24490025597E-01  0.11803958738E+01  0.00000000000E+00 0. -1.
         11    1    3    3    0    0 -0.12745182483E+02  0.32120296444E+02  0.17707707367E+02  0.38829319085E+02  0.51100000000E-03 0. -1.
        -11    1    3    3    0    0 -0.40812916593E+01 -0.37942451108E+01  0.81473942639E+01  0.98708293027E+01  0.51100000000E-03 0.  1.
        -12    1    3    3    0    0  0.15662947734E+02 -0.28128716706E+02 -0.25879591656E+02  0.41307455738E+02  0.00000000000E+00 0.  1.
</event>
<event>
 7    1  0.2404951E-015  0.9000760E+02  0.7816164E-02  0.1186339E+00
        -11   -1    0    0    0    0  0.00000000000E+00  0.00000000000E+00  0.45593999997E+02  0.45594000000E+02  0.51100000000E-03 0.  1.
         11   -1    0    0    0    0 -0.00000000000E+00 -0.00000000000E+00 -0.45593999997E+02  0.45594000000E+02  0.51100000000E-03 0. -1.
    9900012    2    1    2    0    0 -0.87892637317E+00  0.30231818771E-01  0.78734234622E+00  0.90007604514E+02  0.89999864094E+02 0.  0.
         12    1    1    2    0    0  0.87892637317E+00 -0.30231818771E-01 -0.78734234622E+00  0.11803954856E+01  0.00000000000E+00 0. -1.
         11    1    3    3    0    0 -0.45568529937E+01  0.60589298535E+01 -0.48660402828E+01  0.90085453027E+01  0.51100000000E-03 0. -1.
        -11    1    3    3    0    0  0.53744671465E+01  0.29021139384E+02  0.26936318134E+02  0.39958436695E+02  0.51100000000E-03 0.  1.
         12    1    3    3    0    0 -0.16965405259E+01 -0.35049837419E+02 -0.21282935504E+02  0.41040622516E+02  0.00000000000E+00 0. -1.
</event>
<event>
 7    1  0.2404951E-015  0.9000774E+02  0.7816164E-02  0.1186339E+00
        -11   -1    0    0    0    0  0.00000000000E+00  0.00000000000E+00  0.45593999997E+02  0.45594000000E+02  0.51100000000E-03 0.  1.
         11   -1    0    0    0    0 -0.00000000000E+00 -0.00000000000E+00 -0.45593999997E+02  0.45594000000E+02  0.51100000000E-03 0. -1.
    9900012    2    1    2    0    0 -0.90498365660E+00  0.74603548956E+00 -0.13205114463E+00  0.90007744996E+02  0.90000006430E+02 0.  0.
         12    1    1    2    0    0  0.90498365660E+00 -0.74603548956E+00  0.13205114463E+00  0.11802550043E+01  0.00000000000E+00 0. -1.
         11    1    3    3    0    0 -0.79667006896E+01 -0.32778755239E+02 -0.24991917403E+02  0.41982270670E+02  0.51100000000E-03 0. -1.
        -11    1    3    3    0    0  0.75673105861E+01  0.86680563696E+01 -0.17155046169E+01  0.11633672983E+02  0.51100000000E-03 0.  1.
        -12    1    3    3    0    0 -0.50559355311E+00  0.24856734358E+02  0.26575370875E+02  0.36391801342E+02  0.00000000000E+00 0.  1.
</event>
<event>
 7    1  0.2404951E-015  0.9000775E+02  0.7816164E-02  0.1186339E+00
        -11   -1    0    0    0    0  0.00000000000E+00  0.00000000000E+00  0.45593999997E+02  0.45594000000E+02  0.51100000000E-03 0. -1.
         11   -1    0    0    0    0 -0.00000000000E+00 -0.00000000000E+00 -0.45593999997E+02  0.45594000000E+02  0.51100000000E-03 0.  1.
    9900012    2    1    2    0    0  0.49092963114E+00 -0.10513427282E+01  0.21602152823E+00  0.90007746326E+02  0.90000007777E+02 0.  0.
         12    1    1    2    0    0 -0.49092963114E+00  0.10513427282E+01 -0.21602152823E+00  0.11802536742E+01  0.00000000000E+00 0. -1.
         11    1    3    3    0    0 -0.46832957516E+01  0.75143357836E-01  0.10357886206E+02  0.11367704805E+02  0.51100000000E-03 0. -1.
        -11    1    3    3    0    0 -0.83409779559E+01  0.36434747940E+02 -0.10113082310E+02  0.38721275867E+02  0.51100000000E-03 0.  1.
         12    1    3    3    0    0  0.13515203339E+02 -0.37561234026E+02 -0.28782367788E-01  0.39918765653E+02  0.00000000000E+00 0. -1.
</event>
<event>
 7    1  0.2404951E-015  0.9000772E+02  0.7816164E-02  0.1186339E+00
        -11   -1    0    0    0    0  0.00000000000E+00  0.00000000000E+00  0.45593999997E+02  0.45594000000E+02  0.51100000000E-03 0.  1.
         11   -1    0    0    0    0 -0.00000000000E+00 -0.00000000000E+00 -0.45593999997E+02  0.45594000000E+02  0.51100000000E-03 0. -1.
    9900012    2    1    2    0    0  0.66532104779E+00  0.97095497830E+00  0.87489206452E-01  0.90007720360E+02  0.89999981469E+02 0.  0.
         12    1    1    2    0    0 -0.66532104779E+00 -0.97095497830E+00 -0.87489206452E-01  0.11802796396E+01  0.00000000000E+00 0. -1.
         11    1    3    3    0    0 -0.91432045022E+01 -0.28578539331E+01 -0.80156804000E+01  0.12490662521E+02  0.51100000000E-03 0. -1.
        -11    1    3    3    0    0 -0.28115889768E+01 -0.16761416076E+02  0.36486074450E+02  0.40250263732E+02  0.51100000000E-03 0.  1.
         12    1    3    3    0    0  0.12620114527E+02  0.20590224987E+02 -0.28382904844E+02  0.37266794108E+02  0.00000000000E+00 0. -1.
</event>
<event>
 7    1  0.2404951E-015  0.9000768E+02  0.7816164E-02  0.1186339E+00
        -11   -1    0    0    0    0  0.00000000000E+00  0.00000000000E+00  0.45593999997E+02  0.45594000000E+02  0.51100000000E-03 0. -1.
         11   -1    0    0    0    0 -0.00000000000E+00 -0.00000000000E+00 -0.45593999997E+02  0.45594000000E+02  0.51100000000E-03 0.  1.
    9900012    2    1    2    0    0 -0.22065994502E+00  0.26161727914E+00 -0.11296104361E+01  0.90007680488E+02  0.89999941071E+02 0.  0.
         12    1    1    2    0    0  0.22065994502E+00 -0.26161727914E+00  0.11296104361E+01  0.11803195116E+01  0.00000000000E+00 0. -1.
         11    1    3    3    0    0  0.89489667608E+00 -0.54420300345E+01  0.36862943917E+02  0.37273223169E+02  0.51100000000E-03 0. -1.
        -11    1    3    3    0    0 -0.12198095279E+02 -0.39152072894E+01 -0.89770188082E+00  0.12842439234E+02  0.51100000000E-03 0.  1.
        -12    1    3    3    0    0  0.11082538658E+02  0.96188546030E+01 -0.37094852472E+02  0.39892018085E+02  0.00000000000E+00 0.  1.
</event>
<event>
 7    1  0.2404951E-015  0.9000778E+02  0.7816164E-02  0.1186339E+00
        -11   -1    0    0    0    0  0.00000000000E+00  0.00000000000E+00  0.45593999997E+02  0.45594000000E+02  0.51100000000E-03 0. -1.
         11   -1    0    0    0    0 -0.00000000000E+00 -0.00000000000E+00 -0.45593999997E+02  0.45594000000E+02  0.51100000000E-03 0.  1.
    9900012    2    1    2    0    0 -0.66596559776E+00  0.88972700750E+00 -0.39722833057E+00  0.90007781939E+02  0.90000043860E+02 0.  0.
         12    1    1    2    0    0  0.66596559776E+00 -0.88972700750E+00  0.39722833057E+00  0.11802180612E+01  0.00000000000E+00 0. -1.
         11    1    3    3    0    0  0.90874422851E+01 -0.53418967591E+01  0.27186029277E+02  0.29158149056E+02  0.51100000000E-03 0. -1.
        -11    1    3    3    0    0  0.26067627734E+01 -0.24154652202E+01  0.15134804037E+02  0.15546445828E+02  0.51100000000E-03 0.  1.
        -12    1    3    3    0    0 -0.12360170656E+02  0.86470889868E+01 -0.42718061645E+02  0.45303187054E+02  0.00000000000E+00 0.  1.
</event>
<event>
 7    1  0.2404951E-015  0.9000783E+02  0.7816164E-02  0.1186339E+00
        -11   -1    0    0    0    0  0.00000000000E+00  0.00000000000E+00  0.45593999997E+02  0.45594000000E+02  0.51100000000E-03 0. -1.
         11   -1    0    0    0    0 -0.00000000000E+00 -0.00000000000E+00 -0.45593999997E+02  0.45594000000E+02  0.51100000000E-03 0.  1.
    9900012    2    1    2    0    0  0.17032017783E+00  0.53108626634E+00 -0.10400683305E+01  0.90007828946E+02  0.90000091488E+02 0.  0.
         12    1    1    2    0    0 -0.17032017783E+00 -0.53108626634E+00  0.10400683305E+01  0.11801710543E+01  0.00000000000E+00 0. -1.
         11    1    3    3    0    0 -0.15033214556E+02 -0.18393316134E+01 -0.50786936495E+01  0.15974160702E+02  0.51100000000E-03 0. -1.
        -11    1    3    3    0    0 -0.28312078779E+02 -0.53541662454E+01 -0.40704655243E+01  0.29099992970E+02  0.51100000000E-03 0.  1.
         12    1    3    3    0    0  0.43515613513E+02  0.77245841251E+01  0.81090908433E+01  0.44933675274E+02  0.00000000000E+00 0. -1.
</event>
<event>
 7    1  0.2404951E-015  0.9000763E+02  0.7816164E-02  0.1186339E+00
        -11   -1    0    0    0    0  0.00000000000E+00  0.00000000000E+00  0.45593999997E+02  0.45594000000E+02  0.51100000000E-03 0. -1.
         11   -1    0    0    0    0 -0.00000000000E+00 -0.00000000000E+00 -0.45593999997E+02  0.45594000000E+02  0.51100000000E-03 0.  1.
    9900012    2    1    2    0    0  0.85712174993E+00  0.69209011605E+00 -0.42382041705E+00  0.90007631342E+02  0.89999891276E+02 0.  0.
         12    1    1    2    0    0 -0.85712174993E+00 -0.69209011605E+00  0.42382041705E+00  0.11803686580E+01  0.00000000000E+00 0. -1.
         11    1    3    3    0    0  0.27556371944E+01 -0.99236804251E+01  0.16150343935E+01  0.10425032656E+02  0.51100000000E-03 0. -1.
        -11    1    3    3    0    0  0.20933247220E+02 -0.14339167254E+02 -0.27372268124E+02  0.37323633521E+02  0.51100000000E-03 0.  1.
         12    1    3    3    0    0 -0.22831762665E+02  0.24954937795E+02  0.25333413313E+02  0.42258965165E+02  0.00000000000E+00 0. -1.
</event>
<event>
 7    1  0.2404951E-015  0.9000890E+02  0.7816164E-02  0.1186337E+00
        -11   -1    0    0    0    0  0.00000000000E+00  0.00000000000E+00  0.45593999997E+02  0.45594000000E+02  0.51100000000E-03 0. -1.
         11   -1    0    0    0    0 -0.00000000000E+00 -0.00000000000E+00 -0.45593999997E+02  0.45594000000E+02  0.51100000000E-03 0.  1.
    9900012    2    1    2    0    0  0.80375140285E+00 -0.86232684885E+00 -0.25438359819E-01  0.90008902454E+02  0.90001179159E+02 0.  0.
         12    1    1    2    0    0 -0.80375140285E+00  0.86232684885E+00  0.25438359819E-01  0.11790975456E+01  0.00000000000E+00 0. -1.
         11    1    3    3    0    0  0.21483309869E+02 -0.32933424502E+01  0.30946619239E+02  0.37816292124E+02  0.51100000000E-03 0. -1.
        -11    1    3    3    0    0 -0.77522603808E+01  0.20633253942E+01  0.78798296843E+01  0.11244846322E+02  0.51100000000E-03 0.  1.
        -12    1    3    3    0    0 -0.12927298085E+02  0.36769020714E+00 -0.38851887283E+02  0.40947764009E+02  0.00000000000E+00 0.  1.
</event>
<event>
 7    1  0.2404951E-015  0.9000757E+02  0.7816164E-02  0.1186339E+00
        -11   -1    0    0    0    0  0.00000000000E+00  0.00000000000E+00  0.45593999997E+02  0.45594000000E+02  0.51100000000E-03 0. -1.
         11   -1    0    0    0    0 -0.00000000000E+00 -0.00000000000E+00 -0.45593999997E+02  0.45594000000E+02  0.51100000000E-03 0.  1.
    9900012    2    1    2    0    0  0.38360300388E+00  0.85489923065E+00 -0.71791629685E+00  0.90007573057E+02  0.89999832221E+02 0.  0.
         12    1    1    2    0    0 -0.38360300388E+00 -0.85489923065E+00  0.71791629685E+00  0.11804269433E+01  0.00000000000E+00 0. -1.
         11    1    3    3    0    0 -0.57068410944E+01 -0.82141207775E+01 -0.26738451821E+01  0.10353224799E+02  0.51100000000E-03 0. -1.
        -11    1    3    3    0    0 -0.29952528595E+01  0.31204669059E+01 -0.38001797077E+02  0.38247162440E+02  0.51100000000E-03 0.  1.
         12    1    3    3    0    0  0.90856969578E+01  0.59485531022E+01  0.39957725962E+02  0.41407185817E+02  0.00000000000E+00 0. -1.
</event>
<event>
 7    1  0.2404951E-015  0.9000854E+02  0.7816164E-02  0.1186337E+00
        -11   -1    0    0    0    0  0.00000000000E+00  0.00000000000E+00  0.45593999997E+02  0.45594000000E+02  0.51100000000E-03 0.  1.
         11   -1    0    0    0    0 -0.00000000000E+00 -0.00000000000E+00 -0.45593999997E+02  0.45594000000E+02  0.51100000000E-03 0. -1.
    9900012    2    1    2    0    0 -0.11714304381E+01  0.80166614633E-01 -0.11160942485E+00  0.90008537147E+02  0.90000809034E+02 0.  0.
         12    1    1    2    0    0  0.11714304381E+01 -0.80166614633E-01  0.11160942485E+00  0.11794628528E+01  0.00000000000E+00 0. -1.
         11    1    3    3    0    0  0.41395695727E+01 -0.50835298510E+01  0.80285743516E+01  0.10365149221E+02  0.51100000000E-03 0. -1.
        -11    1    3    3    0    0  0.30426864803E+02  0.21370868680E+02  0.65272214222E+01  0.37750665552E+02  0.51100000000E-03 0.  1.
         12    1    3    3    0    0 -0.35737864814E+02 -0.16207172215E+02 -0.14667405199E+02  0.41892722374E+02  0.00000000000E+00 0. -1.
</event>
<event>
 7    1  0.2404951E-015  0.9000781E+02  0.7816164E-02  0.1186339E+00
        -11   -1    0    0    0    0  0.00000000000E+00  0.00000000000E+00  0.45593999997E+02  0.45594000000E+02  0.51100000000E-03 0.  1.
         11   -1    0    0    0    0 -0.00000000000E+00 -0.00000000000E+00 -0.45593999997E+02  0.45594000000E+02  0.51100000000E-03 0. -1.
    9900012    2    1    2    0    0  0.83367263911E+00 -0.66662688889E+00  0.50343761190E+00  0.90007808953E+02  0.90000071231E+02 0.  0.
         12    1    1    2    0    0 -0.83367263911E+00  0.66662688889E+00 -0.50343761190E+00  0.11801910469E+01  0.00000000000E+00 0. -1.
         11    1    3    3    0    0 -0.22582907588E+02 -0.62532034911E+00 -0.28360561323E+02  0.36258794512E+02  0.51100000000E-03 0. -1.
        -11    1    3    3    0    0 -0.91931358582E+01 -0.63381039937E+01  0.27499035838E+01  0.11499881700E+02  0.51100000000E-03 0.  1.
        -12    1    3    3    0    0  0.32609716085E+02  0.62967974539E+01  0.26114095351E+02  0.42249132741E+02  0.00000000000E+00 0.  1.
</event>
<event>
 7    1  0.2404951E-015  0.9000788E+02  0.7816164E-02  0.1186339E+00
        -11   -1    0    0    0    0  0.00000000000E+00  0.00000000000E+00  0.45593999997E+02  0.45594000000E+02  0.51100000000E-03 0.  1.
         11   -1    0    0    0    0 -0.00000000000E+00 -0.00000000000E+00 -0.45593999997E+02  0.45594000000E+02  0.51100000000E-03 0. -1.
    9900012    2    1    2    0    0 -0.78247541183E+00 -0.55656535377E+00  0.68604311349E+00  0.90007878008E+02  0.90000141197E+02 0.  0.
         12    1    1    2    0    0  0.78247541183E+00  0.55656535377E+00 -0.68604311349E+00  0.11801219923E+01  0.00000000000E+00 0. -1.
         11    1    3    3    0    0  0.77557318603E+01 -0.62425339548E+01 -0.14705393916E+01  0.10063950180E+02  0.51100000000E-03 0. -1.
        -11    1    3    3    0    0  0.18809654439E+02 -0.15888864561E+02  0.27465701105E+02  0.36886635176E+02  0.51100000000E-03 0.  1.
         12    1    3    3    0    0 -0.27347861712E+02  0.21574833162E+02 -0.25309118600E+02  0.43057292651E+02  0.00000000000E+00 0. -1.
</event>
<event>
 7    1  0.2404951E-015  0.9000776E+02  0.7816164E-02  0.1186339E+00
        -11   -1    0    0    0    0  0.00000000000E+00  0.00000000000E+00  0.45593999997E+02  0.45594000000E+02  0.51100000000E-03 0. -1.
         11   -1    0    0    0    0 -0.00000000000E+00 -0.00000000000E+00 -0.45593999997E+02  0.45594000000E+02  0.51100000000E-03 0.  1.
    9900012    2    1    2    0    0 -0.16354442303E+00  0.11384426031E+01 -0.26489789842E+00  0.90007758823E+02  0.90000020440E+02 0.  0.
         12    1    1    2    0    0  0.16354442303E+00 -0.11384426031E+01  0.26489789842E+00  0.11802411768E+01  0.00000000000E+00 0. -1.
         11    1    3    3    0    0  0.11765432611E+02  0.31932201005E+02  0.16622718411E+02  0.37873547935E+02  0.51100000000E-03 0. -1.
        -11    1    3    3    0    0  0.13911171101E+01  0.44520287811E+01  0.63402243406E+01  0.78710997981E+01  0.51100000000E-03 0.  1.
        -12    1    3    3    0    0 -0.13320094144E+02 -0.35245787183E+02 -0.23227840650E+02  0.44263111090E+02  0.00000000000E+00 0.  1.
</event>
<event>
 7    1  0.2722265E-015  0.9000771E+02  0.7816164E-02  0.1186339E+00
        -11   -1    0    0    0    0  0.00000000000E+00  0.00000000000E+00  0.45593999997E+02  0.45594000000E+02  0.51100000000E-03 0. -1.
         11   -1    0    0    0    0 -0.00000000000E+00 -0.00000000000E+00 -0.45593999997E+02  0.45594000000E+02  0.51100000000E-03 0.  1.
    9900012    2    1    2    0    0 -0.72255953793E+00 -0.86609532134E+00 -0.34765121438E+00  0.90007714120E+02  0.89999975146E+02 0.  0.
         12    1    1    2    0    0  0.72255953793E+00  0.86609532134E+00  0.34765121438E+00  0.11802858799E+01  0.00000000000E+00 0. -1.
         11    1    3    3    0    0 -0.26529872923E+02  0.30990634371E+02 -0.18577474210E+01  0.40837541574E+02  0.51100000000E-03 0. -1.
        -11    1    3    3    0    0  0.26924972485E+00 -0.30336452347E+01 -0.87937854114E+01  0.93062431168E+01  0.51100000000E-03 0.  1.
        -12    1    3    3    0    0  0.25538063660E+02 -0.28823084458E+02  0.10303881618E+02  0.39863929430E+02  0.00000000000E+00 0.  1.
</event>
<event>
 7    1  0.2404951E-015  0.9000774E+02  0.7816164E-02  0.1186339E+00
        -11   -1    0    0    0    0  0.00000000000E+00  0.00000000000E+00  0.45593999997E+02  0.45594000000E+02  0.51100000000E-03 0.  1.
         11   -1    0    0    0    0 -0.00000000000E+00 -0.00000000000E+00 -0.45593999997E+02  0.45594000000E+02  0.51100000000E-03 0. -1.
    9900012    2    1    2    0    0 -0.74737155777E+00  0.55351097558E+00  0.72669190284E+00  0.90007737416E+02  0.89999998750E+02 0.  0.
         12    1    1    2    0    0  0.74737155777E+00 -0.55351097558E+00 -0.72669190284E+00  0.11802625840E+01  0.00000000000E+00 0. -1.
         11    1    3    3    0    0 -0.58173529063E+00  0.19438964195E+02 -0.30511111779E+02  0.36182035421E+02  0.51100000000E-03 0. -1.
        -11    1    3    3    0    0  0.80849531351E+01 -0.68343059819E-01 -0.68188972258E+01  0.10576790515E+02  0.51100000000E-03 0.  1.
        -12    1    3    3    0    0 -0.82505894022E+01 -0.18817110160E+02  0.38056700908E+02  0.43248911480E+02  0.00000000000E+00 0.  1.
</event>
<event>
 7    1  0.2404951E-015  0.9000790E+02  0.7816164E-02  0.1186339E+00
        -11   -1    0    0    0    0  0.00000000000E+00  0.00000000000E+00  0.45593999997E+02  0.45594000000E+02  0.51100000000E-03 0.  1.
         11   -1    0    0    0    0 -0.00000000000E+00 -0.00000000000E+00 -0.45593999997E+02  0.45594000000E+02  0.51100000000E-03 0. -1.
    9900012    2    1    2    0    0  0.54882022832E+00 -0.58154745193E+00  0.86789178326E+00  0.90007899483E+02  0.90000162956E+02 0.  0.
         12    1    1    2    0    0 -0.54882022832E+00  0.58154745193E+00 -0.86789178326E+00  0.11801005166E+01  0.00000000000E+00 0. -1.
         11    1    3    3    0    0  0.25007806334E+02 -0.25687232716E+02  0.82842241795E+01  0.36794737025E+02  0.51100000000E-03 0. -1.
        -11    1    3    3    0    0  0.99169715644E+01  0.73341870007E+00 -0.46658369665E+01  0.10984273433E+02  0.51100000000E-03 0.  1.
        -12    1    3    3    0    0 -0.34375957670E+02  0.24372266564E+02 -0.27504954298E+01  0.42228889025E+02  0.00000000000E+00 0.  1.
</event>
<event>
 7    1  0.2404951E-015  0.9000783E+02  0.7816164E-02  0.1186339E+00
        -11   -1    0    0    0    0  0.00000000000E+00  0.00000000000E+00  0.45593999997E+02  0.45594000000E+02  0.51100000000E-03 0. -1.
         11   -1    0    0    0    0 -0.00000000000E+00 -0.00000000000E+00 -0.45593999997E+02  0.45594000000E+02  0.51100000000E-03 0.  1.
    9900012    2    1    2    0    0  0.63974656866E+00  0.71019342438E+00 -0.69221516542E+00  0.90007825349E+02  0.90000087843E+02 0.  0.
         12    1    1    2    0    0 -0.63974656866E+00 -0.71019342438E+00  0.69221516542E+00  0.11801746512E+01  0.00000000000E+00 0. -1.
         11    1    3    3    0    0  0.72331405474E+01  0.43542811316E+01 -0.35634885854E+01  0.91638713168E+01  0.51100000000E-03 0. -1.
        -11    1    3    3    0    0  0.22688627710E+02  0.13792899425E+02 -0.25263557595E+02  0.36650583141E+02  0.51100000000E-03 0.  1.
         12    1    3    3    0    0 -0.29282021689E+02 -0.17436987132E+02  0.28134831015E+02  0.44193370891E+02  0.00000000000E+00 0. -1.
</event>
<event>
 7    1  0.2404951E-015  0.9000789E+02  0.7816164E-02  0.1186339E+00
        -11   -1    0    0    0    0  0.00000000000E+00  0.00000000000E+00  0.45593999997E+02  0.45594000000E+02  0.51100000000E-03 0. -1.
         11   -1    0    0    0    0 -0.00000000000E+00 -0.00000000000E+00 -0.45593999997E+02  0.45594000000E+02  0.51100000000E-03 0.  1.
    9900012    2    1    2    0    0 -0.67692373792E+00 -0.68131213817E+00 -0.68574634724E+00  0.90007889823E+02  0.90000153169E+02 0.  0.
         12    1    1    2    0    0  0.67692373792E+00  0.68131213817E+00  0.68574634724E+00  0.11801101768E+01  0.00000000000E+00 0. -1.
         11    1    3    3    0    0 -0.86771042909E+00 -0.20094918225E+02  0.26883741953E+02  0.33575202777E+02  0.51100000000E-03 0. -1.
        -11    1    3    3    0    0  0.65514454589E+01  0.44307744743E+01  0.11586340211E+02  0.14028416867E+02  0.51100000000E-03 0.  1.
        -12    1    3    3    0    0 -0.63606587677E+01  0.14982831612E+02 -0.39155828511E+02  0.42404270180E+02  0.00000000000E+00 0.  1.
</event>
<event>
 7    1  0.2404951E-015  0.9000739E+02  0.7816164E-02  0.1186340E+00
        -11   -1    0    0    0    0  0.00000000000E+00  0.00000000000E+00  0.45593999997E+02  0.45594000000E+02  0.51100000000E-03 0. -1.
         11   -1    0    0    0    0 -0.00000000000E+00 -0.00000000000E+00 -0.45593999997E+02  0.45594000000E+02  0.51100000000E-03 0.  1.
    9900012    2    1    2    0    0  0.60193539771E-01  0.30360184754E+00 -0.11393170812E+01  0.90007389668E+02  0.89999646411E+02 0.  0.
         12    1    1    2    0    0 -0.60193539771E-01 -0.30360184754E+00  0.11393170812E+01  0.11806103318E+01  0.00000000000E+00 0. -1.
         11    1    3    3    0    0  0.97021641033E+01 -0.71023429918E+01 -0.15021566881E+02  0.19241172940E+02  0.51100000000E-03 0. -1.
        -11    1    3    3    0    0  0.16331714767E+02 -0.21984472904E+02 -0.39675277159E+01  0.27672788666E+02  0.51100000000E-03 0.  1.
         12    1    3    3    0    0 -0.25973685331E+02  0.29390417744E+02  0.17849777516E+02  0.43093428063E+02  0.00000000000E+00 0. -1.
</event>
<event>
 7    1  0.2404951E-015  0.9000781E+02  0.7816164E-02  0.1186339E+00
        -11   -1    0    0    0    0  0.00000000000E+00  0.00000000000E+00  0.45593999997E+02  0.45594000000E+02  0.51100000000E-03 0.  1.
         11   -1    0    0    0    0 -0.00000000000E+00 -0.00000000000E+00 -0.45593999997E+02  0.45594000000E+02  0.51100000000E-03 0. -1.
    9900012    2    1    2    0    0  0.20763079477E+00  0.10996179252E+01  0.37492224887E+00  0.90007814921E+02  0.90000077278E+02 0.  0.
         12    1    1    2    0    0 -0.20763079477E+00 -0.10996179252E+01 -0.37492224887E+00  0.11801850792E+01  0.00000000000E+00 0. -1.
         11    1    3    3    0    0  0.19516133443E+02 -0.91843976769E+01  0.52733408487E+01  0.22204520919E+02  0.51100000000E-03 0. -1.
        -11    1    3    3    0    0 -0.34910703476E+01 -0.74699739742E+01  0.26878563669E+02  0.28114858500E+02  0.51100000000E-03 0.  1.
         12    1    3    3    0    0 -0.15817432301E+02  0.17753989576E+02 -0.31776982268E+02  0.39688435502E+02  0.00000000000E+00 0. -1.
</event>
<event>
 7    1  0.2554527E-015  0.9000774E+02  0.7816164E-02  0.1186339E+00
        -11   -1    0    0    0    0  0.00000000000E+00  0.00000000000E+00  0.45593999997E+02  0.45594000000E+02  0.51100000000E-03 0. -1.
         11   -1    0    0    0    0 -0.00000000000E+00 -0.00000000000E+00 -0.45593999997E+02  0.45594000000E+02  0.51100000000E-03 0.  1.
    9900012    2    1    2    0    0 -0.95906838831E+00  0.68414257189E+00 -0.71687245584E-01  0.90007744819E+02  0.90000006250E+02 0.  0.
         12    1    1    2    0    0  0.95906838831E+00 -0.68414257189E+00  0.71687245584E-01  0.11802551814E+01  0.00000000000E+00 0. -1.
         11    1    3    3    0    0 -0.11098219283E+02 -0.35349914608E+02 -0.32331392504E+01  0.37191936273E+02  0.51100000000E-03 0. -1.
        -11    1    3    3    0    0 -0.75729112131E+01 -0.15770425293E+01 -0.65358005947E+01  0.10126832528E+02  0.51100000000E-03 0.  1.
        -12    1    3    3    0    0  0.17712062107E+02  0.37611099709E+02  0.96972525994E+01  0.42688976017E+02  0.00000000000E+00 0.  1.
</event>
<event>
 7    1  0.2559717E-015  0.9000794E+02  0.7816164E-02  0.1186339E+00
        -11   -1    0    0    0    0  0.00000000000E+00  0.00000000000E+00  0.45593999997E+02  0.45594000000E+02  0.51100000000E-03 0. -1.
         11   -1    0    0    0    0 -0.00000000000E+00 -0.00000000000E+00 -0.45593999997E+02  0.45594000000E+02  0.51100000000E-03 0.  1.
    9900012    2    1    2    0    0 -0.19535694839E+00 -0.89635369406E+00 -0.74224280341E+00  0.90007941247E+02  0.90000205271E+02 0.  0.
         12    1    1    2    0    0  0.19535694839E+00  0.89635369406E+00  0.74224280341E+00  0.11800587533E+01  0.00000000000E+00 0. -1.
         11    1    3    3    0    0  0.29627692375E+02 -0.23615246391E+02  0.92151434538E+01  0.38992292658E+02  0.51100000000E-03 0. -1.
        -11    1    3    3    0    0  0.71373315591E+01  0.63392369230E+01 -0.29014215330E+01  0.99772578259E+01  0.51100000000E-03 0.  1.
        -12    1    3    3    0    0 -0.36960380882E+02  0.16379655774E+02 -0.70559647242E+01  0.41038390763E+02  0.00000000000E+00 0.  1.
</event>
<event>
 7    1  0.2404951E-015  0.9000769E+02  0.7816164E-02  0.1186339E+00
        -11   -1    0    0    0    0  0.00000000000E+00  0.00000000000E+00  0.45593999997E+02  0.45594000000E+02  0.51100000000E-03 0. -1.
         11   -1    0    0    0    0 -0.00000000000E+00 -0.00000000000E+00 -0.45593999997E+02  0.45594000000E+02  0.51100000000E-03 0.  1.
    9900012    2    1    2    0    0  0.21451576476E+00 -0.39678598517E+00 -0.10907171387E+01  0.90007694951E+02  0.89999955725E+02 0.  0.
         12    1    1    2    0    0 -0.21451576476E+00  0.39678598517E+00  0.10907171387E+01  0.11803050488E+01  0.00000000000E+00 0. -1.
         11    1    3    3    0    0 -0.31584614768E+01 -0.67128739733E+01 -0.39427812756E+01  0.84014332307E+01  0.51100000000E-03 0. -1.
        -11    1    3    3    0    0 -0.32654531608E+02 -0.74705988192E+01 -0.17711465532E+02  0.37892272204E+02  0.51100000000E-03 0.  1.
         12    1    3    3    0    0  0.36027508849E+02  0.13786686807E+02  0.20563529669E+02  0.43713989516E+02  0.00000000000E+00 0. -1.
</event>
<event>
 7    1  0.2404951E-015  0.9000776E+02  0.7816164E-02  0.1186339E+00
        -11   -1    0    0    0    0  0.00000000000E+00  0.00000000000E+00  0.45593999997E+02  0.45594000000E+02  0.51100000000E-03 0.  1.
         11   -1    0    0    0    0 -0.00000000000E+00 -0.00000000000E+00 -0.45593999997E+02  0.45594000000E+02  0.51100000000E-03 0. -1.
    9900012    2    1    2    0    0 -0.32872017129E+00 -0.66411357134E+00  0.91861712526E+00  0.90007762223E+02  0.90000023885E+02 0.  0.
         12    1    1    2    0    0  0.32872017129E+00  0.66411357134E+00 -0.91861712526E+00  0.11802377767E+01  0.00000000000E+00 0. -1.
         11    1    3    3    0    0  0.29213329225E+02  0.40154052339E+00 -0.23550602180E+02  0.37526133594E+02  0.51100000000E-03 0. -1.
        -11    1    3    3    0    0 -0.63639365676E+01 -0.77681931337E+01 -0.74251807034E+01  0.12489108132E+02  0.51100000000E-03 0.  1.
        -12    1    3    3    0    0 -0.23178112829E+02  0.67025390390E+01  0.31894400008E+02  0.39992520498E+02  0.00000000000E+00 0.  1.
</event>
<event>
 7    1  0.2404951E-015  0.9000780E+02  0.7816164E-02  0.1186339E+00
        -11   -1    0    0    0    0  0.00000000000E+00  0.00000000000E+00  0.45593999997E+02  0.45594000000E+02  0.51100000000E-03 0. -1.
         11   -1    0    0    0    0 -0.00000000000E+00 -0.00000000000E+00 -0.45593999997E+02  0.45594000000E+02  0.51100000000E-03 0.  1.
    9900012    2    1    2    0    0  0.12625149369E+00 -0.40181555370E-01 -0.11727345633E+01  0.90007804951E+02  0.90000067177E+02 0.  0.
         12    1    1    2    0    0 -0.12625149369E+00  0.40181555370E-01  0.11727345633E+01  0.11801950487E+01  0.00000000000E+00 0. -1.
         11    1    3    3    0    0  0.61126678645E+00  0.19057654546E+02  0.35350755286E+02  0.40165205632E+02  0.51100000000E-03 0. -1.
        -11    1    3    3    0    0  0.53457969334E+01 -0.16635182453E+01  0.29280897099E+01  0.63181126466E+01  0.51100000000E-03 0.  1.
        -12    1    3    3    0    0 -0.58308122261E+01 -0.17434317857E+02 -0.39451579560E+02  0.43524486672E+02  0.00000000000E+00 0.  1.
</event>
<event>
 7    1  0.2404951E-015  0.9000775E+02  0.7816164E-02  0.1186339E+00
        -11   -1    0    0    0    0  0.00000000000E+00  0.00000000000E+00  0.45593999997E+02  0.45594000000E+02  0.51100000000E-03 0.  1.
         11   -1    0    0    0    0 -0.00000000000E+00 -0.00000000000E+00 -0.45593999997E+02  0.45594000000E+02  0.51100000000E-03 0. -1.
    9900012    2    1    2    0    0 -0.30448290805E+00  0.54147828325E+00  0.10035402481E+01  0.90007745111E+02  0.90000006547E+02 0.  0.
         12    1    1    2    0    0  0.30448290805E+00 -0.54147828325E+00 -0.10035402481E+01  0.11802548886E+01  0.00000000000E+00 0. -1.
         11    1    3    3    0    0  0.50589218050E+01  0.16155534194E+01 -0.81541265083E+01  0.97310062200E+01  0.51100000000E-03 0. -1.
        -11    1    3    3    0    0 -0.41185696027E+02  0.83731835158E+01 -0.34767405768E+00  0.42029663774E+02  0.51100000000E-03 0.  1.
         12    1    3    3    0    0  0.35822291314E+02 -0.94472586520E+01  0.95053408141E+01  0.38247075117E+02  0.00000000000E+00 0. -1.
</event>
<event>
 7    1  0.2404951E-015  0.9000776E+02  0.7816164E-02  0.1186339E+00
        -11   -1    0    0    0    0  0.00000000000E+00  0.00000000000E+00  0.45593999997E+02  0.45594000000E+02  0.51100000000E-03 0.  1.
         11   -1    0    0    0    0 -0.00000000000E+00 -0.00000000000E+00 -0.45593999997E+02  0.45594000000E+02  0.51100000000E-03 0. -1.
    9900012    2    1    2    0    0 -0.96757228952E-01 -0.92022851192E+00  0.73266122612E+00  0.90007756403E+02  0.90000017988E+02 0.  0.
         12    1    1    2    0    0  0.96757228952E-01  0.92022851192E+00 -0.73266122612E+00  0.11802435968E+01  0.00000000000E+00 0. -1.
         11    1    3    3    0    0 -0.29074709649E+02  0.19318989061E+02  0.19739408724E+01  0.34963674325E+02  0.51100000000E-03 0. -1.
        -11    1    3    3    0    0 -0.90459585071E+01  0.37962849548E+01  0.17335116528E+01  0.99622390898E+01  0.51100000000E-03 0.  1.
        -12    1    3    3    0    0  0.38023910927E+02 -0.24035502528E+02 -0.29747912991E+01  0.45081842988E+02  0.00000000000E+00 0.  1.
</event>
<event>
 7    1  0.2404951E-015  0.9000770E+02  0.7816164E-02  0.1186339E+00
        -11   -1    0    0    0    0  0.00000000000E+00  0.00000000000E+00  0.45593999997E+02  0.45594000000E+02  0.51100000000E-03 0.  1.
         11   -1    0    0    0    0 -0.00000000000E+00 -0.00000000000E+00 -0.45593999997E+02  0.45594000000E+02  0.51100000000E-03 0. -1.
    9900012    2    1    2    0    0 -0.53806752245E+00  0.49891270149E+00  0.92448197169E+00  0.90007704504E+02  0.89999965403E+02 0.  0.
         12    1    1    2    0    0  0.53806752245E+00 -0.49891270149E+00 -0.92448197169E+00  0.11802954962E+01  0.00000000000E+00 0. -1.
         11    1    3    3    0    0 -0.13389471323E+02  0.29012931500E+01 -0.29287300082E+02  0.32333286109E+02  0.51100000000E-03 0. -1.
        -11    1    3    3    0    0 -0.68897646050E+01 -0.39566504881E+01 -0.10047145292E+02  0.12808944850E+02  0.51100000000E-03 0.  1.
        -12    1    3    3    0    0  0.19741168405E+02  0.15542700396E+01  0.40258927346E+02  0.44865473545E+02  0.00000000000E+00 0.  1.
</event>
<event>
 7    1  0.2404951E-015  0.9000777E+02  0.7816164E-02  0.1186339E+00
        -11   -1    0    0    0    0  0.00000000000E+00  0.00000000000E+00  0.45593999997E+02  0.45594000000E+02  0.51100000000E-03 0. -1.
         11   -1    0    0    0    0 -0.00000000000E+00 -0.00000000000E+00 -0.45593999997E+02  0.45594000000E+02  0.51100000000E-03 0.  1.
    9900012    2    1    2    0    0 -0.10049505866E+01  0.47822291161E+00  0.39282092979E+00  0.90007774972E+02  0.90000036801E+02 0.  0.
         12    1    1    2    0    0  0.10049505866E+01 -0.47822291161E+00 -0.39282092979E+00  0.11802250283E+01  0.00000000000E+00 0. -1.
         11    1    3    3    0    0  0.84431679288E+01 -0.38597610415E+02 -0.50905176225E+01  0.39836867150E+02  0.51100000000E-03 0. -1.
        -11    1    3    3    0    0  0.83370270610E+01  0.20811355626E+01 -0.86045774660E+00  0.86358284629E+01  0.51100000000E-03 0.  1.
        -12    1    3    3    0    0 -0.17785145576E+02  0.36994697764E+02  0.63437962989E+01  0.41535079358E+02  0.00000000000E+00 0.  1.
</event>
<event>
 7    1  0.2404951E-015  0.9000774E+02  0.7816164E-02  0.1186339E+00
        -11   -1    0    0    0    0  0.00000000000E+00  0.00000000000E+00  0.45593999997E+02  0.45594000000E+02  0.51100000000E-03 0.  1.
         11   -1    0    0    0    0 -0.00000000000E+00 -0.00000000000E+00 -0.45593999997E+02  0.45594000000E+02  0.51100000000E-03 0. -1.
    9900012    2    1    2    0    0  0.58017351494E+00 -0.57304452891E+00  0.85325370155E+00  0.90007735954E+02  0.89999997268E+02 0.  0.
         12    1    1    2    0    0 -0.58017351494E+00  0.57304452891E+00 -0.85325370155E+00  0.11802640462E+01  0.00000000000E+00 0. -1.
         11    1    3    3    0    0 -0.25988765029E+01 -0.35485241367E+02  0.77446487941E+01  0.36413405487E+02  0.51100000000E-03 0. -1.
        -11    1    3    3    0    0  0.22208351824E+01 -0.80982335720E+01  0.38724288460E+01  0.92471185416E+01  0.51100000000E-03 0.  1.
        -12    1    3    3    0    0  0.95821483546E+00  0.43010430410E+02 -0.10763823939E+02  0.44347211925E+02  0.00000000000E+00 0.  1.
</event>
<event>
 7    1  0.2404951E-015  0.9000786E+02  0.7816164E-02  0.1186339E+00
        -11   -1    0    0    0    0  0.00000000000E+00  0.00000000000E+00  0.45593999997E+02  0.45594000000E+02  0.51100000000E-03 0. -1.
         11   -1    0    0    0    0 -0.00000000000E+00 -0.00000000000E+00 -0.45593999997E+02  0.45594000000E+02  0.51100000000E-03 0.  1.
    9900012    2    1    2    0    0 -0.25508062754E+00 -0.10847556893E+01  0.38853331499E+00  0.90007864767E+02  0.90000127782E+02 0.  0.
         12    1    1    2    0    0  0.25508062754E+00  0.10847556893E+01 -0.38853331499E+00  0.11801352333E+01  0.00000000000E+00 0. -1.
         11    1    3    3    0    0 -0.11274798945E+01  0.15191246291E+01 -0.86483502825E+01  0.88528477577E+01  0.51100000000E-03 0. -1.
        -11    1    3    3    0    0 -0.33994167362E+02 -0.19611124587E+02  0.14785249095E+02  0.41938087859E+02  0.51100000000E-03 0.  1.
         12    1    3    3    0    0  0.34866566629E+02  0.17007244268E+02 -0.57483654980E+01  0.39216929150E+02  0.00000000000E+00 0. -1.
</event>
<event>
 7    1  0.2404951E-015  0.9000781E+02  0.7816164E-02  0.1186339E+00
        -11   -1    0    0    0    0  0.00000000000E+00  0.00000000000E+00  0.45593999997E+02  0.45594000000E+02  0.51100000000E-03 0. -1.
         11   -1    0    0    0    0 -0.00000000000E+00 -0.00000000000E+00 -0.45593999997E+02  0.45594000000E+02  0.51100000000E-03 0.  1.
    9900012    2    1    2    0    0  0.50632373401E+00  0.17528360665E+00  0.10515559242E+01  0.90007805979E+02  0.90000068218E+02 0.  0.
         12    1    1    2    0    0 -0.50632373401E+00 -0.17528360665E+00 -0.10515559242E+01  0.11801940214E+01  0.00000000000E+00 0. -1.
         11    1    3    3    0    0 -0.82032987513E+01  0.25862188398E+01  0.47461873678E+01  0.98238960236E+01  0.51100000000E-03 0. -1.
        -11    1    3    3    0    0 -0.11860892572E+02 -0.12407802813E+02 -0.36417848416E+02  0.40260328200E+02  0.51100000000E-03 0.  1.
         12    1    3    3    0    0  0.20570515058E+02  0.99968675793E+01  0.32723216972E+02  0.39923581755E+02  0.00000000000E+00 0. -1.
</event>
<event>
 7    1  0.2404951E-015  0.9000772E+02  0.7816164E-02  0.1186339E+00
        -11   -1    0    0    0    0  0.00000000000E+00  0.00000000000E+00  0.45593999997E+02  0.45594000000E+02  0.51100000000E-03 0.  1.
         11   -1    0    0    0    0 -0.00000000000E+00 -0.00000000000E+00 -0.45593999997E+02  0.45594000000E+02  0.51100000000E-03 0. -1.
    9900012    2    1    2    0    0  0.19866257808E+00  0.62565156185E+00  0.98089854202E+00  0.90007716709E+02  0.89999977770E+02 0.  0.
         12    1    1    2    0    0 -0.19866257808E+00 -0.62565156185E+00 -0.98089854202E+00  0.11802832908E+01  0.00000000000E+00 0. -1.
         11    1    3    3    0    0  0.15299197055E+02  0.62767785696E+01 -0.25002287082E+02  0.29976286283E+02  0.51100000000E-03 0. -1.
        -11    1    3    3    0    0  0.11714142770E+02  0.77985098315E+01 -0.67700710418E+01  0.15616393905E+02  0.51100000000E-03 0.  1.
        -12    1    3    3    0    0 -0.26814677247E+02 -0.13449636839E+02  0.32753256666E+02  0.44415036521E+02  0.00000000000E+00 0.  1.
</event>
<event>
 7    1  0.2404951E-015  0.9000774E+02  0.7816164E-02  0.1186339E+00
        -11   -1    0    0    0    0  0.00000000000E+00  0.00000000000E+00  0.45593999997E+02  0.45594000000E+02  0.51100000000E-03 0.  1.
         11   -1    0    0    0    0 -0.00000000000E+00 -0.00000000000E+00 -0.45593999997E+02  0.45594000000E+02  0.51100000000E-03 0. -1.
    9900012    2    1    2    0    0  0.86207048332E+00  0.79835214980E+00  0.11176994157E+00  0.90007735541E+02  0.89999996850E+02 0.  0.
         12    1    1    2    0    0 -0.86207048332E+00 -0.79835214980E+00 -0.11176994157E+00  0.11802644590E+01  0.00000000000E+00 0. -1.
         11    1    3    3    0    0 -0.24524639519E+02  0.17012628377E+02 -0.20367218537E+02  0.36134624103E+02  0.51100000000E-03 0. -1.
        -11    1    3    3    0    0  0.38102294452E+01  0.51273055301E+01 -0.93474087757E+01  0.11321711951E+02  0.51100000000E-03 0.  1.
        -12    1    3    3    0    0  0.21576480558E+02 -0.21341581757E+02  0.29826397254E+02  0.42551399487E+02  0.00000000000E+00 0.  1.
</event>
<event>
 7    1  0.2404951E-015  0.9000780E+02  0.7816164E-02  0.1186339E+00
        -11   -1    0    0    0    0  0.00000000000E+00  0.00000000000E+00  0.45593999997E+02  0.45594000000E+02  0.51100000000E-03 0.  1.
         11   -1    0    0    0    0 -0.00000000000E+00 -0.00000000000E+00 -0.45593999997E+02  0.45594000000E+02  0.51100000000E-03 0. -1.
    9900012    2    1    2    0    0  0.10721688489E+01 -0.76069751975E-01  0.48738215701E+00  0.90007799163E+02  0.90000061312E+02 0.  0.
         12    1    1    2    0    0 -0.10721688489E+01  0.76069751975E-01 -0.48738215701E+00  0.11802008366E+01  0.00000000000E+00 0. -1.
         11    1    3    3    0    0  0.38486890582E+02  0.47015170247E+01  0.46170308928E+01  0.39046920282E+02  0.51100000000E-03 0. -1.
        -11    1    3    3    0    0 -0.23755425258E+01  0.10211808524E+02 -0.72124196445E+01  0.12725691848E+02  0.51100000000E-03 0.  1.
        -12    1    3    3    0    0 -0.35039179207E+02 -0.14989395301E+02  0.30827709087E+01  0.38235187033E+02  0.00000000000E+00 0.  1.
</event>
<event>
 7    1  0.2404951E-015  0.9000774E+02  0.7816164E-02  0.1186339E+00
        -11   -1    0    0    0    0  0.00000000000E+00  0.00000000000E+00  0.45593999997E+02  0.45594000000E+02  0.51100000000E-03 0.  1.
         11   -1    0    0    0    0 -0.00000000000E+00 -0.00000000000E+00 -0.45593999997E+02  0.45594000000E+02  0.51100000000E-03 0. -1.
    9900012    2    1    2    0    0 -0.54944346993E+00  0.85272746644E+00  0.60330966253E+00  0.90007739517E+02  0.90000000879E+02 0.  0.
         12    1    1    2    0    0  0.54944346993E+00 -0.85272746644E+00 -0.60330966253E+00  0.11802604829E+01  0.00000000000E+00 0. -1.
         11    1    3    3    0    0  0.44284905953E+01 -0.73256198375E+01 -0.13119166596E+01  0.86601016472E+01  0.51100000000E-03 0. -1.
        -11    1    3    3    0    0 -0.85701314190E+01 -0.30682206477E+00  0.40643483326E+02  0.41538344086E+02  0.51100000000E-03 0.  1.
         12    1    3    3    0    0  0.35921973537E+01  0.84851693688E+01 -0.38728257003E+02  0.39809293784E+02  0.00000000000E+00 0. -1.
</event>
<event>
 7    1  0.2404951E-015  0.9000775E+02  0.7816164E-02  0.1186339E+00
        -11   -1    0    0    0    0  0.00000000000E+00  0.00000000000E+00  0.45593999997E+02  0.45594000000E+02  0.51100000000E-03 0. -1.
         11   -1    0    0    0    0 -0.00000000000E+00 -0.00000000000E+00 -0.45593999997E+02  0.45594000000E+02  0.51100000000E-03 0.  1.
    9900012    2    1    2    0    0 -0.63497293094E+00 -0.38053704048E+00 -0.91924019771E+00  0.90007745111E+02  0.90000006546E+02 0.  0.
         12    1    1    2    0    0  0.63497293094E+00  0.38053704048E+00  0.91924019771E+00  0.11802548891E+01  0.00000000000E+00 0. -1.
         11    1    3    3    0    0  0.74440375256E+01 -0.13311216547E+02 -0.25437207344E+01  0.15461975814E+02  0.51100000000E-03 0. -1.
        -11    1    3    3    0    0 -0.29757754506E+02 -0.74451279182E+01 -0.20995343137E+02  0.37172009855E+02  0.51100000000E-03 0.  1.
         12    1    3    3    0    0  0.21678744049E+02  0.20375807425E+02  0.22619823674E+02  0.37373759442E+02  0.00000000000E+00 0. -1.
</event>
<event>
 7    1  0.2404951E-015  0.9000774E+02  0.7816164E-02  0.1186339E+00
        -11   -1    0    0    0    0  0.00000000000E+00  0.00000000000E+00  0.45593999997E+02  0.45594000000E+02  0.51100000000E-03 0.  1.
         11   -1    0    0    0    0 -0.00000000000E+00 -0.00000000000E+00 -0.45593999997E+02  0.45594000000E+02  0.51100000000E-03 0. -1.
    9900012    2    1    2    0    0 -0.10060714378E+00  0.11375444799E+01  0.29811587561E+00  0.90007744809E+02  0.90000006240E+02 0.  0.
         12    1    1    2    0    0  0.10060714378E+00 -0.11375444799E+01 -0.29811587561E+00  0.11802551912E+01  0.00000000000E+00 0. -1.
         11    1    3    3    0    0  0.57438929226E+01  0.31617227366E+01 -0.77520916112E+01  0.10153015374E+02  0.51100000000E-03 0. -1.
        -11    1    3    3    0    0  0.32421813277E+02  0.16938092594E+02  0.11795188500E+01  0.36598691532E+02  0.51100000000E-03 0.  1.
         12    1    3    3    0    0 -0.38266313344E+02 -0.18962270850E+02  0.68706886368E+01  0.43256037903E+02  0.00000000000E+00 0. -1.
</event>
<event>
 7    1  0.2404951E-015  0.9000774E+02  0.7816164E-02  0.1186339E+00
        -11   -1    0    0    0    0  0.00000000000E+00  0.00000000000E+00  0.45593999997E+02  0.45594000000E+02  0.51100000000E-03 0. -1.
         11   -1    0    0    0    0 -0.00000000000E+00 -0.00000000000E+00 -0.45593999997E+02  0.45594000000E+02  0.51100000000E-03 0.  1.
    9900012    2    1    2    0    0 -0.91528435311E+00 -0.32934946088E+00 -0.66843419033E+00  0.90007736986E+02  0.89999998315E+02 0.  0.
         12    1    1    2    0    0  0.91528435311E+00  0.32934946088E+00  0.66843419033E+00  0.11802630136E+01  0.00000000000E+00 0. -1.
         11    1    3    3    0    0  0.67535898405E+00 -0.42420543217E+01 -0.18091606068E+02  0.18594551488E+02  0.51100000000E-03 0. -1.
        -11    1    3    3    0    0  0.60538110733E+00 -0.31326646779E+02 -0.14727391031E+01  0.31367088571E+02  0.51100000000E-03 0.  1.
         12    1    3    3    0    0 -0.21960244445E+01  0.35239351640E+02  0.18895910981E+02  0.40046096928E+02  0.00000000000E+00 0. -1.
</event>
<event>
 7    1  0.2404951E-015  0.9000780E+02  0.7816164E-02  0.1186339E+00
        -11   -1    0    0    0    0  0.00000000000E+00  0.00000000000E+00  0.45593999997E+02  0.45594000000E+02  0.51100000000E-03 0.  1.
         11   -1    0    0    0    0 -0.00000000000E+00 -0.00000000000E+00 -0.45593999997E+02  0.45594000000E+02  0.51100000000E-03 0. -1.
    9900012    2    1    2    0    0 -0.12470751775E+00 -0.82135779817E+00  0.83827234506E+00  0.90007796152E+02  0.90000058262E+02 0.  0.
         12    1    1    2    0    0  0.12470751775E+00  0.82135779817E+00 -0.83827234506E+00  0.11802038477E+01  0.00000000000E+00 0. -1.
         11    1    3    3    0    0 -0.45468984678E+01  0.24727794905E+01  0.11243539739E+02  0.12377645585E+02  0.51100000000E-03 0. -1.
        -11    1    3    3    0    0 -0.11248781976E+02  0.30626398762E+02  0.11166459305E+02  0.34484796806E+02  0.51100000000E-03 0.  1.
         12    1    3    3    0    0  0.15670972926E+02 -0.33920536051E+02 -0.21571726700E+02  0.43145353762E+02  0.00000000000E+00 0. -1.
</event>
<event>
 7    1  0.2404951E-015  0.9000775E+02  0.7816164E-02  0.1186339E+00
        -11   -1    0    0    0    0  0.00000000000E+00  0.00000000000E+00  0.45593999997E+02  0.45594000000E+02  0.51100000000E-03 0. -1.
         11   -1    0    0    0    0 -0.00000000000E+00 -0.00000000000E+00 -0.45593999997E+02  0.45594000000E+02  0.51100000000E-03 0.  1.
    9900012    2    1    2    0    0  0.12215669831E+00 -0.11642201352E+01  0.15049357407E+00  0.90007754645E+02  0.90000016206E+02 0.  0.
         12    1    1    2    0    0 -0.12215669831E+00  0.11642201352E+01 -0.15049357407E+00  0.11802453550E+01  0.00000000000E+00 0. -1.
         11    1    3    3    0    0  0.70771156191E+01 -0.21203069233E+02  0.36842305380E+02  0.43093052531E+02  0.51100000000E-03 0. -1.
        -11    1    3    3    0    0 -0.46401890055E+00  0.10249665012E+02 -0.22211209523E+01  0.10497824772E+02  0.51100000000E-03 0.  1.
        -12    1    3    3    0    0 -0.64909400202E+01  0.97891840863E+01 -0.34470690854E+02  0.36416877343E+02  0.00000000000E+00 0.  1.
</event>
<event>
 7    1  0.2404951E-015  0.9000773E+02  0.7816164E-02  0.1186339E+00
        -11   -1    0    0    0    0  0.00000000000E+00  0.00000000000E+00  0.45593999997E+02  0.45594000000E+02  0.51100000000E-03 0.  1.
         11   -1    0    0    0    0 -0.00000000000E+00 -0.00000000000E+00 -0.45593999997E+02  0.45594000000E+02  0.51100000000E-03 0. -1.
    9900012    2    1    2    0    0  0.32350092147E+00 -0.29054751930E+00  0.10972563594E+01  0.90007727902E+02  0.89999989110E+02 0.  0.
         12    1    1    2    0    0 -0.32350092147E+00  0.29054751930E+00 -0.10972563594E+01  0.11802720981E+01  0.00000000000E+00 0. -1.
         11    1    3    3    0    0  0.49348760595E+01 -0.84933304727E+01  0.97479841509E+00  0.98711648984E+01  0.51100000000E-03 0. -1.
        -11    1    3    3    0    0 -0.26847086312E+02 -0.10012381809E+02  0.28022757590E+02  0.40078532610E+02  0.51100000000E-03 0.  1.
         12    1    3    3    0    0  0.22235711174E+02  0.18215164762E+02 -0.27900299646E+02  0.40058030394E+02  0.00000000000E+00 0. -1.
</event>
<event>
 7    1  0.2404951E-015  0.9000786E+02  0.7816164E-02  0.1186339E+00
        -11   -1    0    0    0    0  0.00000000000E+00  0.00000000000E+00  0.45593999997E+02  0.45594000000E+02  0.51100000000E-03 0.  1.
         11   -1    0    0    0    0 -0.00000000000E+00 -0.00000000000E+00 -0.45593999997E+02  0.45594000000E+02  0.51100000000E-03 0. -1.
    9900012    2    1    2    0    0 -0.33322995544E+00 -0.10533846713E+01  0.41482538142E+00  0.90007855278E+02  0.90000118167E+02 0.  0.
         12    1    1    2    0    0  0.33322995544E+00  0.10533846713E+01 -0.41482538142E+00  0.11801447225E+01  0.00000000000E+00 0. -1.
         11    1    3    3    0    0  0.10919058921E+01 -0.18742893149E-01  0.79306507371E+01  0.80054875647E+01  0.51100000000E-03 0. -1.
        -11    1    3    3    0    0  0.29035167782E+02 -0.95905605641E+01  0.22831773776E+02  0.38161626198E+02  0.51100000000E-03 0.  1.
         12    1    3    3    0    0 -0.30460303630E+02  0.85559187859E+01 -0.30347599132E+02  0.43840741515E+02  0.00000000000E+00 0. -1.
</event>
<event>
 7    1  0.2404951E-015  0.9000776E+02  0.7816164E-02  0.1186339E+00
        -11   -1    0    0    0    0  0.00000000000E+00  0.00000000000E+00  0.45593999997E+02  0.45594000000E+02  0.51100000000E-03 0. -1.
         11   -1    0    0    0    0 -0.00000000000E+00 -0.00000000000E+00 -0.45593999997E+02  0.45594000000E+02  0.51100000000E-03 0.  1.
    9900012    2    1    2    0    0  0.44673849951E+00 -0.19822494644E+00 -0.10742907577E+01  0.90007758902E+02  0.90000020520E+02 0.  0.
         12    1    1    2    0    0 -0.44673849951E+00  0.19822494644E+00  0.10742907577E+01  0.11802410976E+01  0.00000000000E+00 0. -1.
         11    1    3    3    0    0  0.20208746738E+02  0.73582745738E+01  0.26837255611E+02  0.34391509685E+02  0.51100000000E-03 0. -1.
        -11    1    3    3    0    0  0.50011784351E+01 -0.16677322244E+01  0.92065141398E+01  0.10609100781E+02  0.51100000000E-03 0.  1.
        -12    1    3    3    0    0 -0.24763186674E+02 -0.58887672959E+01 -0.37118060508E+02  0.45007148437E+02  0.00000000000E+00 0.  1.
</event>
<event>
 7    1  0.2404951E-015  0.9000775E+02  0.7816164E-02  0.1186339E+00
        -11   -1    0    0    0    0  0.00000000000E+00  0.00000000000E+00  0.45593999997E+02  0.45594000000E+02  0.51100000000E-03 0. -1.
         11   -1    0    0    0    0 -0.00000000000E+00 -0.00000000000E+00 -0.45593999997E+02  0.45594000000E+02  0.51100000000E-03 0.  1.
    9900012    2    1    2    0    0 -0.91550247007E+00  0.28034936341E+00 -0.69010132426E+00  0.90007754104E+02  0.90000015658E+02 0.  0.
         12    1    1    2    0    0  0.91550247007E+00 -0.28034936341E+00  0.69010132426E+00  0.11802458964E+01  0.00000000000E+00 0. -1.
         11    1    3    3    0    0 -0.82871948977E+01  0.18383371476E+02 -0.33899752276E+02  0.39443873425E+02  0.51100000000E-03 0. -1.
        -11    1    3    3    0    0  0.31269106848E+01 -0.27905620678E+01 -0.65333546713E+01  0.77620571118E+01  0.51100000000E-03 0.  1.
        -12    1    3    3    0    0  0.42447817428E+01 -0.15312460045E+02  0.39743005623E+02  0.42801823567E+02  0.00000000000E+00 0.  1.
</event>
<event>
 7    1  0.2404951E-015  0.9000768E+02  0.7816164E-02  0.1186339E+00
        -11   -1    0    0    0    0  0.00000000000E+00  0.00000000000E+00  0.45593999997E+02  0.45594000000E+02  0.51100000000E-03 0. -1.
         11   -1    0    0    0    0 -0.00000000000E+00 -0.00000000000E+00 -0.45593999997E+02  0.45594000000E+02  0.51100000000E-03 0.  1.
    9900012    2    1    2    0    0 -0.69556872808E+00 -0.54700357855E+00 -0.78109879425E+00  0.90007684747E+02  0.89999945385E+02 0.  0.
         12    1    1    2    0    0  0.69556872808E+00  0.54700357855E+00  0.78109879425E+00  0.11803152531E+01  0.00000000000E+00 0. -1.
         11    1    3    3    0    0  0.37423978430E+02  0.67802104752E+01 -0.79427272454E+01  0.38853729962E+02  0.51100000000E-03 0. -1.
        -11    1    3    3    0    0  0.41715468028E+01 -0.56943761190E+01  0.52337158637E+01  0.87874628941E+01  0.51100000000E-03 0.  1.
        -12    1    3    3    0    0 -0.42291093961E+02 -0.16328379348E+01  0.19279125875E+01  0.42366491890E+02  0.00000000000E+00 0.  1.
</event>
<event>
 7    1  0.2404951E-015  0.9000773E+02  0.7816164E-02  0.1186339E+00
        -11   -1    0    0    0    0  0.00000000000E+00  0.00000000000E+00  0.45593999997E+02  0.45594000000E+02  0.51100000000E-03 0. -1.
         11   -1    0    0    0    0 -0.00000000000E+00 -0.00000000000E+00 -0.45593999997E+02  0.45594000000E+02  0.51100000000E-03 0.  1.
    9900012    2    1    2    0    0  0.31695464940E+00 -0.19157973537E+00 -0.11206562939E+01  0.90007731567E+02  0.89999992824E+02 0.  0.
         12    1    1    2    0    0 -0.31695464940E+00  0.19157973537E+00  0.11206562939E+01  0.11802684329E+01  0.00000000000E+00 0. -1.
         11    1    3    3    0    0  0.69379620959E+01  0.61179276261E+01 -0.27226713102E+01  0.96424735316E+01  0.51100000000E-03 0. -1.
        -11    1    3    3    0    0 -0.82257388021E+01  0.36413066224E+02  0.40065300830E+01  0.37544992399E+02  0.51100000000E-03 0.  1.
         12    1    3    3    0    0  0.16047313556E+01 -0.42722573585E+02 -0.24045150667E+01  0.42820265637E+02  0.00000000000E+00 0. -1.
</event>
<event>
 7    1  0.2772791E-015  0.9000768E+02  0.7816164E-02  0.1186339E+00
        -11   -1    0    0    0    0  0.00000000000E+00  0.00000000000E+00  0.45593999997E+02  0.45594000000E+02  0.51100000000E-03 0. -1.
         11   -1    0    0    0    0 -0.00000000000E+00 -0.00000000000E+00 -0.45593999997E+02  0.45594000000E+02  0.51100000000E-03 0.  1.
    9900012    2    1    2    0    0  0.10825527716E+01  0.32021739012E+00 -0.34452244917E+00  0.90007679959E+02  0.89999940535E+02 0.  0.
         12    1    1    2    0    0 -0.10825527716E+01 -0.32021739012E+00  0.34452244917E+00  0.11803200406E+01  0.00000000000E+00 0. -1.
         11    1    3    3    0    0  0.47114880284E+01  0.63144837794E+01  0.39381592720E+02  0.40161930609E+02  0.51100000000E-03 0. -1.
        -11    1    3    3    0    0  0.68839449284E+01 -0.67523504814E+01 -0.98098446127E+00  0.96925365914E+01  0.51100000000E-03 0.  1.
        -12    1    3    3    0    0 -0.10512880185E+02  0.75808409205E+00 -0.38745130708E+02  0.40153212759E+02  0.00000000000E+00 0.  1.
</event>
<event>
 7    1  0.2404951E-015  0.9000752E+02  0.7816164E-02  0.1186339E+00
        -11   -1    0    0    0    0  0.00000000000E+00  0.00000000000E+00  0.45593999997E+02  0.45594000000E+02  0.51100000000E-03 0. -1.
         11   -1    0    0    0    0 -0.00000000000E+00 -0.00000000000E+00 -0.45593999997E+02  0.45594000000E+02  0.51100000000E-03 0.  1.
    9900012    2    1    2    0    0  0.10685120909E+01 -0.36173853121E+00 -0.34777649928E+00  0.90007524949E+02  0.89999783478E+02 0.  0.
         12    1    1    2    0    0 -0.10685120909E+01  0.36173853121E+00  0.34777649928E+00  0.11804750513E+01  0.00000000000E+00 0. -1.
         11    1    3    3    0    0 -0.20881839568E+02 -0.38868083013E+02 -0.33986560870E+01  0.44253022092E+02  0.51100000000E-03 0. -1.
        -11    1    3    3    0    0  0.13142173132E+01  0.78945377812E+01  0.37314221845E+01  0.88303117558E+01  0.51100000000E-03 0.  1.
        -12    1    3    3    0    0  0.20636134345E+02  0.30611806701E+02 -0.68054259677E+00  0.36924191101E+02  0.00000000000E+00 0.  1.
</event>
<event>
 7    1  0.2404951E-015  0.9000766E+02  0.7816164E-02  0.1186339E+00
        -11   -1    0    0    0    0  0.00000000000E+00  0.00000000000E+00  0.45593999997E+02  0.45594000000E+02  0.51100000000E-03 0.  1.
         11   -1    0    0    0    0 -0.00000000000E+00 -0.00000000000E+00 -0.45593999997E+02  0.45594000000E+02  0.51100000000E-03 0. -1.
    9900012    2    1    2    0    0 -0.18629419966E+00 -0.10471051594E+01 -0.51192904816E+00  0.90007658484E+02  0.89999918776E+02 0.  0.
         12    1    1    2    0    0  0.18629419966E+00  0.10471051594E+01  0.51192904816E+00  0.11803415159E+01  0.00000000000E+00 0. -1.
         11    1    3    3    0    0  0.14463213809E+02 -0.35127732316E+02  0.88528959183E+01  0.39006613513E+02  0.51100000000E-03 0. -1.
        -11    1    3    3    0    0  0.94453359057E+01  0.58575472699E+01 -0.83088435537E+01  0.13876675101E+02  0.51100000000E-03 0.  1.
        -12    1    3    3    0    0 -0.24094843914E+02  0.28223079887E+02 -0.10559814128E+01  0.37124369871E+02  0.00000000000E+00 0.  1.
</event>
<event>
 7    1  0.2404951E-015  0.9000762E+02  0.7816164E-02  0.1186339E+00
        -11   -1    0    0    0    0  0.00000000000E+00  0.00000000000E+00  0.45593999997E+02  0.45594000000E+02  0.51100000000E-03 0. -1.
         11   -1    0    0    0    0 -0.00000000000E+00 -0.00000000000E+00 -0.45593999997E+02  0.45594000000E+02  0.51100000000E-03 0.  1.
    9900012    2    1    2    0    0  0.64441727340E+00  0.98777146735E+00  0.48195880536E-01  0.90007623392E+02  0.89999883221E+02 0.  0.
         12    1    1    2    0    0 -0.64441727340E+00 -0.98777146735E+00 -0.48195880536E-01  0.11803766081E+01  0.00000000000E+00 0. -1.
         11    1    3    3    0    0 -0.20494917989E+02 -0.12122760384E+02  0.25540476670E+02  0.34918747565E+02  0.51100000000E-03 0. -1.
        -11    1    3    3    0    0 -0.81578503721E+01 -0.35484853524E+01  0.45036449090E+01  0.99712130013E+01  0.51100000000E-03 0.  1.
        -12    1    3    3    0    0  0.29297185635E+02  0.16659017204E+02 -0.29995925698E+02  0.45117662826E+02  0.00000000000E+00 0.  1.
</event>
<event>
 7    1  0.2404951E-015  0.9000774E+02  0.7816164E-02  0.1186339E+00
        -11   -1    0    0    0    0  0.00000000000E+00  0.00000000000E+00  0.45593999997E+02  0.45594000000E+02  0.51100000000E-03 0. -1.
         11   -1    0    0    0    0 -0.00000000000E+00 -0.00000000000E+00 -0.45593999997E+02  0.45594000000E+02  0.51100000000E-03 0.  1.
    9900012    2    1    2    0    0  0.15395128733E+00  0.93725804463E+00 -0.70061376630E+00  0.90007740160E+02  0.90000001530E+02 0.  0.
         12    1    1    2    0    0 -0.15395128733E+00 -0.93725804463E+00  0.70061376630E+00  0.11802598403E+01  0.00000000000E+00 0. -1.
         11    1    3    3    0    0 -0.11799694015E+02  0.56536226597E+01  0.60057858248E+01  0.14396725032E+02  0.51100000000E-03 0. -1.
        -11    1    3    3    0    0 -0.13587090306E+02 -0.20055335661E+02 -0.29447240749E+02  0.38130899536E+02  0.51100000000E-03 0.  1.
         12    1    3    3    0    0  0.25540735608E+02  0.15338971046E+02  0.22740841158E+02  0.37480115591E+02  0.00000000000E+00 0. -1.
</event>
<event>
 7    1  0.2404951E-015  0.9000775E+02  0.7816164E-02  0.1186339E+00
        -11   -1    0    0    0    0  0.00000000000E+00  0.00000000000E+00  0.45593999997E+02  0.45594000000E+02  0.51100000000E-03 0.  1.
         11   -1    0    0    0    0 -0.00000000000E+00 -0.00000000000E+00 -0.45593999997E+02  0.45594000000E+02  0.51100000000E-03 0. -1.
    9900012    2    1    2    0    0  0.57108632636E+00 -0.95583350922E+00 -0.39146445292E+00  0.90007745067E+02  0.90000006502E+02 0.  0.
         12    1    1    2    0    0 -0.57108632636E+00  0.95583350922E+00  0.39146445292E+00  0.11802549332E+01  0.00000000000E+00 0. -1.
         11    1    3    3    0    0 -0.35469619167E+01  0.35062939992E+01 -0.86430614140E+01  0.99788550103E+01  0.51100000000E-03 0. -1.
        -11    1    3    3    0    0  0.43176542378E+01  0.26569196300E+02  0.31367317497E+02  0.41333678004E+02  0.51100000000E-03 0.  1.
         12    1    3    3    0    0 -0.19960599470E+00 -0.31031323808E+02 -0.23115720536E+02  0.38695212052E+02  0.00000000000E+00 0. -1.
</event>
<event>
 7    1  0.2404951E-015  0.9000772E+02  0.7816164E-02  0.1186339E+00
        -11   -1    0    0    0    0  0.00000000000E+00  0.00000000000E+00  0.45593999997E+02  0.45594000000E+02  0.51100000000E-03 0.  1.
         11   -1    0    0    0    0 -0.00000000000E+00 -0.00000000000E+00 -0.45593999997E+02  0.45594000000E+02  0.51100000000E-03 0. -1.
    9900012    2    1    2    0    0  0.68395605857E+00  0.83836195886E+00  0.47161693707E+00  0.90007716475E+02  0.89999977532E+02 0.  0.
         12    1    1    2    0    0 -0.68395605857E+00 -0.83836195886E+00 -0.47161693707E+00  0.11802835250E+01  0.00000000000E+00 0. -1.
         11    1    3    3    0    0 -0.86970675076E+01 -0.13980899811E+01 -0.24811129597E+01  0.91514786022E+01  0.51100000000E-03 0. -1.
        -11    1    3    3    0    0 -0.24566052779E+02  0.28290738162E+02  0.60415392646E+01  0.37952035675E+02  0.51100000000E-03 0.  1.
         12    1    3    3    0    0  0.33947076345E+02 -0.26054286222E+02 -0.30888093678E+01  0.42904202198E+02  0.00000000000E+00 0. -1.
</event>
<event>
 7    1  0.2404951E-015  0.9000767E+02  0.7816164E-02  0.1186339E+00
        -11   -1    0    0    0    0  0.00000000000E+00  0.00000000000E+00  0.45593999997E+02  0.45594000000E+02  0.51100000000E-03 0.  1.
         11   -1    0    0    0    0 -0.00000000000E+00 -0.00000000000E+00 -0.45593999997E+02  0.45594000000E+02  0.51100000000E-03 0. -1.
    9900012    2    1    2    0    0  0.96160187956E+00  0.57613414008E+00  0.36955251675E+00  0.90007670476E+02  0.89999930926E+02 0.  0.
         12    1    1    2    0    0 -0.96160187956E+00 -0.57613414008E+00 -0.36955251675E+00  0.11803295238E+01  0.00000000000E+00 0. -1.
         11    1    3    3    0    0  0.30870477001E+02 -0.19270483607E+02 -0.36137952054E+01  0.36570444416E+02  0.51100000000E-03 0. -1.
        -11    1    3    3    0    0  0.79935902293E+01 -0.35160618865E+01 -0.26481614789E-01  0.87327474188E+01  0.51100000000E-03 0.  1.
        -12    1    3    3    0    0 -0.37902465351E+02  0.23362679634E+02  0.40098293369E+01  0.44704478642E+02  0.00000000000E+00 0.  1.
</event>
<event>
 7    1  0.2404951E-015  0.9000769E+02  0.7816164E-02  0.1186339E+00
        -11   -1    0    0    0    0  0.00000000000E+00  0.00000000000E+00  0.45593999997E+02  0.45594000000E+02  0.51100000000E-03 0.  1.
         11   -1    0    0    0    0 -0.00000000000E+00 -0.00000000000E+00 -0.45593999997E+02  0.45594000000E+02  0.51100000000E-03 0. -1.
    9900012    2    1    2    0    0  0.85034113044E+00 -0.16108371991E-01  0.81840585270E+00  0.90007691711E+02  0.89999952441E+02 0.  0.
         12    1    1    2    0    0 -0.85034113044E+00  0.16108371991E-01 -0.81840585270E+00  0.11803082892E+01  0.00000000000E+00 0. -1.
         11    1    3    3    0    0  0.45585926830E+01 -0.72381015551E+01  0.93525463451E+01  0.12674423252E+02  0.51100000000E-03 0. -1.
        -11    1    3    3    0    0 -0.61785025019E+01  0.28339942065E+02  0.24553812435E+02  0.38002840878E+02  0.51100000000E-03 0.  1.
         12    1    3    3    0    0  0.24702509494E+01 -0.21117948882E+02 -0.33087952928E+02  0.39330427581E+02  0.00000000000E+00 0. -1.
</event>
<event>
 7    1  0.2404951E-015  0.9000773E+02  0.7816164E-02  0.1186339E+00
        -11   -1    0    0    0    0  0.00000000000E+00  0.00000000000E+00  0.45593999997E+02  0.45594000000E+02  0.51100000000E-03 0. -1.
         11   -1    0    0    0    0 -0.00000000000E+00 -0.00000000000E+00 -0.45593999997E+02  0.45594000000E+02  0.51100000000E-03 0.  1.
    9900012    2    1    2    0    0  0.38970184412E+00  0.52660224385E+00 -0.98176076199E+00  0.90007732384E+02  0.89999993652E+02 0.  0.
         12    1    1    2    0    0 -0.38970184412E+00 -0.52660224385E+00  0.98176076199E+00  0.11802676156E+01  0.00000000000E+00 0. -1.
         11    1    3    3    0    0  0.29088845328E+01 -0.37769220552E+01 -0.12240666740E+02  0.13136235075E+02  0.51100000000E-03 0. -1.
        -11    1    3    3    0    0 -0.11467155289E+01 -0.34022543128E+02 -0.64203865740E+01  0.34642023056E+02  0.51100000000E-03 0.  1.
         12    1    3    3    0    0 -0.13724671598E+01  0.38326067427E+02  0.17679292552E+02  0.42229474253E+02  0.00000000000E+00 0. -1.
</event>
<event>
 7    1  0.2404951E-015  0.9000777E+02  0.7816164E-02  0.1186339E+00
        -11   -1    0    0    0    0  0.00000000000E+00  0.00000000000E+00  0.45593999997E+02  0.45594000000E+02  0.51100000000E-03 0. -1.
         11   -1    0    0    0    0 -0.00000000000E+00 -0.00000000000E+00 -0.45593999997E+02  0.45594000000E+02  0.51100000000E-03 0.  1.
    9900012    2    1    2    0    0 -0.99185910439E+00  0.39979008011E+00 -0.49933674491E+00  0.90007765373E+02  0.90000027075E+02 0.  0.
         12    1    1    2    0    0  0.99185910439E+00 -0.39979008011E+00  0.49933674491E+00  0.11802346275E+01  0.00000000000E+00 0. -1.
         11    1    3    3    0    0  0.11444455025E+02 -0.12906255200E+01 -0.24988508313E+01  0.11784970122E+02  0.51100000000E-03 0. -1.
        -11    1    3    3    0    0  0.25940508944E+02  0.20345767762E+02 -0.89669159632E+01  0.34165272606E+02  0.51100000000E-03 0.  1.
         12    1    3    3    0    0 -0.38376823073E+02 -0.18655352162E+02  0.10966430050E+02  0.44057522644E+02  0.00000000000E+00 0. -1.
</event>
<event>
 7    1  0.2404951E-015  0.9000777E+02  0.7816164E-02  0.1186339E+00
        -11   -1    0    0    0    0  0.00000000000E+00  0.00000000000E+00  0.45593999997E+02  0.45594000000E+02  0.51100000000E-03 0. -1.
         11   -1    0    0    0    0 -0.00000000000E+00 -0.00000000000E+00 -0.45593999997E+02  0.45594000000E+02  0.51100000000E-03 0.  1.
    9900012    2    1    2    0    0  0.30942464862E+00 -0.36983017074E+00 -0.10772355496E+01  0.90007765109E+02  0.90000026809E+02 0.  0.
         12    1    1    2    0    0 -0.30942464862E+00  0.36983017074E+00  0.10772355496E+01  0.11802348909E+01  0.00000000000E+00 0. -1.
         11    1    3    3    0    0 -0.10732996736E+02 -0.45280435372E+01  0.37120118669E+02  0.38905058893E+02  0.51100000000E-03 0. -1.
        -11    1    3    3    0    0  0.30104818296E+01 -0.67187076191E+01  0.28431631362E+01  0.78922499832E+01  0.51100000000E-03 0.  1.
        -12    1    3    3    0    0  0.80319395552E+01  0.10876920985E+02 -0.41040517355E+02  0.43210456233E+02  0.00000000000E+00 0.  1.
</event>
<event>
 7    1  0.2404951E-015  0.9000780E+02  0.7816164E-02  0.1186339E+00
        -11   -1    0    0    0    0  0.00000000000E+00  0.00000000000E+00  0.45593999997E+02  0.45594000000E+02  0.51100000000E-03 0.  1.
         11   -1    0    0    0    0 -0.00000000000E+00 -0.00000000000E+00 -0.45593999997E+02  0.45594000000E+02  0.51100000000E-03 0. -1.
    9900012    2    1    2    0    0  0.39417839730E-02 -0.84511805341E+00 -0.82379268250E+00  0.90007798981E+02  0.90000061127E+02 0.  0.
         12    1    1    2    0    0 -0.39417839730E-02  0.84511805341E+00  0.82379268250E+00  0.11802010192E+01  0.00000000000E+00 0. -1.
         11    1    3    3    0    0  0.89205910284E+01 -0.47776498594E+01  0.10420860456E+02  0.14525743195E+02  0.51100000000E-03 0. -1.
        -11    1    3    3    0    0 -0.14733641569E+02 -0.28752131579E+02  0.12526480370E+02  0.34650800495E+02  0.51100000000E-03 0.  1.
         12    1    3    3    0    0  0.58169923241E+01  0.32684663385E+02 -0.23771133508E+02  0.40831255290E+02  0.00000000000E+00 0. -1.
</event>
<event>
 7    1  0.2404951E-015  0.9000746E+02  0.7816164E-02  0.1186340E+00
        -11   -1    0    0    0    0  0.00000000000E+00  0.00000000000E+00  0.45593999997E+02  0.45594000000E+02  0.51100000000E-03 0.  1.
         11   -1    0    0    0    0 -0.00000000000E+00 -0.00000000000E+00 -0.45593999997E+02  0.45594000000E+02  0.51100000000E-03 0. -1.
    9900012    2    1    2    0    0 -0.65551156050E+00  0.89788290170E+00  0.39722496034E+00  0.90007459115E+02  0.89999716775E+02 0.  0.
         12    1    1    2    0    0  0.65551156050E+00 -0.89788290170E+00 -0.39722496034E+00  0.11805408846E+01  0.00000000000E+00 0. -1.
         11    1    3    3    0    0 -0.55093167038E+01  0.98950302696E+01  0.49297955227E+01  0.12351804675E+02  0.51100000000E-03 0. -1.
        -11    1    3    3    0    0 -0.24208146914E+02  0.17059734704E+02 -0.19928609305E+02  0.35696195796E+02  0.51100000000E-03 0.  1.
         12    1    3    3    0    0  0.29061952058E+02 -0.26056882072E+02  0.15396038743E+02  0.41959458644E+02  0.00000000000E+00 0. -1.
</event>
<event>
 7    1  0.2404951E-015  0.9000789E+02  0.7816164E-02  0.1186339E+00
        -11   -1    0    0    0    0  0.00000000000E+00  0.00000000000E+00  0.45593999997E+02  0.45594000000E+02  0.51100000000E-03 0.  1.
         11   -1    0    0    0    0 -0.00000000000E+00 -0.00000000000E+00 -0.45593999997E+02  0.45594000000E+02  0.51100000000E-03 0. -1.
    9900012    2    1    2    0    0 -0.22421208506E+00 -0.25058789750E+00  0.11311891451E+01  0.90007892278E+02  0.90000155656E+02 0.  0.
         12    1    1    2    0    0  0.22421208506E+00  0.25058789750E+00 -0.11311891451E+01  0.11801077220E+01  0.00000000000E+00 0. -1.
         11    1    3    3    0    0  0.94966074265E+01 -0.38136767263E+01 -0.35967676377E+02  0.37395232677E+02  0.51100000000E-03 0. -1.
        -11    1    3    3    0    0 -0.89595118269E+01  0.85088444103E+01 -0.25774241451E+01  0.12622060088E+02  0.51100000000E-03 0.  1.
        -12    1    3    3    0    0 -0.76130768466E+00 -0.49457555815E+01  0.39676289667E+02  0.39990599513E+02  0.00000000000E+00 0.  1.
</event>
<event>
 7    1  0.2404951E-015  0.9000688E+02  0.7816164E-02  0.1186341E+00
        -11   -1    0    0    0    0  0.00000000000E+00  0.00000000000E+00  0.45593999997E+02  0.45594000000E+02  0.51100000000E-03 0. -1.
         11   -1    0    0    0    0 -0.00000000000E+00 -0.00000000000E+00 -0.45593999997E+02  0.45594000000E+02  0.51100000000E-03 0.  1.
    9900012    2    1    2    0    0 -0.29476230149E-01 -0.99453343900E+00 -0.63645701546E+00  0.90006880556E+02  0.89999130575E+02 0.  0.
         12    1    1    2    0    0  0.29476230149E-01  0.99453343900E+00  0.63645701546E+00  0.11811194444E+01  0.00000000000E+00 0. -1.
         11    1    3    3    0    0  0.46292167981E+01  0.80988778869E+01 -0.29302723058E+01  0.97779326669E+01  0.51100000000E-03 0. -1.
        -11    1    3    3    0    0 -0.27038695866E+02  0.12734416658E+02 -0.24817904682E+02  0.38848228207E+02  0.51100000000E-03 0.  1.
         12    1    3    3    0    0  0.22380002838E+02 -0.21827827984E+02  0.27111719972E+02  0.41380719682E+02  0.00000000000E+00 0. -1.
</event>
<event>
 7    1  0.2404951E-015  0.9000765E+02  0.7816164E-02  0.1186339E+00
        -11   -1    0    0    0    0  0.00000000000E+00  0.00000000000E+00  0.45593999997E+02  0.45594000000E+02  0.51100000000E-03 0. -1.
         11   -1    0    0    0    0 -0.00000000000E+00 -0.00000000000E+00 -0.45593999997E+02  0.45594000000E+02  0.51100000000E-03 0.  1.
    9900012    2    1    2    0    0 -0.10830716152E+01  0.19854622826E+00 -0.42516629963E+00  0.90007647887E+02  0.89999908039E+02 0.  0.
         12    1    1    2    0    0  0.10830716152E+01 -0.19854622826E+00  0.42516629963E+00  0.11803521131E+01  0.00000000000E+00 0. -1.
         11    1    3    3    0    0 -0.25731212844E+01  0.37730082330E+02  0.29392743217E+01  0.37931772956E+02  0.51100000000E-03 0. -1.
        -11    1    3    3    0    0  0.52033794985E+01  0.23454505515E+01  0.85604613597E+01  0.10288721760E+02  0.51100000000E-03 0.  1.
        -12    1    3    3    0    0 -0.37133298293E+01 -0.39876986653E+02 -0.11924901981E+02  0.41787153172E+02  0.00000000000E+00 0.  1.
</event>
<event>
 7    1  0.2404951E-015  0.9000774E+02  0.7816164E-02  0.1186339E+00
        -11   -1    0    0    0    0  0.00000000000E+00  0.00000000000E+00  0.45593999997E+02  0.45594000000E+02  0.51100000000E-03 0.  1.
         11   -1    0    0    0    0 -0.00000000000E+00 -0.00000000000E+00 -0.45593999997E+02  0.45594000000E+02  0.51100000000E-03 0. -1.
    9900012    2    1    2    0    0 -0.69230827843E+00  0.80136885282E+00  0.52109374343E+00  0.90007736690E+02  0.89999998015E+02 0.  0.
         12    1    1    2    0    0  0.69230827843E+00 -0.80136885282E+00 -0.52109374343E+00  0.11802633096E+01  0.00000000000E+00 0. -1.
         11    1    3    3    0    0  0.48612922504E+01 -0.34446489035E+02  0.89402058313E+01  0.35918241184E+02  0.51100000000E-03 0. -1.
        -11    1    3    3    0    0 -0.27612408510E+01 -0.86383311760E+01  0.97871530300E+00  0.91215733538E+01  0.51100000000E-03 0.  1.
        -12    1    3    3    0    0 -0.27923596778E+01  0.43886189063E+02 -0.93978273908E+01  0.44967922153E+02  0.00000000000E+00 0.  1.
</event>
<event>
 7    1  0.2404951E-015  0.9000770E+02  0.7816164E-02  0.1186339E+00
        -11   -1    0    0    0    0  0.00000000000E+00  0.00000000000E+00  0.45593999997E+02  0.45594000000E+02  0.51100000000E-03 0. -1.
         11   -1    0    0    0    0 -0.00000000000E+00 -0.00000000000E+00 -0.45593999997E+02  0.45594000000E+02  0.51100000000E-03 0.  1.
    9900012    2    1    2    0    0  0.45463687671E+00  0.10736661255E+01 -0.18342727470E+00  0.90007703764E+02  0.89999964654E+02 0.  0.
         12    1    1    2    0    0 -0.45463687671E+00 -0.10736661255E+01  0.18342727470E+00  0.11802962356E+01  0.00000000000E+00 0. -1.
         11    1    3    3    0    0  0.12823345243E+01  0.67937870021E+01 -0.78580446081E+01  0.10466555737E+02  0.51100000000E-03 0. -1.
        -11    1    3    3    0    0  0.22152645611E+02  0.11093201742E+02  0.33115281484E+02  0.41357232747E+02  0.51100000000E-03 0.  1.
         12    1    3    3    0    0 -0.22980343259E+02 -0.16813322619E+02 -0.25440664151E+02  0.38183915281E+02  0.00000000000E+00 0. -1.
</event>
<event>
 7    1  0.2404951E-015  0.9000799E+02  0.7816164E-02  0.1186339E+00
        -11   -1    0    0    0    0  0.00000000000E+00  0.00000000000E+00  0.45593999997E+02  0.45594000000E+02  0.51100000000E-03 0.  1.
         11   -1    0    0    0    0 -0.00000000000E+00 -0.00000000000E+00 -0.45593999997E+02  0.45594000000E+02  0.51100000000E-03 0. -1.
    9900012    2    1    2    0    0 -0.56861926318E+00  0.88592530012E+00  0.53314225296E+00  0.90007986371E+02  0.90000250990E+02 0.  0.
         12    1    1    2    0    0  0.56861926318E+00 -0.88592530012E+00 -0.53314225296E+00  0.11800136295E+01  0.00000000000E+00 0. -1.
         11    1    3    3    0    0 -0.60238202640E+01  0.42846551343E+00 -0.10073204056E+02  0.11744761960E+02  0.51100000000E-03 0. -1.
        -11    1    3    3    0    0  0.69625571470E+01  0.38673572154E+02  0.53308227535E+01  0.39655265182E+02  0.51100000000E-03 0.  1.
         12    1    3    3    0    0 -0.15073561462E+01 -0.38216112367E+02  0.52755235556E+01  0.38607959229E+02  0.00000000000E+00 0. -1.
</event>
<event>
 7    1  0.2404951E-015  0.9000755E+02  0.7816164E-02  0.1186339E+00
        -11   -1    0    0    0    0  0.00000000000E+00  0.00000000000E+00  0.45593999997E+02  0.45594000000E+02  0.51100000000E-03 0. -1.
         11   -1    0    0    0    0 -0.00000000000E+00 -0.00000000000E+00 -0.45593999997E+02  0.45594000000E+02  0.51100000000E-03 0.  1.
    9900012    2    1    2    0    0 -0.33983382188E+00 -0.75629674285E+00 -0.84023707100E+00  0.90007546644E+02  0.89999805460E+02 0.  0.
         12    1    1    2    0    0  0.33983382188E+00  0.75629674285E+00  0.84023707100E+00  0.11804533558E+01  0.00000000000E+00 0. -1.
         11    1    3    3    0    0  0.31547242137E+02  0.68906083766E+01 -0.18763201561E+02  0.37346575524E+02  0.51100000000E-03 0. -1.
        -11    1    3    3    0    0  0.19523235051E+01 -0.48252403132E+01 -0.82727665218E+01  0.97741074955E+01  0.51100000000E-03 0.  1.
        -12    1    3    3    0    0 -0.33839399464E+02 -0.28216648062E+01  0.26195731012E+02  0.42886863625E+02  0.00000000000E+00 0.  1.
</event>
<event>
 7    1  0.2517522E-015  0.9000841E+02  0.7816164E-02  0.1186338E+00
        -11   -1    0    0    0    0  0.00000000000E+00  0.00000000000E+00  0.45593999997E+02  0.45594000000E+02  0.51100000000E-03 0. -1.
         11   -1    0    0    0    0 -0.00000000000E+00 -0.00000000000E+00 -0.45593999997E+02  0.45594000000E+02  0.51100000000E-03 0.  1.
    9900012    2    1    2    0    0  0.11559700561E+01  0.11465089376E+00 -0.20499990094E+00  0.90008408309E+02  0.90000678496E+02 0.  0.
         12    1    1    2    0    0 -0.11559700561E+01 -0.11465089376E+00  0.20499990094E+00  0.11795916909E+01  0.00000000000E+00 0. -1.
         11    1    3    3    0    0  0.12887768732E+02  0.29665069812E+02  0.22678542543E+02  0.39502243506E+02  0.51100000000E-03 0. -1.
        -11    1    3    3    0    0 -0.75644531400E+01  0.56878476982E+01 -0.36399022599E+01  0.10140091295E+02  0.51100000000E-03 0.  1.
        -12    1    3    3    0    0 -0.41673455357E+01 -0.35238266617E+02 -0.19243640184E+02  0.40366073509E+02  0.00000000000E+00 0.  1.
</event>
<event>
 7    1  0.2404951E-015  0.9000763E+02  0.7816164E-02  0.1186339E+00
        -11   -1    0    0    0    0  0.00000000000E+00  0.00000000000E+00  0.45593999997E+02  0.45594000000E+02  0.51100000000E-03 0.  1.
         11   -1    0    0    0    0 -0.00000000000E+00 -0.00000000000E+00 -0.45593999997E+02  0.45594000000E+02  0.51100000000E-03 0. -1.
    9900012    2    1    2    0    0  0.71684871102E+00 -0.12555403200E+00  0.92932014703E+00  0.90007630640E+02  0.89999890565E+02 0.  0.
         12    1    1    2    0    0 -0.71684871102E+00  0.12555403200E+00 -0.92932014703E+00  0.11803693596E+01  0.00000000000E+00 0. -1.
         11    1    3    3    0    0  0.11109186185E+01  0.29244656505E+01 -0.34904023721E+02  0.35043936875E+02  0.51100000000E-03 0. -1.
        -11    1    3    3    0    0 -0.66358934389E+01 -0.91261011808E+01 -0.56194666762E+01  0.12605523015E+02  0.51100000000E-03 0.  1.
        -12    1    3    3    0    0  0.62418235314E+01  0.60760814983E+01  0.41452810544E+02  0.42358170751E+02  0.00000000000E+00 0.  1.
</event>
<event>
 7    1  0.2404951E-015  0.9000792E+02  0.7816164E-02  0.1186339E+00
        -11   -1    0    0    0    0  0.00000000000E+00  0.00000000000E+00  0.45593999997E+02  0.45594000000E+02  0.51100000000E-03 0.  1.
         11   -1    0    0    0    0 -0.00000000000E+00 -0.00000000000E+00 -0.45593999997E+02  0.45594000000E+02  0.51100000000E-03 0. -1.
    9900012    2    1    2    0    0  0.55956427370E+00 -0.12524671815E+00  0.10314030948E+01  0.90007918960E+02  0.90000182690E+02 0.  0.
         12    1    1    2    0    0 -0.55956427370E+00  0.12524671815E+00 -0.10314030948E+01  0.11800810399E+01  0.00000000000E+00 0. -1.
         11    1    3    3    0    0 -0.67391863673E+00  0.19058365229E+02 -0.23731024049E+02  0.30443997014E+02  0.51100000000E-03 0. -1.
        -11    1    3    3    0    0  0.26887367503E+01  0.17376579723E+02  0.79609706738E+01  0.19301603108E+02  0.51100000000E-03 0.  1.
        -12    1    3    3    0    0 -0.14552538399E+01 -0.36560191670E+02  0.16801456470E+02  0.40262318838E+02  0.00000000000E+00 0.  1.
</event>
<event>
 7    1  0.2404951E-015  0.9000771E+02  0.7816164E-02  0.1186339E+00
        -11   -1    0    0    0    0  0.00000000000E+00  0.00000000000E+00  0.45593999997E+02  0.45594000000E+02  0.51100000000E-03 0.  1.
         11   -1    0    0    0    0 -0.00000000000E+00 -0.00000000000E+00 -0.45593999997E+02  0.45594000000E+02  0.51100000000E-03 0. -1.
    9900012    2    1    2    0    0 -0.54206124894E+00 -0.10336281305E+01  0.17570780681E+00  0.90007707348E+02  0.89999968285E+02 0.  0.
         12    1    1    2    0    0  0.54206124894E+00  0.10336281305E+01 -0.17570780681E+00  0.11802926515E+01  0.00000000000E+00 0. -1.
         11    1    3    3    0    0 -0.74522613215E+00 -0.99409854229E+01  0.30726545047E+01  0.10431670965E+02  0.51100000000E-03 0. -1.
        -11    1    3    3    0    0 -0.25570904358E+02  0.24540324330E+02  0.20922612216E+02  0.41156462069E+02  0.51100000000E-03 0.  1.
         12    1    3    3    0    0  0.25774069241E+02 -0.15632967037E+02 -0.23819558914E+02  0.38419574314E+02  0.00000000000E+00 0. -1.
</event>
<event>
 7    1  0.2404951E-015  0.9000804E+02  0.7816164E-02  0.1186338E+00
        -11   -1    0    0    0    0  0.00000000000E+00  0.00000000000E+00  0.45593999997E+02  0.45594000000E+02  0.51100000000E-03 0.  1.
         11   -1    0    0    0    0 -0.00000000000E+00 -0.00000000000E+00 -0.45593999997E+02  0.45594000000E+02  0.51100000000E-03 0. -1.
    9900012    2    1    2    0    0 -0.82690235990E+00 -0.48969602855E+00  0.68464503541E+00  0.90008038756E+02  0.90000304067E+02 0.  0.
         12    1    1    2    0    0  0.82690235990E+00  0.48969602855E+00 -0.68464503541E+00  0.11799612442E+01  0.00000000000E+00 0. -1.
         11    1    3    3    0    0  0.35613693775E+01 -0.40351851660E+01 -0.31170160574E+01  0.62194742969E+01  0.51100000000E-03 0. -1.
        -11    1    3    3    0    0  0.28571636490E+02  0.88695855466E+00  0.30121021982E+02  0.41525908451E+02  0.51100000000E-03 0.  1.
         12    1    3    3    0    0 -0.32959908228E+02  0.26585305828E+01 -0.26319360889E+02  0.42262656008E+02  0.00000000000E+00 0. -1.
</event>
<event>
 7    1  0.2404951E-015  0.9000759E+02  0.7816164E-02  0.1186339E+00
        -11   -1    0    0    0    0  0.00000000000E+00  0.00000000000E+00  0.45593999997E+02  0.45594000000E+02  0.51100000000E-03 0.  1.
         11   -1    0    0    0    0 -0.00000000000E+00 -0.00000000000E+00 -0.45593999997E+02  0.45594000000E+02  0.51100000000E-03 0. -1.
    9900012    2    1    2    0    0  0.11650587336E+01 -0.45662066491E-01  0.18420107651E+00  0.90007586126E+02  0.89999845463E+02 0.  0.
         12    1    1    2    0    0 -0.11650587336E+01  0.45662066491E-01 -0.18420107651E+00  0.11804138738E+01  0.00000000000E+00 0. -1.
         11    1    3    3    0    0  0.15702446360E+02 -0.16623852723E+02 -0.30809120984E+01  0.23074039973E+02  0.51100000000E-03 0. -1.
        -11    1    3    3    0    0  0.40509282226E+01  0.14187597815E+02  0.30495316231E+02  0.33877164337E+02  0.51100000000E-03 0.  1.
         12    1    3    3    0    0 -0.18588315849E+02  0.23905928414E+01 -0.27230203056E+02  0.33056381816E+02  0.00000000000E+00 0. -1.
</event>
<event>
 7    1  0.2404951E-015  0.9000777E+02  0.7816164E-02  0.1186339E+00
        -11   -1    0    0    0    0  0.00000000000E+00  0.00000000000E+00  0.45593999997E+02  0.45594000000E+02  0.51100000000E-03 0. -1.
         11   -1    0    0    0    0 -0.00000000000E+00 -0.00000000000E+00 -0.45593999997E+02  0.45594000000E+02  0.51100000000E-03 0.  1.
    9900012    2    1    2    0    0 -0.48647614020E+00  0.48676703639E+00 -0.95882533791E+00  0.90007768154E+02  0.90000029893E+02 0.  0.
         12    1    1    2    0    0  0.48647614020E+00 -0.48676703639E+00  0.95882533791E+00  0.11802318464E+01  0.00000000000E+00 0. -1.
         11    1    3    3    0    0  0.15763807130E+02  0.52481110450E+01  0.32422493707E+01  0.16927860645E+02  0.51100000000E-03 0. -1.
        -11    1    3    3    0    0 -0.50608432430E+01  0.24280853723E+02 -0.25338771759E+02  0.35457373652E+02  0.51100000000E-03 0.  1.
         12    1    3    3    0    0 -0.11189440027E+02 -0.29042197731E+02  0.21137697050E+02  0.37622533856E+02  0.00000000000E+00 0. -1.
</event>
<event>
 7    1  0.2404951E-015  0.9000762E+02  0.7816164E-02  0.1186339E+00
        -11   -1    0    0    0    0  0.00000000000E+00  0.00000000000E+00  0.45593999997E+02  0.45594000000E+02  0.51100000000E-03 0. -1.
         11   -1    0    0    0    0 -0.00000000000E+00 -0.00000000000E+00 -0.45593999997E+02  0.45594000000E+02  0.51100000000E-03 0.  1.
    9900012    2    1    2    0    0  0.33385036868E+00 -0.11180601268E+01  0.17825717993E+00  0.90007622883E+02  0.89999882705E+02 0.  0.
         12    1    1    2    0    0 -0.33385036868E+00  0.11180601268E+01 -0.17825717993E+00  0.11803771168E+01  0.00000000000E+00 0. -1.
         11    1    3    3    0    0 -0.28038099298E+01  0.23777227867E+02  0.31252995046E+01  0.24145090855E+02  0.51100000000E-03 0. -1.
        -11    1    3    3    0    0  0.24643916336E+01  0.20233160630E+02  0.18923945142E+01  0.20470348616E+02  0.51100000000E-03 0.  1.
         12    1    3    3    0    0  0.67326866492E+00 -0.45128448624E+02 -0.48394368389E+01  0.45392183411E+02  0.00000000000E+00 0. -1.
</event>
<event>
 7    1  0.2404951E-015  0.9000775E+02  0.7816164E-02  0.1186339E+00
        -11   -1    0    0    0    0  0.00000000000E+00  0.00000000000E+00  0.45593999997E+02  0.45594000000E+02  0.51100000000E-03 0. -1.
         11   -1    0    0    0    0 -0.00000000000E+00 -0.00000000000E+00 -0.45593999997E+02  0.45594000000E+02  0.51100000000E-03 0.  1.
    9900012    2    1    2    0    0  0.42903175875E+00 -0.44885081134E+00  0.10037193876E+01  0.90007750912E+02  0.90000012424E+02 0.  0.
         12    1    1    2    0    0 -0.42903175875E+00  0.44885081134E+00 -0.10037193876E+01  0.11802490881E+01  0.00000000000E+00 0. -1.
         11    1    3    3    0    0  0.37576032841E+02 -0.94335051683E+01  0.73787065476E-01  0.38742156737E+02  0.51100000000E-03 0. -1.
        -11    1    3    3    0    0  0.37283266788E+01  0.49407937921E+01  0.74399237793E+01  0.96780333345E+01  0.51100000000E-03 0.  1.
        -12    1    3    3    0    0 -0.40875327761E+02  0.40438605648E+01 -0.65099914572E+01  0.41587560840E+02  0.00000000000E+00 0.  1.
</event>
<event>
 7    1  0.2404951E-015  0.9000767E+02  0.7816164E-02  0.1186339E+00
        -11   -1    0    0    0    0  0.00000000000E+00  0.00000000000E+00  0.45593999997E+02  0.45594000000E+02  0.51100000000E-03 0.  1.
         11   -1    0    0    0    0 -0.00000000000E+00 -0.00000000000E+00 -0.45593999997E+02  0.45594000000E+02  0.51100000000E-03 0. -1.
    9900012    2    1    2    0    0 -0.17493363061E+00  0.10592027806E+01  0.49056987722E+00  0.90007673304E+02  0.89999933791E+02 0.  0.
         12    1    1    2    0    0  0.17493363061E+00 -0.10592027806E+01 -0.49056987722E+00  0.11803266963E+01  0.00000000000E+00 0. -1.
         11    1    3    3    0    0  0.23167501877E+01  0.13722153539E+02  0.43707303225E+01  0.14586573038E+02  0.51100000000E-03 0. -1.
        -11    1    3    3    0    0  0.13328152058E+02 -0.35116114021E+02  0.16694179412E+02  0.41103244735E+02  0.51100000000E-03 0.  1.
         12    1    3    3    0    0 -0.15819835877E+02  0.22453163263E+02 -0.20574339857E+02  0.34317855531E+02  0.00000000000E+00 0. -1.
</event>
<event>
 7    1  0.2404951E-015  0.9000779E+02  0.7816164E-02  0.1186339E+00
        -11   -1    0    0    0    0  0.00000000000E+00  0.00000000000E+00  0.45593999997E+02  0.45594000000E+02  0.51100000000E-03 0. -1.
         11   -1    0    0    0    0 -0.00000000000E+00 -0.00000000000E+00 -0.45593999997E+02  0.45594000000E+02  0.51100000000E-03 0.  1.
    9900012    2    1    2    0    0  0.56895052270E+00  0.17330622043E-01 -0.10338710359E+01  0.90007790541E+02  0.90000052576E+02 0.  0.
         12    1    1    2    0    0 -0.56895052270E+00 -0.17330622043E-01  0.10338710359E+01  0.11802094588E+01  0.00000000000E+00 0. -1.
         11    1    3    3    0    0 -0.18464269020E+02  0.56071023377E+01 -0.20022415884E+02  0.27807660189E+02  0.51100000000E-03 0. -1.
        -11    1    3    3    0    0 -0.15705124933E+01 -0.40206431967E+01 -0.18714580397E+02  0.19205926192E+02  0.51100000000E-03 0.  1.
        -12    1    3    3    0    0  0.20603732036E+02 -0.15691285190E+01  0.37703125245E+02  0.42994204160E+02  0.00000000000E+00 0.  1.
</event>
<event>
 7    1  0.3259911E-015  0.9000760E+02  0.7816164E-02  0.1186339E+00
        -11   -1    0    0    0    0  0.00000000000E+00  0.00000000000E+00  0.45593999997E+02  0.45594000000E+02  0.51100000000E-03 0. -1.
         11   -1    0    0    0    0 -0.00000000000E+00 -0.00000000000E+00 -0.45593999997E+02  0.45594000000E+02  0.51100000000E-03 0.  1.
    9900012    2    1    2    0    0  0.44471897759E+00 -0.13943695234E+00 -0.10844885256E+01  0.90007604729E+02  0.89999864312E+02 0.  0.
         12    1    1    2    0    0 -0.44471897759E+00  0.13943695234E+00  0.10844885256E+01  0.11803952706E+01  0.00000000000E+00 0. -1.
         11    1    3    3    0    0 -0.32029637460E+00  0.18928352475E+02  0.31008454313E+02  0.36330556786E+02  0.51100000000E-03 0. -1.
        -11    1    3    3    0    0  0.21070711274E+01  0.31862807671E+00  0.84515432007E+01  0.87160687997E+01  0.51100000000E-03 0.  1.
        -12    1    3    3    0    0 -0.13420557752E+01 -0.19386417504E+02 -0.40544486040E+02  0.44960979144E+02  0.00000000000E+00 0.  1.
</event>
<event>
 7    1  0.2404951E-015  0.9000774E+02  0.7816164E-02  0.1186339E+00
        -11   -1    0    0    0    0  0.00000000000E+00  0.00000000000E+00  0.45593999997E+02  0.45594000000E+02  0.51100000000E-03 0. -1.
         11   -1    0    0    0    0 -0.00000000000E+00 -0.00000000000E+00 -0.45593999997E+02  0.45594000000E+02  0.51100000000E-03 0.  1.
    9900012    2    1    2    0    0 -0.10704098016E+01  0.47352315990E+00 -0.15173119615E+00  0.90007735757E+02  0.89999997069E+02 0.  0.
         12    1    1    2    0    0  0.10704098016E+01 -0.47352315990E+00  0.15173119615E+00  0.11802642425E+01  0.00000000000E+00 0. -1.
         11    1    3    3    0    0  0.37405687484E+02  0.12631087450E+01  0.97971585664E+01  0.38688050043E+02  0.51100000000E-03 0. -1.
        -11    1    3    3    0    0  0.50300264428E+01 -0.37627785027E+01 -0.36343236982E+01  0.72572706357E+01  0.51100000000E-03 0.  1.
        -12    1    3    3    0    0 -0.43506123729E+02  0.29731929176E+01 -0.63145660643E+01  0.44062415079E+02  0.00000000000E+00 0.  1.
</event>
<event>
 7    1  0.2404951E-015  0.9000727E+02  0.7816164E-02  0.1186340E+00
        -11   -1    0    0    0    0  0.00000000000E+00  0.00000000000E+00  0.45593999997E+02  0.45594000000E+02  0.51100000000E-03 0.  1.
         11   -1    0    0    0    0 -0.00000000000E+00 -0.00000000000E+00 -0.45593999997E+02  0.45594000000E+02  0.51100000000E-03 0. -1.
    9900012    2    1    2    0    0 -0.64235624516E+00  0.56961873293E+00  0.81058493691E+00  0.90007265065E+02  0.89999520163E+02 0.  0.
         12    1    1    2    0    0  0.64235624516E+00 -0.56961873293E+00 -0.81058493691E+00  0.11807349349E+01  0.00000000000E+00 0. -1.
         11    1    3    3    0    0 -0.13784004775E+02  0.35782458729E+02 -0.76412174645E+00  0.38353187907E+02  0.51100000000E-03 0. -1.
        -11    1    3    3    0    0  0.43001158585E+01  0.29673200173E+01  0.10259147187E+02  0.11512866096E+02  0.51100000000E-03 0.  1.
        -12    1    3    3    0    0  0.88415326709E+01 -0.38180160013E+02 -0.86844405040E+01  0.40141211062E+02  0.00000000000E+00 0.  1.
</event>
<event>
 7    1  0.2404951E-015  0.9000770E+02  0.7816164E-02  0.1186339E+00
        -11   -1    0    0    0    0  0.00000000000E+00  0.00000000000E+00  0.45593999997E+02  0.45594000000E+02  0.51100000000E-03 0.  1.
         11   -1    0    0    0    0 -0.00000000000E+00 -0.00000000000E+00 -0.45593999997E+02  0.45594000000E+02  0.51100000000E-03 0. -1.
    9900012    2    1    2    0    0  0.43261798631E+00 -0.82339952967E+00  0.72660866536E+00  0.90007701199E+02  0.89999962055E+02 0.  0.
         12    1    1    2    0    0 -0.43261798631E+00  0.82339952967E+00 -0.72660866536E+00  0.11802988012E+01  0.00000000000E+00 0. -1.
         11    1    3    3    0    0 -0.21437753964E+01 -0.12763921868E+02 -0.21076774738E+02  0.24733457260E+02  0.51100000000E-03 0. -1.
        -11    1    3    3    0    0 -0.42712351961E+01 -0.87660861689E+01 -0.17666839893E+02  0.20179319832E+02  0.51100000000E-03 0.  1.
        -12    1    3    3    0    0  0.68476285789E+01  0.20706608507E+02  0.39470223297E+02  0.45094924106E+02  0.00000000000E+00 0.  1.
</event>
<event>
 7    1  0.2404951E-015  0.9000771E+02  0.7816164E-02  0.1186339E+00
        -11   -1    0    0    0    0  0.00000000000E+00  0.00000000000E+00  0.45593999997E+02  0.45594000000E+02  0.51100000000E-03 0. -1.
         11   -1    0    0    0    0 -0.00000000000E+00 -0.00000000000E+00 -0.45593999997E+02  0.45594000000E+02  0.51100000000E-03 0.  1.
    9900012    2    1    2    0    0 -0.50572689445E+00  0.10615806360E+01 -0.10181563197E+00  0.90007712085E+02  0.89999973085E+02 0.  0.
         12    1    1    2    0    0  0.50572689445E+00 -0.10615806360E+01  0.10181563197E+00  0.11802879146E+01  0.00000000000E+00 0. -1.
         11    1    3    3    0    0 -0.10270584953E+02  0.37466233169E+02 -0.83979513842E+01  0.39745806456E+02  0.51100000000E-03 0. -1.
        -11    1    3    3    0    0 -0.10101765567E+02 -0.29452630180E+01  0.33109182304E+01  0.11030975551E+02  0.51100000000E-03 0.  1.
        -12    1    3    3    0    0  0.19866623626E+02 -0.33459389515E+02  0.49852175219E+01  0.39230930078E+02  0.00000000000E+00 0.  1.
</event>
<event>
 7    1  0.3173484E-015  0.9000750E+02  0.7816164E-02  0.1186340E+00
        -11   -1    0    0    0    0  0.00000000000E+00  0.00000000000E+00  0.45593999997E+02  0.45594000000E+02  0.51100000000E-03 0.  1.
         11   -1    0    0    0    0 -0.00000000000E+00 -0.00000000000E+00 -0.45593999997E+02  0.45594000000E+02  0.51100000000E-03 0. -1.
    9900012    2    1    2    0    0 -0.10688504677E+01 -0.18631225024E+00  0.46522667455E+00  0.90007496109E+02  0.89999754258E+02 0.  0.
         12    1    1    2    0    0  0.10688504677E+01  0.18631225024E+00 -0.46522667455E+00  0.11805038905E+01  0.00000000000E+00 0. -1.
         11    1    3    3    0    0 -0.14665904965E+02 -0.86481632918E+00 -0.40570769169E+02  0.43148858467E+02  0.51100000000E-03 0. -1.
        -11    1    3    3    0    0 -0.80520906380E+00 -0.60956755464E+01  0.72129705311E+01  0.94780043336E+01  0.51100000000E-03 0.  1.
        -12    1    3    3    0    0  0.14402263561E+02  0.67741796254E+01  0.33823025313E+02  0.37380633309E+02  0.00000000000E+00 0.  1.
</event>
<event>
 7    1  0.2404951E-015  0.9000764E+02  0.7816164E-02  0.1186339E+00
        -11   -1    0    0    0    0  0.00000000000E+00  0.00000000000E+00  0.45593999997E+02  0.45594000000E+02  0.51100000000E-03 0.  1.
         11   -1    0    0    0    0 -0.00000000000E+00 -0.00000000000E+00 -0.45593999997E+02  0.45594000000E+02  0.51100000000E-03 0. -1.
    9900012    2    1    2    0    0 -0.53694424622E+00 -0.10435928191E+01  0.12589374473E+00  0.90007642287E+02  0.89999902365E+02 0.  0.
         12    1    1    2    0    0  0.53694424622E+00  0.10435928191E+01 -0.12589374473E+00  0.11803577129E+01  0.00000000000E+00 0. -1.
         11    1    3    3    0    0  0.31136734671E+02 -0.81679145094E+01 -0.20052649169E+02  0.37925187044E+02  0.51100000000E-03 0. -1.
        -11    1    3    3    0    0 -0.17546147830E+00 -0.11231656725E+02  0.22507898429E+01  0.11456306329E+02  0.51100000000E-03 0.  1.
        -12    1    3    3    0    0 -0.31498217438E+02  0.18355978416E+02  0.17927753071E+02  0.40626148914E+02  0.00000000000E+00 0.  1.
</event>
<event>
 7    1  0.2404951E-015  0.9000771E+02  0.7816164E-02  0.1186339E+00
        -11   -1    0    0    0    0  0.00000000000E+00  0.00000000000E+00  0.45593999997E+02  0.45594000000E+02  0.51100000000E-03 0. -1.
         11   -1    0    0    0    0 -0.00000000000E+00 -0.00000000000E+00 -0.45593999997E+02  0.45594000000E+02  0.51100000000E-03 0.  1.
    9900012    2    1    2    0    0  0.81397812685E+00  0.50296080292E+00 -0.69104653957E+00  0.90007713899E+02  0.89999974922E+02 0.  0.
         12    1    1    2    0    0 -0.81397812685E+00 -0.50296080292E+00  0.69104653957E+00  0.11802861010E+01  0.00000000000E+00 0. -1.
         11    1    3    3    0    0 -0.12952890450E+01  0.28081046139E+01  0.98936654530E+01  0.10365705070E+02  0.51100000000E-03 0. -1.
        -11    1    3    3    0    0 -0.11406852314E+02  0.29760689937E+02 -0.26431311757E+02  0.41405666118E+02  0.51100000000E-03 0.  1.
         12    1    3    3    0    0  0.13516119486E+02 -0.32065833748E+02  0.15846599764E+02  0.38236342712E+02  0.00000000000E+00 0. -1.
</event>
<event>
 7    1  0.2404951E-015  0.9000767E+02  0.7816164E-02  0.1186339E+00
        -11   -1    0    0    0    0  0.00000000000E+00  0.00000000000E+00  0.45593999997E+02  0.45594000000E+02  0.51100000000E-03 0. -1.
         11   -1    0    0    0    0 -0.00000000000E+00 -0.00000000000E+00 -0.45593999997E+02  0.45594000000E+02  0.51100000000E-03 0.  1.
    9900012    2    1    2    0    0  0.58483971865E+00  0.63441540428E+00 -0.80538872679E+00  0.90007673180E+02  0.89999933666E+02 0.  0.
         12    1    1    2    0    0 -0.58483971865E+00 -0.63441540428E+00  0.80538872679E+00  0.11803268204E+01  0.00000000000E+00 0. -1.
         11    1    3    3    0    0  0.68756935314E+00 -0.65054007140E+01 -0.49519936741E+01  0.82045860148E+01  0.51100000000E-03 0. -1.
        -11    1    3    3    0    0  0.11857164521E+02 -0.27310610067E+02  0.25795541258E+02  0.39393803088E+02  0.51100000000E-03 0.  1.
         12    1    3    3    0    0 -0.11959894155E+02  0.34450426185E+02 -0.21648936311E+02  0.42409284077E+02  0.00000000000E+00 0. -1.
</event>
<event>
 7    1  0.2404951E-015  0.9000776E+02  0.7816164E-02  0.1186339E+00
        -11   -1    0    0    0    0  0.00000000000E+00  0.00000000000E+00  0.45593999997E+02  0.45594000000E+02  0.51100000000E-03 0.  1.
         11   -1    0    0    0    0 -0.00000000000E+00 -0.00000000000E+00 -0.45593999997E+02  0.45594000000E+02  0.51100000000E-03 0. -1.
    9900012    2    1    2    0    0  0.12163956124E+00  0.68659776174E+00  0.95223782413E+00  0.90007758693E+02  0.90000020308E+02 0.  0.
         12    1    1    2    0    0 -0.12163956124E+00 -0.68659776174E+00 -0.95223782413E+00  0.11802413071E+01  0.00000000000E+00 0. -1.
         11    1    3    3    0    0  0.19879386639E+02 -0.16044227645E+02 -0.29669177450E+02  0.39151849825E+02  0.51100000000E-03 0. -1.
        -11    1    3    3    0    0  0.68028648793E+01 -0.29831697316E+01  0.70317618160E+01  0.10228584785E+02  0.51100000000E-03 0.  1.
        -12    1    3    3    0    0 -0.26560611957E+02  0.19713995138E+02  0.23589653458E+02  0.40627324083E+02  0.00000000000E+00 0.  1.
</event>
<event>
 7    1  0.2404951E-015  0.9000808E+02  0.7816164E-02  0.1186338E+00
        -11   -1    0    0    0    0  0.00000000000E+00  0.00000000000E+00  0.45593999997E+02  0.45594000000E+02  0.51100000000E-03 0.  1.
         11   -1    0    0    0    0 -0.00000000000E+00 -0.00000000000E+00 -0.45593999997E+02  0.45594000000E+02  0.51100000000E-03 0. -1.
    9900012    2    1    2    0    0  0.67844309851E+00 -0.57089249435E-02  0.96535236276E+00  0.90008075081E+02  0.90000340872E+02 0.  0.
         12    1    1    2    0    0 -0.67844309851E+00  0.57089249435E-02 -0.96535236276E+00  0.11799249188E+01  0.00000000000E+00 0. -1.
         11    1    3    3    0    0 -0.57018708376E+01  0.21063495586E+01 -0.58291163132E+01  0.84217953410E+01  0.51100000000E-03 0. -1.
        -11    1    3    3    0    0 -0.21990108545E+02 -0.32677704835E+02  0.35731607589E+00  0.39389401393E+02  0.51100000000E-03 0.  1.
         12    1    3    3    0    0  0.28370422481E+02  0.30565646351E+02  0.64371526001E+01  0.42196878347E+02  0.00000000000E+00 0. -1.
</event>
<event>
 7    1  0.2404951E-015  0.9000702E+02  0.7816164E-02  0.1186340E+00
        -11   -1    0    0    0    0  0.00000000000E+00  0.00000000000E+00  0.45593999997E+02  0.45594000000E+02  0.51100000000E-03 0.  1.
         11   -1    0    0    0    0 -0.00000000000E+00 -0.00000000000E+00 -0.45593999997E+02  0.45594000000E+02  0.51100000000E-03 0. -1.
    9900012    2    1    2    0    0  0.65875649910E+00 -0.21679018100E+00  0.95590390403E+00  0.90007021431E+02  0.89999273311E+02 0.  0.
         12    1    1    2    0    0 -0.65875649910E+00  0.21679018100E+00 -0.95590390403E+00  0.11809785694E+01  0.00000000000E+00 0. -1.
         11    1    3    3    0    0 -0.41006782914E+01 -0.82606061680E+01  0.11448802905E+01  0.92932194558E+01  0.51100000000E-03 0. -1.
        -11    1    3    3    0    0  0.13150909340E+02  0.45592648233E+01  0.38517457571E+02  0.40955193201E+02  0.51100000000E-03 0.  1.
         12    1    3    3    0    0 -0.83914745492E+01  0.34845511636E+01 -0.38706433957E+02  0.39758608773E+02  0.00000000000E+00 0. -1.
</event>
<event>
 7    1  0.2404951E-015  0.9000810E+02  0.7816164E-02  0.1186338E+00
        -11   -1    0    0    0    0  0.00000000000E+00  0.00000000000E+00  0.45593999997E+02  0.45594000000E+02  0.51100000000E-03 0. -1.
         11   -1    0    0    0    0 -0.00000000000E+00 -0.00000000000E+00 -0.45593999997E+02  0.45594000000E+02  0.51100000000E-03 0.  1.
    9900012    2    1    2    0    0  0.92372586035E+00 -0.71183413346E+00 -0.17943722777E+00  0.90008095335E+02  0.90000361393E+02 0.  0.
         12    1    1    2    0    0 -0.92372586035E+00  0.71183413346E+00  0.17943722777E+00  0.11799046645E+01  0.00000000000E+00 0. -1.
         11    1    3    3    0    0 -0.91447925084E+01 -0.25962323463E+01 -0.34366680488E+01  0.10108330226E+02  0.51100000000E-03 0. -1.
        -11    1    3    3    0    0 -0.34015283806E+02 -0.29338266239E+01 -0.58196859111E+01  0.34634023957E+02  0.51100000000E-03 0.  1.
         12    1    3    3    0    0  0.44083802175E+02  0.48182248367E+01  0.90769167322E+01  0.45265741153E+02  0.00000000000E+00 0. -1.
</event>
<event>
 7    1  0.2404951E-015  0.9000773E+02  0.7816164E-02  0.1186339E+00
        -11   -1    0    0    0    0  0.00000000000E+00  0.00000000000E+00  0.45593999997E+02  0.45594000000E+02  0.51100000000E-03 0.  1.
         11   -1    0    0    0    0 -0.00000000000E+00 -0.00000000000E+00 -0.45593999997E+02  0.45594000000E+02  0.51100000000E-03 0. -1.
    9900012    2    1    2    0    0 -0.19471229608E+00  0.63209768268E+00 -0.97754081281E+00  0.90007726134E+02  0.89999987319E+02 0.  0.
         12    1    1    2    0    0  0.19471229608E+00 -0.63209768268E+00  0.97754081281E+00  0.11802738663E+01  0.00000000000E+00 0. -1.
         11    1    3    3    0    0 -0.43843167415E+01  0.61917356338E+01 -0.69668035713E+01  0.10300299787E+02  0.51100000000E-03 0. -1.
        -11    1    3    3    0    0 -0.15355270763E+02  0.24214681853E+02 -0.20561964945E+02  0.35283559346E+02  0.51100000000E-03 0.  1.
         12    1    3    3    0    0  0.19544875208E+02 -0.29774319804E+02  0.26551227704E+02  0.44423867000E+02  0.00000000000E+00 0. -1.
</event>
<event>
 7    1  0.2404951E-015  0.9000779E+02  0.7816164E-02  0.1186339E+00
        -11   -1    0    0    0    0  0.00000000000E+00  0.00000000000E+00  0.45593999997E+02  0.45594000000E+02  0.51100000000E-03 0. -1.
         11   -1    0    0    0    0 -0.00000000000E+00 -0.00000000000E+00 -0.45593999997E+02  0.45594000000E+02  0.51100000000E-03 0.  1.
    9900012    2    1    2    0    0  0.90346636772E+00  0.69485431997E+00  0.30629318268E+00  0.90007792596E+02  0.90000054658E+02 0.  0.
         12    1    1    2    0    0 -0.90346636772E+00 -0.69485431997E+00 -0.30629318268E+00  0.11802074044E+01  0.00000000000E+00 0. -1.
         11    1    3    3    0    0 -0.12133878443E+02 -0.76266177584E+01  0.68509965642E+01  0.15884975879E+02  0.51100000000E-03 0. -1.
        -11    1    3    3    0    0  0.13466398370E+02 -0.28437596780E+02  0.11074616658E+02  0.33356977232E+02  0.51100000000E-03 0.  1.
         12    1    3    3    0    0 -0.42905356002E+00  0.36759068858E+02 -0.17619320039E+02  0.40765839485E+02  0.00000000000E+00 0. -1.
</event>
<event>
 7    1  0.2404951E-015  0.9000775E+02  0.7816164E-02  0.1186339E+00
        -11   -1    0    0    0    0  0.00000000000E+00  0.00000000000E+00  0.45593999997E+02  0.45594000000E+02  0.51100000000E-03 0.  1.
         11   -1    0    0    0    0 -0.00000000000E+00 -0.00000000000E+00 -0.45593999997E+02  0.45594000000E+02  0.51100000000E-03 0. -1.
    9900012    2    1    2    0    0 -0.32705013226E-01  0.80578591007E+00  0.86176601469E+00  0.90007745275E+02  0.90000006713E+02 0.  0.
         12    1    1    2    0    0  0.32705013226E-01 -0.80578591007E+00 -0.86176601469E+00  0.11802547246E+01  0.00000000000E+00 0. -1.
         11    1    3    3    0    0  0.60213210100E+01 -0.45233492595E+01  0.52115260134E+01  0.91584386704E+01  0.51100000000E-03 0. -1.
        -11    1    3    3    0    0  0.23188328292E+02 -0.89426227767E+01  0.26273756640E+02  0.36165997281E+02  0.51100000000E-03 0.  1.
         12    1    3    3    0    0 -0.29242354315E+02  0.14271757946E+02 -0.30623516639E+02  0.44683309324E+02  0.00000000000E+00 0. -1.
</event>
<event>
 7    1  0.2404951E-015  0.9000778E+02  0.7816164E-02  0.1186339E+00
        -11   -1    0    0    0    0  0.00000000000E+00  0.00000000000E+00  0.45593999997E+02  0.45594000000E+02  0.51100000000E-03 0.  1.
         11   -1    0    0    0    0 -0.00000000000E+00 -0.00000000000E+00 -0.45593999997E+02  0.45594000000E+02  0.51100000000E-03 0. -1.
    9900012    2    1    2    0    0  0.13097089013E+00 -0.67617815208E+00  0.95840733499E+00  0.90007781848E+02  0.90000043768E+02 0.  0.
         12    1    1    2    0    0 -0.13097089013E+00  0.67617815208E+00 -0.95840733499E+00  0.11802181524E+01  0.00000000000E+00 0. -1.
         11    1    3    3    0    0  0.33572739115E+00  0.77425103163E+01  0.10447185982E+01  0.78198859384E+01  0.51100000000E-03 0. -1.
        -11    1    3    3    0    0 -0.37932775959E+02 -0.19297635766E+02  0.38119324817E+01  0.42729674322E+02  0.51100000000E-03 0.  1.
         12    1    3    3    0    0  0.37728019458E+02  0.10878947298E+02 -0.38982437449E+01  0.39458221587E+02  0.00000000000E+00 0. -1.
</event>
<event>
 7    1  0.2404951E-015  0.9000782E+02  0.7816164E-02  0.1186339E+00
        -11   -1    0    0    0    0  0.00000000000E+00  0.00000000000E+00  0.45593999997E+02  0.45594000000E+02  0.51100000000E-03 0.  1.
         11   -1    0    0    0    0 -0.00000000000E+00 -0.00000000000E+00 -0.45593999997E+02  0.45594000000E+02  0.51100000000E-03 0. -1.
    9900012    2    1    2    0    0  0.45497996264E+00  0.44559112134E+00 -0.99361516932E+00  0.90007818099E+02  0.90000080498E+02 0.  0.
         12    1    1    2    0    0 -0.45497996264E+00 -0.44559112134E+00  0.99361516932E+00  0.11801819006E+01  0.00000000000E+00 0. -1.
         11    1    3    3    0    0 -0.80763442687E+01  0.28645235079E+02 -0.21637026596E+02  0.36795893108E+02  0.51100000000E-03 0. -1.
        -11    1    3    3    0    0 -0.10420714186E+02 -0.24454186171E+01 -0.53845994244E+01  0.11981872457E+02  0.51100000000E-03 0.  1.
        -12    1    3    3    0    0  0.18952038417E+02 -0.25754225340E+02  0.26028010851E+02  0.41230052534E+02  0.00000000000E+00 0.  1.
</event>
<event>
 7    1  0.2404951E-015  0.9000779E+02  0.7816164E-02  0.1186339E+00
        -11   -1    0    0    0    0  0.00000000000E+00  0.00000000000E+00  0.45593999997E+02  0.45594000000E+02  0.51100000000E-03 0.  1.
         11   -1    0    0    0    0 -0.00000000000E+00 -0.00000000000E+00 -0.45593999997E+02  0.45594000000E+02  0.51100000000E-03 0. -1.
    9900012    2    1    2    0    0 -0.72393474438E-01  0.93130529792E+00  0.72133049863E+00  0.90007793212E+02  0.90000055283E+02 0.  0.
         12    1    1    2    0    0  0.72393474438E-01 -0.93130529792E+00 -0.72133049863E+00  0.11802067875E+01  0.00000000000E+00 0. -1.
         11    1    3    3    0    0 -0.85373369116E+00 -0.81918457101E+01  0.53806917467E+01  0.98380405207E+01  0.51100000000E-03 0. -1.
        -11    1    3    3    0    0 -0.20224891632E+02 -0.20982279448E+02  0.20530784137E+02  0.35648497723E+02  0.51100000000E-03 0.  1.
         12    1    3    3    0    0  0.21006231849E+02  0.30105430456E+02 -0.25190145385E+02  0.44521254969E+02  0.00000000000E+00 0. -1.
</event>
<event>
 7    1  0.2404951E-015  0.9000762E+02  0.7816164E-02  0.1186339E+00
        -11   -1    0    0    0    0  0.00000000000E+00  0.00000000000E+00  0.45593999997E+02  0.45594000000E+02  0.51100000000E-03 0. -1.
         11   -1    0    0    0    0 -0.00000000000E+00 -0.00000000000E+00 -0.45593999997E+02  0.45594000000E+02  0.51100000000E-03 0.  1.
    9900012    2    1    2    0    0  0.48009094650E+00 -0.98363577299E+00 -0.44189156018E+00  0.90007620908E+02  0.89999880704E+02 0.  0.
         12    1    1    2    0    0 -0.48009094650E+00  0.98363577299E+00  0.44189156018E+00  0.11803790924E+01  0.00000000000E+00 0. -1.
         11    1    3    3    0    0 -0.17963239830E+01 -0.51353948970E+01 -0.78908776285E+01  0.95846236550E+01  0.51100000000E-03 0. -1.
        -11    1    3    3    0    0  0.15019896456E+02  0.11392462142E+02 -0.32665356683E+02  0.37714864585E+02  0.51100000000E-03 0.  1.
         12    1    3    3    0    0 -0.12743481526E+02 -0.72407030181E+01  0.40114342751E+02  0.42708132668E+02  0.00000000000E+00 0. -1.
</event>
<event>
 7    1  0.2404951E-015  0.9000714E+02  0.7816164E-02  0.1186340E+00
        -11   -1    0    0    0    0  0.00000000000E+00  0.00000000000E+00  0.45593999997E+02  0.45594000000E+02  0.51100000000E-03 0.  1.
         11   -1    0    0    0    0 -0.00000000000E+00 -0.00000000000E+00 -0.45593999997E+02  0.45594000000E+02  0.51100000000E-03 0. -1.
    9900012    2    1    2    0    0 -0.90371947921E+00  0.71435389012E+00 -0.25966489671E+00  0.90007137503E+02  0.89999390916E+02 0.  0.
         12    1    1    2    0    0  0.90371947921E+00 -0.71435389012E+00  0.25966489671E+00  0.11808624967E+01  0.00000000000E+00 0. -1.
         11    1    3    3    0    0  0.28358450334E+01  0.58909666578E+01  0.71560282319E+01  0.96929998212E+01  0.51100000000E-03 0. -1.
        -11    1    3    3    0    0  0.12161436375E+02  0.15000990507E+02  0.29548513680E+02  0.35299361352E+02  0.51100000000E-03 0.  1.
         12    1    3    3    0    0 -0.15901000888E+02 -0.20177603274E+02 -0.36964206808E+02  0.45014776331E+02  0.00000000000E+00 0. -1.
</event>
<event>
 7    1  0.2404951E-015  0.9000798E+02  0.7816164E-02  0.1186339E+00
        -11   -1    0    0    0    0  0.00000000000E+00  0.00000000000E+00  0.45593999997E+02  0.45594000000E+02  0.51100000000E-03 0. -1.
         11   -1    0    0    0    0 -0.00000000000E+00 -0.00000000000E+00 -0.45593999997E+02  0.45594000000E+02  0.51100000000E-03 0.  1.
    9900012    2    1    2    0    0 -0.26248771913E+00 -0.11492226113E+01  0.53167129117E-01  0.90007983408E+02  0.90000247989E+02 0.  0.
         12    1    1    2    0    0  0.26248771913E+00  0.11492226113E+01 -0.53167129117E-01  0.11800165917E+01  0.00000000000E+00 0. -1.
         11    1    3    3    0    0  0.22299434711E+02  0.12213025335E+02  0.16464737547E+02  0.30290433457E+02  0.51100000000E-03 0. -1.
        -11    1    3    3    0    0  0.79776708896E+01 -0.35075185689E+01 -0.25018735067E+02  0.26493075019E+02  0.51100000000E-03 0.  1.
        -12    1    3    3    0    0 -0.30539593320E+02 -0.98547293770E+01  0.86071646492E+01  0.33224474932E+02  0.00000000000E+00 0.  1.
</event>
<event>
 7    1  0.2404951E-015  0.9000771E+02  0.7816164E-02  0.1186339E+00
        -11   -1    0    0    0    0  0.00000000000E+00  0.00000000000E+00  0.45593999997E+02  0.45594000000E+02  0.51100000000E-03 0.  1.
         11   -1    0    0    0    0 -0.00000000000E+00 -0.00000000000E+00 -0.45593999997E+02  0.45594000000E+02  0.51100000000E-03 0. -1.
    9900012    2    1    2    0    0 -0.67698600223E+00  0.69814769268E+00  0.66884557210E+00  0.90007714167E+02  0.89999975194E+02 0.  0.
         12    1    1    2    0    0  0.67698600223E+00 -0.69814769268E+00 -0.66884557210E+00  0.11802858329E+01  0.00000000000E+00 0. -1.
         11    1    3    3    0    0  0.81333036095E-01 -0.11100380468E+02  0.32181931810E+01  0.11557760562E+02  0.51100000000E-03 0. -1.
        -11    1    3    3    0    0 -0.13415402523E+02  0.14230535146E+02  0.34260175398E+02  0.39449217660E+02  0.51100000000E-03 0.  1.
         12    1    3    3    0    0  0.12657083485E+02 -0.24320069856E+01 -0.36809523006E+02  0.39000735945E+02  0.00000000000E+00 0. -1.
</event>
<event>
 8    1  0.2404951E-015  0.9000783E+02  0.7816164E-02  0.1186339E+00
        -11   -1    0    0    0    0  0.00000000000E+00  0.00000000000E+00  0.45593999997E+02  0.45594000000E+02  0.51100000000E-03 0. -1.
         11   -1    0    0    0    0 -0.00000000000E+00 -0.00000000000E+00 -0.45593999997E+02  0.45594000000E+02  0.51100000000E-03 0.  1.
    9900012    2    1    2    0    0  0.70016290486E+00 -0.94891750706E+00 -0.46141939707E-01  0.90007829840E+02  0.90000092394E+02 0.  0.
         23    2    3    3    0    0  0.18227654830E+02 -0.12274503388E+02  0.16162408746E+02  0.63584374652E+02  0.57435515227E+02 0.  0.
         12    1    1    2    0    0 -0.70016290486E+00  0.94891750706E+00  0.46141939707E-01  0.11801701602E+01  0.00000000000E+00 0. -1.
         11    1    4    4    0    0  0.32090754725E+02 -0.54737723476E+01  0.28927575783E+02  0.43549780292E+02  0.51100000000E-03 0. -1.
        -11    1    4    4    0    0 -0.13863099895E+02 -0.68007310408E+01 -0.12765167038E+02  0.20034594360E+02  0.51100000000E-03 0.  1.
        -12    1    3    3    0    0 -0.17527491925E+02  0.11325585881E+02 -0.16208550685E+02  0.26423455188E+02  0.00000000000E+00 0.  1.
</event>
<event>
 7    1  0.2404951E-015  0.9000762E+02  0.7816164E-02  0.1186339E+00
        -11   -1    0    0    0    0  0.00000000000E+00  0.00000000000E+00  0.45593999997E+02  0.45594000000E+02  0.51100000000E-03 0. -1.
         11   -1    0    0    0    0 -0.00000000000E+00 -0.00000000000E+00 -0.45593999997E+02  0.45594000000E+02  0.51100000000E-03 0.  1.
    9900012    2    1    2    0    0 -0.54461067605E+00  0.10470572302E+01 -0.19423369901E-01  0.90007615783E+02  0.89999875512E+02 0.  0.
         12    1    1    2    0    0  0.54461067605E+00 -0.10470572302E+01  0.19423369901E-01  0.11803842167E+01  0.00000000000E+00 0. -1.
         11    1    3    3    0    0  0.60594640657E+01 -0.56265491832E+01  0.40803387872E+02  0.41632819056E+02  0.51100000000E-03 0. -1.
        -11    1    3    3    0    0  0.58554173596E+01 -0.15994816685E+00 -0.80979840577E+00  0.59133129116E+01  0.51100000000E-03 0.  1.
        -12    1    3    3    0    0 -0.12459492101E+02  0.68335545802E+01 -0.40013012836E+02  0.42461483816E+02  0.00000000000E+00 0.  1.
</event>
<event>
 7    1  0.2404951E-015  0.9000744E+02  0.7816164E-02  0.1186340E+00
        -11   -1    0    0    0    0  0.00000000000E+00  0.00000000000E+00  0.45593999997E+02  0.45594000000E+02  0.51100000000E-03 0.  1.
         11   -1    0    0    0    0 -0.00000000000E+00 -0.00000000000E+00 -0.45593999997E+02  0.45594000000E+02  0.51100000000E-03 0. -1.
    9900012    2    1    2    0    0  0.96616649884E+00  0.59765658215E+00 -0.32100963955E+00  0.90007441538E+02  0.89999698966E+02 0.  0.
         12    1    1    2    0    0 -0.96616649884E+00 -0.59765658215E+00  0.32100963955E+00  0.11805584621E+01  0.00000000000E+00 0. -1.
         11    1    3    3    0    0  0.36651090603E+01  0.39353593988E+01 -0.83452166430E+01  0.99278758605E+01  0.51100000000E-03 0. -1.
        -11    1    3    3    0    0 -0.21440067883E+02  0.22995881444E+02 -0.20031994327E+02  0.37279590544E+02  0.51100000000E-03 0.  1.
         12    1    3    3    0    0  0.18741125322E+02 -0.26333584260E+02  0.28056201330E+02  0.42799975133E+02  0.00000000000E+00 0. -1.
</event>
<event>
 7    1  0.2404951E-015  0.9000780E+02  0.7816164E-02  0.1186339E+00
        -11   -1    0    0    0    0  0.00000000000E+00  0.00000000000E+00  0.45593999997E+02  0.45594000000E+02  0.51100000000E-03 0. -1.
         11   -1    0    0    0    0 -0.00000000000E+00 -0.00000000000E+00 -0.45593999997E+02  0.45594000000E+02  0.51100000000E-03 0.  1.
    9900012    2    1    2    0    0 -0.59225372425E+00  0.10208219088E+01 -0.47512748783E-02  0.90007803229E+02  0.90000065432E+02 0.  0.
         12    1    1    2    0    0  0.59225372425E+00 -0.10208219088E+01  0.47512748783E-02  0.11801967709E+01  0.00000000000E+00 0. -1.
         11    1    3    3    0    0 -0.35412615114E+02 -0.68463927278E+01  0.16690377572E+02  0.39742862332E+02  0.51100000000E-03 0. -1.
        -11    1    3    3    0    0 -0.53893207965E+01  0.36896617039E+01 -0.48628068818E+01  0.81428049938E+01  0.51100000000E-03 0.  1.
        -12    1    3    3    0    0  0.40209682186E+02  0.41775529327E+01 -0.11832321965E+02  0.42122135904E+02  0.00000000000E+00 0.  1.
</event>
<event>
 7    1  0.2404951E-015  0.9000772E+02  0.7816164E-02  0.1186339E+00
        -11   -1    0    0    0    0  0.00000000000E+00  0.00000000000E+00  0.45593999997E+02  0.45594000000E+02  0.51100000000E-03 0. -1.
         11   -1    0    0    0    0 -0.00000000000E+00 -0.00000000000E+00 -0.45593999997E+02  0.45594000000E+02  0.51100000000E-03 0.  1.
    9900012    2    1    2    0    0 -0.46140079616E+00  0.26765212262E+00 -0.10528683429E+01  0.90007720329E+02  0.89999981438E+02 0.  0.
         12    1    1    2    0    0  0.46140079616E+00 -0.26765212262E+00  0.10528683429E+01  0.11802796706E+01  0.00000000000E+00 0. -1.
         11    1    3    3    0    0 -0.16105024689E+01  0.34152028381E+02 -0.24771744067E+01  0.34279602595E+02  0.51100000000E-03 0. -1.
        -11    1    3    3    0    0 -0.20901406190E+01  0.10342082996E+02 -0.34860618461E+01  0.11112155324E+02  0.51100000000E-03 0.  1.
        -12    1    3    3    0    0  0.32392422917E+01 -0.44226459254E+02  0.49103679099E+01  0.44615962410E+02  0.00000000000E+00 0.  1.
</event>
<event>
 7    1  0.2404951E-015  0.9000768E+02  0.7816164E-02  0.1186339E+00
        -11   -1    0    0    0    0  0.00000000000E+00  0.00000000000E+00  0.45593999997E+02  0.45594000000E+02  0.51100000000E-03 0. -1.
         11   -1    0    0    0    0 -0.00000000000E+00 -0.00000000000E+00 -0.45593999997E+02  0.45594000000E+02  0.51100000000E-03 0.  1.
    9900012    2    1    2    0    0 -0.35918695241E+00 -0.86504318103E+00 -0.71822138571E+00  0.90007679310E+02  0.89999939877E+02 0.  0.
         12    1    1    2    0    0  0.35918695241E+00  0.86504318103E+00  0.71822138571E+00  0.11803206898E+01  0.00000000000E+00 0. -1.
         11    1    3    3    0    0  0.59479872898E+01 -0.44616354637E+01  0.67945873204E+01  0.10072296706E+02  0.51100000000E-03 0. -1.
        -11    1    3    3    0    0  0.33308902683E+02 -0.12161340521E+02  0.42346573002E+01  0.35711532086E+02  0.51100000000E-03 0.  1.
         12    1    3    3    0    0 -0.39616076925E+02  0.15757932803E+02 -0.11747466006E+02  0.44223850519E+02  0.00000000000E+00 0. -1.
</event>
<event>
 7    1  0.2404951E-015  0.9000785E+02  0.7816164E-02  0.1186339E+00
        -11   -1    0    0    0    0  0.00000000000E+00  0.00000000000E+00  0.45593999997E+02  0.45594000000E+02  0.51100000000E-03 0.  1.
         11   -1    0    0    0    0 -0.00000000000E+00 -0.00000000000E+00 -0.45593999997E+02  0.45594000000E+02  0.51100000000E-03 0. -1.
    9900012    2    1    2    0    0  0.56538286046E+00  0.96846339341E+00  0.36765768614E+00  0.90007851155E+02  0.90000113990E+02 0.  0.
         12    1    1    2    0    0 -0.56538286046E+00 -0.96846339341E+00 -0.36765768614E+00  0.11801488455E+01  0.00000000000E+00 0. -1.
         11    1    3    3    0    0 -0.80610369440E+01  0.39520124092E+01  0.26682255217E+01  0.93657966235E+01  0.51100000000E-03 0. -1.
        -11    1    3    3    0    0 -0.33803026171E+02  0.66892732900E+01  0.91305692846E+01  0.35647696296E+02  0.51100000000E-03 0.  1.
         12    1    3    3    0    0  0.42429445976E+02 -0.96728223059E+01 -0.11431137120E+02  0.44994358235E+02  0.00000000000E+00 0. -1.
</event>
<event>
 7    1  0.2404951E-015  0.9000773E+02  0.7816164E-02  0.1186339E+00
        -11   -1    0    0    0    0  0.00000000000E+00  0.00000000000E+00  0.45593999997E+02  0.45594000000E+02  0.51100000000E-03 0.  1.
         11   -1    0    0    0    0 -0.00000000000E+00 -0.00000000000E+00 -0.45593999997E+02  0.45594000000E+02  0.51100000000E-03 0. -1.
    9900012    2    1    2    0    0  0.50215186455E+00  0.86337427346E+00 -0.62885786361E+00  0.90007731453E+02  0.89999992708E+02 0.  0.
         12    1    1    2    0    0 -0.50215186455E+00 -0.86337427346E+00  0.62885786361E+00  0.11802685473E+01  0.00000000000E+00 0. -1.
         11    1    3    3    0    0  0.27481833640E+02 -0.22844978015E+02 -0.11632723899E+02  0.37582768210E+02  0.51100000000E-03 0. -1.
        -11    1    3    3    0    0  0.55314764122E+01 -0.24113697646E+01 -0.49185506499E+01  0.77848619896E+01  0.51100000000E-03 0.  1.
        -12    1    3    3    0    0 -0.32511158188E+02  0.26119722053E+02  0.15922416685E+02  0.44640101254E+02  0.00000000000E+00 0.  1.
</event>
<event>
 7    1  0.2404951E-015  0.9000774E+02  0.7816164E-02  0.1186339E+00
        -11   -1    0    0    0    0  0.00000000000E+00  0.00000000000E+00  0.45593999997E+02  0.45594000000E+02  0.51100000000E-03 0. -1.
         11   -1    0    0    0    0 -0.00000000000E+00 -0.00000000000E+00 -0.45593999997E+02  0.45594000000E+02  0.51100000000E-03 0.  1.
    9900012    2    1    2    0    0 -0.58426352311E+00 -0.27363141783E+00 -0.98831851412E+00  0.90007740917E+02  0.90000002297E+02 0.  0.
         12    1    1    2    0    0  0.58426352311E+00  0.27363141783E+00  0.98831851412E+00  0.11802590828E+01  0.00000000000E+00 0. -1.
         11    1    3    3    0    0 -0.94935796469E+01  0.24948296281E+02 -0.29850623042E+02  0.40045040118E+02  0.51100000000E-03 0. -1.
        -11    1    3    3    0    0  0.27328927286E+01 -0.65181891710E+01 -0.64239773950E+01  0.95510721162E+01  0.51100000000E-03 0.  1.
        -12    1    3    3    0    0  0.61764233952E+01 -0.18703738528E+02  0.35286281923E+02  0.40411628683E+02  0.00000000000E+00 0.  1.
</event>
<event>
 7    1  0.2404951E-015  0.9000776E+02  0.7816164E-02  0.1186339E+00
        -11   -1    0    0    0    0  0.00000000000E+00  0.00000000000E+00  0.45593999997E+02  0.45594000000E+02  0.51100000000E-03 0. -1.
         11   -1    0    0    0    0 -0.00000000000E+00 -0.00000000000E+00 -0.45593999997E+02  0.45594000000E+02  0.51100000000E-03 0.  1.
    9900012    2    1    2    0    0  0.56259518140E+00  0.83240069053E+00 -0.61932643618E+00  0.90007758719E+02  0.90000020334E+02 0.  0.
         12    1    1    2    0    0 -0.56259518140E+00 -0.83240069053E+00  0.61932643618E+00  0.11802412814E+01  0.00000000000E+00 0. -1.
         11    1    3    3    0    0 -0.34917092902E+01  0.81940720905E+01 -0.55396735195E+01  0.10489177001E+02  0.51100000000E-03 0. -1.
        -11    1    3    3    0    0  0.28442638777E+02 -0.24025846656E+02 -0.18731245291E+02  0.41678346399E+02  0.51100000000E-03 0.  1.
         12    1    3    3    0    0 -0.24388334305E+02  0.16664175257E+02  0.23651592374E+02  0.37840235319E+02  0.00000000000E+00 0. -1.
</event>
<event>
 8    1  0.2404951E-015  0.9000762E+02  0.7816164E-02  0.1186339E+00
        -11   -1    0    0    0    0  0.00000000000E+00  0.00000000000E+00  0.45593999997E+02  0.45594000000E+02  0.51100000000E-03 0. -1.
         11   -1    0    0    0    0 -0.00000000000E+00 -0.00000000000E+00 -0.45593999997E+02  0.45594000000E+02  0.51100000000E-03 0.  1.
    9900012    2    1    2    0    0 -0.88291486223E+00 -0.77273416840E+00 -0.12900233355E+00  0.90007619404E+02  0.89999879180E+02 0.  0.
         23    2    3    3    0    0  0.20897854554E+02 -0.77383830043E+01 -0.16112192006E+01  0.67092141079E+02  0.63262599304E+02 0.  0.
         12    1    1    2    0    0  0.88291486223E+00  0.77273416840E+00  0.12900233355E+00  0.11803805958E+01  0.00000000000E+00 0. -1.
         11    1    4    4    0    0  0.37884878031E+02 -0.21638443638E+02 -0.77243629303E+01  0.44307471260E+02  0.51100000000E-03 0.  1.
        -11    1    4    4    0    0 -0.16987023477E+02  0.13900060634E+02  0.61131437297E+01  0.22784669819E+02  0.51100000000E-03 0. -1.
        -12    1    3    3    0    0 -0.21780769416E+02  0.69656488359E+01  0.14822168670E+01  0.22915478326E+02  0.00000000000E+00 0.  1.
</event>
<event>
 7    1  0.2404951E-015  0.9000772E+02  0.7816164E-02  0.1186339E+00
        -11   -1    0    0    0    0  0.00000000000E+00  0.00000000000E+00  0.45593999997E+02  0.45594000000E+02  0.51100000000E-03 0.  1.
         11   -1    0    0    0    0 -0.00000000000E+00 -0.00000000000E+00 -0.45593999997E+02  0.45594000000E+02  0.51100000000E-03 0. -1.
    9900012    2    1    2    0    0  0.12203469553E+00  0.10570315732E+01  0.51072967960E+00  0.90007723329E+02  0.89999984477E+02 0.  0.
         12    1    1    2    0    0 -0.12203469553E+00 -0.10570315732E+01 -0.51072967960E+00  0.11802766706E+01  0.00000000000E+00 0. -1.
         11    1    3    3    0    0 -0.25125042490E+02  0.24953381184E+02 -0.21617679825E+02  0.41488107620E+02  0.51100000000E-03 0. -1.
        -11    1    3    3    0    0  0.96148399665E+01  0.88883501676E+00 -0.27934794974E+01  0.10051800994E+02  0.51100000000E-03 0.  1.
        -12    1    3    3    0    0  0.15632237219E+02 -0.24785184628E+02  0.24921889002E+02  0.38467814715E+02  0.00000000000E+00 0.  1.
</event>
<event>
 7    1  0.2404951E-015  0.9000763E+02  0.7816164E-02  0.1186339E+00
        -11   -1    0    0    0    0  0.00000000000E+00  0.00000000000E+00  0.45593999997E+02  0.45594000000E+02  0.51100000000E-03 0. -1.
         11   -1    0    0    0    0 -0.00000000000E+00 -0.00000000000E+00 -0.45593999997E+02  0.45594000000E+02  0.51100000000E-03 0.  1.
    9900012    2    1    2    0    0 -0.83470190272E+00  0.27852611397E+00 -0.78674091007E+00  0.90007633395E+02  0.89999893356E+02 0.  0.
         12    1    1    2    0    0  0.83470190272E+00 -0.27852611397E+00  0.78674091007E+00  0.11803666050E+01  0.00000000000E+00 0. -1.
         11    1    3    3    0    0  0.38377473868E+01 -0.88268911934E+01  0.52737732744E+01  0.10975199222E+02  0.51100000000E-03 0. -1.
        -11    1    3    3    0    0  0.17005660752E+02  0.38140504545E+02 -0.88598909088E+01  0.42689439581E+02  0.51100000000E-03 0.  1.
         12    1    3    3    0    0 -0.21678110041E+02 -0.29035087238E+02  0.27993767244E+01  0.36342994592E+02  0.00000000000E+00 0. -1.
</event>
<event>
 7    1  0.2404951E-015  0.9000772E+02  0.7816164E-02  0.1186339E+00
        -11   -1    0    0    0    0  0.00000000000E+00  0.00000000000E+00  0.45593999997E+02  0.45594000000E+02  0.51100000000E-03 0. -1.
         11   -1    0    0    0    0 -0.00000000000E+00 -0.00000000000E+00 -0.45593999997E+02  0.45594000000E+02  0.51100000000E-03 0.  1.
    9900012    2    1    2    0    0  0.55805374794E-01 -0.10341160822E+01 -0.56617130521E+00  0.90007720263E+02  0.89999981370E+02 0.  0.
         12    1    1    2    0    0 -0.55805374794E-01  0.10341160822E+01  0.56617130521E+00  0.11802797372E+01  0.00000000000E+00 0. -1.
         11    1    3    3    0    0 -0.89292573838E+01 -0.43995304648E+01  0.40673389990E-01  0.99543538375E+01  0.51100000000E-03 0. -1.
        -11    1    3    3    0    0  0.17940758341E+02 -0.35652056894E+02  0.17690873644E+01  0.39950840304E+02  0.51100000000E-03 0.  1.
         12    1    3    3    0    0 -0.89556955825E+01  0.39017471276E+02 -0.23759320596E+01  0.40102526122E+02  0.00000000000E+00 0. -1.
</event>
<event>
 7    1  0.2404951E-015  0.9000770E+02  0.7816164E-02  0.1186339E+00
        -11   -1    0    0    0    0  0.00000000000E+00  0.00000000000E+00  0.45593999997E+02  0.45594000000E+02  0.51100000000E-03 0. -1.
         11   -1    0    0    0    0 -0.00000000000E+00 -0.00000000000E+00 -0.45593999997E+02  0.45594000000E+02  0.51100000000E-03 0.  1.
    9900012    2    1    2    0    0  0.20248606199E+00 -0.88181490092E+00  0.75796093165E+00  0.90007702199E+02  0.89999963068E+02 0.  0.
         12    1    1    2    0    0 -0.20248606199E+00  0.88181490092E+00 -0.75796093165E+00  0.11802978009E+01  0.00000000000E+00 0. -1.
         11    1    3    3    0    0 -0.10384530927E+02 -0.31572073069E+02  0.26133112723E+02  0.42279709806E+02  0.51100000000E-03 0. -1.
        -11    1    3    3    0    0  0.89838828011E+01  0.26384745286E+01  0.70790902399E+00  0.93900390558E+01  0.51100000000E-03 0.  1.
        -12    1    3    3    0    0  0.16031341883E+01  0.28051783640E+02 -0.26083060815E+02  0.38337953337E+02  0.00000000000E+00 0.  1.
</event>
<event>
 7    1  0.2404951E-015  0.9000832E+02  0.7816164E-02  0.1186338E+00
        -11   -1    0    0    0    0  0.00000000000E+00  0.00000000000E+00  0.45593999997E+02  0.45594000000E+02  0.51100000000E-03 0.  1.
         11   -1    0    0    0    0 -0.00000000000E+00 -0.00000000000E+00 -0.45593999997E+02  0.45594000000E+02  0.51100000000E-03 0. -1.
    9900012    2    1    2    0    0 -0.61431171835E+00  0.26872094827E+00  0.97059042823E+00  0.90008323937E+02  0.90000593011E+02 0.  0.
         12    1    1    2    0    0  0.61431171835E+00 -0.26872094827E+00 -0.97059042823E+00  0.11796760635E+01  0.00000000000E+00 0. -1.
         11    1    3    3    0    0 -0.15528439996E+02  0.20021266358E+02 -0.24280769903E+02  0.35093294838E+02  0.51100000000E-03 0. -1.
        -11    1    3    3    0    0 -0.78144414737E+00  0.80069307038E+01 -0.61758824067E+01  0.10142145632E+02  0.51100000000E-03 0.  1.
        -12    1    3    3    0    0  0.15695572425E+02 -0.27759476113E+02  0.31427242738E+02  0.44772883467E+02  0.00000000000E+00 0.  1.
</event>
<event>
 7    1  0.2404951E-015  0.9000774E+02  0.7816164E-02  0.1186339E+00
        -11   -1    0    0    0    0  0.00000000000E+00  0.00000000000E+00  0.45593999997E+02  0.45594000000E+02  0.51100000000E-03 0. -1.
         11   -1    0    0    0    0 -0.00000000000E+00 -0.00000000000E+00 -0.45593999997E+02  0.45594000000E+02  0.51100000000E-03 0.  1.
    9900012    2    1    2    0    0  0.61925624757E+00  0.99955912201E+00  0.10203821059E+00  0.90007742174E+02  0.90000003571E+02 0.  0.
         12    1    1    2    0    0 -0.61925624757E+00 -0.99955912201E+00 -0.10203821059E+00  0.11802578256E+01  0.00000000000E+00 0. -1.
         11    1    3    3    0    0 -0.22612971559E+01 -0.10401889161E+02  0.40805720846E+02  0.42171312725E+02  0.51100000000E-03 0. -1.
        -11    1    3    3    0    0 -0.67531329412E+01 -0.23990325985E+01 -0.63227126684E+01  0.95570318446E+01  0.51100000000E-03 0.  1.
        -12    1    3    3    0    0  0.96336863447E+01  0.13800480881E+02 -0.34380969967E+02  0.38279397605E+02  0.00000000000E+00 0.  1.
</event>
<event>
 7    1  0.2404951E-015  0.9000797E+02  0.7816164E-02  0.1186339E+00
        -11   -1    0    0    0    0  0.00000000000E+00  0.00000000000E+00  0.45593999997E+02  0.45594000000E+02  0.51100000000E-03 0.  1.
         11   -1    0    0    0    0 -0.00000000000E+00 -0.00000000000E+00 -0.45593999997E+02  0.45594000000E+02  0.51100000000E-03 0. -1.
    9900012    2    1    2    0    0  0.11565853513E+01  0.23286907111E+00 -0.23484918780E-01  0.90007970670E+02  0.90000235082E+02 0.  0.
         12    1    1    2    0    0 -0.11565853513E+01 -0.23286907111E+00  0.23484918780E-01  0.11800293304E+01  0.00000000000E+00 0. -1.
         11    1    3    3    0    0  0.24111980063E+01  0.22406249627E+02 -0.35729464937E+02  0.42242733849E+02  0.51100000000E-03 0. -1.
        -11    1    3    3    0    0 -0.63715425753E+01  0.22123088678E+01  0.63910135513E+01  0.92917124251E+01  0.51100000000E-03 0.  1.
        -12    1    3    3    0    0  0.51169299203E+01 -0.24385689423E+02  0.29314966466E+02  0.38473524395E+02  0.00000000000E+00 0.  1.
</event>
<event>
 7    1  0.2404951E-015  0.9000786E+02  0.7816164E-02  0.1186339E+00
        -11   -1    0    0    0    0  0.00000000000E+00  0.00000000000E+00  0.45593999997E+02  0.45594000000E+02  0.51100000000E-03 0.  1.
         11   -1    0    0    0    0 -0.00000000000E+00 -0.00000000000E+00 -0.45593999997E+02  0.45594000000E+02  0.51100000000E-03 0. -1.
    9900012    2    1    2    0    0  0.95166443182E+00 -0.35939900092E+00  0.59824860111E+00  0.90007858389E+02  0.90000121320E+02 0.  0.
         12    1    1    2    0    0 -0.95166443182E+00  0.35939900092E+00 -0.59824860111E+00  0.11801416107E+01  0.00000000000E+00 0. -1.
         11    1    3    3    0    0  0.21227720383E+01  0.22980460018E+01  0.10250791711E+02  0.10717551377E+02  0.51100000000E-03 0. -1.
        -11    1    3    3    0    0 -0.34126243855E+02 -0.67459410546E+00  0.15791152997E+02  0.37608723856E+02  0.51100000000E-03 0.  1.
         12    1    3    3    0    0  0.32955136249E+02 -0.19828508973E+01 -0.25443696107E+02  0.41681583156E+02  0.00000000000E+00 0. -1.
</event>
<event>
 7    1  0.2404951E-015  0.9000783E+02  0.7816164E-02  0.1186339E+00
        -11   -1    0    0    0    0  0.00000000000E+00  0.00000000000E+00  0.45593999997E+02  0.45594000000E+02  0.51100000000E-03 0. -1.
         11   -1    0    0    0    0 -0.00000000000E+00 -0.00000000000E+00 -0.45593999997E+02  0.45594000000E+02  0.51100000000E-03 0.  1.
    9900012    2    1    2    0    0 -0.34810046207E+00 -0.12380882986E+00 -0.11208423665E+01  0.90007834686E+02  0.90000097304E+02 0.  0.
         12    1    1    2    0    0  0.34810046207E+00  0.12380882986E+00  0.11208423665E+01  0.11801653141E+01  0.00000000000E+00 0. -1.
         11    1    3    3    0    0  0.11861937955E+02 -0.14528580341E+02 -0.14430590771E+02  0.23664893176E+02  0.51100000000E-03 0. -1.
        -11    1    3    3    0    0 -0.38369226216E+01 -0.23541957202E+02 -0.33050858212E+01  0.24080475840E+02  0.51100000000E-03 0.  1.
         12    1    3    3    0    0 -0.83731157950E+01  0.37946728714E+02  0.16614834226E+02  0.42262465670E+02  0.00000000000E+00 0. -1.
</event>
<event>
 7    1  0.2404951E-015  0.9000779E+02  0.7816164E-02  0.1186339E+00
        -11   -1    0    0    0    0  0.00000000000E+00  0.00000000000E+00  0.45593999997E+02  0.45594000000E+02  0.51100000000E-03 0. -1.
         11   -1    0    0    0    0 -0.00000000000E+00 -0.00000000000E+00 -0.45593999997E+02  0.45594000000E+02  0.51100000000E-03 0.  1.
    9900012    2    1    2    0    0  0.58147422404E+00  0.73989708050E+00 -0.71227356198E+00  0.90007790870E+02  0.90000052910E+02 0.  0.
         12    1    1    2    0    0 -0.58147422404E+00 -0.73989708050E+00  0.71227356198E+00  0.11802091298E+01  0.00000000000E+00 0. -1.
         11    1    3    3    0    0 -0.53407229264E+01 -0.21343679452E+01 -0.83258898860E+01  0.10119253458E+02  0.51100000000E-03 0. -1.
        -11    1    3    3    0    0  0.20479684589E+02 -0.15090139089E+02 -0.27744277677E+02  0.37641396397E+02  0.51100000000E-03 0.  1.
         12    1    3    3    0    0 -0.14557487438E+02  0.17964404115E+02  0.35357894001E+02  0.42247141015E+02  0.00000000000E+00 0. -1.
</event>
<event>
 7    1  0.2404951E-015  0.9000774E+02  0.7816164E-02  0.1186339E+00
        -11   -1    0    0    0    0  0.00000000000E+00  0.00000000000E+00  0.45593999997E+02  0.45594000000E+02  0.51100000000E-03 0.  1.
         11   -1    0    0    0    0 -0.00000000000E+00 -0.00000000000E+00 -0.45593999997E+02  0.45594000000E+02  0.51100000000E-03 0. -1.
    9900012    2    1    2    0    0  0.48050304316E+00  0.10380892005E+01  0.29070950926E+00  0.90007735461E+02  0.89999996769E+02 0.  0.
         12    1    1    2    0    0 -0.48050304316E+00 -0.10380892005E+01 -0.29070950926E+00  0.11802645388E+01  0.00000000000E+00 0. -1.
         11    1    3    3    0    0 -0.62352078810E+01 -0.19595299763E+01  0.67875357940E+01  0.94227499947E+01  0.51100000000E-03 0. -1.
        -11    1    3    3    0    0 -0.29372179423E+02  0.30897885386E+01  0.20125793938E+02  0.35739604072E+02  0.51100000000E-03 0.  1.
         12    1    3    3    0    0  0.36087890347E+02 -0.92169361711E-01 -0.26622620223E+02  0.44845381395E+02  0.00000000000E+00 0. -1.
</event>
<event>
 7    1  0.2404951E-015  0.9000768E+02  0.7816164E-02  0.1186339E+00
        -11   -1    0    0    0    0  0.00000000000E+00  0.00000000000E+00  0.45593999997E+02  0.45594000000E+02  0.51100000000E-03 0. -1.
         11   -1    0    0    0    0 -0.00000000000E+00 -0.00000000000E+00 -0.45593999997E+02  0.45594000000E+02  0.51100000000E-03 0.  1.
    9900012    2    1    2    0    0  0.68741546402E+00 -0.48431310614E+00 -0.82827856656E+00  0.90007684538E+02  0.89999945174E+02 0.  0.
         12    1    1    2    0    0 -0.68741546402E+00  0.48431310614E+00  0.82827856656E+00  0.11803154615E+01  0.00000000000E+00 0. -1.
         11    1    3    3    0    0 -0.97647486674E+00  0.40616916309E+02 -0.49817715574E+01  0.40932938347E+02  0.51100000000E-03 0. -1.
        -11    1    3    3    0    0 -0.10414074255E+00 -0.47499549229E+01 -0.91624085034E+01  0.10320980908E+02  0.51100000000E-03 0.  1.
        -12    1    3    3    0    0  0.17680310733E+01 -0.36351274492E+02  0.13315901494E+02  0.38753765284E+02  0.00000000000E+00 0.  1.
</event>
<event>
 7    1  0.2404951E-015  0.9000768E+02  0.7816164E-02  0.1186339E+00
        -11   -1    0    0    0    0  0.00000000000E+00  0.00000000000E+00  0.45593999997E+02  0.45594000000E+02  0.51100000000E-03 0.  1.
         11   -1    0    0    0    0 -0.00000000000E+00 -0.00000000000E+00 -0.45593999997E+02  0.45594000000E+02  0.51100000000E-03 0. -1.
    9900012    2    1    2    0    0  0.10560967984E+00 -0.57157013681E+00  0.10272805598E+01  0.90007681749E+02  0.89999942348E+02 0.  0.
         12    1    1    2    0    0 -0.10560967984E+00  0.57157013681E+00 -0.10272805598E+01  0.11803182512E+01  0.00000000000E+00 0. -1.
         11    1    3    3    0    0 -0.13803045019E+02  0.10298953088E+02 -0.76618000553E+01  0.18849288232E+02  0.51100000000E-03 0. -1.
        -11    1    3    3    0    0 -0.12802665624E+02 -0.31650040358E+02 -0.52789387836E+01  0.34547076529E+02  0.51100000000E-03 0.  1.
         12    1    3    3    0    0  0.26711320323E+02  0.20779517133E+02  0.13968019399E+02  0.36611316988E+02  0.00000000000E+00 0. -1.
</event>
<event>
 7    1  0.2404951E-015  0.9000774E+02  0.7816164E-02  0.1186339E+00
        -11   -1    0    0    0    0  0.00000000000E+00  0.00000000000E+00  0.45593999997E+02  0.45594000000E+02  0.51100000000E-03 0. -1.
         11   -1    0    0    0    0 -0.00000000000E+00 -0.00000000000E+00 -0.45593999997E+02  0.45594000000E+02  0.51100000000E-03 0.  1.
    9900012    2    1    2    0    0 -0.30901679376E+00 -0.43083699737E+00  0.10544707018E+01  0.90007737166E+02  0.89999998496E+02 0.  0.
         12    1    1    2    0    0  0.30901679376E+00  0.43083699737E+00 -0.10544707018E+01  0.11802628344E+01  0.00000000000E+00 0. -1.
         11    1    3    3    0    0  0.53938209441E+01  0.12205087348E+02  0.26439086153E+01  0.13603224418E+02  0.51100000000E-03 0. -1.
        -11    1    3    3    0    0 -0.22298754198E+02 -0.16242267863E+02 -0.31584016615E+02  0.41935615054E+02  0.51100000000E-03 0.  1.
         12    1    3    3    0    0  0.16595916460E+02  0.36063435176E+01  0.29994578702E+02  0.34468897694E+02  0.00000000000E+00 0. -1.
</event>
<event>
 7    1  0.2404951E-015  0.9000785E+02  0.7816164E-02  0.1186339E+00
        -11   -1    0    0    0    0  0.00000000000E+00  0.00000000000E+00  0.45593999997E+02  0.45594000000E+02  0.51100000000E-03 0. -1.
         11   -1    0    0    0    0 -0.00000000000E+00 -0.00000000000E+00 -0.45593999997E+02  0.45594000000E+02  0.51100000000E-03 0.  1.
    9900012    2    1    2    0    0  0.42640869719E-01 -0.11121326816E+01 -0.39255750874E+00  0.90007848000E+02  0.90000110794E+02 0.  0.
         12    1    1    2    0    0 -0.42640869719E-01  0.11121326816E+01  0.39255750874E+00  0.11801519999E+01  0.00000000000E+00 0. -1.
         11    1    3    3    0    0 -0.24037640679E+02 -0.28985195076E+02 -0.93580508612E+01  0.38801067243E+02  0.51100000000E-03 0. -1.
        -11    1    3    3    0    0  0.86555951009E+00 -0.14641977378E+01 -0.93846455596E+01  0.95375385095E+01  0.51100000000E-03 0.  1.
        -12    1    3    3    0    0  0.23214722038E+02  0.29337260132E+02  0.18350138912E+02  0.41669242248E+02  0.00000000000E+00 0.  1.
</event>
<event>
 7    1  0.2404951E-015  0.9000778E+02  0.7816164E-02  0.1186339E+00
        -11   -1    0    0    0    0  0.00000000000E+00  0.00000000000E+00  0.45593999997E+02  0.45594000000E+02  0.51100000000E-03 0.  1.
         11   -1    0    0    0    0 -0.00000000000E+00 -0.00000000000E+00 -0.45593999997E+02  0.45594000000E+02  0.51100000000E-03 0. -1.
    9900012    2    1    2    0    0  0.98029925670E+00 -0.36477540877E+00  0.54669092454E+00  0.90007780233E+02  0.90000042132E+02 0.  0.
         12    1    1    2    0    0 -0.98029925670E+00  0.36477540877E+00 -0.54669092454E+00  0.11802197670E+01  0.00000000000E+00 0. -1.
         11    1    3    3    0    0  0.85903227061E+01 -0.14057623036E+02 -0.30764182773E+02  0.34897641060E+02  0.51100000000E-03 0. -1.
        -11    1    3    3    0    0 -0.11531487903E+01 -0.90769325283E+01 -0.59885954362E+01  0.10935434688E+02  0.51100000000E-03 0.  1.
        -12    1    3    3    0    0 -0.64568746590E+01  0.22769780155E+02  0.37299469134E+02  0.44174704485E+02  0.00000000000E+00 0.  1.
</event>
<event>
 7    1  0.2404951E-015  0.9000774E+02  0.7816164E-02  0.1186339E+00
        -11   -1    0    0    0    0  0.00000000000E+00  0.00000000000E+00  0.45593999997E+02  0.45594000000E+02  0.51100000000E-03 0.  1.
         11   -1    0    0    0    0 -0.00000000000E+00 -0.00000000000E+00 -0.45593999997E+02  0.45594000000E+02  0.51100000000E-03 0. -1.
    9900012    2    1    2    0    0  0.91353995355E+00  0.65556375556E+00  0.35874688598E+00  0.90007737990E+02  0.89999999331E+02 0.  0.
         12    1    1    2    0    0 -0.91353995355E+00 -0.65556375556E+00 -0.35874688598E+00  0.11802620101E+01  0.00000000000E+00 0. -1.
         11    1    3    3    0    0 -0.21696728055E+01  0.26430700874E+01 -0.18271118201E+00  0.34244245074E+01  0.51100000000E-03 0. -1.
        -11    1    3    3    0    0 -0.40207722351E+02  0.10287476995E+02  0.21319970661E+01  0.41557653102E+02  0.51100000000E-03 0.  1.
         12    1    3    3    0    0  0.43290935110E+02 -0.12274983327E+02 -0.15905389981E+01  0.45025660380E+02  0.00000000000E+00 0. -1.
</event>
<event>
 7    1  0.2404951E-015  0.9000772E+02  0.7816164E-02  0.1186339E+00
        -11   -1    0    0    0    0  0.00000000000E+00  0.00000000000E+00  0.45593999997E+02  0.45594000000E+02  0.51100000000E-03 0. -1.
         11   -1    0    0    0    0 -0.00000000000E+00 -0.00000000000E+00 -0.45593999997E+02  0.45594000000E+02  0.51100000000E-03 0.  1.
    9900012    2    1    2    0    0 -0.28858445183E-01  0.33724298557E+00 -0.11307031761E+01  0.90007722357E+02  0.89999983492E+02 0.  0.
         12    1    1    2    0    0  0.28858445183E-01 -0.33724298557E+00  0.11307031761E+01  0.11802776426E+01  0.00000000000E+00 0. -1.
         11    1    3    3    0    0 -0.76580389528E+01  0.18818876915E+01  0.72444499474E+01  0.10708366691E+02  0.51100000000E-03 0. -1.
        -11    1    3    3    0    0  0.12427514497E+02  0.23403188975E+02 -0.34072759133E+02  0.43163703340E+02  0.51100000000E-03 0.  1.
         12    1    3    3    0    0 -0.47983339897E+01 -0.24947833681E+02  0.25697606010E+02  0.36135652327E+02  0.00000000000E+00 0. -1.
</event>
<event>
 7    1  0.2404951E-015  0.9000768E+02  0.7816164E-02  0.1186339E+00
        -11   -1    0    0    0    0  0.00000000000E+00  0.00000000000E+00  0.45593999997E+02  0.45594000000E+02  0.51100000000E-03 0. -1.
         11   -1    0    0    0    0 -0.00000000000E+00 -0.00000000000E+00 -0.45593999997E+02  0.45594000000E+02  0.51100000000E-03 0.  1.
    9900012    2    1    2    0    0 -0.25534257063E+00  0.35613834944E+00 -0.10959523881E+01  0.90007683945E+02  0.89999944573E+02 0.  0.
         12    1    1    2    0    0  0.25534257063E+00 -0.35613834944E+00  0.10959523881E+01  0.11803160548E+01  0.00000000000E+00 0. -1.
         11    1    3    3    0    0 -0.85670825629E+01 -0.13448712104E+01 -0.56481860839E+01  0.10349182988E+02  0.51100000000E-03 0. -1.
        -11    1    3    3    0    0 -0.20021982158E+02  0.32161793108E+02  0.34671974016E+01  0.38043161850E+02  0.51100000000E-03 0.  1.
         12    1    3    3    0    0  0.28333722151E+02 -0.30460783548E+02  0.10850362942E+01  0.41615339107E+02  0.00000000000E+00 0. -1.
</event>
<event>
 7    1  0.2404951E-015  0.9000779E+02  0.7816164E-02  0.1186339E+00
        -11   -1    0    0    0    0  0.00000000000E+00  0.00000000000E+00  0.45593999997E+02  0.45594000000E+02  0.51100000000E-03 0.  1.
         11   -1    0    0    0    0 -0.00000000000E+00 -0.00000000000E+00 -0.45593999997E+02  0.45594000000E+02  0.51100000000E-03 0. -1.
    9900012    2    1    2    0    0  0.39829290302E-03  0.76364788065E+00  0.89985305101E+00  0.90007790799E+02  0.90000052838E+02 0.  0.
         12    1    1    2    0    0 -0.39829290302E-03 -0.76364788065E+00 -0.89985305101E+00  0.11802092008E+01  0.00000000000E+00 0. -1.
         11    1    3    3    0    0 -0.21839304788E+01 -0.75891525664E+01  0.45940388561E+01  0.91361907973E+01  0.51100000000E-03 0. -1.
        -11    1    3    3    0    0  0.24044109402E+02  0.69362600841E+01  0.31000327331E+02  0.39840321231E+02  0.51100000000E-03 0.  1.
         12    1    3    3    0    0 -0.21859780631E+02  0.14165403629E+01 -0.34694513136E+02  0.41031278771E+02  0.00000000000E+00 0. -1.
</event>
<event>
 7    1  0.2404951E-015  0.9000763E+02  0.7816164E-02  0.1186339E+00
        -11   -1    0    0    0    0  0.00000000000E+00  0.00000000000E+00  0.45593999997E+02  0.45594000000E+02  0.51100000000E-03 0.  1.
         11   -1    0    0    0    0 -0.00000000000E+00 -0.00000000000E+00 -0.45593999997E+02  0.45594000000E+02  0.51100000000E-03 0. -1.
    9900012    2    1    2    0    0  0.35704522389E+00 -0.57313649079E+00  0.96814548166E+00  0.90007630396E+02  0.89999890317E+02 0.  0.
         12    1    1    2    0    0 -0.35704522389E+00  0.57313649079E+00 -0.96814548166E+00  0.11803696042E+01  0.00000000000E+00 0. -1.
         11    1    3    3    0    0  0.16287137164E+02  0.16680991441E+02 -0.26747732833E+02  0.35481932366E+02  0.51100000000E-03 0. -1.
        -11    1    3    3    0    0  0.10002231582E+01  0.96064170312E+01 -0.32344694534E+01  0.10185552879E+02  0.51100000000E-03 0.  1.
        -12    1    3    3    0    0 -0.16930315098E+02 -0.26860544963E+02  0.30950347768E+02  0.44340145151E+02  0.00000000000E+00 0.  1.
</event>
<event>
 7    1  0.2404951E-015  0.9000766E+02  0.7816164E-02  0.1186339E+00
        -11   -1    0    0    0    0  0.00000000000E+00  0.00000000000E+00  0.45593999997E+02  0.45594000000E+02  0.51100000000E-03 0.  1.
         11   -1    0    0    0    0 -0.00000000000E+00 -0.00000000000E+00 -0.45593999997E+02  0.45594000000E+02  0.51100000000E-03 0. -1.
    9900012    2    1    2    0    0 -0.11510836252E+00  0.76990129825E-01  0.11721908108E+01  0.90007657375E+02  0.89999917652E+02 0.  0.
         12    1    1    2    0    0  0.11510836252E+00 -0.76990129825E-01 -0.11721908108E+01  0.11803426248E+01  0.00000000000E+00 0. -1.
         11    1    3    3    0    0 -0.23133099876E+02 -0.12875424432E+02 -0.26148085888E+02  0.37210741191E+02  0.51100000000E-03 0. -1.
        -11    1    3    3    0    0  0.14273772393E+02  0.39015917705E+01 -0.69064872058E+01  0.16329805953E+02  0.51100000000E-03 0.  1.
        -12    1    3    3    0    0  0.87442191202E+01  0.90508227910E+01  0.34226763905E+02  0.36467110231E+02  0.00000000000E+00 0.  1.
</event>
<event>
 7    1  0.2404951E-015  0.9000776E+02  0.7816164E-02  0.1186339E+00
        -11   -1    0    0    0    0  0.00000000000E+00  0.00000000000E+00  0.45593999997E+02  0.45594000000E+02  0.51100000000E-03 0.  1.
         11   -1    0    0    0    0 -0.00000000000E+00 -0.00000000000E+00 -0.45593999997E+02  0.45594000000E+02  0.51100000000E-03 0. -1.
    9900012    2    1    2    0    0  0.29160979193E+00  0.26546558773E+00  0.11124075445E+01  0.90007763247E+02  0.90000024921E+02 0.  0.
         12    1    1    2    0    0 -0.29160979193E+00 -0.26546558773E+00 -0.11124075445E+01  0.11802367534E+01  0.00000000000E+00 0. -1.
         11    1    3    3    0    0 -0.16077437915E+02  0.52552419949E+01  0.87562649432E+01  0.19046620549E+02  0.51100000000E-03 0. -1.
        -11    1    3    3    0    0  0.23075220521E+02 -0.44674980787E+01  0.26927009441E+02  0.35741966635E+02  0.51100000000E-03 0.  1.
         12    1    3    3    0    0 -0.67061728149E+01 -0.52227832849E+00 -0.34570866840E+02  0.35219176063E+02  0.00000000000E+00 0. -1.
</event>
<event>
 7    1  0.2404951E-015  0.9000759E+02  0.7816164E-02  0.1186339E+00
        -11   -1    0    0    0    0  0.00000000000E+00  0.00000000000E+00  0.45593999997E+02  0.45594000000E+02  0.51100000000E-03 0.  1.
         11   -1    0    0    0    0 -0.00000000000E+00 -0.00000000000E+00 -0.45593999997E+02  0.45594000000E+02  0.51100000000E-03 0. -1.
    9900012    2    1    2    0    0  0.21292538027E+00 -0.11361726432E+01  0.23902247994E+00  0.90007594460E+02  0.89999853907E+02 0.  0.
         12    1    1    2    0    0 -0.21292538027E+00  0.11361726432E+01 -0.23902247994E+00  0.11804055399E+01  0.00000000000E+00 0. -1.
         11    1    3    3    0    0 -0.45129470376E+01 -0.11039086467E+02  0.74594990236E+01  0.14066707040E+02  0.51100000000E-03 0. -1.
        -11    1    3    3    0    0 -0.22760117151E+02  0.10979714428E+02  0.23637819396E+02  0.34602363615E+02  0.51100000000E-03 0.  1.
         12    1    3    3    0    0  0.27485989569E+02 -0.10768006043E+01 -0.30858295940E+02  0.41338523806E+02  0.00000000000E+00 0. -1.
</event>
<event>
 7    1  0.2404951E-015  0.9000780E+02  0.7816164E-02  0.1186339E+00
        -11   -1    0    0    0    0  0.00000000000E+00  0.00000000000E+00  0.45593999997E+02  0.45594000000E+02  0.51100000000E-03 0. -1.
         11   -1    0    0    0    0 -0.00000000000E+00 -0.00000000000E+00 -0.45593999997E+02  0.45594000000E+02  0.51100000000E-03 0.  1.
    9900012    2    1    2    0    0  0.15751486675E+00 -0.11695062921E+01 -0.18041491531E-01  0.90007796036E+02  0.90000058144E+02 0.  0.
         12    1    1    2    0    0 -0.15751486675E+00  0.11695062921E+01  0.18041491531E-01  0.11802039637E+01  0.00000000000E+00 0. -1.
         11    1    3    3    0    0  0.17644029743E+01 -0.46923204270E+01  0.43398132303E+02  0.43686712814E+02  0.51100000000E-03 0. -1.
        -11    1    3    3    0    0 -0.59884740929E+01  0.34954791401E+01 -0.78003644501E+01  0.10436756306E+02  0.51100000000E-03 0.  1.
        -12    1    3    3    0    0  0.43815859853E+01  0.27334994882E-01 -0.35615809345E+02  0.35884326916E+02  0.00000000000E+00 0.  1.
</event>
<event>
 7    1  0.2404951E-015  0.9000709E+02  0.7816164E-02  0.1186340E+00
        -11   -1    0    0    0    0  0.00000000000E+00  0.00000000000E+00  0.45593999997E+02  0.45594000000E+02  0.51100000000E-03 0.  1.
         11   -1    0    0    0    0 -0.00000000000E+00 -0.00000000000E+00 -0.45593999997E+02  0.45594000000E+02  0.51100000000E-03 0. -1.
    9900012    2    1    2    0    0 -0.75425943943E+00  0.28558878298E-01  0.90819730297E+00  0.90007091345E+02  0.89999344148E+02 0.  0.
         12    1    1    2    0    0  0.75425943943E+00 -0.28558878298E-01 -0.90819730297E+00  0.11809086555E+01  0.00000000000E+00 0. -1.
         11    1    3    3    0    0 -0.53165196204E+01  0.70560586591E+00  0.10911681665E+02  0.12158456215E+02  0.51100000000E-03 0. -1.
        -11    1    3    3    0    0 -0.11294263199E+02 -0.10694998345E+02  0.29929594368E+02  0.33730164395E+02  0.51100000000E-03 0.  1.
         12    1    3    3    0    0  0.15856523380E+02  0.10017951357E+02 -0.39933078730E+02  0.44118470735E+02  0.00000000000E+00 0. -1.
</event>
<event>
 7    1  0.2404951E-015  0.9000773E+02  0.7816164E-02  0.1186339E+00
        -11   -1    0    0    0    0  0.00000000000E+00  0.00000000000E+00  0.45593999997E+02  0.45594000000E+02  0.51100000000E-03 0. -1.
         11   -1    0    0    0    0 -0.00000000000E+00 -0.00000000000E+00 -0.45593999997E+02  0.45594000000E+02  0.51100000000E-03 0.  1.
    9900012    2    1    2    0    0 -0.82468837018E+00 -0.81949342244E+00  0.20336256569E+00  0.90007730238E+02  0.89999991477E+02 0.  0.
         12    1    1    2    0    0  0.82468837018E+00  0.81949342244E+00 -0.20336256569E+00  0.11802697617E+01  0.00000000000E+00 0. -1.
         11    1    3    3    0    0  0.11710315858E+02  0.33601332229E+01 -0.11647318014E+02  0.16854732568E+02  0.51100000000E-03 0.  1.
        -11    1    3    3    0    0  0.23420918779E+02 -0.10665505961E+02 -0.13132170949E+02  0.28891977570E+02  0.51100000000E-03 0. -1.
         12    1    3    3    0    0 -0.35955923007E+02  0.64858793157E+01  0.24982851528E+02  0.44261020100E+02  0.00000000000E+00 0. -1.
</event>
<event>
 7    1  0.2404951E-015  0.9000778E+02  0.7816164E-02  0.1186339E+00
        -11   -1    0    0    0    0  0.00000000000E+00  0.00000000000E+00  0.45593999997E+02  0.45594000000E+02  0.51100000000E-03 0. -1.
         11   -1    0    0    0    0 -0.00000000000E+00 -0.00000000000E+00 -0.45593999997E+02  0.45594000000E+02  0.51100000000E-03 0.  1.
    9900012    2    1    2    0    0  0.92131111583E+00 -0.32955262615E+00 -0.65992997027E+00  0.90007776855E+02  0.90000038710E+02 0.  0.
         12    1    1    2    0    0 -0.92131111583E+00  0.32955262615E+00  0.65992997027E+00  0.11802231447E+01  0.00000000000E+00 0. -1.
         11    1    3    3    0    0 -0.12925638654E+02  0.12314537675E+02  0.28735562210E+02  0.33829757737E+02  0.51100000000E-03 0. -1.
        -11    1    3    3    0    0 -0.33497459982E+01  0.88649690631E+01  0.60867177700E+01  0.11263063891E+02  0.51100000000E-03 0.  1.
        -12    1    3    3    0    0  0.17196695768E+02 -0.21509059364E+02 -0.35482209950E+02  0.44914955227E+02  0.00000000000E+00 0.  1.
</event>
<event>
 7    1  0.2404951E-015  0.9000771E+02  0.7816164E-02  0.1186339E+00
        -11   -1    0    0    0    0  0.00000000000E+00  0.00000000000E+00  0.45593999997E+02  0.45594000000E+02  0.51100000000E-03 0.  1.
         11   -1    0    0    0    0 -0.00000000000E+00 -0.00000000000E+00 -0.45593999997E+02  0.45594000000E+02  0.51100000000E-03 0. -1.
    9900012    2    1    2    0    0 -0.61202542801E-01 -0.11774850855E+01  0.53584542901E-01  0.90007708434E+02  0.89999969385E+02 0.  0.
         12    1    1    2    0    0  0.61202542801E-01  0.11774850855E+01 -0.53584542901E-01  0.11802915661E+01  0.00000000000E+00 0. -1.
         11    1    3    3    0    0 -0.95945560622E+01  0.47585027466E+01  0.26656695540E+01  0.11036514343E+02  0.51100000000E-03 0. -1.
        -11    1    3    3    0    0 -0.18349151901E+02  0.22525209678E+02  0.17934040350E+02  0.34142440599E+02  0.51100000000E-03 0.  1.
         12    1    3    3    0    0  0.27882505421E+02 -0.28461197510E+02 -0.20546125361E+02  0.44828753491E+02  0.00000000000E+00 0. -1.
</event>
<event>
 7    1  0.2404951E-015  0.9000799E+02  0.7816164E-02  0.1186339E+00
        -11   -1    0    0    0    0  0.00000000000E+00  0.00000000000E+00  0.45593999997E+02  0.45594000000E+02  0.51100000000E-03 0. -1.
         11   -1    0    0    0    0 -0.00000000000E+00 -0.00000000000E+00 -0.45593999997E+02  0.45594000000E+02  0.51100000000E-03 0.  1.
    9900012    2    1    2    0    0  0.22227823744E+00  0.56918336304E+00 -0.10094809184E+01  0.90007987695E+02  0.90000252332E+02 0.  0.
         12    1    1    2    0    0 -0.22227823744E+00 -0.56918336304E+00  0.10094809184E+01  0.11800123051E+01  0.00000000000E+00 0. -1.
         11    1    3    3    0    0 -0.28721026254E+02 -0.10292316191E+02 -0.55706806764E+01  0.31013893744E+02  0.51100000000E-03 0. -1.
        -11    1    3    3    0    0 -0.51272419414E+01 -0.55803522213E+01 -0.14703112567E+02  0.16541174694E+02  0.51100000000E-03 0.  1.
         12    1    3    3    0    0  0.34070546433E+02  0.16441851776E+02  0.19264312326E+02  0.42452919257E+02  0.00000000000E+00 0. -1.
</event>
<event>
 7    1  0.2404951E-015  0.9000763E+02  0.7816164E-02  0.1186339E+00
        -11   -1    0    0    0    0  0.00000000000E+00  0.00000000000E+00  0.45593999997E+02  0.45594000000E+02  0.51100000000E-03 0.  1.
         11   -1    0    0    0    0 -0.00000000000E+00 -0.00000000000E+00 -0.45593999997E+02  0.45594000000E+02  0.51100000000E-03 0. -1.
    9900012    2    1    2    0    0 -0.11773411497E+01  0.84410663324E-01 -0.26638450455E-02  0.90007633769E+02  0.89999893735E+02 0.  0.
         12    1    1    2    0    0  0.11773411497E+01 -0.84410663324E-01  0.26638450455E-02  0.11803662309E+01  0.00000000000E+00 0. -1.
         11    1    3    3    0    0 -0.36174063080E+02  0.12962248766E+02 -0.10826158548E+02  0.39922280020E+02  0.51100000000E-03 0. -1.
        -11    1    3    3    0    0 -0.23652977416E+01  0.46746049282E+01  0.68373413720E+01  0.86136985053E+01  0.51100000000E-03 0.  1.
        -12    1    3    3    0    0  0.37362019672E+02 -0.17552443031E+02  0.39861533307E+01  0.41471655244E+02  0.00000000000E+00 0.  1.
</event>
<event>
 7    1  0.2404951E-015  0.9000773E+02  0.7816164E-02  0.1186339E+00
        -11   -1    0    0    0    0  0.00000000000E+00  0.00000000000E+00  0.45593999997E+02  0.45594000000E+02  0.51100000000E-03 0.  1.
         11   -1    0    0    0    0 -0.00000000000E+00 -0.00000000000E+00 -0.45593999997E+02  0.45594000000E+02  0.51100000000E-03 0. -1.
    9900012    2    1    2    0    0  0.26970814432E+00  0.11451894596E+01  0.94028860548E-01  0.90007727655E+02  0.89999988860E+02 0.  0.
         12    1    1    2    0    0 -0.26970814432E+00 -0.11451894596E+01 -0.94028860548E-01  0.11802723448E+01  0.00000000000E+00 0. -1.
         11    1    3    3    0    0  0.58008622270E+01  0.15386346875E+01 -0.68458468938E+01  0.91040111617E+01  0.51100000000E-03 0. -1.
        -11    1    3    3    0    0  0.26654932039E+02  0.20366676369E+02  0.21594930927E+02  0.39895212123E+02  0.51100000000E-03 0.  1.
         12    1    3    3    0    0 -0.32186086122E+02 -0.20760121597E+02 -0.14655055173E+02  0.41008504370E+02  0.00000000000E+00 0. -1.
</event>
<event>
 7    1  0.2404951E-015  0.9000723E+02  0.7816164E-02  0.1186340E+00
        -11   -1    0    0    0    0  0.00000000000E+00  0.00000000000E+00  0.45593999997E+02  0.45594000000E+02  0.51100000000E-03 0.  1.
         11   -1    0    0    0    0 -0.00000000000E+00 -0.00000000000E+00 -0.45593999997E+02  0.45594000000E+02  0.51100000000E-03 0. -1.
    9900012    2    1    2    0    0 -0.76677345651E+00  0.87750653401E+00 -0.19041629062E+00  0.90007230076E+02  0.89999484711E+02 0.  0.
         12    1    1    2    0    0  0.76677345651E+00 -0.87750653401E+00  0.19041629062E+00  0.11807699245E+01  0.00000000000E+00 0. -1.
         11    1    3    3    0    0 -0.40319697963E+02  0.15249349787E+02 -0.26740611907E+01  0.43189944620E+02  0.51100000000E-03 0. -1.
        -11    1    3    3    0    0  0.62210343680E+01  0.48848356795E+01 -0.17178748301E+01  0.80940708185E+01  0.51100000000E-03 0.  1.
        -12    1    3    3    0    0  0.33331890139E+02 -0.19256678933E+02  0.42015197302E+01  0.38723214637E+02  0.00000000000E+00 0.  1.
</event>
<event>
 7    1  0.2404951E-015  0.9000772E+02  0.7816164E-02  0.1186339E+00
        -11   -1    0    0    0    0  0.00000000000E+00  0.00000000000E+00  0.45593999997E+02  0.45594000000E+02  0.51100000000E-03 0. -1.
         11   -1    0    0    0    0 -0.00000000000E+00 -0.00000000000E+00 -0.45593999997E+02  0.45594000000E+02  0.51100000000E-03 0.  1.
    9900012    2    1    2    0    0  0.13030706739E-01 -0.50136952723E-01 -0.11791437078E+01  0.90007718933E+02  0.89999980023E+02 0.  0.
         12    1    1    2    0    0 -0.13030706739E-01  0.50136952723E-01  0.11791437078E+01  0.11802810669E+01  0.00000000000E+00 0. -1.
         11    1    3    3    0    0 -0.38584020893E+01  0.64829289064E+01  0.99466332793E+01  0.12484035715E+02  0.51100000000E-03 0. -1.
        -11    1    3    3    0    0 -0.31119797352E+02  0.13422507594E+02 -0.14987949284E+02  0.37057308609E+02  0.51100000000E-03 0.  1.
         12    1    3    3    0    0  0.34991230148E+02 -0.19955573453E+02  0.38621722968E+01  0.40466374609E+02  0.00000000000E+00 0. -1.
</event>
<event>
 7    1  0.2404951E-015  0.9000780E+02  0.7816164E-02  0.1186339E+00
        -11   -1    0    0    0    0  0.00000000000E+00  0.00000000000E+00  0.45593999997E+02  0.45594000000E+02  0.51100000000E-03 0.  1.
         11   -1    0    0    0    0 -0.00000000000E+00 -0.00000000000E+00 -0.45593999997E+02  0.45594000000E+02  0.51100000000E-03 0. -1.
    9900012    2    1    2    0    0  0.38664463923E+00  0.10865242199E+01  0.25067710321E+00  0.90007801725E+02  0.90000063908E+02 0.  0.
         12    1    1    2    0    0 -0.38664463923E+00 -0.10865242199E+01 -0.25067710321E+00  0.11801982747E+01  0.00000000000E+00 0. -1.
         11    1    3    3    0    0  0.72215304704E+01 -0.38696310190E+02 -0.10981831009E+02  0.40867536471E+02  0.51100000000E-03 0. -1.
        -11    1    3    3    0    0  0.17644298730E+00  0.26198210901E+01  0.11012286631E+02  0.11321000476E+02  0.51100000000E-03 0.  1.
        -12    1    3    3    0    0 -0.70113288185E+01  0.37163013320E+02  0.22022148069E+00  0.37819264778E+02  0.00000000000E+00 0.  1.
</event>
<event>
 7    1  0.2404951E-015  0.9000770E+02  0.7816164E-02  0.1186339E+00
        -11   -1    0    0    0    0  0.00000000000E+00  0.00000000000E+00  0.45593999997E+02  0.45594000000E+02  0.51100000000E-03 0. -1.
         11   -1    0    0    0    0 -0.00000000000E+00 -0.00000000000E+00 -0.45593999997E+02  0.45594000000E+02  0.51100000000E-03 0.  1.
    9900012    2    1    2    0    0 -0.91390835695E+00  0.29513861176E+00 -0.68613074214E+00  0.90007698903E+02  0.89999959728E+02 0.  0.
         12    1    1    2    0    0  0.91390835695E+00 -0.29513861176E+00  0.68613074214E+00  0.11803010973E+01  0.00000000000E+00 0. -1.
         11    1    3    3    0    0 -0.39755958065E+01  0.52134561528E+00  0.76426096333E+01  0.86305646128E+01  0.51100000000E-03 0. -1.
        -11    1    3    3    0    0  0.35438481908E+02  0.21941139545E+02 -0.31732137407E+01  0.41801541720E+02  0.51100000000E-03 0.  1.
         12    1    3    3    0    0 -0.32376794458E+02 -0.22167346549E+02 -0.51555266348E+01  0.39575592570E+02  0.00000000000E+00 0. -1.
</event>
<event>
 7    1  0.2404951E-015  0.9000779E+02  0.7816164E-02  0.1186339E+00
        -11   -1    0    0    0    0  0.00000000000E+00  0.00000000000E+00  0.45593999997E+02  0.45594000000E+02  0.51100000000E-03 0.  1.
         11   -1    0    0    0    0 -0.00000000000E+00 -0.00000000000E+00 -0.45593999997E+02  0.45594000000E+02  0.51100000000E-03 0. -1.
    9900012    2    1    2    0    0  0.54724015703E+00 -0.10297463670E+01  0.18181778585E+00  0.90007785156E+02  0.90000047120E+02 0.  0.
         12    1    1    2    0    0 -0.54724015703E+00  0.10297463670E+01 -0.18181778585E+00  0.11802148436E+01  0.00000000000E+00 0. -1.
         11    1    3    3    0    0  0.67894777767E+01  0.70096391003E+00  0.29612756935E+01  0.74402629576E+01  0.51100000000E-03 0. -1.
        -11    1    3    3    0    0  0.28029837178E+02 -0.26407881804E+02 -0.98443741751E+01  0.39748706856E+02  0.51100000000E-03 0.  1.
         12    1    3    3    0    0 -0.34272074797E+02  0.24677171527E+02  0.70649162675E+01  0.42818815343E+02  0.00000000000E+00 0. -1.
</event>
<event>
 7    1  0.2404951E-015  0.9000771E+02  0.7816164E-02  0.1186339E+00
        -11   -1    0    0    0    0  0.00000000000E+00  0.00000000000E+00  0.45593999997E+02  0.45594000000E+02  0.51100000000E-03 0.  1.
         11   -1    0    0    0    0 -0.00000000000E+00 -0.00000000000E+00 -0.45593999997E+02  0.45594000000E+02  0.51100000000E-03 0. -1.
    9900012    2    1    2    0    0 -0.10130196139E+01 -0.17679368791E+00  0.57933361707E+00  0.90007706737E+02  0.89999967666E+02 0.  0.
         12    1    1    2    0    0  0.10130196139E+01  0.17679368791E+00 -0.57933361707E+00  0.11802932628E+01  0.00000000000E+00 0. -1.
         11    1    3    3    0    0 -0.15234289573E+02 -0.27917100750E+02 -0.25659709304E+02  0.40864027884E+02  0.51100000000E-03 0. -1.
        -11    1    3    3    0    0  0.80075305850E+01 -0.37322560119E+01  0.94477095261E+01  0.12934817222E+02  0.51100000000E-03 0.  1.
        -12    1    3    3    0    0  0.62137393738E+01  0.31472563074E+02  0.16791333395E+02  0.36208861631E+02  0.00000000000E+00 0.  1.
</event>
<event>
 7    1  0.2404951E-015  0.9000772E+02  0.7816164E-02  0.1186339E+00
        -11   -1    0    0    0    0  0.00000000000E+00  0.00000000000E+00  0.45593999997E+02  0.45594000000E+02  0.51100000000E-03 0.  1.
         11   -1    0    0    0    0 -0.00000000000E+00 -0.00000000000E+00 -0.45593999997E+02  0.45594000000E+02  0.51100000000E-03 0. -1.
    9900012    2    1    2    0    0  0.10304165716E+01  0.54289176658E+00  0.19125590347E+00  0.90007716728E+02  0.89999977789E+02 0.  0.
         12    1    1    2    0    0 -0.10304165716E+01 -0.54289176658E+00 -0.19125590347E+00  0.11802832719E+01  0.00000000000E+00 0. -1.
         11    1    3    3    0    0  0.24627488592E+02  0.13575282560E+01 -0.28823092601E+02  0.37935824028E+02  0.51100000000E-03 0. -1.
        -11    1    3    3    0    0  0.71649816625E+01 -0.73992529278E+00 -0.28821316884E+01  0.77582945931E+01  0.51100000000E-03 0.  1.
        -12    1    3    3    0    0 -0.30762053683E+02 -0.74711196653E-01  0.31896480192E+02  0.44313598107E+02  0.00000000000E+00 0.  1.
</event>
<event>
 7    1  0.2404951E-015  0.9000759E+02  0.7816164E-02  0.1186339E+00
        -11   -1    0    0    0    0  0.00000000000E+00  0.00000000000E+00  0.45593999997E+02  0.45594000000E+02  0.51100000000E-03 0. -1.
         11   -1    0    0    0    0 -0.00000000000E+00 -0.00000000000E+00 -0.45593999997E+02  0.45594000000E+02  0.51100000000E-03 0.  1.
    9900012    2    1    2    0    0 -0.24330395220E+00  0.69785889617E+00 -0.92040887515E+00  0.90007594837E+02  0.89999854288E+02 0.  0.
         12    1    1    2    0    0  0.24330395220E+00 -0.69785889617E+00  0.92040887515E+00  0.11804051633E+01  0.00000000000E+00 0. -1.
         11    1    3    3    0    0 -0.52796359747E+01 -0.39541672710E+00  0.68017754376E+01  0.86194582067E+01  0.51100000000E-03 0. -1.
        -11    1    3    3    0    0  0.17711625865E+00  0.35900833804E+02 -0.23453209336E+02  0.42883030052E+02  0.51100000000E-03 0.  1.
         12    1    3    3    0    0  0.48592157638E+01 -0.34807558181E+02  0.15731025023E+02  0.38505106578E+02  0.00000000000E+00 0. -1.
</event>
<event>
 7    1  0.2404951E-015  0.9000770E+02  0.7816164E-02  0.1186339E+00
        -11   -1    0    0    0    0  0.00000000000E+00  0.00000000000E+00  0.45593999997E+02  0.45594000000E+02  0.51100000000E-03 0. -1.
         11   -1    0    0    0    0 -0.00000000000E+00 -0.00000000000E+00 -0.45593999997E+02  0.45594000000E+02  0.51100000000E-03 0.  1.
    9900012    2    1    2    0    0 -0.78213316883E+00 -0.85350583848E+00  0.22998548763E+00  0.90007704344E+02  0.89999965242E+02 0.  0.
         12    1    1    2    0    0  0.78213316883E+00  0.85350583848E+00 -0.22998548763E+00  0.11802956556E+01  0.00000000000E+00 0. -1.
         11    1    3    3    0    0 -0.52548309524E+01 -0.97236979768E+01  0.11958699734E+02  0.16284165631E+02  0.51100000000E-03 0. -1.
        -11    1    3    3    0    0 -0.12215335055E+02  0.10122512169E+02 -0.38788305710E+02  0.41907187012E+02  0.51100000000E-03 0.  1.
         12    1    3    3    0    0  0.16688032839E+02 -0.12523200304E+01  0.27059591463E+02  0.31816351702E+02  0.00000000000E+00 0. -1.
</event>
<event>
 7    1  0.2404951E-015  0.9000784E+02  0.7816164E-02  0.1186339E+00
        -11   -1    0    0    0    0  0.00000000000E+00  0.00000000000E+00  0.45593999997E+02  0.45594000000E+02  0.51100000000E-03 0.  1.
         11   -1    0    0    0    0 -0.00000000000E+00 -0.00000000000E+00 -0.45593999997E+02  0.45594000000E+02  0.51100000000E-03 0. -1.
    9900012    2    1    2    0    0  0.18827194728E+00 -0.11630985817E+01 -0.67387607658E-01  0.90007836568E+02  0.90000099210E+02 0.  0.
         12    1    1    2    0    0 -0.18827194728E+00  0.11630985817E+01  0.67387607658E-01  0.11801634322E+01  0.00000000000E+00 0. -1.
         11    1    3    3    0    0 -0.28817704105E+02  0.10037221150E+01 -0.21612457206E+02  0.36035618973E+02  0.51100000000E-03 0. -1.
        -11    1    3    3    0    0 -0.84434977422E+01 -0.63899839280E-01 -0.32076158542E+01  0.90324712588E+01  0.51100000000E-03 0.  1.
        -12    1    3    3    0    0  0.37449473795E+02 -0.21029208575E+01  0.24752685453E+02  0.44939746336E+02  0.00000000000E+00 0.  1.
</event>
<event>
 7    1  0.2404951E-015  0.9000773E+02  0.7816164E-02  0.1186339E+00
        -11   -1    0    0    0    0  0.00000000000E+00  0.00000000000E+00  0.45593999997E+02  0.45594000000E+02  0.51100000000E-03 0. -1.
         11   -1    0    0    0    0 -0.00000000000E+00 -0.00000000000E+00 -0.45593999997E+02  0.45594000000E+02  0.51100000000E-03 0.  1.
    9900012    2    1    2    0    0  0.85341800894E-01  0.49746494581E+00 -0.10669087238E+01  0.90007725108E+02  0.89999986280E+02 0.  0.
         12    1    1    2    0    0 -0.85341800894E-01 -0.49746494581E+00  0.10669087238E+01  0.11802748918E+01  0.00000000000E+00 0. -1.
         11    1    3    3    0    0 -0.19481015756E+01 -0.29008242548E+01 -0.90274313016E+01  0.96801031643E+01  0.51100000000E-03 0. -1.
        -11    1    3    3    0    0  0.13802819025E+02 -0.27359920449E+02 -0.20443451319E+02  0.36837722000E+02  0.51100000000E-03 0.  1.
         12    1    3    3    0    0 -0.11769375649E+02  0.30758209650E+02  0.28403973897E+02  0.43489899944E+02  0.00000000000E+00 0. -1.
</event>
<event>
 7    1  0.2404951E-015  0.9000774E+02  0.7816164E-02  0.1186339E+00
        -11   -1    0    0    0    0  0.00000000000E+00  0.00000000000E+00  0.45593999997E+02  0.45594000000E+02  0.51100000000E-03 0.  1.
         11   -1    0    0    0    0 -0.00000000000E+00 -0.00000000000E+00 -0.45593999997E+02  0.45594000000E+02  0.51100000000E-03 0. -1.
    9900012    2    1    2    0    0  0.70499755110E+00 -0.62563609576E+00  0.71034019890E+00  0.90007735085E+02  0.89999996388E+02 0.  0.
         12    1    1    2    0    0 -0.70499755110E+00  0.62563609576E+00 -0.71034019890E+00  0.11802649150E+01  0.00000000000E+00 0. -1.
         11    1    3    3    0    0 -0.30119752081E+02  0.12473194170E+01 -0.19061046142E+02  0.35666213024E+02  0.51100000000E-03 0. -1.
        -11    1    3    3    0    0 -0.87767258205E+01  0.53411725675E+01  0.53440314032E+01  0.11580920189E+02  0.51100000000E-03 0.  1.
        -12    1    3    3    0    0  0.39601475453E+02 -0.72141280802E+01  0.14427354938E+02  0.42760601872E+02  0.00000000000E+00 0.  1.
</event>
<event>
 7    1  0.2404951E-015  0.9000773E+02  0.7816164E-02  0.1186339E+00
        -11   -1    0    0    0    0  0.00000000000E+00  0.00000000000E+00  0.45593999997E+02  0.45594000000E+02  0.51100000000E-03 0.  1.
         11   -1    0    0    0    0 -0.00000000000E+00 -0.00000000000E+00 -0.45593999997E+02  0.45594000000E+02  0.51100000000E-03 0. -1.
    9900012    2    1    2    0    0 -0.31649608289E+00  0.69721887996E+00  0.89819268867E+00  0.90007731368E+02  0.89999992622E+02 0.  0.
         12    1    1    2    0    0  0.31649608289E+00 -0.69721887996E+00 -0.89819268867E+00  0.11802686317E+01  0.00000000000E+00 0. -1.
         11    1    3    3    0    0  0.50380131600E+01  0.89289437584E+01 -0.22454198924E+01  0.10495214338E+02  0.51100000000E-03 0. -1.
        -11    1    3    3    0    0  0.28818064939E+02  0.15342265789E+02  0.15580202850E+02  0.36174697061E+02  0.51100000000E-03 0.  1.
         12    1    3    3    0    0 -0.34172574182E+02 -0.23573990668E+02 -0.12436590269E+02  0.43337819969E+02  0.00000000000E+00 0. -1.
</event>
<event>
 7    1  0.2404951E-015  0.9000762E+02  0.7816164E-02  0.1186339E+00
        -11   -1    0    0    0    0  0.00000000000E+00  0.00000000000E+00  0.45593999997E+02  0.45594000000E+02  0.51100000000E-03 0.  1.
         11   -1    0    0    0    0 -0.00000000000E+00 -0.00000000000E+00 -0.45593999997E+02  0.45594000000E+02  0.51100000000E-03 0. -1.
    9900012    2    1    2    0    0 -0.29958612927E-01  0.30043337535E+00  0.11411159967E+01  0.90007617245E+02  0.89999876992E+02 0.  0.
         12    1    1    2    0    0  0.29958612927E-01 -0.30043337535E+00 -0.11411159967E+01  0.11803827555E+01  0.00000000000E+00 0. -1.
         11    1    3    3    0    0 -0.30183860238E+02  0.12007728500E+02 -0.14294852255E+02  0.35490756034E+02  0.51100000000E-03 0. -1.
        -11    1    3    3    0    0 -0.98233959584E+01 -0.77836668347E+00 -0.10585231573E+01  0.99108745520E+01  0.51100000000E-03 0.  1.
        -12    1    3    3    0    0  0.39977297583E+02 -0.10928928441E+02  0.16494491409E+02  0.44605986659E+02  0.00000000000E+00 0.  1.
</event>
<event>
 7    1  0.2404951E-015  0.9000772E+02  0.7816164E-02  0.1186339E+00
        -11   -1    0    0    0    0  0.00000000000E+00  0.00000000000E+00  0.45593999997E+02  0.45594000000E+02  0.51100000000E-03 0.  1.
         11   -1    0    0    0    0 -0.00000000000E+00 -0.00000000000E+00 -0.45593999997E+02  0.45594000000E+02  0.51100000000E-03 0. -1.
    9900012    2    1    2    0    0  0.38243717501E+00  0.73423719825E+00  0.84124611335E+00  0.90007721440E+02  0.89999982563E+02 0.  0.
         12    1    1    2    0    0 -0.38243717501E+00 -0.73423719825E+00 -0.84124611335E+00  0.11802785601E+01  0.00000000000E+00 0. -1.
         11    1    3    3    0    0 -0.65956643896E+01 -0.31991834730E+02 -0.26897384844E+02  0.42313704515E+02  0.51100000000E-03 0. -1.
        -11    1    3    3    0    0  0.72070572993E+01  0.12696317408E+02  0.14896624746E+01  0.14675055202E+02  0.51100000000E-03 0.  1.
        -12    1    3    3    0    0 -0.22895573470E+00  0.20029754520E+02  0.26248968482E+02  0.33018961723E+02  0.00000000000E+00 0.  1.
</event>
<event>
 7    1  0.2404951E-015  0.9000760E+02  0.7816164E-02  0.1186339E+00
        -11   -1    0    0    0    0  0.00000000000E+00  0.00000000000E+00  0.45593999997E+02  0.45594000000E+02  0.51100000000E-03 0. -1.
         11   -1    0    0    0    0 -0.00000000000E+00 -0.00000000000E+00 -0.45593999997E+02  0.45594000000E+02  0.51100000000E-03 0.  1.
    9900012    2    1    2    0    0  0.56112218556E+00  0.90185120098E-01 -0.10345755834E+01  0.90007602567E+02  0.89999862120E+02 0.  0.
         12    1    1    2    0    0 -0.56112218556E+00 -0.90185120098E-01  0.10345755834E+01  0.11803974334E+01  0.00000000000E+00 0. -1.
         11    1    3    3    0    0 -0.40414105773E+02 -0.91993290489E+00 -0.10748815326E+02  0.41829215307E+02  0.51100000000E-03 0. -1.
        -11    1    3    3    0    0  0.10884931054E+02  0.10978477098E+02  0.39996814436E+01  0.15968911527E+02  0.51100000000E-03 0.  1.
        -12    1    3    3    0    0  0.30090296905E+02 -0.99683590732E+01  0.57145582987E+01  0.32209475733E+02  0.00000000000E+00 0.  1.
</event>
<event>
 7    1  0.2404951E-015  0.9000761E+02  0.7816164E-02  0.1186339E+00
        -11   -1    0    0    0    0  0.00000000000E+00  0.00000000000E+00  0.45593999997E+02  0.45594000000E+02  0.51100000000E-03 0.  1.
         11   -1    0    0    0    0 -0.00000000000E+00 -0.00000000000E+00 -0.45593999997E+02  0.45594000000E+02  0.51100000000E-03 0. -1.
    9900012    2    1    2    0    0 -0.53816980704E+00 -0.10294617779E+01 -0.20953169426E+00  0.90007609461E+02  0.89999869106E+02 0.  0.
         12    1    1    2    0    0  0.53816980704E+00  0.10294617779E+01  0.20953169426E+00  0.11803905388E+01  0.00000000000E+00 0. -1.
         11    1    3    3    0    0  0.96592776625E+01 -0.97817418098E+01 -0.36198392285E+02  0.38720895161E+02  0.51100000000E-03 0. -1.
        -11    1    3    3    0    0 -0.24674638611E+01 -0.49112205079E+01 -0.49777157881E+01  0.74152626057E+01  0.51100000000E-03 0.  1.
        -12    1    3    3    0    0 -0.77299836084E+01  0.13663500540E+02  0.40966576379E+02  0.43871451695E+02  0.00000000000E+00 0.  1.
</event>
<event>
 7    1  0.2404951E-015  0.9000774E+02  0.7816164E-02  0.1186339E+00
        -11   -1    0    0    0    0  0.00000000000E+00  0.00000000000E+00  0.45593999997E+02  0.45594000000E+02  0.51100000000E-03 0. -1.
         11   -1    0    0    0    0 -0.00000000000E+00 -0.00000000000E+00 -0.45593999997E+02  0.45594000000E+02  0.51100000000E-03 0.  1.
    9900012    2    1    2    0    0  0.36104331685E+00  0.11146673540E+01  0.14204757079E+00  0.90007740241E+02  0.90000001612E+02 0.  0.
         12    1    1    2    0    0 -0.36104331685E+00 -0.11146673540E+01 -0.14204757079E+00  0.11802597591E+01  0.00000000000E+00 0. -1.
         11    1    3    3    0    0  0.12614293499E+02 -0.13316697751E+02  0.30762126165E+02  0.35815684356E+02  0.51100000000E-03 0. -1.
        -11    1    3    3    0    0 -0.64234677490E+01  0.20887380977E+02  0.52091276336E+00  0.21858979216E+02  0.51100000000E-03 0.  1.
        -12    1    3    3    0    0 -0.58297824329E+01 -0.64560158716E+01 -0.31140991357E+02  0.32333076669E+02  0.00000000000E+00 0.  1.
</event>
<event>
 7    1  0.2404951E-015  0.9000759E+02  0.7816164E-02  0.1186339E+00
        -11   -1    0    0    0    0  0.00000000000E+00  0.00000000000E+00  0.45593999997E+02  0.45594000000E+02  0.51100000000E-03 0. -1.
         11   -1    0    0    0    0 -0.00000000000E+00 -0.00000000000E+00 -0.45593999997E+02  0.45594000000E+02  0.51100000000E-03 0.  1.
    9900012    2    1    2    0    0 -0.20879824647E+00 -0.75014212078E-01 -0.11593755277E+01  0.90007586744E+02  0.89999846089E+02 0.  0.
         12    1    1    2    0    0  0.20879824647E+00  0.75014212078E-01  0.11593755277E+01  0.11804132556E+01  0.00000000000E+00 0. -1.
         11    1    3    3    0    0  0.35747943179E+02 -0.13282806261E+02  0.67782617779E+01  0.38733618688E+02  0.51100000000E-03 0. -1.
        -11    1    3    3    0    0  0.40597776797E+01  0.70155984273E+01 -0.70954125614E+01  0.10772432213E+02  0.51100000000E-03 0.  1.
        -12    1    3    3    0    0 -0.40016519105E+02  0.61921936216E+01 -0.84222474426E+00  0.40501535843E+02  0.00000000000E+00 0.  1.
</event>
<event>
 7    1  0.2404951E-015  0.9000779E+02  0.7816164E-02  0.1186339E+00
        -11   -1    0    0    0    0  0.00000000000E+00  0.00000000000E+00  0.45593999997E+02  0.45594000000E+02  0.51100000000E-03 0. -1.
         11   -1    0    0    0    0 -0.00000000000E+00 -0.00000000000E+00 -0.45593999997E+02  0.45594000000E+02  0.51100000000E-03 0.  1.
    9900012    2    1    2    0    0 -0.18809096280E+00 -0.36368271171E-01 -0.11645625518E+01  0.90007785274E+02  0.90000047240E+02 0.  0.
         12    1    1    2    0    0  0.18809096280E+00  0.36368271171E-01  0.11645625518E+01  0.11802147255E+01  0.00000000000E+00 0. -1.
         11    1    3    3    0    0 -0.75630063726E+01  0.58353271449E+01 -0.31774870298E+01  0.10067101488E+02  0.51100000000E-03 0. -1.
        -11    1    3    3    0    0 -0.12331568423E+02 -0.17532030485E+02 -0.32254425304E+02  0.38727091611E+02  0.51100000000E-03 0.  1.
         12    1    3    3    0    0  0.19706483832E+02  0.11660335069E+02  0.34267349782E+02  0.41213592176E+02  0.00000000000E+00 0. -1.
</event>
<event>
 7    1  0.2404951E-015  0.9000773E+02  0.7816164E-02  0.1186339E+00
        -11   -1    0    0    0    0  0.00000000000E+00  0.00000000000E+00  0.45593999997E+02  0.45594000000E+02  0.51100000000E-03 0.  1.
         11   -1    0    0    0    0 -0.00000000000E+00 -0.00000000000E+00 -0.45593999997E+02  0.45594000000E+02  0.51100000000E-03 0. -1.
    9900012    2    1    2    0    0 -0.49298483343E+00  0.10136587450E+01 -0.34998663240E+00  0.90007733615E+02  0.89999994898E+02 0.  0.
         12    1    1    2    0    0  0.49298483343E+00 -0.10136587450E+01  0.34998663240E+00  0.11802663853E+01  0.00000000000E+00 0. -1.
         11    1    3    3    0    0  0.81390042507E+01 -0.30465931022E+02 -0.16695548250E+02  0.35681335105E+02  0.51100000000E-03 0. -1.
        -11    1    3    3    0    0 -0.11588162701E+01 -0.65737791832E+01 -0.65001339375E+01  0.93171438416E+01  0.51100000000E-03 0.  1.
        -12    1    3    3    0    0 -0.74731728140E+01  0.38053368950E+02  0.22845695555E+02  0.45009254668E+02  0.00000000000E+00 0.  1.
</event>
<event>
 7    1  0.2404951E-015  0.9000772E+02  0.7816164E-02  0.1186339E+00
        -11   -1    0    0    0    0  0.00000000000E+00  0.00000000000E+00  0.45593999997E+02  0.45594000000E+02  0.51100000000E-03 0. -1.
         11   -1    0    0    0    0 -0.00000000000E+00 -0.00000000000E+00 -0.45593999997E+02  0.45594000000E+02  0.51100000000E-03 0.  1.
    9900012    2    1    2    0    0 -0.40847949334E+00  0.44107832235E+00  0.10157040793E+01  0.90007720220E+02  0.89999981327E+02 0.  0.
         12    1    1    2    0    0  0.40847949334E+00 -0.44107832235E+00 -0.10157040793E+01  0.11802797802E+01  0.00000000000E+00 0. -1.
         11    1    3    3    0    0  0.24103353994E+01  0.30571597158E+02  0.16546390587E+02  0.34845592422E+02  0.51100000000E-03 0. -1.
        -11    1    3    3    0    0  0.18095211970E+01  0.79903348225E+01  0.68816631042E+01  0.10699397407E+02  0.51100000000E-03 0.  1.
        -12    1    3    3    0    0 -0.46283360897E+01 -0.38120853658E+02 -0.22412349612E+02  0.44462730390E+02  0.00000000000E+00 0.  1.
</event>
<event>
 7    1  0.2404951E-015  0.9000774E+02  0.7816164E-02  0.1186339E+00
        -11   -1    0    0    0    0  0.00000000000E+00  0.00000000000E+00  0.45593999997E+02  0.45594000000E+02  0.51100000000E-03 0.  1.
         11   -1    0    0    0    0 -0.00000000000E+00 -0.00000000000E+00 -0.45593999997E+02  0.45594000000E+02  0.51100000000E-03 0. -1.
    9900012    2    1    2    0    0  0.13789276195E+00  0.11046492657E+01  0.39209884830E+00  0.90007743282E+02  0.90000004693E+02 0.  0.
         12    1    1    2    0    0 -0.13789276195E+00 -0.11046492657E+01 -0.39209884830E+00  0.11802567182E+01  0.00000000000E+00 0. -1.
         11    1    3    3    0    0  0.38173255698E+02 -0.61521653971E+01  0.68974821107E+01  0.39276224989E+02  0.51100000000E-03 0. -1.
        -11    1    3    3    0    0 -0.36300283706E+01 -0.38824673123E+01  0.97327670423E+01  0.11089518157E+02  0.51100000000E-03 0.  1.
        -12    1    3    3    0    0 -0.34405334565E+02  0.11139281975E+02 -0.16238150305E+02  0.39642000136E+02  0.00000000000E+00 0.  1.
</event>
<event>
 7    1  0.2404951E-015  0.9000770E+02  0.7816164E-02  0.1186339E+00
        -11   -1    0    0    0    0  0.00000000000E+00  0.00000000000E+00  0.45593999997E+02  0.45594000000E+02  0.51100000000E-03 0.  1.
         11   -1    0    0    0    0 -0.00000000000E+00 -0.00000000000E+00 -0.45593999997E+02  0.45594000000E+02  0.51100000000E-03 0. -1.
    9900012    2    1    2    0    0  0.74047331163E+00 -0.77583473293E+00 -0.49282773438E+00  0.90007703667E+02  0.89999964555E+02 0.  0.
         12    1    1    2    0    0 -0.74047331163E+00  0.77583473293E+00  0.49282773438E+00  0.11802963331E+01  0.00000000000E+00 0. -1.
         11    1    3    3    0    0 -0.14298560542E+02  0.34398817681E+02  0.14180453947E+02  0.39859914273E+02  0.51100000000E-03 0. -1.
        -11    1    3    3    0    0 -0.56059861788E+01  0.13173076047E+01 -0.35697187279E+01  0.67753429743E+01  0.51100000000E-03 0.  1.
        -12    1    3    3    0    0  0.20645020032E+02 -0.36491960019E+02 -0.11103562954E+02  0.43372446420E+02  0.00000000000E+00 0.  1.
</event>
<event>
 7    1  0.2404951E-015  0.9000770E+02  0.7816164E-02  0.1186339E+00
        -11   -1    0    0    0    0  0.00000000000E+00  0.00000000000E+00  0.45593999997E+02  0.45594000000E+02  0.51100000000E-03 0.  1.
         11   -1    0    0    0    0 -0.00000000000E+00 -0.00000000000E+00 -0.45593999997E+02  0.45594000000E+02  0.51100000000E-03 0. -1.
    9900012    2    1    2    0    0  0.72432892292E+00  0.31620927172E+00  0.87661959597E+00  0.90007702322E+02  0.89999963193E+02 0.  0.
         12    1    1    2    0    0 -0.72432892292E+00 -0.31620927172E+00 -0.87661959597E+00  0.11802976778E+01  0.00000000000E+00 0. -1.
         11    1    3    3    0    0 -0.34116883036E+02  0.25636557997E+02 -0.50859756472E+01  0.42977458773E+02  0.51100000000E-03 0. -1.
        -11    1    3    3    0    0  0.15322447336E+01 -0.93236415793E+01  0.32006803741E+01  0.99760924886E+01  0.51100000000E-03 0.  1.
        -12    1    3    3    0    0  0.33308967225E+02 -0.15996707146E+02  0.27619148690E+01  0.37054151061E+02  0.00000000000E+00 0.  1.
</event>
<event>
 7    1  0.2404951E-015  0.9000772E+02  0.7816164E-02  0.1186339E+00
        -11   -1    0    0    0    0  0.00000000000E+00  0.00000000000E+00  0.45593999997E+02  0.45594000000E+02  0.51100000000E-03 0.  1.
         11   -1    0    0    0    0 -0.00000000000E+00 -0.00000000000E+00 -0.45593999997E+02  0.45594000000E+02  0.51100000000E-03 0. -1.
    9900012    2    1    2    0    0 -0.77056842985E+00  0.79752458241E+00  0.40402379212E+00  0.90007721902E+02  0.89999983031E+02 0.  0.
         12    1    1    2    0    0  0.77056842985E+00 -0.79752458241E+00 -0.40402379212E+00  0.11802780983E+01  0.00000000000E+00 0. -1.
         11    1    3    3    0    0 -0.12193711713E+02 -0.38050282178E+02 -0.27832605924E+01  0.40053178637E+02  0.51100000000E-03 0. -1.
        -11    1    3    3    0    0 -0.75873749609E+01  0.44312623038E+01  0.58349907864E+01  0.10547580867E+02  0.51100000000E-03 0.  1.
        -12    1    3    3    0    0  0.19010518244E+02  0.34416544457E+02 -0.26477064019E+01  0.39406962398E+02  0.00000000000E+00 0.  1.
</event>
<event>
 7    1  0.2404951E-015  0.9000782E+02  0.7816164E-02  0.1186339E+00
        -11   -1    0    0    0    0  0.00000000000E+00  0.00000000000E+00  0.45593999997E+02  0.45594000000E+02  0.51100000000E-03 0.  1.
         11   -1    0    0    0    0 -0.00000000000E+00 -0.00000000000E+00 -0.45593999997E+02  0.45594000000E+02  0.51100000000E-03 0. -1.
    9900012    2    1    2    0    0  0.46572018972E+00 -0.10843659606E+01  0.94946256967E-02  0.90007815701E+02  0.90000078068E+02 0.  0.
         12    1    1    2    0    0 -0.46572018972E+00  0.10843659606E+01 -0.94946256966E-02  0.11801842990E+01  0.00000000000E+00 0. -1.
         11    1    3    3    0    0  0.13769554957E+02 -0.13891391728E+02 -0.37451742904E+02  0.42251679903E+02  0.51100000000E-03 0. -1.
        -11    1    3    3    0    0 -0.70509483844E+01  0.70011456725E+01  0.63759322705E+00  0.99568287738E+01  0.51100000000E-03 0.  1.
        -12    1    3    3    0    0 -0.62528863833E+01  0.58058800945E+01  0.36823644302E+02  0.37799307024E+02  0.00000000000E+00 0.  1.
</event>
<event>
 7    1  0.2404951E-015  0.9000762E+02  0.7816164E-02  0.1186339E+00
        -11   -1    0    0    0    0  0.00000000000E+00  0.00000000000E+00  0.45593999997E+02  0.45594000000E+02  0.51100000000E-03 0. -1.
         11   -1    0    0    0    0 -0.00000000000E+00 -0.00000000000E+00 -0.45593999997E+02  0.45594000000E+02  0.51100000000E-03 0.  1.
    9900012    2    1    2    0    0 -0.94363986417E+00  0.57649342348E+00 -0.41290141478E+00  0.90007623603E+02  0.89999883434E+02 0.  0.
         12    1    1    2    0    0  0.94363986417E+00 -0.57649342348E+00  0.41290141478E+00  0.11803763971E+01  0.00000000000E+00 0. -1.
         11    1    3    3    0    0  0.66267936014E+01  0.12409126578E+00  0.71024606570E+01  0.97146662178E+01  0.51100000000E-03 0. -1.
        -11    1    3    3    0    0 -0.14538936741E+01 -0.28279538294E+02 -0.31509146191E+02  0.42363573821E+02  0.51100000000E-03 0.  1.
         12    1    3    3    0    0 -0.61165397915E+01  0.28731940452E+02  0.23993784119E+02  0.37929383564E+02  0.00000000000E+00 0. -1.
</event>
<event>
 7    1  0.2404951E-015  0.9000774E+02  0.7816164E-02  0.1186339E+00
        -11   -1    0    0    0    0  0.00000000000E+00  0.00000000000E+00  0.45593999997E+02  0.45594000000E+02  0.51100000000E-03 0.  1.
         11   -1    0    0    0    0 -0.00000000000E+00 -0.00000000000E+00 -0.45593999997E+02  0.45594000000E+02  0.51100000000E-03 0. -1.
    9900012    2    1    2    0    0 -0.78024507786E+00  0.10849385072E+00  0.87889114231E+00  0.90007744546E+02  0.90000005974E+02 0.  0.
         12    1    1    2    0    0  0.78024507786E+00 -0.10849385072E+00 -0.87889114231E+00  0.11802554542E+01  0.00000000000E+00 0. -1.
         11    1    3    3    0    0  0.18161519456E+02  0.90887034706E+01 -0.30924703006E+02  0.36997061721E+02  0.51100000000E-03 0. -1.
        -11    1    3    3    0    0  0.88842821713E+01 -0.82731584802E+01  0.21301979448E+01  0.12325313971E+02  0.51100000000E-03 0.  1.
        -12    1    3    3    0    0 -0.27826046705E+02 -0.70705113968E+00  0.29673396204E+02  0.40685368854E+02  0.00000000000E+00 0.  1.
</event>
<event>
 7    1  0.2404951E-015  0.9000778E+02  0.7816164E-02  0.1186339E+00
        -11   -1    0    0    0    0  0.00000000000E+00  0.00000000000E+00  0.45593999997E+02  0.45594000000E+02  0.51100000000E-03 0.  1.
         11   -1    0    0    0    0 -0.00000000000E+00 -0.00000000000E+00 -0.45593999997E+02  0.45594000000E+02  0.51100000000E-03 0. -1.
    9900012    2    1    2    0    0 -0.78180853871E+00  0.85027575121E+00 -0.24233706771E+00  0.90007779386E+02  0.90000041273E+02 0.  0.
         12    1    1    2    0    0  0.78180853871E+00 -0.85027575121E+00  0.24233706771E+00  0.11802206144E+01  0.00000000000E+00 0. -1.
         11    1    3    3    0    0 -0.43861231358E+01  0.43046984695E+00 -0.38276107452E+02  0.38528999240E+02  0.51100000000E-03 0. -1.
        -11    1    3    3    0    0 -0.95111147404E+01  0.46515201080E+01 -0.45474643040E+00  0.10597392958E+02  0.51100000000E-03 0.  1.
        -12    1    3    3    0    0  0.13115429337E+02 -0.42317142037E+01  0.38488516815E+02  0.40881387188E+02  0.00000000000E+00 0.  1.
</event>
<event>
 7    1  0.2404951E-015  0.9000767E+02  0.7816164E-02  0.1186339E+00
        -11   -1    0    0    0    0  0.00000000000E+00  0.00000000000E+00  0.45593999997E+02  0.45594000000E+02  0.51100000000E-03 0.  1.
         11   -1    0    0    0    0 -0.00000000000E+00 -0.00000000000E+00 -0.45593999997E+02  0.45594000000E+02  0.51100000000E-03 0. -1.
    9900012    2    1    2    0    0 -0.18059183265E+00 -0.23956469120E+00  0.11415667592E+01  0.90007669827E+02  0.89999930269E+02 0.  0.
         12    1    1    2    0    0  0.18059183265E+00  0.23956469120E+00 -0.11415667592E+01  0.11803301729E+01  0.00000000000E+00 0. -1.
         11    1    3    3    0    0 -0.11988870289E+01  0.48128525904E+01 -0.82734321455E+01  0.96462718131E+01  0.51100000000E-03 0. -1.
        -11    1    3    3    0    0 -0.24234634818E+01  0.30939434802E+02  0.26091375118E+02  0.40544810481E+02  0.51100000000E-03 0.  1.
         12    1    3    3    0    0  0.34417586781E+01 -0.35991852084E+02 -0.16676376213E+02  0.39816587533E+02  0.00000000000E+00 0. -1.
</event>
<event>
 7    1  0.2404951E-015  0.9000773E+02  0.7816164E-02  0.1186339E+00
        -11   -1    0    0    0    0  0.00000000000E+00  0.00000000000E+00  0.45593999997E+02  0.45594000000E+02  0.51100000000E-03 0.  1.
         11   -1    0    0    0    0 -0.00000000000E+00 -0.00000000000E+00 -0.45593999997E+02  0.45594000000E+02  0.51100000000E-03 0. -1.
    9900012    2    1    2    0    0  0.92771459504E+00 -0.20195086314E-01  0.72936794566E+00  0.90007728925E+02  0.89999990146E+02 0.  0.
         12    1    1    2    0    0 -0.92771459504E+00  0.20195086314E-01 -0.72936794566E+00  0.11802710754E+01  0.00000000000E+00 0. -1.
         11    1    3    3    0    0  0.30923861505E+02 -0.94230928253E+01 -0.15890384168E+02  0.36021996031E+02  0.51100000000E-03 0. -1.
        -11    1    3    3    0    0  0.83131869807E+01 -0.42397840190E+01 -0.15242692224E+01  0.94555932245E+01  0.51100000000E-03 0.  1.
        -12    1    3    3    0    0 -0.38309333891E+02  0.13642681758E+02  0.18144021336E+02  0.44530139669E+02  0.00000000000E+00 0.  1.
</event>
<event>
 7    1  0.2404951E-015  0.9000812E+02  0.7816164E-02  0.1186338E+00
        -11   -1    0    0    0    0  0.00000000000E+00  0.00000000000E+00  0.45593999997E+02  0.45594000000E+02  0.51100000000E-03 0.  1.
         11   -1    0    0    0    0 -0.00000000000E+00 -0.00000000000E+00 -0.45593999997E+02  0.45594000000E+02  0.51100000000E-03 0. -1.
    9900012    2    1    2    0    0  0.87668381590E+00 -0.31593098572E-03  0.78964820605E+00  0.90008119115E+02  0.90000385487E+02 0.  0.
         12    1    1    2    0    0 -0.87668381590E+00  0.31593098572E-03 -0.78964820605E+00  0.11798808847E+01  0.00000000000E+00 0. -1.
         11    1    3    3    0    0 -0.20501918912E+02 -0.25643905013E+02  0.11682456350E+02  0.34848505420E+02  0.51100000000E-03 0. -1.
        -11    1    3    3    0    0 -0.47375661372E+01 -0.93041850645E+01 -0.18234897817E+01  0.10598938997E+02  0.51100000000E-03 0.  1.
        -12    1    3    3    0    0  0.26116168865E+02  0.34947774147E+02 -0.90693183619E+01  0.44560674698E+02  0.00000000000E+00 0.  1.
</event>
<event>
 7    1  0.2404951E-015  0.9000775E+02  0.7816164E-02  0.1186339E+00
        -11   -1    0    0    0    0  0.00000000000E+00  0.00000000000E+00  0.45593999997E+02  0.45594000000E+02  0.51100000000E-03 0. -1.
         11   -1    0    0    0    0 -0.00000000000E+00 -0.00000000000E+00 -0.45593999997E+02  0.45594000000E+02  0.51100000000E-03 0.  1.
    9900012    2    1    2    0    0  0.30760904220E+00  0.10537732121E+01  0.43350446294E+00  0.90007751117E+02  0.90000012632E+02 0.  0.
         12    1    1    2    0    0 -0.30760904220E+00 -0.10537732121E+01 -0.43350446294E+00  0.11802488826E+01  0.00000000000E+00 0. -1.
         11    1    3    3    0    0 -0.17018959527E+02  0.10127130179E+02 -0.90899443624E+01  0.21790613525E+02  0.51100000000E-03 0. -1.
        -11    1    3    3    0    0  0.33687391602E+01  0.27422221854E+02 -0.13419565159E+01  0.27660938207E+02  0.51100000000E-03 0.  1.
         12    1    3    3    0    0  0.13957829409E+02 -0.36495578821E+02  0.10865405341E+02  0.40556199385E+02  0.00000000000E+00 0. -1.
</event>
<event>
 7    1  0.2404951E-015  0.9000780E+02  0.7816164E-02  0.1186339E+00
        -11   -1    0    0    0    0  0.00000000000E+00  0.00000000000E+00  0.45593999997E+02  0.45594000000E+02  0.51100000000E-03 0.  1.
         11   -1    0    0    0    0 -0.00000000000E+00 -0.00000000000E+00 -0.45593999997E+02  0.45594000000E+02  0.51100000000E-03 0. -1.
    9900012    2    1    2    0    0  0.44010324372E-01  0.48159785067E+00  0.10765682586E+01  0.90007799757E+02  0.90000061914E+02 0.  0.
         12    1    1    2    0    0 -0.44010324372E-01 -0.48159785067E+00 -0.10765682586E+01  0.11802002432E+01  0.00000000000E+00 0. -1.
         11    1    3    3    0    0  0.37273247196E+01 -0.15650815562E+02 -0.86491166520E+01  0.18266039429E+02  0.51100000000E-03 0. -1.
        -11    1    3    3    0    0 -0.32508970781E+02  0.22907753700E+02  0.13257031266E+02  0.41920725651E+02  0.51100000000E-03 0.  1.
         12    1    3    3    0    0  0.28825656386E+02 -0.67753402879E+01 -0.35313463556E+01  0.29821034677E+02  0.00000000000E+00 0. -1.
</event>
<event>
 7    1  0.2404951E-015  0.9000777E+02  0.7816164E-02  0.1186339E+00
        -11   -1    0    0    0    0  0.00000000000E+00  0.00000000000E+00  0.45593999997E+02  0.45594000000E+02  0.51100000000E-03 0. -1.
         11   -1    0    0    0    0 -0.00000000000E+00 -0.00000000000E+00 -0.45593999997E+02  0.45594000000E+02  0.51100000000E-03 0.  1.
    9900012    2    1    2    0    0 -0.89346096022E+00 -0.62869760227E+00 -0.44656605354E+00  0.90007765107E+02  0.90000026806E+02 0.  0.
         12    1    1    2    0    0  0.89346096022E+00  0.62869760227E+00  0.44656605354E+00  0.11802348930E+01  0.00000000000E+00 0. -1.
         11    1    3    3    0    0  0.19270024511E+02  0.32564512100E+01  0.28620454033E+02  0.34656438196E+02  0.51100000000E-03 0. -1.
        -11    1    3    3    0    0  0.78995467047E+01 -0.65018016359E+00  0.62731809481E+01  0.10108331804E+02  0.51100000000E-03 0.  1.
        -12    1    3    3    0    0 -0.28063032176E+02 -0.32349686487E+01 -0.35340201035E+02  0.45242995107E+02  0.00000000000E+00 0.  1.
</event>
<event>
 7    1  0.2404951E-015  0.9000768E+02  0.7816164E-02  0.1186339E+00
        -11   -1    0    0    0    0  0.00000000000E+00  0.00000000000E+00  0.45593999997E+02  0.45594000000E+02  0.51100000000E-03 0.  1.
         11   -1    0    0    0    0 -0.00000000000E+00 -0.00000000000E+00 -0.45593999997E+02  0.45594000000E+02  0.51100000000E-03 0. -1.
    9900012    2    1    2    0    0  0.77626532187E+00  0.48137485180E+00  0.74755710815E+00  0.90007681726E+02  0.89999942325E+02 0.  0.
         12    1    1    2    0    0 -0.77626532187E+00 -0.48137485180E+00 -0.74755710815E+00  0.11803182740E+01  0.00000000000E+00 0. -1.
         11    1    3    3    0    0  0.77980199558E+01  0.22502907223E+01 -0.45982881217E+00  0.81292291371E+01  0.51100000000E-03 0. -1.
        -11    1    3    3    0    0  0.17180296105E+02  0.73400256239E+01  0.34792537804E+02  0.39491255203E+02  0.51100000000E-03 0.  1.
         12    1    3    3    0    0 -0.24202050739E+02 -0.91089414944E+01 -0.33585151884E+02  0.42387197385E+02  0.00000000000E+00 0. -1.
</event>
<event>
 7    1  0.2404951E-015  0.9000696E+02  0.7816164E-02  0.1186341E+00
        -11   -1    0    0    0    0  0.00000000000E+00  0.00000000000E+00  0.45593999997E+02  0.45594000000E+02  0.51100000000E-03 0. -1.
         11   -1    0    0    0    0 -0.00000000000E+00 -0.00000000000E+00 -0.45593999997E+02  0.45594000000E+02  0.51100000000E-03 0.  1.
    9900012    2    1    2    0    0  0.62703156853E+00 -0.25923805075E+00 -0.96668616625E+00  0.90006960162E+02  0.89999211233E+02 0.  0.
         12    1    1    2    0    0 -0.62703156853E+00  0.25923805075E+00  0.96668616625E+00  0.11810398380E+01  0.00000000000E+00 0. -1.
         11    1    3    3    0    0  0.89524711627E+00  0.35172193618E+02 -0.89283709372E+01  0.36298766910E+02  0.51100000000E-03 0. -1.
        -11    1    3    3    0    0  0.16934392093E+01  0.86983835885E+01  0.23969293717E+00  0.88649346514E+01  0.51100000000E-03 0.  1.
        -12    1    3    3    0    0 -0.19616547570E+01 -0.44129815258E+02  0.77219918338E+01  0.44843258601E+02  0.00000000000E+00 0.  1.
</event>
<event>
 7    1  0.2404951E-015  0.9000779E+02  0.7816164E-02  0.1186339E+00
        -11   -1    0    0    0    0  0.00000000000E+00  0.00000000000E+00  0.45593999997E+02  0.45594000000E+02  0.51100000000E-03 0.  1.
         11   -1    0    0    0    0 -0.00000000000E+00 -0.00000000000E+00 -0.45593999997E+02  0.45594000000E+02  0.51100000000E-03 0. -1.
    9900012    2    1    2    0    0 -0.46333875453E+00  0.98906592871E+00  0.44718085232E+00  0.90007786067E+02  0.90000048043E+02 0.  0.
         12    1    1    2    0    0  0.46333875453E+00 -0.98906592871E+00 -0.44718085232E+00  0.11802139329E+01  0.00000000000E+00 0. -1.
         11    1    3    3    0    0 -0.14697623594E+01 -0.46148340535E+01 -0.25611564773E+01  0.54787240757E+01  0.51100000000E-03 0. -1.
        -11    1    3    3    0    0  0.30070980419E+02 -0.25659280450E+02 -0.82514082345E+01  0.40382524373E+02  0.51100000000E-03 0.  1.
         12    1    3    3    0    0 -0.29064556814E+02  0.31263180432E+02  0.11259745564E+02  0.44146537619E+02  0.00000000000E+00 0. -1.
</event>
<event>
 7    1  0.2404951E-015  0.9000768E+02  0.7816164E-02  0.1186339E+00
        -11   -1    0    0    0    0  0.00000000000E+00  0.00000000000E+00  0.45593999997E+02  0.45594000000E+02  0.51100000000E-03 0.  1.
         11   -1    0    0    0    0 -0.00000000000E+00 -0.00000000000E+00 -0.45593999997E+02  0.45594000000E+02  0.51100000000E-03 0. -1.
    9900012    2    1    2    0    0  0.51259990070E+00  0.58838100930E+00  0.88554891266E+00  0.90007683201E+02  0.89999943819E+02 0.  0.
         12    1    1    2    0    0 -0.51259990070E+00 -0.58838100930E+00 -0.88554891266E+00  0.11803167994E+01  0.00000000000E+00 0. -1.
         11    1    3    3    0    0  0.21307204146E+02  0.30361972479E+02  0.13784034986E+01  0.37118005305E+02  0.51100000000E-03 0. -1.
        -11    1    3    3    0    0  0.15108567658E+01  0.83790872121E+01 -0.16835626807E+01  0.86790652858E+01  0.51100000000E-03 0.  1.
        -12    1    3    3    0    0 -0.22305461011E+02 -0.38152678682E+02  0.11907080947E+01  0.44210612610E+02  0.00000000000E+00 0.  1.
</event>
<event>
 7    1  0.2404951E-015  0.9000657E+02  0.7816164E-02  0.1186341E+00
        -11   -1    0    0    0    0  0.00000000000E+00  0.00000000000E+00  0.45593999997E+02  0.45594000000E+02  0.51100000000E-03 0.  1.
         11   -1    0    0    0    0 -0.00000000000E+00 -0.00000000000E+00 -0.45593999997E+02  0.45594000000E+02  0.51100000000E-03 0. -1.
    9900012    2    1    2    0    0 -0.78801396992E+00  0.24767184798E+00  0.84467272322E+00  0.90006568931E+02  0.89998814833E+02 0.  0.
         12    1    1    2    0    0  0.78801396992E+00 -0.24767184798E+00 -0.84467272322E+00  0.11814310688E+01  0.00000000000E+00 0. -1.
         11    1    3    3    0    0  0.20959655329E+02  0.18560867055E+02 -0.25248642403E+02  0.37700223883E+02  0.51100000000E-03 0. -1.
        -11    1    3    3    0    0  0.76752209806E+01  0.37633178095E+01  0.48054949364E+01  0.98063428393E+01  0.51100000000E-03 0.  1.
        -12    1    3    3    0    0 -0.29422890279E+02 -0.22076513017E+02  0.21287820190E+02  0.42500002209E+02  0.00000000000E+00 0.  1.
</event>
<event>
 7    1  0.2404951E-015  0.9000772E+02  0.7816164E-02  0.1186339E+00
        -11   -1    0    0    0    0  0.00000000000E+00  0.00000000000E+00  0.45593999997E+02  0.45594000000E+02  0.51100000000E-03 0. -1.
         11   -1    0    0    0    0 -0.00000000000E+00 -0.00000000000E+00 -0.45593999997E+02  0.45594000000E+02  0.51100000000E-03 0.  1.
    9900012    2    1    2    0    0  0.66379435415E+00 -0.77621447881E+00 -0.59154945568E+00  0.90007719262E+02  0.89999980356E+02 0.  0.
         12    1    1    2    0    0 -0.66379435415E+00  0.77621447881E+00  0.59154945568E+00  0.11802807379E+01  0.00000000000E+00 0. -1.
         11    1    3    3    0    0 -0.15319523689E+02 -0.74544014179E+01  0.39240286849E+02  0.42779154022E+02  0.51100000000E-03 0. -1.
        -11    1    3    3    0    0  0.88749340287E+01 -0.33636769113E+01 -0.59984656977E+01  0.11227660814E+02  0.51100000000E-03 0.  1.
        -12    1    3    3    0    0  0.71083840149E+01  0.10041863850E+02 -0.33833370607E+02  0.36000904426E+02  0.00000000000E+00 0.  1.
</event>
<event>
 7    1  0.2404951E-015  0.9000774E+02  0.7816164E-02  0.1186339E+00
        -11   -1    0    0    0    0  0.00000000000E+00  0.00000000000E+00  0.45593999997E+02  0.45594000000E+02  0.51100000000E-03 0. -1.
         11   -1    0    0    0    0 -0.00000000000E+00 -0.00000000000E+00 -0.45593999997E+02  0.45594000000E+02  0.51100000000E-03 0.  1.
    9900012    2    1    2    0    0 -0.59207939677E+00  0.35988385220E+00 -0.95547979274E+00  0.90007738998E+02  0.90000000352E+02 0.  0.
         12    1    1    2    0    0  0.59207939677E+00 -0.35988385220E+00  0.95547979274E+00  0.11802610023E+01  0.00000000000E+00 0. -1.
         11    1    3    3    0    0 -0.10066331245E+02 -0.14420052687E+02  0.30756287841E+02  0.35429058501E+02  0.51100000000E-03 0. -1.
        -11    1    3    3    0    0 -0.47031253403E+01 -0.53008169808E+01  0.61862875216E+01  0.94068167938E+01  0.51100000000E-03 0.  1.
        -12    1    3    3    0    0  0.14177377189E+02  0.20080753520E+02 -0.37898055155E+02  0.45171863703E+02  0.00000000000E+00 0.  1.
</event>
<event>
 7    1  0.2404951E-015  0.9000778E+02  0.7816164E-02  0.1186339E+00
        -11   -1    0    0    0    0  0.00000000000E+00  0.00000000000E+00  0.45593999997E+02  0.45594000000E+02  0.51100000000E-03 0.  1.
         11   -1    0    0    0    0 -0.00000000000E+00 -0.00000000000E+00 -0.45593999997E+02  0.45594000000E+02  0.51100000000E-03 0. -1.
    9900012    2    1    2    0    0 -0.54170952358E+00 -0.52616941367E+00 -0.90698168140E+00  0.90007780008E+02  0.90000041904E+02 0.  0.
         12    1    1    2    0    0  0.54170952358E+00  0.52616941367E+00  0.90698168140E+00  0.11802199923E+01  0.00000000000E+00 0. -1.
         11    1    3    3    0    0  0.13946968380E+01 -0.59953543127E+01  0.90101412998E+01  0.10912016271E+02  0.51100000000E-03 0. -1.
        -11    1    3    3    0    0 -0.11556075737E+02 -0.40122128228E+01  0.32422760073E+02  0.34653659391E+02  0.51100000000E-03 0.  1.
         12    1    3    3    0    0  0.96196693751E+01  0.94813977219E+01 -0.42339883054E+02  0.44442104346E+02  0.00000000000E+00 0. -1.
</event>
<event>
 7    1  0.2404951E-015  0.9000804E+02  0.7816164E-02  0.1186338E+00
        -11   -1    0    0    0    0  0.00000000000E+00  0.00000000000E+00  0.45593999997E+02  0.45594000000E+02  0.51100000000E-03 0. -1.
         11   -1    0    0    0    0 -0.00000000000E+00 -0.00000000000E+00 -0.45593999997E+02  0.45594000000E+02  0.51100000000E-03 0.  1.
    9900012    2    1    2    0    0  0.56301717742E+00  0.30240702576E+00 -0.99189881661E+00  0.90008041690E+02  0.90000307040E+02 0.  0.
         12    1    1    2    0    0 -0.56301717742E+00 -0.30240702576E+00  0.99189881661E+00  0.11799583102E+01  0.00000000000E+00 0. -1.
         11    1    3    3    0    0  0.42450761796E+01 -0.10488202806E+02  0.41508645966E+02  0.43023142145E+02  0.51100000000E-03 0. -1.
        -11    1    3    3    0    0 -0.57489680670E+01 -0.22136094080E+01 -0.82942356795E+01  0.10331749427E+02  0.51100000000E-03 0.  1.
        -12    1    3    3    0    0  0.20669090648E+01  0.13004219240E+02 -0.34206309103E+02  0.36653150118E+02  0.00000000000E+00 0.  1.
</event>
<event>
 7    1  0.2404951E-015  0.9000771E+02  0.7816164E-02  0.1186339E+00
        -11   -1    0    0    0    0  0.00000000000E+00  0.00000000000E+00  0.45593999997E+02  0.45594000000E+02  0.51100000000E-03 0.  1.
         11   -1    0    0    0    0 -0.00000000000E+00 -0.00000000000E+00 -0.45593999997E+02  0.45594000000E+02  0.51100000000E-03 0. -1.
    9900012    2    1    2    0    0 -0.49473595792E+00  0.10623096224E+01  0.14077735735E+00  0.90007710346E+02  0.89999971323E+02 0.  0.
         12    1    1    2    0    0  0.49473595792E+00 -0.10623096224E+01 -0.14077735735E+00  0.11802896535E+01  0.00000000000E+00 0. -1.
         11    1    3    3    0    0  0.30677011298E+01  0.32781329908E+02 -0.13343380760E+02  0.35525655393E+02  0.51100000000E-03 0. -1.
        -11    1    3    3    0    0  0.13187733334E+01  0.95363890849E+01 -0.25383432741E+01  0.99561572267E+01  0.51100000000E-03 0.  1.
        -12    1    3    3    0    0 -0.48812104211E+01 -0.41255409370E+02  0.16022501392E+02  0.44525897726E+02  0.00000000000E+00 0.  1.
</event>
<event>
 7    1  0.2404951E-015  0.9000773E+02  0.7816164E-02  0.1186339E+00
        -11   -1    0    0    0    0  0.00000000000E+00  0.00000000000E+00  0.45593999997E+02  0.45594000000E+02  0.51100000000E-03 0.  1.
         11   -1    0    0    0    0 -0.00000000000E+00 -0.00000000000E+00 -0.45593999997E+02  0.45594000000E+02  0.51100000000E-03 0. -1.
    9900012    2    1    2    0    0 -0.26757891331E+00  0.53071371091E-01  0.11483161770E+01  0.90007726689E+02  0.89999987882E+02 0.  0.
         12    1    1    2    0    0  0.26757891331E+00 -0.53071371091E-01 -0.11483161770E+01  0.11802733105E+01  0.00000000000E+00 0. -1.
         11    1    3    3    0    0 -0.34921760223E+01  0.48109807465E+01  0.22086055308E+01  0.63418268477E+01  0.51100000000E-03 0. -1.
        -11    1    3    3    0    0  0.22418573089E+02  0.15400892697E+02  0.30978615434E+02  0.41224440926E+02  0.51100000000E-03 0.  1.
         12    1    3    3    0    0 -0.19193975980E+02 -0.20158802072E+02 -0.32038904788E+02  0.42441458916E+02  0.00000000000E+00 0. -1.
</event>
<event>
 7    1  0.2439421E-015  0.9000772E+02  0.7816164E-02  0.1186339E+00
        -11   -1    0    0    0    0  0.00000000000E+00  0.00000000000E+00  0.45593999997E+02  0.45594000000E+02  0.51100000000E-03 0.  1.
         11   -1    0    0    0    0 -0.00000000000E+00 -0.00000000000E+00 -0.45593999997E+02  0.45594000000E+02  0.51100000000E-03 0. -1.
    9900012    2    1    2    0    0  0.11357778036E+01  0.20680140865E+00  0.24555310506E+00  0.90007722757E+02  0.89999983898E+02 0.  0.
         12    1    1    2    0    0 -0.11357778036E+01 -0.20680140865E+00 -0.24555310506E+00  0.11802772425E+01  0.00000000000E+00 0. -1.
         11    1    3    3    0    0  0.21826947486E+02 -0.18568863698E+02 -0.25194029910E+02  0.38157010876E+02  0.51100000000E-03 0. -1.
        -11    1    3    3    0    0  0.31938869510E+01 -0.82897251193E+01  0.31482298670E+01  0.94250627566E+01  0.51100000000E-03 0.  1.
        -12    1    3    3    0    0 -0.23885056633E+02  0.27065390226E+02  0.22291353149E+02  0.42425649125E+02  0.00000000000E+00 0.  1.
</event>
<event>
 7    1  0.2404951E-015  0.9000758E+02  0.7816164E-02  0.1186339E+00
        -11   -1    0    0    0    0  0.00000000000E+00  0.00000000000E+00  0.45593999997E+02  0.45594000000E+02  0.51100000000E-03 0. -1.
         11   -1    0    0    0    0 -0.00000000000E+00 -0.00000000000E+00 -0.45593999997E+02  0.45594000000E+02  0.51100000000E-03 0.  1.
    9900012    2    1    2    0    0 -0.10745149819E+01  0.33626668827E+00 -0.35459158403E+00  0.90007579345E+02  0.89999838592E+02 0.  0.
         12    1    1    2    0    0  0.10745149819E+01 -0.33626668827E+00  0.35459158403E+00  0.11804206553E+01  0.00000000000E+00 0. -1.
         11    1    3    3    0    0  0.17456439377E+02 -0.33222360246E+01  0.33913256145E+02  0.38286727081E+02  0.51100000000E-03 0. -1.
        -11    1    3    3    0    0 -0.64017668117E+01 -0.38096369706E+01  0.56422345877E+01  0.93450930206E+01  0.51100000000E-03 0.  1.
        -12    1    3    3    0    0 -0.12129187547E+02  0.74681396835E+01 -0.39910082317E+02  0.42375759243E+02  0.00000000000E+00 0.  1.
</event>
<event>
 7    1  0.2404951E-015  0.9000767E+02  0.7816164E-02  0.1186339E+00
        -11   -1    0    0    0    0  0.00000000000E+00  0.00000000000E+00  0.45593999997E+02  0.45594000000E+02  0.51100000000E-03 0.  1.
         11   -1    0    0    0    0 -0.00000000000E+00 -0.00000000000E+00 -0.45593999997E+02  0.45594000000E+02  0.51100000000E-03 0. -1.
    9900012    2    1    2    0    0  0.98411997424E+00 -0.65149119916E+00  0.15935751185E-01  0.90007666634E+02  0.89999927034E+02 0.  0.
         12    1    1    2    0    0 -0.98411997424E+00  0.65149119916E+00 -0.15935751185E-01  0.11803333658E+01  0.00000000000E+00 0. -1.
         11    1    3    3    0    0  0.42591815248E+01  0.76663592384E+01 -0.15337963707E+01  0.89031580241E+01  0.51100000000E-03 0. -1.
        -11    1    3    3    0    0 -0.75568181737E+01 -0.20631151836E+02  0.37167428724E+02  0.43176008213E+02  0.51100000000E-03 0.  1.
         12    1    3    3    0    0  0.42817566231E+01  0.12313301398E+02 -0.35617696602E+02  0.37928500397E+02  0.00000000000E+00 0. -1.
</event>
<event>
 7    1  0.2404951E-015  0.9000784E+02  0.7816164E-02  0.1186339E+00
        -11   -1    0    0    0    0  0.00000000000E+00  0.00000000000E+00  0.45593999997E+02  0.45594000000E+02  0.51100000000E-03 0.  1.
         11   -1    0    0    0    0 -0.00000000000E+00 -0.00000000000E+00 -0.45593999997E+02  0.45594000000E+02  0.51100000000E-03 0. -1.
    9900012    2    1    2    0    0 -0.35923570694E+00  0.10965351444E+01  0.24764528842E+00  0.90007844161E+02  0.90000106904E+02 0.  0.
         12    1    1    2    0    0  0.35923570694E+00 -0.10965351444E+01 -0.24764528842E+00  0.11801558392E+01  0.00000000000E+00 0. -1.
         11    1    3    3    0    0  0.93306928904E+01 -0.36678763775E+01  0.61967566127E+01  0.11786218211E+02  0.51100000000E-03 0. -1.
        -11    1    3    3    0    0 -0.42379295272E+02  0.86595221613E+01  0.49650395113E+01  0.43538989531E+02  0.51100000000E-03 0.  1.
         12    1    3    3    0    0  0.32689366675E+02 -0.38951106395E+01 -0.10914150836E+02  0.34682636419E+02  0.00000000000E+00 0. -1.
</event>
<event>
 7    1  0.2404951E-015  0.9000775E+02  0.7816164E-02  0.1186339E+00
        -11   -1    0    0    0    0  0.00000000000E+00  0.00000000000E+00  0.45593999997E+02  0.45594000000E+02  0.51100000000E-03 0.  1.
         11   -1    0    0    0    0 -0.00000000000E+00 -0.00000000000E+00 -0.45593999997E+02  0.45594000000E+02  0.51100000000E-03 0. -1.
    9900012    2    1    2    0    0 -0.98726844762E+00 -0.36832761664E+00  0.53161925620E+00  0.90007752884E+02  0.90000014422E+02 0.  0.
         12    1    1    2    0    0  0.98726844762E+00  0.36832761664E+00 -0.53161925620E+00  0.11802471158E+01  0.00000000000E+00 0. -1.
         11    1    3    3    0    0  0.64881046224E+01 -0.35610145129E+02  0.91051951886E+01  0.37324020649E+02  0.51100000000E-03 0. -1.
        -11    1    3    3    0    0  0.55139471270E+01 -0.53233390354E+01 -0.64828759408E+01  0.10038387925E+02  0.51100000000E-03 0.  1.
        -12    1    3    3    0    0 -0.12989320197E+02  0.40565156548E+02 -0.20906999916E+01  0.42645344311E+02  0.00000000000E+00 0.  1.
</event>
<event>
 7    1  0.2404951E-015  0.9000776E+02  0.7816164E-02  0.1186339E+00
        -11   -1    0    0    0    0  0.00000000000E+00  0.00000000000E+00  0.45593999997E+02  0.45594000000E+02  0.51100000000E-03 0.  1.
         11   -1    0    0    0    0 -0.00000000000E+00 -0.00000000000E+00 -0.45593999997E+02  0.45594000000E+02  0.51100000000E-03 0. -1.
    9900012    2    1    2    0    0  0.25335359879E+00  0.65051850052E+00  0.95163480472E+00  0.90007758005E+02  0.90000019611E+02 0.  0.
         12    1    1    2    0    0 -0.25335359879E+00 -0.65051850052E+00 -0.95163480472E+00  0.11802419951E+01  0.00000000000E+00 0. -1.
         11    1    3    3    0    0 -0.23986490405E+02 -0.19985859823E+01 -0.34704516424E+02  0.42234459016E+02  0.51100000000E-03 0. -1.
        -11    1    3    3    0    0  0.12032138201E+01  0.70396114547E+01  0.34439008822E+01  0.79287014370E+01  0.51100000000E-03 0.  1.
        -12    1    3    3    0    0  0.23036630184E+02 -0.43905069719E+01  0.32212250346E+02  0.39844597552E+02  0.00000000000E+00 0.  1.
</event>
<event>
 7    1  0.2404951E-015  0.9000774E+02  0.7816164E-02  0.1186339E+00
        -11   -1    0    0    0    0  0.00000000000E+00  0.00000000000E+00  0.45593999997E+02  0.45594000000E+02  0.51100000000E-03 0. -1.
         11   -1    0    0    0    0 -0.00000000000E+00 -0.00000000000E+00 -0.45593999997E+02  0.45594000000E+02  0.51100000000E-03 0.  1.
    9900012    2    1    2    0    0  0.25041131414E+00  0.10246735614E+01 -0.52947518652E+00  0.90007743372E+02  0.90000004785E+02 0.  0.
         12    1    1    2    0    0 -0.25041131414E+00 -0.10246735614E+01  0.52947518652E+00  0.11802566275E+01  0.00000000000E+00 0. -1.
         11    1    3    3    0    0  0.51449049348E+01 -0.72265854096E+01  0.36405861385E+01  0.95889233579E+01  0.51100000000E-03 0. -1.
        -11    1    3    3    0    0 -0.35673511994E+02 -0.13083032706E+02 -0.15878548765E+02  0.41181227689E+02  0.51100000000E-03 0.  1.
         12    1    3    3    0    0  0.30779018374E+02  0.21334291677E+02  0.11708487440E+02  0.39237592326E+02  0.00000000000E+00 0. -1.
</event>
<event>
 7    1  0.2608923E-015  0.9000772E+02  0.7816164E-02  0.1186339E+00
        -11   -1    0    0    0    0  0.00000000000E+00  0.00000000000E+00  0.45593999997E+02  0.45594000000E+02  0.51100000000E-03 0.  1.
         11   -1    0    0    0    0 -0.00000000000E+00 -0.00000000000E+00 -0.45593999997E+02  0.45594000000E+02  0.51100000000E-03 0. -1.
    9900012    2    1    2    0    0  0.10826914337E+01  0.22213733198E+00  0.41412516670E+00  0.90007718089E+02  0.89999979168E+02 0.  0.
         12    1    1    2    0    0 -0.10826914337E+01 -0.22213733198E+00 -0.41412516670E+00  0.11802819106E+01  0.00000000000E+00 0. -1.
         11    1    3    3    0    0  0.92981805535E+01  0.23469919357E+02 -0.31800732244E+02  0.40602707394E+02  0.51100000000E-03 0. -1.
        -11    1    3    3    0    0 -0.44672076811E+01 -0.76542608508E+01 -0.40561204169E+01  0.97465771805E+01  0.51100000000E-03 0.  1.
        -12    1    3    3    0    0 -0.37482814387E+01 -0.15593521174E+02  0.36270977827E+02  0.39658433515E+02  0.00000000000E+00 0.  1.
</event>
<event>
 7    1  0.2404951E-015  0.9000776E+02  0.7816164E-02  0.1186339E+00
        -11   -1    0    0    0    0  0.00000000000E+00  0.00000000000E+00  0.45593999997E+02  0.45594000000E+02  0.51100000000E-03 0.  1.
         11   -1    0    0    0    0 -0.00000000000E+00 -0.00000000000E+00 -0.45593999997E+02  0.45594000000E+02  0.51100000000E-03 0. -1.
    9900012    2    1    2    0    0 -0.53667066671E-01 -0.38389857090E+00  0.11147726165E+01  0.90007755850E+02  0.90000017427E+02 0.  0.
         12    1    1    2    0    0  0.53667066671E-01  0.38389857090E+00 -0.11147726165E+01  0.11802441499E+01  0.00000000000E+00 0. -1.
         11    1    3    3    0    0  0.10355269628E+01 -0.12424402603E+02  0.17047477298E+01  0.12583491615E+02  0.51100000000E-03 0. -1.
        -11    1    3    3    0    0 -0.20152732664E+02 -0.25081629550E+02 -0.11706053585E+02  0.34238172637E+02  0.51100000000E-03 0.  1.
         12    1    3    3    0    0  0.19063538634E+02  0.37122133583E+02  0.11116078472E+02  0.43186091599E+02  0.00000000000E+00 0. -1.
</event>
<event>
 7    1  0.2952045E-015  0.9000775E+02  0.7816164E-02  0.1186339E+00
        -11   -1    0    0    0    0  0.00000000000E+00  0.00000000000E+00  0.45593999997E+02  0.45594000000E+02  0.51100000000E-03 0.  1.
         11   -1    0    0    0    0 -0.00000000000E+00 -0.00000000000E+00 -0.45593999997E+02  0.45594000000E+02  0.51100000000E-03 0. -1.
    9900012    2    1    2    0    0 -0.11714272029E+01 -0.19640986800E-01  0.14268380952E+00  0.90007751666E+02  0.90000013188E+02 0.  0.
         12    1    1    2    0    0  0.11714272029E+01  0.19640986800E-01 -0.14268380952E+00  0.11802483339E+01  0.00000000000E+00 0. -1.
         11    1    3    3    0    0 -0.27752691952E+02  0.17630650018E+02 -0.22417190403E+02  0.39794247781E+02  0.51100000000E-03 0. -1.
        -11    1    3    3    0    0 -0.71901647089E+01 -0.50166973905E+01  0.36267982650E+01  0.94878547188E+01  0.51100000000E-03 0.  1.
        -12    1    3    3    0    0  0.33771429457E+02 -0.12633593614E+02  0.18933075948E+02  0.40725649167E+02  0.00000000000E+00 0.  1.
</event>
<event>
 7    1  0.2404951E-015  0.9000774E+02  0.7816164E-02  0.1186339E+00
        -11   -1    0    0    0    0  0.00000000000E+00  0.00000000000E+00  0.45593999997E+02  0.45594000000E+02  0.51100000000E-03 0. -1.
         11   -1    0    0    0    0 -0.00000000000E+00 -0.00000000000E+00 -0.45593999997E+02  0.45594000000E+02  0.51100000000E-03 0.  1.
    9900012    2    1    2    0    0  0.90394307122E+00 -0.75264911761E+00  0.97056151184E-01  0.90007740000E+02  0.90000001368E+02 0.  0.
         12    1    1    2    0    0 -0.90394307122E+00  0.75264911761E+00 -0.97056151184E-01  0.11802599996E+01  0.00000000000E+00 0. -1.
         11    1    3    3    0    0  0.92259783777E+01 -0.14995949074E+01 -0.31539038052E+00  0.93523758086E+01  0.51100000000E-03 0. -1.
        -11    1    3    3    0    0  0.15167466798E+02  0.30335349380E+02 -0.18254603258E+02  0.38516438197E+02  0.51100000000E-03 0.  1.
         12    1    3    3    0    0 -0.23489502104E+02 -0.29588403590E+02  0.18667049789E+02  0.42138925994E+02  0.00000000000E+00 0. -1.
</event>
<event>
 7    1  0.2538748E-015  0.9000744E+02  0.7816164E-02  0.1186340E+00
        -11   -1    0    0    0    0  0.00000000000E+00  0.00000000000E+00  0.45593999997E+02  0.45594000000E+02  0.51100000000E-03 0. -1.
         11   -1    0    0    0    0 -0.00000000000E+00 -0.00000000000E+00 -0.45593999997E+02  0.45594000000E+02  0.51100000000E-03 0.  1.
    9900012    2    1    2    0    0 -0.11804936202E+01  0.11384217880E-01 -0.52911555455E-02  0.90007439631E+02  0.89999697034E+02 0.  0.
         12    1    1    2    0    0  0.11804936202E+01 -0.11384217880E-01  0.52911555455E-02  0.11805603686E+01  0.00000000000E+00 0. -1.
         11    1    3    3    0    0  0.10734230129E+02 -0.30995923183E+02  0.13213833777E+02  0.35363488993E+02  0.51100000000E-03 0. -1.
        -11    1    3    3    0    0 -0.15491022361E+01 -0.93795178068E+01  0.29027183093E+01  0.99398614614E+01  0.51100000000E-03 0.  1.
        -12    1    3    3    0    0 -0.10365621513E+02  0.40386825207E+02 -0.16121843242E+02  0.44704089177E+02  0.00000000000E+00 0.  1.
</event>
<event>
 7    1  0.2404951E-015  0.9000782E+02  0.7816164E-02  0.1186339E+00
        -11   -1    0    0    0    0  0.00000000000E+00  0.00000000000E+00  0.45593999997E+02  0.45594000000E+02  0.51100000000E-03 0. -1.
         11   -1    0    0    0    0 -0.00000000000E+00 -0.00000000000E+00 -0.45593999997E+02  0.45594000000E+02  0.51100000000E-03 0.  1.
    9900012    2    1    2    0    0  0.77336215194E+00 -0.81648901076E+00  0.35788666970E+00  0.90007819424E+02  0.90000081841E+02 0.  0.
         12    1    1    2    0    0 -0.77336215194E+00  0.81648901076E+00 -0.35788666970E+00  0.11801805756E+01  0.00000000000E+00 0. -1.
         11    1    3    3    0    0  0.81627640488E+01 -0.17040697520E+01  0.52718791457E+01  0.98654589668E+01  0.51100000000E-03 0. -1.
        -11    1    3    3    0    0  0.11431792738E+02  0.12747114136E+01 -0.39295512083E+02  0.40944450716E+02  0.51100000000E-03 0.  1.
         12    1    3    3    0    0 -0.18821194634E+02 -0.38713067237E+00  0.34381519607E+02  0.39197909741E+02  0.00000000000E+00 0. -1.
</event>
<event>
 7    1  0.2404951E-015  0.9000772E+02  0.7816164E-02  0.1186339E+00
        -11   -1    0    0    0    0  0.00000000000E+00  0.00000000000E+00  0.45593999997E+02  0.45594000000E+02  0.51100000000E-03 0.  1.
         11   -1    0    0    0    0 -0.00000000000E+00 -0.00000000000E+00 -0.45593999997E+02  0.45594000000E+02  0.51100000000E-03 0. -1.
    9900012    2    1    2    0    0  0.84668904207E+00 -0.82044695712E+00  0.55105342301E-01  0.90007723701E+02  0.89999984854E+02 0.  0.
         12    1    1    2    0    0 -0.84668904207E+00  0.82044695712E+00 -0.55105342301E-01  0.11802762991E+01  0.00000000000E+00 0. -1.
         11    1    3    3    0    0  0.19615954235E+02  0.23405079234E+02 -0.16640680198E+02  0.34777803729E+02  0.51100000000E-03 0. -1.
        -11    1    3    3    0    0  0.71116307766E+01  0.46348398021E+01 -0.59207728740E+01  0.10349520954E+02  0.51100000000E-03 0.  1.
        -12    1    3    3    0    0 -0.25880895970E+02 -0.28860365993E+02  0.22616558415E+02  0.44880399018E+02  0.00000000000E+00 0.  1.
</event>
<event>
 7    1  0.2404951E-015  0.9000755E+02  0.7816164E-02  0.1186339E+00
        -11   -1    0    0    0    0  0.00000000000E+00  0.00000000000E+00  0.45593999997E+02  0.45594000000E+02  0.51100000000E-03 0.  1.
         11   -1    0    0    0    0 -0.00000000000E+00 -0.00000000000E+00 -0.45593999997E+02  0.45594000000E+02  0.51100000000E-03 0. -1.
    9900012    2    1    2    0    0  0.36327385849E+00  0.29281681145E+00  0.10843226374E+01  0.90007548746E+02  0.89999807589E+02 0.  0.
         12    1    1    2    0    0 -0.36327385849E+00 -0.29281681145E+00 -0.10843226374E+01  0.11804512541E+01  0.00000000000E+00 0. -1.
         11    1    3    3    0    0  0.98935456710E+00  0.20163675022E+01  0.62653325404E+01  0.66557458234E+01  0.51100000000E-03 0. -1.
        -11    1    3    3    0    0 -0.15684032148E+01  0.72331018471E+00  0.39027452350E+02  0.39065651197E+02  0.51100000000E-03 0.  1.
         12    1    3    3    0    0  0.94232250615E+00 -0.24468608754E+01 -0.44208462253E+02  0.44286151725E+02  0.00000000000E+00 0. -1.
</event>
<event>
 7    1  0.2404951E-015  0.9000771E+02  0.7816164E-02  0.1186339E+00
        -11   -1    0    0    0    0  0.00000000000E+00  0.00000000000E+00  0.45593999997E+02  0.45594000000E+02  0.51100000000E-03 0. -1.
         11   -1    0    0    0    0 -0.00000000000E+00 -0.00000000000E+00 -0.45593999997E+02  0.45594000000E+02  0.51100000000E-03 0.  1.
    9900012    2    1    2    0    0 -0.33806772534E+00  0.51687649555E+00 -0.10058016994E+01  0.90007708444E+02  0.89999969395E+02 0.  0.
         12    1    1    2    0    0  0.33806772534E+00 -0.51687649555E+00  0.10058016994E+01  0.11802915560E+01  0.00000000000E+00 0. -1.
         11    1    3    3    0    0 -0.65173519719E+01 -0.21133548019E+01  0.34717215912E+01  0.76808200286E+01  0.51100000000E-03 0. -1.
        -11    1    3    3    0    0 -0.21667617795E+02 -0.25461416153E+02 -0.20976658194E+02  0.39468842936E+02  0.51100000000E-03 0.  1.
         12    1    3    3    0    0  0.27846902041E+02  0.28091647451E+02  0.16499134903E+02  0.42858045480E+02  0.00000000000E+00 0. -1.
</event>
<event>
 7    1  0.2404951E-015  0.9000791E+02  0.7816164E-02  0.1186339E+00
        -11   -1    0    0    0    0  0.00000000000E+00  0.00000000000E+00  0.45593999997E+02  0.45594000000E+02  0.51100000000E-03 0.  1.
         11   -1    0    0    0    0 -0.00000000000E+00 -0.00000000000E+00 -0.45593999997E+02  0.45594000000E+02  0.51100000000E-03 0. -1.
    9900012    2    1    2    0    0 -0.11564662700E+01 -0.11392815367E+00  0.20549974233E+00  0.90007905088E+02  0.90000168635E+02 0.  0.
         12    1    1    2    0    0  0.11564662700E+01  0.11392815367E+00 -0.20549974233E+00  0.11800949123E+01  0.00000000000E+00 0. -1.
         11    1    3    3    0    0  0.13700796712E+02  0.31801261146E+02 -0.68340747860E+01  0.35294994255E+02  0.51100000000E-03 0. -1.
        -11    1    3    3    0    0 -0.36650471681E+01  0.97629198098E+01  0.48548939872E+01  0.11502920057E+02  0.51100000000E-03 0.  1.
        -12    1    3    3    0    0 -0.11192215814E+02 -0.41678109109E+02  0.21846805411E+01  0.43209990776E+02  0.00000000000E+00 0.  1.
</event>
<event>
 7    1  0.2404951E-015  0.9000760E+02  0.7816164E-02  0.1186339E+00
        -11   -1    0    0    0    0  0.00000000000E+00  0.00000000000E+00  0.45593999997E+02  0.45594000000E+02  0.51100000000E-03 0.  1.
         11   -1    0    0    0    0 -0.00000000000E+00 -0.00000000000E+00 -0.45593999997E+02  0.45594000000E+02  0.51100000000E-03 0. -1.
    9900012    2    1    2    0    0 -0.10352328852E+01 -0.50596480213E+00  0.25620205946E+00  0.90007598796E+02  0.89999858300E+02 0.  0.
         12    1    1    2    0    0  0.10352328852E+01  0.50596480213E+00 -0.25620205946E+00  0.11804012042E+01  0.00000000000E+00 0. -1.
         11    1    3    3    0    0  0.41970492400E+01  0.62347282933E+01  0.70237953698E+01  0.10286921837E+02  0.51100000000E-03 0. -1.
        -11    1    3    3    0    0  0.17314139311E+02  0.26610659709E+02  0.13678336782E+02  0.34568823057E+02  0.51100000000E-03 0.  1.
         12    1    3    3    0    0 -0.22546421436E+02 -0.33351352804E+02 -0.20445930092E+02  0.45151853902E+02  0.00000000000E+00 0. -1.
</event>
<event>
 7    1  0.2404951E-015  0.9000780E+02  0.7816164E-02  0.1186339E+00
        -11   -1    0    0    0    0  0.00000000000E+00  0.00000000000E+00  0.45593999997E+02  0.45594000000E+02  0.51100000000E-03 0.  1.
         11   -1    0    0    0    0 -0.00000000000E+00 -0.00000000000E+00 -0.45593999997E+02  0.45594000000E+02  0.51100000000E-03 0. -1.
    9900012    2    1    2    0    0  0.89618711478E+00  0.83215785124E-01  0.76340406368E+00  0.90007804264E+02  0.90000066480E+02 0.  0.
         12    1    1    2    0    0 -0.89618711478E+00 -0.83215785124E-01 -0.76340406368E+00  0.11801957363E+01  0.00000000000E+00 0. -1.
         11    1    3    3    0    0 -0.48156652621E+01  0.52011458840E+01 -0.28470222987E+01  0.76385919288E+01  0.51100000000E-03 0. -1.
        -11    1    3    3    0    0 -0.33639757125E+02 -0.10780354309E+02  0.18548455570E+02  0.39898552640E+02  0.51100000000E-03 0.  1.
         12    1    3    3    0    0  0.39351609502E+02  0.56624242102E+01 -0.14938029208E+02  0.42470659695E+02  0.00000000000E+00 0. -1.
</event>
<event>
 7    1  0.2404951E-015  0.9000778E+02  0.7816164E-02  0.1186339E+00
        -11   -1    0    0    0    0  0.00000000000E+00  0.00000000000E+00  0.45593999997E+02  0.45594000000E+02  0.51100000000E-03 0. -1.
         11   -1    0    0    0    0 -0.00000000000E+00 -0.00000000000E+00 -0.45593999997E+02  0.45594000000E+02  0.51100000000E-03 0.  1.
    9900012    2    1    2    0    0  0.41799483927E+00 -0.10667199591E+01 -0.28339142786E+00  0.90007778894E+02  0.90000040776E+02 0.  0.
         12    1    1    2    0    0 -0.41799483927E+00  0.10667199591E+01  0.28339142786E+00  0.11802211056E+01  0.00000000000E+00 0. -1.
         11    1    3    3    0    0 -0.73313791264E+01 -0.17868863370E+01 -0.64881501721E+01  0.99517925819E+01  0.51100000000E-03 0. -1.
        -11    1    3    3    0    0  0.27508811684E+02 -0.31462814964E+02  0.49709416273E-01  0.41792893139E+02  0.51100000000E-03 0.  1.
         12    1    3    3    0    0 -0.19759437718E+02  0.32182981341E+02  0.61550493280E+01  0.38263093173E+02  0.00000000000E+00 0. -1.
</event>
<event>
 7    1  0.2404951E-015  0.9000780E+02  0.7816164E-02  0.1186339E+00
        -11   -1    0    0    0    0  0.00000000000E+00  0.00000000000E+00  0.45593999997E+02  0.45594000000E+02  0.51100000000E-03 0. -1.
         11   -1    0    0    0    0 -0.00000000000E+00 -0.00000000000E+00 -0.45593999997E+02  0.45594000000E+02  0.51100000000E-03 0.  1.
    9900012    2    1    2    0    0  0.71366882534E+00 -0.74832423803E+00 -0.56882795109E+00  0.90007797646E+02  0.90000059775E+02 0.  0.
         12    1    1    2    0    0 -0.71366882534E+00  0.74832423803E+00  0.56882795109E+00  0.11802023536E+01  0.00000000000E+00 0. -1.
         11    1    3    3    0    0  0.27248749368E+02  0.54838627149E+01  0.26407438236E+02  0.38339534254E+02  0.51100000000E-03 0. -1.
        -11    1    3    3    0    0  0.69809866566E+01  0.47147348159E+01 -0.80470545547E+01  0.11649806280E+02  0.51100000000E-03 0.  1.
        -12    1    3    3    0    0 -0.33516067199E+02 -0.10946921769E+02 -0.18929211632E+02  0.40018457113E+02  0.00000000000E+00 0.  1.
</event>
<event>
 7    1  0.2404951E-015  0.9000778E+02  0.7816164E-02  0.1186339E+00
        -11   -1    0    0    0    0  0.00000000000E+00  0.00000000000E+00  0.45593999997E+02  0.45594000000E+02  0.51100000000E-03 0.  1.
         11   -1    0    0    0    0 -0.00000000000E+00 -0.00000000000E+00 -0.45593999997E+02  0.45594000000E+02  0.51100000000E-03 0. -1.
    9900012    2    1    2    0    0 -0.84927710438E+00 -0.81222924509E+00  0.10918143120E+00  0.90007784540E+02  0.90000046496E+02 0.  0.
         12    1    1    2    0    0  0.84927710438E+00  0.81222924509E+00 -0.10918143120E+00  0.11802154598E+01  0.00000000000E+00 0. -1.
         11    1    3    3    0    0 -0.22150871864E+02  0.27921362859E+02 -0.85321109753E+01  0.36647790468E+02  0.51100000000E-03 0. -1.
        -11    1    3    3    0    0 -0.27677661041E+01  0.75726228272E+01 -0.24191983779E+01  0.84176996111E+01  0.51100000000E-03 0.  1.
        -12    1    3    3    0    0  0.24069360863E+02 -0.36306214932E+02  0.11060490784E+02  0.44942294461E+02  0.00000000000E+00 0.  1.
</event>
<event>
 7    1  0.2404951E-015  0.9000785E+02  0.7816164E-02  0.1186339E+00
        -11   -1    0    0    0    0  0.00000000000E+00  0.00000000000E+00  0.45593999997E+02  0.45594000000E+02  0.51100000000E-03 0.  1.
         11   -1    0    0    0    0 -0.00000000000E+00 -0.00000000000E+00 -0.45593999997E+02  0.45594000000E+02  0.51100000000E-03 0. -1.
    9900012    2    1    2    0    0  0.10605776453E+01 -0.31303962966E+00  0.41222317965E+00  0.90007853102E+02  0.90000115963E+02 0.  0.
         12    1    1    2    0    0 -0.10605776453E+01  0.31303962966E+00 -0.41222317965E+00  0.11801468981E+01  0.00000000000E+00 0. -1.
         11    1    3    3    0    0 -0.26119481270E+02  0.58631752241E+01 -0.25149992821E+02  0.36730454185E+02  0.51100000000E-03 0. -1.
        -11    1    3    3    0    0 -0.76376774936E+01  0.15491242803E+01 -0.21812711528E+01  0.80927033576E+01  0.51100000000E-03 0.  1.
        -12    1    3    3    0    0  0.34817736409E+02 -0.77253391341E+01  0.27743487153E+02  0.45184695559E+02  0.00000000000E+00 0.  1.
</event>
<event>
 7    1  0.2404951E-015  0.9000786E+02  0.7816164E-02  0.1186339E+00
        -11   -1    0    0    0    0  0.00000000000E+00  0.00000000000E+00  0.45593999997E+02  0.45594000000E+02  0.51100000000E-03 0.  1.
         11   -1    0    0    0    0 -0.00000000000E+00 -0.00000000000E+00 -0.45593999997E+02  0.45594000000E+02  0.51100000000E-03 0. -1.
    9900012    2    1    2    0    0 -0.70529700812E-01 -0.60839751757E+00  0.10087684849E+01  0.90007857706E+02  0.90000120628E+02 0.  0.
         12    1    1    2    0    0  0.70529700812E-01  0.60839751757E+00 -0.10087684849E+01  0.11801422940E+01  0.00000000000E+00 0. -1.
         11    1    3    3    0    0  0.20868695266E+02 -0.27465887538E+02 -0.10347782280E+02  0.36013247822E+02  0.51100000000E-03 0. -1.
        -11    1    3    3    0    0  0.98571204378E+01  0.19751480679E+01 -0.49136555233E+01  0.11189640033E+02  0.51100000000E-03 0.  1.
        -12    1    3    3    0    0 -0.30796345404E+02  0.24882341952E+02  0.16270206288E+02  0.42804969851E+02  0.00000000000E+00 0.  1.
</event>
<event>
 7    1  0.2404951E-015  0.9000782E+02  0.7816164E-02  0.1186339E+00
        -11   -1    0    0    0    0  0.00000000000E+00  0.00000000000E+00  0.45593999997E+02  0.45594000000E+02  0.51100000000E-03 0.  1.
         11   -1    0    0    0    0 -0.00000000000E+00 -0.00000000000E+00 -0.45593999997E+02  0.45594000000E+02  0.51100000000E-03 0. -1.
    9900012    2    1    2    0    0 -0.11661738578E+01 -0.17999574640E+00 -0.21783300861E-01  0.90007815926E+02  0.90000078297E+02 0.  0.
         12    1    1    2    0    0  0.11661738578E+01  0.17999574640E+00  0.21783300861E-01  0.11801840736E+01  0.00000000000E+00 0. -1.
         11    1    3    3    0    0 -0.15791774187E+02  0.41413747774E+01 -0.34311341763E+02  0.37997358998E+02  0.51100000000E-03 0. -1.
        -11    1    3    3    0    0  0.54352208243E+00  0.61795102251E+01 -0.56423466871E+01  0.83855732824E+01  0.51100000000E-03 0.  1.
        -12    1    3    3    0    0  0.14082078247E+02 -0.10500880749E+02  0.39931905149E+02  0.43624883646E+02  0.00000000000E+00 0.  1.
</event>
<event>
 7    1  0.2404951E-015  0.9000773E+02  0.7816164E-02  0.1186339E+00
        -11   -1    0    0    0    0  0.00000000000E+00  0.00000000000E+00  0.45593999997E+02  0.45594000000E+02  0.51100000000E-03 0.  1.
         11   -1    0    0    0    0 -0.00000000000E+00 -0.00000000000E+00 -0.45593999997E+02  0.45594000000E+02  0.51100000000E-03 0. -1.
    9900012    2    1    2    0    0 -0.10662290830E+01  0.90561835789E-01 -0.49799600428E+00  0.90007726335E+02  0.89999987523E+02 0.  0.
         12    1    1    2    0    0  0.10662290830E+01 -0.90561835789E-01  0.49799600428E+00  0.11802736648E+01  0.00000000000E+00 0. -1.
         11    1    3    3    0    0 -0.10427847930E+02 -0.61318766562E+00  0.92251355847E+00  0.10486517205E+02  0.51100000000E-03 0. -1.
        -11    1    3    3    0    0 -0.21875963755E+02 -0.17423680624E+02 -0.24063026095E+02  0.36894059980E+02  0.51100000000E-03 0.  1.
         12    1    3    3    0    0  0.31237582602E+02  0.18127430125E+02  0.22642516532E+02  0.42627149150E+02  0.00000000000E+00 0. -1.
</event>
<event>
 7    1  0.2404951E-015  0.9000771E+02  0.7816164E-02  0.1186339E+00
        -11   -1    0    0    0    0  0.00000000000E+00  0.00000000000E+00  0.45593999997E+02  0.45594000000E+02  0.51100000000E-03 0. -1.
         11   -1    0    0    0    0 -0.00000000000E+00 -0.00000000000E+00 -0.45593999997E+02  0.45594000000E+02  0.51100000000E-03 0.  1.
    9900012    2    1    2    0    0  0.21955575277E+00 -0.70357076302E+00  0.92188181815E+00  0.90007710784E+02  0.89999971766E+02 0.  0.
         12    1    1    2    0    0 -0.21955575277E+00  0.70357076302E+00 -0.92188181815E+00  0.11802892162E+01  0.00000000000E+00 0. -1.
         11    1    3    3    0    0  0.10759293525E+02 -0.30908230383E+02  0.26279072841E+02  0.41972261938E+02  0.51100000000E-03 0. -1.
        -11    1    3    3    0    0 -0.10277891673E+02  0.20643255575E+01 -0.51186717074E+00  0.10495642215E+02  0.51100000000E-03 0.  1.
        -12    1    3    3    0    0 -0.26184609960E+00  0.28140334062E+02 -0.24845323852E+02  0.37539806630E+02  0.00000000000E+00 0.  1.
</event>
<event>
 7    1  0.3028251E-015  0.9000728E+02  0.7816164E-02  0.1186340E+00
        -11   -1    0    0    0    0  0.00000000000E+00  0.00000000000E+00  0.45593999997E+02  0.45594000000E+02  0.51100000000E-03 0. -1.
         11   -1    0    0    0    0 -0.00000000000E+00 -0.00000000000E+00 -0.45593999997E+02  0.45594000000E+02  0.51100000000E-03 0.  1.
    9900012    2    1    2    0    0  0.63157169431E+00 -0.54807625142E+00 -0.83356795091E+00  0.90007277378E+02  0.89999532638E+02 0.  0.
         12    1    1    2    0    0 -0.63157169431E+00  0.54807625142E+00  0.83356795091E+00  0.11807226225E+01  0.00000000000E+00 0. -1.
         11    1    3    3    0    0 -0.33976023864E+02  0.80946547393E+01  0.96661629077E+01  0.36239872220E+02  0.51100000000E-03 0. -1.
        -11    1    3    3    0    0 -0.76978902804E+01 -0.56404308242E+01  0.15701882608E+01  0.96714769342E+01  0.51100000000E-03 0.  1.
        -12    1    3    3    0    0  0.42305485838E+02 -0.30023001665E+01 -0.12069919119E+02  0.44095928223E+02  0.00000000000E+00 0.  1.
</event>
<event>
 7    1  0.2404951E-015  0.9000771E+02  0.7816164E-02  0.1186339E+00
        -11   -1    0    0    0    0  0.00000000000E+00  0.00000000000E+00  0.45593999997E+02  0.45594000000E+02  0.51100000000E-03 0.  1.
         11   -1    0    0    0    0 -0.00000000000E+00 -0.00000000000E+00 -0.45593999997E+02  0.45594000000E+02  0.51100000000E-03 0. -1.
    9900012    2    1    2    0    0 -0.81946449023E+00  0.64936891455E+00 -0.54762353701E+00  0.90007706148E+02  0.89999967070E+02 0.  0.
         12    1    1    2    0    0  0.81946449023E+00 -0.64936891455E+00  0.54762353701E+00  0.11802938516E+01  0.00000000000E+00 0. -1.
         11    1    3    3    0    0  0.21719827628E+02  0.19345934449E+01 -0.29744943550E+02  0.36881638129E+02  0.51100000000E-03 0. -1.
        -11    1    3    3    0    0  0.92142271196E+01 -0.12091505751E+01 -0.94887428526E+00  0.93415410503E+01  0.51100000000E-03 0.  1.
        -12    1    3    3    0    0 -0.31753519238E+02 -0.76073955263E-01  0.30146194298E+02  0.43784526969E+02  0.00000000000E+00 0.  1.
</event>
<event>
 7    1  0.2404951E-015  0.9000768E+02  0.7816164E-02  0.1186339E+00
        -11   -1    0    0    0    0  0.00000000000E+00  0.00000000000E+00  0.45593999997E+02  0.45594000000E+02  0.51100000000E-03 0.  1.
         11   -1    0    0    0    0 -0.00000000000E+00 -0.00000000000E+00 -0.45593999997E+02  0.45594000000E+02  0.51100000000E-03 0. -1.
    9900012    2    1    2    0    0 -0.70513629222E-01  0.51288467736E+00  0.10607243700E+01  0.90007678411E+02  0.89999938966E+02 0.  0.
         12    1    1    2    0    0  0.70513629222E-01 -0.51288467736E+00 -0.10607243700E+01  0.11803215889E+01  0.00000000000E+00 0. -1.
         11    1    3    3    0    0 -0.10743550249E+02  0.19013263455E+01 -0.19657895505E+01  0.11086173490E+02  0.51100000000E-03 0. -1.
        -11    1    3    3    0    0 -0.75127490772E+01 -0.36906852003E+02  0.85934922557E+01  0.38631661016E+02  0.51100000000E-03 0.  1.
         12    1    3    3    0    0  0.18185785697E+02  0.35518410335E+02 -0.55669783352E+01  0.40289843905E+02  0.00000000000E+00 0. -1.
</event>
<event>
 7    1  0.3144057E-015  0.9000771E+02  0.7816164E-02  0.1186339E+00
        -11   -1    0    0    0    0  0.00000000000E+00  0.00000000000E+00  0.45593999997E+02  0.45594000000E+02  0.51100000000E-03 0. -1.
         11   -1    0    0    0    0 -0.00000000000E+00 -0.00000000000E+00 -0.45593999997E+02  0.45594000000E+02  0.51100000000E-03 0.  1.
    9900012    2    1    2    0    0 -0.68197031605E+00 -0.60427628580E+00 -0.75022752262E+00  0.90007714154E+02  0.89999975181E+02 0.  0.
         12    1    1    2    0    0  0.68197031605E+00  0.60427628580E+00  0.75022752262E+00  0.11802858456E+01  0.00000000000E+00 0. -1.
         11    1    3    3    0    0 -0.69103363106E+01 -0.31773971338E+02  0.15822255902E+02  0.36161883034E+02  0.51100000000E-03 0. -1.
        -11    1    3    3    0    0 -0.48838908564E+01 -0.78203638497E+01  0.17003317431E+01  0.93755857916E+01  0.51100000000E-03 0.  1.
        -12    1    3    3    0    0  0.11112256851E+02  0.38990058901E+02 -0.18272815167E+02  0.44470245329E+02  0.00000000000E+00 0.  1.
</event>
<event>
 7    1  0.2404951E-015  0.9000775E+02  0.7816164E-02  0.1186339E+00
        -11   -1    0    0    0    0  0.00000000000E+00  0.00000000000E+00  0.45593999997E+02  0.45594000000E+02  0.51100000000E-03 0.  1.
         11   -1    0    0    0    0 -0.00000000000E+00 -0.00000000000E+00 -0.45593999997E+02  0.45594000000E+02  0.51100000000E-03 0. -1.
    9900012    2    1    2    0    0 -0.15778976321E+00 -0.97609323030E+00  0.64446273431E+00  0.90007750950E+02  0.90000012463E+02 0.  0.
         12    1    1    2    0    0  0.15778976321E+00  0.97609323030E+00 -0.64446273431E+00  0.11802490498E+01  0.00000000000E+00 0. -1.
         11    1    3    3    0    0  0.12407311412E+01  0.99406691773E+01  0.14931246883E+01  0.10128461831E+02  0.51100000000E-03 0. -1.
        -11    1    3    3    0    0  0.25533514413E+02  0.22814512189E+02 -0.10171270939E+02  0.35719981488E+02  0.51100000000E-03 0.  1.
         12    1    3    3    0    0 -0.26932035317E+02 -0.33731274597E+02  0.93226089848E+01  0.44159307632E+02  0.00000000000E+00 0. -1.
</event>
<event>
 7    1  0.2404951E-015  0.9000754E+02  0.7816164E-02  0.1186339E+00
        -11   -1    0    0    0    0  0.00000000000E+00  0.00000000000E+00  0.45593999997E+02  0.45594000000E+02  0.51100000000E-03 0.  1.
         11   -1    0    0    0    0 -0.00000000000E+00 -0.00000000000E+00 -0.45593999997E+02  0.45594000000E+02  0.51100000000E-03 0. -1.
    9900012    2    1    2    0    0  0.11804951576E+00  0.10715037128E+01  0.48107260766E+00  0.90007539603E+02  0.89999798326E+02 0.  0.
         12    1    1    2    0    0 -0.11804951576E+00 -0.10715037128E+01 -0.48107260766E+00  0.11804603968E+01  0.00000000000E+00 0. -1.
         11    1    3    3    0    0  0.14349640206E-01  0.18243188567E+01  0.80601832885E+01  0.82640728523E+01  0.51100000000E-03 0. -1.
        -11    1    3    3    0    0  0.65196505018E+01 -0.65420193047E+01  0.36076884748E+02  0.37240374228E+02  0.51100000000E-03 0.  1.
         12    1    3    3    0    0 -0.64159506263E+01  0.57892041608E+01 -0.43655995429E+02  0.44503092523E+02  0.00000000000E+00 0. -1.
</event>
<event>
 7    1  0.2404951E-015  0.9000791E+02  0.7816164E-02  0.1186339E+00
        -11   -1    0    0    0    0  0.00000000000E+00  0.00000000000E+00  0.45593999997E+02  0.45594000000E+02  0.51100000000E-03 0. -1.
         11   -1    0    0    0    0 -0.00000000000E+00 -0.00000000000E+00 -0.45593999997E+02  0.45594000000E+02  0.51100000000E-03 0.  1.
    9900012    2    1    2    0    0  0.85934745133E+00 -0.80833635812E+00  0.26978965945E-01  0.90007909506E+02  0.90000173111E+02 0.  0.
         12    1    1    2    0    0 -0.85934745133E+00  0.80833635812E+00 -0.26978965945E-01  0.11800904942E+01  0.00000000000E+00 0. -1.
         11    1    3    3    0    0 -0.52718109280E+01 -0.18772822085E+00  0.87862257210E+01  0.10248170326E+02  0.51100000000E-03 0. -1.
        -11    1    3    3    0    0 -0.19924421437E+02 -0.21111043156E+02 -0.28909252213E+02  0.40968324063E+02  0.51100000000E-03 0.  1.
         12    1    3    3    0    0  0.26055579816E+02  0.20490435019E+02  0.20150005458E+02  0.38791415117E+02  0.00000000000E+00 0. -1.
</event>
<event>
 7    1  0.2404951E-015  0.9000786E+02  0.7816164E-02  0.1186339E+00
        -11   -1    0    0    0    0  0.00000000000E+00  0.00000000000E+00  0.45593999997E+02  0.45594000000E+02  0.51100000000E-03 0. -1.
         11   -1    0    0    0    0 -0.00000000000E+00 -0.00000000000E+00 -0.45593999997E+02  0.45594000000E+02  0.51100000000E-03 0.  1.
    9900012    2    1    2    0    0  0.92782672084E+00  0.60856793191E-02 -0.72926285729E+00  0.90007862815E+02  0.90000125805E+02 0.  0.
         12    1    1    2    0    0 -0.92782672084E+00 -0.60856793191E-02  0.72926285729E+00  0.11801371846E+01  0.00000000000E+00 0. -1.
         11    1    3    3    0    0 -0.20642279800E+02 -0.30734340220E+02 -0.82045769718E+01  0.37921213953E+02  0.51100000000E-03 0. -1.
        -11    1    3    3    0    0 -0.17634999587E+01 -0.59733779436E+01  0.58657748244E+01  0.85556116504E+01  0.51100000000E-03 0.  1.
        -12    1    3    3    0    0  0.23333606480E+02  0.36713803843E+02  0.16095392901E+01  0.43531037212E+02  0.00000000000E+00 0.  1.
</event>
<event>
 7    1  0.2404951E-015  0.9000774E+02  0.7816164E-02  0.1186339E+00
        -11   -1    0    0    0    0  0.00000000000E+00  0.00000000000E+00  0.45593999997E+02  0.45594000000E+02  0.51100000000E-03 0. -1.
         11   -1    0    0    0    0 -0.00000000000E+00 -0.00000000000E+00 -0.45593999997E+02  0.45594000000E+02  0.51100000000E-03 0.  1.
    9900012    2    1    2    0    0  0.26439002383E+00 -0.83231707778E+00  0.79394794259E+00  0.90007742766E+02  0.90000004171E+02 0.  0.
         12    1    1    2    0    0 -0.26439002383E+00  0.83231707778E+00 -0.79394794259E+00  0.11802572339E+01  0.00000000000E+00 0. -1.
         11    1    3    3    0    0  0.67642412149E+01  0.12328394010E+02  0.25563540615E+01  0.14292627625E+02  0.51100000000E-03 0. -1.
        -11    1    3    3    0    0 -0.37618109975E+02  0.48291651197E+01  0.73533104810E+01  0.38633071443E+02  0.51100000000E-03 0.  1.
         12    1    3    3    0    0  0.31118258784E+02 -0.17989876208E+02 -0.91157165999E+01  0.37082043698E+02  0.00000000000E+00 0. -1.
</event>
<event>
 7    1  0.2404951E-015  0.9000767E+02  0.7816164E-02  0.1186339E+00
        -11   -1    0    0    0    0  0.00000000000E+00  0.00000000000E+00  0.45593999997E+02  0.45594000000E+02  0.51100000000E-03 0.  1.
         11   -1    0    0    0    0 -0.00000000000E+00 -0.00000000000E+00 -0.45593999997E+02  0.45594000000E+02  0.51100000000E-03 0. -1.
    9900012    2    1    2    0    0  0.87530516058E+00 -0.46633761206E+00  0.63996514351E+00  0.90007667302E+02  0.89999927711E+02 0.  0.
         12    1    1    2    0    0 -0.87530516058E+00  0.46633761206E+00 -0.63996514351E+00  0.11803326978E+01  0.00000000000E+00 0. -1.
         11    1    3    3    0    0  0.14369218678E+01 -0.70969854896E+01  0.92532397094E-01  0.72415820095E+01  0.51100000000E-03 0. -1.
        -11    1    3    3    0    0  0.32122108509E+01 -0.59388076105E+01  0.40321452051E+02  0.40882847627E+02  0.51100000000E-03 0.  1.
         12    1    3    3    0    0 -0.37738275581E+01  0.12569455488E+02 -0.39774019304E+02  0.41883237665E+02  0.00000000000E+00 0. -1.
</event>
<event>
 7    1  0.2404951E-015  0.9000777E+02  0.7816164E-02  0.1186339E+00
        -11   -1    0    0    0    0  0.00000000000E+00  0.00000000000E+00  0.45593999997E+02  0.45594000000E+02  0.51100000000E-03 0. -1.
         11   -1    0    0    0    0 -0.00000000000E+00 -0.00000000000E+00 -0.45593999997E+02  0.45594000000E+02  0.51100000000E-03 0.  1.
    9900012    2    1    2    0    0  0.88581068994E+00 -0.15762813407E+00  0.76383373572E+00  0.90007767318E+02  0.90000029047E+02 0.  0.
         12    1    1    2    0    0 -0.88581068994E+00  0.15762813407E+00 -0.76383373572E+00  0.11802326817E+01  0.00000000000E+00 0. -1.
         11    1    3    3    0    0  0.31617271464E+02  0.18920009494E+02 -0.87216533165E+01  0.37864044302E+02  0.51100000000E-03 0. -1.
        -11    1    3    3    0    0 -0.55715654331E+01  0.59462970327E+01 -0.89926989153E+01  0.12135461418E+02  0.51100000000E-03 0.  1.
        -12    1    3    3    0    0 -0.25159895341E+02 -0.25023934661E+02  0.18478185968E+02  0.40008261598E+02  0.00000000000E+00 0.  1.
</event>
<event>
 7    1  0.2404951E-015  0.9000779E+02  0.7816164E-02  0.1186339E+00
        -11   -1    0    0    0    0  0.00000000000E+00  0.00000000000E+00  0.45593999997E+02  0.45594000000E+02  0.51100000000E-03 0. -1.
         11   -1    0    0    0    0 -0.00000000000E+00 -0.00000000000E+00 -0.45593999997E+02  0.45594000000E+02  0.51100000000E-03 0.  1.
    9900012    2    1    2    0    0  0.77141647961E-01 -0.58110676390E+00 -0.10243303842E+01  0.90007792967E+02  0.90000055034E+02 0.  0.
         12    1    1    2    0    0 -0.77141647961E-01  0.58110676390E+00  0.10243303842E+01  0.11802070331E+01  0.00000000000E+00 0. -1.
         11    1    3    3    0    0 -0.63537477356E+01 -0.58395485894E+01  0.13106672547E+02  0.15692523810E+02  0.51100000000E-03 0. -1.
        -11    1    3    3    0    0 -0.26909387372E+02  0.22806950048E+02 -0.74025711315E+01  0.36042615872E+02  0.51100000000E-03 0.  1.
         12    1    3    3    0    0  0.33340276756E+02 -0.17548508223E+02 -0.67284317997E+01  0.38272653285E+02  0.00000000000E+00 0. -1.
</event>
<event>
 7    1  0.2404951E-015  0.9000776E+02  0.7816164E-02  0.1186339E+00
        -11   -1    0    0    0    0  0.00000000000E+00  0.00000000000E+00  0.45593999997E+02  0.45594000000E+02  0.51100000000E-03 0.  1.
         11   -1    0    0    0    0 -0.00000000000E+00 -0.00000000000E+00 -0.45593999997E+02  0.45594000000E+02  0.51100000000E-03 0. -1.
    9900012    2    1    2    0    0 -0.34087052024E+00  0.11279443913E+01 -0.67171917134E-01  0.90007761326E+02  0.90000022975E+02 0.  0.
         12    1    1    2    0    0  0.34087052024E+00 -0.11279443913E+01  0.67171917134E-01  0.11802386741E+01  0.00000000000E+00 0. -1.
         11    1    3    3    0    0 -0.35891898016E+02 -0.49516978127E+01 -0.80398080711E+00  0.36240778687E+02  0.51100000000E-03 0. -1.
        -11    1    3    3    0    0 -0.89266140399E+01  0.84158397723E+00 -0.27729004017E+00  0.89704844817E+01  0.51100000000E-03 0.  1.
        -12    1    3    3    0    0  0.44477641536E+02  0.52380582267E+01  0.10140989301E+01  0.44796498158E+02  0.00000000000E+00 0.  1.
</event>
<event>
 7    1  0.2404951E-015  0.9000778E+02  0.7816164E-02  0.1186339E+00
        -11   -1    0    0    0    0  0.00000000000E+00  0.00000000000E+00  0.45593999997E+02  0.45594000000E+02  0.51100000000E-03 0. -1.
         11   -1    0    0    0    0 -0.00000000000E+00 -0.00000000000E+00 -0.45593999997E+02  0.45594000000E+02  0.51100000000E-03 0.  1.
    9900012    2    1    2    0    0  0.77733637152E+00  0.59967390826E+00 -0.65502394359E+00  0.90007780954E+02  0.90000042862E+02 0.  0.
         12    1    1    2    0    0 -0.77733637152E+00 -0.59967390826E+00  0.65502394359E+00  0.11802190464E+01  0.00000000000E+00 0. -1.
         11    1    3    3    0    0 -0.57835055733E+01 -0.35249646335E+02  0.37762814010E+01  0.35920005637E+02  0.51100000000E-03 0. -1.
        -11    1    3    3    0    0 -0.60389523582E+01 -0.98308090185E+00  0.10697328188E+02  0.12323482636E+02  0.51100000000E-03 0.  1.
        -12    1    3    3    0    0  0.12599794303E+02  0.36832401145E+02 -0.15128633533E+02  0.41764292681E+02  0.00000000000E+00 0.  1.
</event>
<event>
 7    1  0.2404951E-015  0.9000797E+02  0.7816164E-02  0.1186339E+00
        -11   -1    0    0    0    0  0.00000000000E+00  0.00000000000E+00  0.45593999997E+02  0.45594000000E+02  0.51100000000E-03 0.  1.
         11   -1    0    0    0    0 -0.00000000000E+00 -0.00000000000E+00 -0.45593999997E+02  0.45594000000E+02  0.51100000000E-03 0. -1.
    9900012    2    1    2    0    0 -0.90557907325E+00 -0.29628102389E+00 -0.69613592233E+00  0.90007974100E+02  0.90000238557E+02 0.  0.
         12    1    1    2    0    0  0.90557907325E+00  0.29628102389E+00  0.69613592233E+00  0.11800259003E+01  0.00000000000E+00 0. -1.
         11    1    3    3    0    0  0.40327951672E+01  0.71776647921E+01  0.39375473140E+01  0.91261485765E+01  0.51100000000E-03 0. -1.
        -11    1    3    3    0    0  0.16245280086E+02 -0.10475206257E+02  0.32622555685E+02  0.37919259103E+02  0.51100000000E-03 0.  1.
         12    1    3    3    0    0 -0.21183654326E+02  0.30012604409E+01 -0.37256238922E+02  0.42962566421E+02  0.00000000000E+00 0. -1.
</event>
<event>
 7    1  0.2404951E-015  0.9000759E+02  0.7816164E-02  0.1186339E+00
        -11   -1    0    0    0    0  0.00000000000E+00  0.00000000000E+00  0.45593999997E+02  0.45594000000E+02  0.51100000000E-03 0.  1.
         11   -1    0    0    0    0 -0.00000000000E+00 -0.00000000000E+00 -0.45593999997E+02  0.45594000000E+02  0.51100000000E-03 0. -1.
    9900012    2    1    2    0    0  0.29051173164E+00 -0.19433871636E-01  0.11439375008E+01  0.90007590009E+02  0.89999849397E+02 0.  0.
         12    1    1    2    0    0 -0.29051173164E+00  0.19433871636E-01 -0.11439375008E+01  0.11804099912E+01  0.00000000000E+00 0. -1.
         11    1    3    3    0    0  0.29183859834E+02  0.16793553724E+01 -0.18367312934E+02  0.34523558536E+02  0.51100000000E-03 0. -1.
        -11    1    3    3    0    0  0.77687541571E+01  0.37905511871E+01 -0.59655284760E+01  0.10502825797E+02  0.51100000000E-03 0.  1.
        -12    1    3    3    0    0 -0.36662102259E+02 -0.54893404311E+01  0.25476778911E+02  0.44981205677E+02  0.00000000000E+00 0.  1.
</event>
<event>
 7    1  0.2404951E-015  0.9000768E+02  0.7816164E-02  0.1186339E+00
        -11   -1    0    0    0    0  0.00000000000E+00  0.00000000000E+00  0.45593999997E+02  0.45594000000E+02  0.51100000000E-03 0. -1.
         11   -1    0    0    0    0 -0.00000000000E+00 -0.00000000000E+00 -0.45593999997E+02  0.45594000000E+02  0.51100000000E-03 0.  1.
    9900012    2    1    2    0    0 -0.89080983924E+00  0.77050765457E+00  0.76988621079E-01  0.90007681626E+02  0.89999942224E+02 0.  0.
         12    1    1    2    0    0  0.89080983924E+00 -0.77050765457E+00 -0.76988621079E-01  0.11803183737E+01  0.00000000000E+00 0. -1.
         11    1    3    3    0    0 -0.34361490624E+02  0.88142598158E+00  0.17470908906E+02  0.38558029098E+02  0.51100000000E-03 0. -1.
        -11    1    3    3    0    0  0.10767483083E+01  0.54602564668E+01  0.81170672171E+01  0.98417766724E+01  0.51100000000E-03 0.  1.
        -12    1    3    3    0    0  0.32393932477E+02 -0.55711747938E+01 -0.25510987502E+02  0.41607875856E+02  0.00000000000E+00 0.  1.
</event>
<event>
 7    1  0.2404951E-015  0.9000763E+02  0.7816164E-02  0.1186339E+00
        -11   -1    0    0    0    0  0.00000000000E+00  0.00000000000E+00  0.45593999997E+02  0.45594000000E+02  0.51100000000E-03 0. -1.
         11   -1    0    0    0    0 -0.00000000000E+00 -0.00000000000E+00 -0.45593999997E+02  0.45594000000E+02  0.51100000000E-03 0.  1.
    9900012    2    1    2    0    0 -0.13025811236E-01 -0.89045976631E+00 -0.77472107385E+00  0.90007626750E+02  0.89999886623E+02 0.  0.
         12    1    1    2    0    0  0.13025811236E-01  0.89045976631E+00  0.77472107385E+00  0.11803732501E+01  0.00000000000E+00 0. -1.
         11    1    3    3    0    0  0.13044794851E+02  0.30491767386E+02 -0.15316255579E+02  0.36530839523E+02  0.51100000000E-03 0. -1.
        -11    1    3    3    0    0  0.41176187180E+01  0.43363784169E+01 -0.63095455854E+01  0.86930620288E+01  0.51100000000E-03 0.  1.
        -12    1    3    3    0    0 -0.17175439380E+02 -0.35718605569E+02  0.20851080091E+02  0.44783725198E+02  0.00000000000E+00 0.  1.
</event>
<event>
 7    1  0.2404951E-015  0.9000775E+02  0.7816164E-02  0.1186339E+00
        -11   -1    0    0    0    0  0.00000000000E+00  0.00000000000E+00  0.45593999997E+02  0.45594000000E+02  0.51100000000E-03 0. -1.
         11   -1    0    0    0    0 -0.00000000000E+00 -0.00000000000E+00 -0.45593999997E+02  0.45594000000E+02  0.51100000000E-03 0.  1.
    9900012    2    1    2    0    0  0.36784476618E+00 -0.11105525940E+01 -0.15606418088E+00  0.90007748813E+02  0.90000010297E+02 0.  0.
         12    1    1    2    0    0 -0.36784476618E+00  0.11105525940E+01  0.15606418088E+00  0.11802511871E+01  0.00000000000E+00 0. -1.
         11    1    3    3    0    0 -0.10918221558E+02 -0.33494268300E+02 -0.97061161169E+01  0.36541514218E+02  0.51100000000E-03 0. -1.
        -11    1    3    3    0    0  0.36767362507E+01 -0.76206847889E+01 -0.54558199800E+01  0.10067730530E+02  0.51100000000E-03 0.  1.
        -12    1    3    3    0    0  0.76093300739E+01  0.40004400495E+02  0.15005871916E+02  0.43398504065E+02  0.00000000000E+00 0.  1.
</event>
<event>
 7    1  0.2404951E-015  0.9000796E+02  0.7816164E-02  0.1186339E+00
        -11   -1    0    0    0    0  0.00000000000E+00  0.00000000000E+00  0.45593999997E+02  0.45594000000E+02  0.51100000000E-03 0. -1.
         11   -1    0    0    0    0 -0.00000000000E+00 -0.00000000000E+00 -0.45593999997E+02  0.45594000000E+02  0.51100000000E-03 0.  1.
    9900012    2    1    2    0    0  0.99020403166E+00  0.32688473277E+00  0.55239228296E+00  0.90007959794E+02  0.90000224063E+02 0.  0.
         12    1    1    2    0    0 -0.99020403166E+00 -0.32688473277E+00 -0.55239228296E+00  0.11800402057E+01  0.00000000000E+00 0. -1.
         11    1    3    3    0    0 -0.31524354250E+02 -0.91316725073E+01  0.94939759969E+01  0.34165888458E+02  0.51100000000E-03 0. -1.
        -11    1    3    3    0    0 -0.10445656857E+02  0.78113285501E+00  0.20117714807E+01  0.10666261784E+02  0.51100000000E-03 0.  1.
        -12    1    3    3    0    0  0.42960215138E+02  0.86774243851E+01 -0.10953355195E+02  0.45175809552E+02  0.00000000000E+00 0.  1.
</event>
<event>
 7    1  0.2404951E-015  0.9000773E+02  0.7816164E-02  0.1186339E+00
        -11   -1    0    0    0    0  0.00000000000E+00  0.00000000000E+00  0.45593999997E+02  0.45594000000E+02  0.51100000000E-03 0.  1.
         11   -1    0    0    0    0 -0.00000000000E+00 -0.00000000000E+00 -0.45593999997E+02  0.45594000000E+02  0.51100000000E-03 0. -1.
    9900012    2    1    2    0    0 -0.74389445834E-01  0.65391712231E+00  0.97974148088E+00  0.90007731064E+02  0.89999992314E+02 0.  0.
         12    1    1    2    0    0  0.74389445834E-01 -0.65391712231E+00 -0.97974148088E+00  0.11802689362E+01  0.00000000000E+00 0. -1.
         11    1    3    3    0    0  0.16694781803E+02  0.23699661673E+02  0.21492608348E+02  0.36087697581E+02  0.51100000000E-03 0. -1.
        -11    1    3    3    0    0 -0.70788056526E+00  0.11213337474E+02 -0.82160108887E+00  0.11265658472E+02  0.51100000000E-03 0.  1.
        -12    1    3    3    0    0 -0.16061290684E+02 -0.34259082025E+02 -0.19691265778E+02  0.42654375011E+02  0.00000000000E+00 0.  1.
</event>
<event>
 7    1  0.2404951E-015  0.9000774E+02  0.7816164E-02  0.1186339E+00
        -11   -1    0    0    0    0  0.00000000000E+00  0.00000000000E+00  0.45593999997E+02  0.45594000000E+02  0.51100000000E-03 0.  1.
         11   -1    0    0    0    0 -0.00000000000E+00 -0.00000000000E+00 -0.45593999997E+02  0.45594000000E+02  0.51100000000E-03 0. -1.
    9900012    2    1    2    0    0  0.13605482612E+00 -0.21438697104E+00  0.11526216460E+01  0.90007741830E+02  0.90000003222E+02 0.  0.
         12    1    1    2    0    0 -0.13605482612E+00  0.21438697104E+00 -0.11526216460E+01  0.11802581700E+01  0.00000000000E+00 0. -1.
         11    1    3    3    0    0 -0.22092164830E+01  0.52242310619E+01 -0.88129270862E+01  0.10480501503E+02  0.51100000000E-03 0. -1.
        -11    1    3    3    0    0  0.16583802129E+02 -0.38752674998E+02  0.98951214472E+01  0.43297872249E+02  0.51100000000E-03 0.  1.
         12    1    3    3    0    0 -0.14238530820E+02  0.33314056965E+02  0.70427285015E-01  0.36229368079E+02  0.00000000000E+00 0. -1.
</event>
<event>
 7    1  0.2404951E-015  0.9000764E+02  0.7816164E-02  0.1186339E+00
        -11   -1    0    0    0    0  0.00000000000E+00  0.00000000000E+00  0.45593999997E+02  0.45594000000E+02  0.51100000000E-03 0.  1.
         11   -1    0    0    0    0 -0.00000000000E+00 -0.00000000000E+00 -0.45593999997E+02  0.45594000000E+02  0.51100000000E-03 0. -1.
    9900012    2    1    2    0    0 -0.76091006627E-01 -0.49397498780E+00  0.10693236241E+01  0.90007638131E+02  0.89999898154E+02 0.  0.
         12    1    1    2    0    0  0.76091006627E-01  0.49397498780E+00 -0.10693236241E+01  0.11803618695E+01  0.00000000000E+00 0. -1.
         11    1    3    3    0    0 -0.89462198842E+00 -0.17501885971E+01  0.88504284899E+01  0.90660682406E+01  0.51100000000E-03 0. -1.
        -11    1    3    3    0    0  0.27071119245E+02 -0.18640877893E+01  0.26313145828E+02  0.37798174084E+02  0.51100000000E-03 0.  1.
         12    1    3    3    0    0 -0.26252588263E+02  0.31203013986E+01 -0.34094250694E+02  0.43143395806E+02  0.00000000000E+00 0. -1.
</event>
<event>
 7    1  0.2404951E-015  0.9000763E+02  0.7816164E-02  0.1186339E+00
        -11   -1    0    0    0    0  0.00000000000E+00  0.00000000000E+00  0.45593999997E+02  0.45594000000E+02  0.51100000000E-03 0.  1.
         11   -1    0    0    0    0 -0.00000000000E+00 -0.00000000000E+00 -0.45593999997E+02  0.45594000000E+02  0.51100000000E-03 0. -1.
    9900012    2    1    2    0    0  0.33135642106E-01 -0.22779517877E+00  0.11577057248E+01  0.90007630922E+02  0.89999890850E+02 0.  0.
         12    1    1    2    0    0 -0.33135642106E-01  0.22779517877E+00 -0.11577057248E+01  0.11803690777E+01  0.00000000000E+00 0. -1.
         11    1    3    3    0    0  0.79993041026E+01  0.34711404055E+01  0.32769927627E+01  0.93153831734E+01  0.51100000000E-03 0. -1.
        -11    1    3    3    0    0 -0.18212851363E+02  0.22501791058E+02  0.27438476254E+02  0.39886194792E+02  0.51100000000E-03 0.  1.
         12    1    3    3    0    0  0.10246682903E+02 -0.26200726643E+02 -0.29557763292E+02  0.40806052957E+02  0.00000000000E+00 0. -1.
</event>
<event>
 7    1  0.2404951E-015  0.9000795E+02  0.7816164E-02  0.1186339E+00
        -11   -1    0    0    0    0  0.00000000000E+00  0.00000000000E+00  0.45593999997E+02  0.45594000000E+02  0.51100000000E-03 0. -1.
         11   -1    0    0    0    0 -0.00000000000E+00 -0.00000000000E+00 -0.45593999997E+02  0.45594000000E+02  0.51100000000E-03 0.  1.
    9900012    2    1    2    0    0  0.48557267057E+00  0.29364645329E+00 -0.10346560248E+01  0.90007948244E+02  0.90000212360E+02 0.  0.
         12    1    1    2    0    0 -0.48557267057E+00 -0.29364645329E+00  0.10346560248E+01  0.11800517563E+01  0.00000000000E+00 0. -1.
         11    1    3    3    0    0  0.53055480755E+01  0.71756967062E+01  0.31029639682E+02  0.32287427935E+02  0.51100000000E-03 0. -1.
        -11    1    3    3    0    0  0.10629504056E+02 -0.18830175269E+02 -0.17953723596E+01  0.21697585564E+02  0.51100000000E-03 0.  1.
        -12    1    3    3    0    0 -0.15449479461E+02  0.11948125016E+02 -0.30268923347E+02  0.36022934745E+02  0.00000000000E+00 0.  1.
</event>
<event>
 7    1  0.2404951E-015  0.9000771E+02  0.7816164E-02  0.1186339E+00
        -11   -1    0    0    0    0  0.00000000000E+00  0.00000000000E+00  0.45593999997E+02  0.45594000000E+02  0.51100000000E-03 0.  1.
         11   -1    0    0    0    0 -0.00000000000E+00 -0.00000000000E+00 -0.45593999997E+02  0.45594000000E+02  0.51100000000E-03 0. -1.
    9900012    2    1    2    0    0 -0.66650738929E+00  0.89129810520E+00 -0.39300222974E+00  0.90007705475E+02  0.89999966388E+02 0.  0.
         12    1    1    2    0    0  0.66650738929E+00 -0.89129810520E+00  0.39300222974E+00  0.11802945246E+01  0.00000000000E+00 0. -1.
         11    1    3    3    0    0 -0.56133608864E+01  0.10213051905E+02 -0.46298598798E+01  0.12540010065E+02  0.51100000000E-03 0. -1.
        -11    1    3    3    0    0 -0.34789662814E+02 -0.44907955697E+01 -0.72570103789E+01  0.35821112259E+02  0.51100000000E-03 0.  1.
         12    1    3    3    0    0  0.39736516311E+02 -0.48309582303E+01  0.11493868029E+02  0.41646583152E+02  0.00000000000E+00 0. -1.
</event>
<event>
 7    1  0.2404951E-015  0.9000782E+02  0.7816164E-02  0.1186339E+00
        -11   -1    0    0    0    0  0.00000000000E+00  0.00000000000E+00  0.45593999997E+02  0.45594000000E+02  0.51100000000E-03 0.  1.
         11   -1    0    0    0    0 -0.00000000000E+00 -0.00000000000E+00 -0.45593999997E+02  0.45594000000E+02  0.51100000000E-03 0. -1.
    9900012    2    1    2    0    0  0.34164708507E+00 -0.11282035263E+01 -0.57159412824E-01  0.90007816486E+02  0.90000078864E+02 0.  0.
         12    1    1    2    0    0 -0.34164708507E+00  0.11282035263E+01  0.57159412824E-01  0.11801835136E+01  0.00000000000E+00 0. -1.
         11    1    3    3    0    0 -0.71473856392E+01 -0.48714016019E+01  0.35813421192E+01  0.93617138750E+01  0.51100000000E-03 0. -1.
        -11    1    3    3    0    0 -0.11931435187E+02  0.63189356198E+01  0.34896466082E+02  0.37417261234E+02  0.51100000000E-03 0.  1.
         12    1    3    3    0    0  0.19420467911E+02 -0.25757375442E+01 -0.38534967614E+02  0.43228841377E+02  0.00000000000E+00 0. -1.
</event>
<event>
 7    1  0.2404951E-015  0.9000765E+02  0.7816164E-02  0.1186339E+00
        -11   -1    0    0    0    0  0.00000000000E+00  0.00000000000E+00  0.45593999997E+02  0.45594000000E+02  0.51100000000E-03 0.  1.
         11   -1    0    0    0    0 -0.00000000000E+00 -0.00000000000E+00 -0.45593999997E+02  0.45594000000E+02  0.51100000000E-03 0. -1.
    9900012    2    1    2    0    0 -0.62040999921E+00  0.96811815030E+00  0.26657158458E+00  0.90007651861E+02  0.89999912065E+02 0.  0.
         12    1    1    2    0    0  0.62040999921E+00 -0.96811815030E+00 -0.26657158458E+00  0.11803481392E+01  0.00000000000E+00 0. -1.
         11    1    3    3    0    0  0.48402878149E+01 -0.15154061386E+02  0.19108551189E+02  0.24863843054E+02  0.51100000000E-03 0. -1.
        -11    1    3    3    0    0  0.13941401292E+02  0.23659310694E+02  0.10301974146E+02  0.29330126561E+02  0.51100000000E-03 0.  1.
         12    1    3    3    0    0 -0.19402099106E+02 -0.75371311574E+01 -0.29143953750E+02  0.35813682246E+02  0.00000000000E+00 0. -1.
</event>
<event>
 7    1  0.2404951E-015  0.9000792E+02  0.7816164E-02  0.1186339E+00
        -11   -1    0    0    0    0  0.00000000000E+00  0.00000000000E+00  0.45593999997E+02  0.45594000000E+02  0.51100000000E-03 0.  1.
         11   -1    0    0    0    0 -0.00000000000E+00 -0.00000000000E+00 -0.45593999997E+02  0.45594000000E+02  0.51100000000E-03 0. -1.
    9900012    2    1    2    0    0 -0.81417763296E+00 -0.31812139905E+00  0.79277543817E+00  0.90007924012E+02  0.90000187809E+02 0.  0.
         12    1    1    2    0    0  0.81417763296E+00  0.31812139905E+00 -0.79277543817E+00  0.11800759882E+01  0.00000000000E+00 0. -1.
         11    1    3    3    0    0  0.25122134290E+02 -0.22163884878E+02  0.12598502837E+02  0.35792201639E+02  0.51100000000E-03 0. -1.
        -11    1    3    3    0    0  0.53388467986E+01 -0.37928030208E+01  0.70262286010E+01  0.96050262107E+01  0.51100000000E-03 0.  1.
        -12    1    3    3    0    0 -0.31275158722E+02  0.25638566500E+02 -0.18831956000E+02  0.44610696162E+02  0.00000000000E+00 0.  1.
</event>
<event>
 7    1  0.2404951E-015  0.9000768E+02  0.7816164E-02  0.1186339E+00
        -11   -1    0    0    0    0  0.00000000000E+00  0.00000000000E+00  0.45593999997E+02  0.45594000000E+02  0.51100000000E-03 0. -1.
         11   -1    0    0    0    0 -0.00000000000E+00 -0.00000000000E+00 -0.45593999997E+02  0.45594000000E+02  0.51100000000E-03 0.  1.
    9900012    2    1    2    0    0 -0.38111164269E+00 -0.10832353475E+01 -0.27297306321E+00  0.90007678351E+02  0.89999938905E+02 0.  0.
         12    1    1    2    0    0  0.38111164269E+00  0.10832353475E+01  0.27297306321E+00  0.11803216492E+01  0.00000000000E+00 0. -1.
         11    1    3    3    0    0 -0.10605700767E+02 -0.31312169514E+02  0.25810876098E+02  0.41942033494E+02  0.51100000000E-03 0. -1.
        -11    1    3    3    0    0 -0.61334204741E+01  0.18011927694E+01 -0.39493519148E+00  0.64046167857E+01  0.51100000000E-03 0.  1.
        -12    1    3    3    0    0  0.16358009599E+02  0.28427741397E+02 -0.25688913969E+02  0.41661028071E+02  0.00000000000E+00 0.  1.
</event>
<event>
 7    1  0.2404951E-015  0.9000773E+02  0.7816164E-02  0.1186339E+00
        -11   -1    0    0    0    0  0.00000000000E+00  0.00000000000E+00  0.45593999997E+02  0.45594000000E+02  0.51100000000E-03 0.  1.
         11   -1    0    0    0    0 -0.00000000000E+00 -0.00000000000E+00 -0.45593999997E+02  0.45594000000E+02  0.51100000000E-03 0. -1.
    9900012    2    1    2    0    0  0.21639929444E+00  0.91027682044E-01  0.11566885055E+01  0.90007727577E+02  0.89999988781E+02 0.  0.
         12    1    1    2    0    0 -0.21639929444E+00 -0.91027682044E-01 -0.11566885055E+01  0.11802724229E+01  0.00000000000E+00 0. -1.
         11    1    3    3    0    0  0.25461421370E+01 -0.13565585686E+02 -0.58853164014E+01  0.15004829362E+02  0.51100000000E-03 0. -1.
        -11    1    3    3    0    0 -0.25080979249E+01  0.11520124405E+02  0.40139932562E+02  0.41835606938E+02  0.51100000000E-03 0.  1.
         12    1    3    3    0    0  0.17835508238E+00  0.21364889626E+01 -0.33097927655E+02  0.33167291277E+02  0.00000000000E+00 0. -1.
</event>
<event>
 7    1  0.2404951E-015  0.9000772E+02  0.7816164E-02  0.1186339E+00
        -11   -1    0    0    0    0  0.00000000000E+00  0.00000000000E+00  0.45593999997E+02  0.45594000000E+02  0.51100000000E-03 0. -1.
         11   -1    0    0    0    0 -0.00000000000E+00 -0.00000000000E+00 -0.45593999997E+02  0.45594000000E+02  0.51100000000E-03 0.  1.
    9900012    2    1    2    0    0  0.93009995990E+00 -0.63029792810E+00 -0.36150814009E+00  0.90007724800E+02  0.89999985967E+02 0.  0.
         12    1    1    2    0    0 -0.93009995990E+00  0.63029792810E+00  0.36150814009E+00  0.11802752005E+01  0.00000000000E+00 0. -1.
         11    1    3    3    0    0  0.21188126251E+02 -0.31889330624E+01  0.30310329336E+02  0.37119025483E+02  0.51100000000E-03 0. -1.
        -11    1    3    3    0    0  0.31803292769E+01  0.15358222608E+01  0.73824549444E+01  0.81837574251E+01  0.51100000000E-03 0.  1.
        -12    1    3    3    0    0 -0.23438355568E+02  0.10228128734E+01 -0.38054292420E+02  0.44704941891E+02  0.00000000000E+00 0.  1.
</event>
<event>
 7    1  0.2404951E-015  0.9000773E+02  0.7816164E-02  0.1186339E+00
        -11   -1    0    0    0    0  0.00000000000E+00  0.00000000000E+00  0.45593999997E+02  0.45594000000E+02  0.51100000000E-03 0.  1.
         11   -1    0    0    0    0 -0.00000000000E+00 -0.00000000000E+00 -0.45593999997E+02  0.45594000000E+02  0.51100000000E-03 0. -1.
    9900012    2    1    2    0    0 -0.96217396692E+00 -0.88734672400E-01  0.67778792347E+00  0.90007725009E+02  0.89999986179E+02 0.  0.
         12    1    1    2    0    0  0.96217396692E+00  0.88734672400E-01 -0.67778792347E+00  0.11802749908E+01  0.00000000000E+00 0. -1.
         11    1    3    3    0    0 -0.45551515271E+00  0.35385154789E+02  0.23043106271E+02  0.42229153678E+02  0.51100000000E-03 0. -1.
        -11    1    3    3    0    0 -0.75827676059E+01 -0.25912759184E+01 -0.76031412460E+01  0.11046304021E+02  0.51100000000E-03 0.  1.
        -12    1    3    3    0    0  0.70761087917E+01 -0.32882613543E+02 -0.14762177101E+02  0.36732267311E+02  0.00000000000E+00 0.  1.
</event>
<event>
 7    1  0.2404951E-015  0.9000772E+02  0.7816164E-02  0.1186339E+00
        -11   -1    0    0    0    0  0.00000000000E+00  0.00000000000E+00  0.45593999997E+02  0.45594000000E+02  0.51100000000E-03 0.  1.
         11   -1    0    0    0    0 -0.00000000000E+00 -0.00000000000E+00 -0.45593999997E+02  0.45594000000E+02  0.51100000000E-03 0. -1.
    9900012    2    1    2    0    0 -0.91190996564E+00 -0.38362627776E+00  0.64367525846E+00  0.90007717515E+02  0.89999978586E+02 0.  0.
         12    1    1    2    0    0  0.91190996564E+00  0.38362627776E+00 -0.64367525846E+00  0.11802824852E+01  0.00000000000E+00 0. -1.
         11    1    3    3    0    0 -0.91076659484E+01  0.33832282787E+01 -0.11777459272E+01  0.97868737778E+01  0.51100000000E-03 0. -1.
        -11    1    3    3    0    0 -0.43702333800E+01  0.37068601316E+02  0.32934019902E+01  0.37470343477E+02  0.51100000000E-03 0.  1.
         12    1    3    3    0    0  0.12565989363E+02 -0.40835455873E+02 -0.14719808045E+01  0.42750500260E+02  0.00000000000E+00 0. -1.
</event>
<event>
 7    1  0.2404951E-015  0.9000771E+02  0.7816164E-02  0.1186339E+00
        -11   -1    0    0    0    0  0.00000000000E+00  0.00000000000E+00  0.45593999997E+02  0.45594000000E+02  0.51100000000E-03 0.  1.
         11   -1    0    0    0    0 -0.00000000000E+00 -0.00000000000E+00 -0.45593999997E+02  0.45594000000E+02  0.51100000000E-03 0. -1.
    9900012    2    1    2    0    0  0.99016014896E+00  0.45706814029E+00  0.45139326121E+00  0.90007710086E+02  0.89999971059E+02 0.  0.
         12    1    1    2    0    0 -0.99016014896E+00 -0.45706814029E+00 -0.45139326121E+00  0.11802899143E+01  0.00000000000E+00 0. -1.
         11    1    3    3    0    0 -0.38053597378E+01 -0.91074267066E+01 -0.86005559956E+01  0.13091812237E+02  0.51100000000E-03 0. -1.
        -11    1    3    3    0    0  0.26470157863E+02 -0.21675180504E+02 -0.81710761775E+01  0.35174553207E+02  0.51100000000E-03 0.  1.
         12    1    3    3    0    0 -0.21674637976E+02  0.31239675351E+02  0.17223025434E+02  0.41741344642E+02  0.00000000000E+00 0. -1.
</event>
<event>
 7    1  0.2404951E-015  0.9000775E+02  0.7816164E-02  0.1186339E+00
        -11   -1    0    0    0    0  0.00000000000E+00  0.00000000000E+00  0.45593999997E+02  0.45594000000E+02  0.51100000000E-03 0.  1.
         11   -1    0    0    0    0 -0.00000000000E+00 -0.00000000000E+00 -0.45593999997E+02  0.45594000000E+02  0.51100000000E-03 0. -1.
    9900012    2    1    2    0    0  0.75858428992E+00  0.83114052944E+00  0.35601666713E+00  0.90007748937E+02  0.90000010423E+02 0.  0.
         12    1    1    2    0    0 -0.75858428992E+00 -0.83114052944E+00 -0.35601666713E+00  0.11802510631E+01  0.00000000000E+00 0. -1.
         11    1    3    3    0    0 -0.24481147848E+01  0.34237949291E+02 -0.15072921762E+02  0.37488977158E+02  0.51100000000E-03 0. -1.
        -11    1    3    3    0    0  0.99630977253E+01  0.38405236699E+01 -0.19678574036E+01  0.10857504380E+02  0.51100000000E-03 0.  1.
        -12    1    3    3    0    0 -0.67563986506E+01 -0.37247332432E+02  0.17396795833E+02  0.41661267399E+02  0.00000000000E+00 0.  1.
</event>
<event>
 7    1  0.2404951E-015  0.9000777E+02  0.7816164E-02  0.1186339E+00
        -11   -1    0    0    0    0  0.00000000000E+00  0.00000000000E+00  0.45593999997E+02  0.45594000000E+02  0.51100000000E-03 0.  1.
         11   -1    0    0    0    0 -0.00000000000E+00 -0.00000000000E+00 -0.45593999997E+02  0.45594000000E+02  0.51100000000E-03 0. -1.
    9900012    2    1    2    0    0 -0.11538889273E+01 -0.23816713071E+00  0.69068927439E-01  0.90007765381E+02  0.90000027084E+02 0.  0.
         12    1    1    2    0    0  0.11538889273E+01  0.23816713071E+00 -0.69068927439E-01  0.11802346188E+01  0.00000000000E+00 0. -1.
         11    1    3    3    0    0  0.65197588550E+01  0.71573038181E+01 -0.17149667522E+01  0.98323631287E+01  0.51100000000E-03 0. -1.
        -11    1    3    3    0    0  0.15911754859E+02 -0.22720605902E+02 -0.27857914048E+02  0.39312507559E+02  0.51100000000E-03 0.  1.
         12    1    3    3    0    0 -0.23585402641E+02  0.15325134953E+02  0.29641949728E+02  0.40862894693E+02  0.00000000000E+00 0. -1.
</event>
<event>
 7    1  0.2404951E-015  0.9000770E+02  0.7816164E-02  0.1186339E+00
        -11   -1    0    0    0    0  0.00000000000E+00  0.00000000000E+00  0.45593999997E+02  0.45594000000E+02  0.51100000000E-03 0. -1.
         11   -1    0    0    0    0 -0.00000000000E+00 -0.00000000000E+00 -0.45593999997E+02  0.45594000000E+02  0.51100000000E-03 0.  1.
    9900012    2    1    2    0    0  0.43786136065E+00  0.10648635513E+01  0.25969660577E+00  0.90007703732E+02  0.89999964621E+02 0.  0.
         12    1    1    2    0    0 -0.43786136065E+00 -0.10648635513E+01 -0.25969660577E+00  0.11802962684E+01  0.00000000000E+00 0. -1.
         11    1    3    3    0    0 -0.13522509481E+02  0.15932187908E+02  0.30586535793E+02  0.37043610060E+02  0.51100000000E-03 0. -1.
        -11    1    3    3    0    0  0.11838788438E+01  0.23897038056E+01  0.83287690400E+01  0.87453214565E+01  0.51100000000E-03 0.  1.
        -12    1    3    3    0    0  0.12776491998E+02 -0.17257028163E+02 -0.38655608227E+02  0.44218772215E+02  0.00000000000E+00 0.  1.
</event>
<event>
 7    1  0.2404951E-015  0.9000775E+02  0.7816164E-02  0.1186339E+00
        -11   -1    0    0    0    0  0.00000000000E+00  0.00000000000E+00  0.45593999997E+02  0.45594000000E+02  0.51100000000E-03 0.  1.
         11   -1    0    0    0    0 -0.00000000000E+00 -0.00000000000E+00 -0.45593999997E+02  0.45594000000E+02  0.51100000000E-03 0. -1.
    9900012    2    1    2    0    0 -0.10293278171E+01  0.41341022252E+00 -0.40319680288E+00  0.90007749421E+02  0.90000010913E+02 0.  0.
         12    1    1    2    0    0  0.10293278171E+01 -0.41341022252E+00  0.40319680288E+00  0.11802505789E+01  0.00000000000E+00 0. -1.
         11    1    3    3    0    0 -0.28074808200E+01 -0.10437525569E+02  0.62864707761E+01  0.12503743585E+02  0.51100000000E-03 0. -1.
        -11    1    3    3    0    0 -0.99746032407E+01  0.32751034882E+02  0.21104035980E+02  0.40218196511E+02  0.51100000000E-03 0.  1.
         12    1    3    3    0    0  0.11752756244E+02 -0.21900099090E+02 -0.27793703559E+02  0.37285809325E+02  0.00000000000E+00 0. -1.
</event>
<event>
 7    1  0.2404951E-015  0.9000869E+02  0.7816164E-02  0.1186337E+00
        -11   -1    0    0    0    0  0.00000000000E+00  0.00000000000E+00  0.45593999997E+02  0.45594000000E+02  0.51100000000E-03 0. -1.
         11   -1    0    0    0    0 -0.00000000000E+00 -0.00000000000E+00 -0.45593999997E+02  0.45594000000E+02  0.51100000000E-03 0.  1.
    9900012    2    1    2    0    0 -0.56122125909E+00 -0.25753853334E+00 -0.10047258286E+01  0.90008691140E+02  0.90000965057E+02 0.  0.
         12    1    1    2    0    0  0.56122125909E+00  0.25753853334E+00  0.10047258286E+01  0.11793088605E+01  0.00000000000E+00 0. -1.
         11    1    3    3    0    0  0.60724089685E+01  0.70790941017E+01 -0.22354869284E-01  0.93267477709E+01  0.51100000000E-03 0. -1.
        -11    1    3    3    0    0 -0.10482640512E+02  0.33267282248E+02  0.13499886063E+02  0.37401132927E+02  0.51100000000E-03 0.  1.
         12    1    3    3    0    0  0.38490102840E+01 -0.40603914883E+02 -0.14482257022E+02  0.43280810441E+02  0.00000000000E+00 0. -1.
</event>
<event>
 7    1  0.2404951E-015  0.9000803E+02  0.7816164E-02  0.1186338E+00
        -11   -1    0    0    0    0  0.00000000000E+00  0.00000000000E+00  0.45593999997E+02  0.45594000000E+02  0.51100000000E-03 0.  1.
         11   -1    0    0    0    0 -0.00000000000E+00 -0.00000000000E+00 -0.45593999997E+02  0.45594000000E+02  0.51100000000E-03 0. -1.
    9900012    2    1    2    0    0 -0.14389300696E+00 -0.79949311220E+00  0.85581838393E+00  0.90008034094E+02  0.90000299343E+02 0.  0.
         12    1    1    2    0    0  0.14389300696E+00  0.79949311220E+00 -0.85581838393E+00  0.11799659064E+01  0.00000000000E+00 0. -1.
         11    1    3    3    0    0  0.23441637570E+01 -0.10498734928E+02  0.73300420940E+01  0.13017221523E+02  0.51100000000E-03 0. -1.
        -11    1    3    3    0    0  0.17097436843E+02  0.29672323904E+02  0.18993886032E+02  0.39160399121E+02  0.51100000000E-03 0.  1.
         12    1    3    3    0    0 -0.19585493607E+02 -0.19973082088E+02 -0.25468109742E+02  0.37830413450E+02  0.00000000000E+00 0. -1.
</event>
<event>
 7    1  0.2404951E-015  0.9000772E+02  0.7816164E-02  0.1186339E+00
        -11   -1    0    0    0    0  0.00000000000E+00  0.00000000000E+00  0.45593999997E+02  0.45594000000E+02  0.51100000000E-03 0.  1.
         11   -1    0    0    0    0 -0.00000000000E+00 -0.00000000000E+00 -0.45593999997E+02  0.45594000000E+02  0.51100000000E-03 0. -1.
    9900012    2    1    2    0    0 -0.32900890213E+00  0.94078931363E+00 -0.63224326554E+00  0.90007719128E+02  0.89999980220E+02 0.  0.
         12    1    1    2    0    0  0.32900890213E+00 -0.94078931363E+00  0.63224326554E+00  0.11802808721E+01  0.00000000000E+00 0. -1.
         11    1    3    3    0    0  0.57500943293E+01  0.35619622035E+01 -0.34731406373E+02  0.35383919348E+02  0.51100000000E-03 0. -1.
        -11    1    3    3    0    0  0.44431796822E+01 -0.20101925110E+01 -0.90098422445E+01  0.10244997665E+02  0.51100000000E-03 0.  1.
        -12    1    3    3    0    0 -0.10522282914E+02 -0.61098037885E+00  0.43109005352E+02  0.44378802115E+02  0.00000000000E+00 0.  1.
</event>
<event>
 7    1  0.2404951E-015  0.9000768E+02  0.7816164E-02  0.1186339E+00
        -11   -1    0    0    0    0  0.00000000000E+00  0.00000000000E+00  0.45593999997E+02  0.45594000000E+02  0.51100000000E-03 0. -1.
         11   -1    0    0    0    0 -0.00000000000E+00 -0.00000000000E+00 -0.45593999997E+02  0.45594000000E+02  0.51100000000E-03 0.  1.
    9900012    2    1    2    0    0  0.42779700625E+00 -0.11942024728E+00 -0.10935614832E+01  0.90007683012E+02  0.89999943628E+02 0.  0.
         12    1    1    2    0    0 -0.42779700625E+00  0.11942024728E+00  0.10935614832E+01  0.11803169877E+01  0.00000000000E+00 0. -1.
         11    1    3    3    0    0 -0.40373118270E+02 -0.72878097263E+01 -0.51115914588E+01  0.41342825460E+02  0.51100000000E-03 0. -1.
        -11    1    3    3    0    0  0.23628978694E+01  0.82457317578E+01 -0.38713219275E+01  0.94107657654E+01  0.51100000000E-03 0.  1.
        -12    1    3    3    0    0  0.38438017407E+02 -0.10773422788E+01  0.78893519032E+01  0.39254091787E+02  0.00000000000E+00 0.  1.
</event>
<event>
 7    1  0.2404951E-015  0.9000776E+02  0.7816164E-02  0.1186339E+00
        -11   -1    0    0    0    0  0.00000000000E+00  0.00000000000E+00  0.45593999997E+02  0.45594000000E+02  0.51100000000E-03 0. -1.
         11   -1    0    0    0    0 -0.00000000000E+00 -0.00000000000E+00 -0.45593999997E+02  0.45594000000E+02  0.51100000000E-03 0.  1.
    9900012    2    1    2    0    0  0.49635447092E+00  0.76969116837E-01 -0.10680244784E+01  0.90007759223E+02  0.90000020845E+02 0.  0.
         12    1    1    2    0    0 -0.49635447092E+00 -0.76969116837E-01  0.10680244784E+01  0.11802407772E+01  0.00000000000E+00 0. -1.
         11    1    3    3    0    0  0.76286259284E+01 -0.73716532415E+01  0.35163359274E+01  0.11175948447E+02  0.51100000000E-03 0. -1.
        -11    1    3    3    0    0  0.12080088182E+02 -0.31446455939E+02 -0.99358262002E+01  0.35121628154E+02  0.51100000000E-03 0.  1.
         12    1    3    3    0    0 -0.19212359640E+02  0.38895078298E+02  0.53514657944E+01  0.43710182622E+02  0.00000000000E+00 0. -1.
</event>
<event>
 7    1  0.2404951E-015  0.9000776E+02  0.7816164E-02  0.1186339E+00
        -11   -1    0    0    0    0  0.00000000000E+00  0.00000000000E+00  0.45593999997E+02  0.45594000000E+02  0.51100000000E-03 0.  1.
         11   -1    0    0    0    0 -0.00000000000E+00 -0.00000000000E+00 -0.45593999997E+02  0.45594000000E+02  0.51100000000E-03 0. -1.
    9900012    2    1    2    0    0  0.35037526179E+00 -0.76458422214E+00  0.82801981030E+00  0.90007759066E+02  0.90000020685E+02 0.  0.
         12    1    1    2    0    0 -0.35037526179E+00  0.76458422214E+00 -0.82801981030E+00  0.11802409343E+01  0.00000000000E+00 0. -1.
         11    1    3    3    0    0  0.41669151622E+01  0.58246318621E+01 -0.28239645640E+01  0.76983306254E+01  0.51100000000E-03 0. -1.
        -11    1    3    3    0    0 -0.16826198838E+02  0.34812324247E+02 -0.88390709342E+00  0.38675575999E+02  0.51100000000E-03 0.  1.
         12    1    3    3    0    0  0.13009658937E+02 -0.41401540332E+02  0.45358914677E+01  0.43633852442E+02  0.00000000000E+00 0. -1.
</event>
<event>
 7    1  0.2404951E-015  0.9000775E+02  0.7816164E-02  0.1186339E+00
        -11   -1    0    0    0    0  0.00000000000E+00  0.00000000000E+00  0.45593999997E+02  0.45594000000E+02  0.51100000000E-03 0. -1.
         11   -1    0    0    0    0 -0.00000000000E+00 -0.00000000000E+00 -0.45593999997E+02  0.45594000000E+02  0.51100000000E-03 0.  1.
    9900012    2    1    2    0    0  0.81401352286E+00  0.66413795541E+00 -0.53786931403E+00  0.90007745520E+02  0.90000006961E+02 0.  0.
         12    1    1    2    0    0 -0.81401352286E+00 -0.66413795541E+00  0.53786931403E+00  0.11802544803E+01  0.00000000000E+00 0. -1.
         11    1    3    3    0    0  0.32796339794E+02  0.19933001365E+02  0.13022319748E+02  0.40527833141E+02  0.51100000000E-03 0. -1.
        -11    1    3    3    0    0  0.23472871357E+01 -0.92217652198E+01  0.31173010688E+01  0.10013404860E+02  0.51100000000E-03 0.  1.
        -12    1    3    3    0    0 -0.34329613406E+02 -0.10047098190E+02 -0.16677490131E+02  0.39466507519E+02  0.00000000000E+00 0.  1.
</event>
<event>
 7    1  0.2404951E-015  0.9000774E+02  0.7816164E-02  0.1186339E+00
        -11   -1    0    0    0    0  0.00000000000E+00  0.00000000000E+00  0.45593999997E+02  0.45594000000E+02  0.51100000000E-03 0. -1.
         11   -1    0    0    0    0 -0.00000000000E+00 -0.00000000000E+00 -0.45593999997E+02  0.45594000000E+02  0.51100000000E-03 0.  1.
    9900012    2    1    2    0    0 -0.64753281714E+00  0.90501064540E+00 -0.39328040969E+00  0.90007740495E+02  0.90000001870E+02 0.  0.
         12    1    1    2    0    0  0.64753281714E+00 -0.90501064540E+00  0.39328040969E+00  0.11802595046E+01  0.00000000000E+00 0. -1.
         11    1    3    3    0    0 -0.26939867485E+02 -0.55743396900E+01  0.14887420850E+02  0.31280425555E+02  0.51100000000E-03 0. -1.
        -11    1    3    3    0    0 -0.11138426430E+02  0.14214818911E+02 -0.82931163510E+01  0.19872126184E+02  0.51100000000E-03 0.  1.
        -12    1    3    3    0    0  0.37430761097E+02 -0.77354685758E+01 -0.69875849091E+01  0.38855188756E+02  0.00000000000E+00 0.  1.
</event>
<event>
 7    1  0.2404951E-015  0.9000775E+02  0.7816164E-02  0.1186339E+00
        -11   -1    0    0    0    0  0.00000000000E+00  0.00000000000E+00  0.45593999997E+02  0.45594000000E+02  0.51100000000E-03 0.  1.
         11   -1    0    0    0    0 -0.00000000000E+00 -0.00000000000E+00 -0.45593999997E+02  0.45594000000E+02  0.51100000000E-03 0. -1.
    9900012    2    1    2    0    0 -0.72258244764E-01  0.77593553288E+00  0.88639284622E+00  0.90007750246E+02  0.90000011749E+02 0.  0.
         12    1    1    2    0    0  0.72258244764E-01 -0.77593553288E+00 -0.88639284622E+00  0.11802497545E+01  0.00000000000E+00 0. -1.
         11    1    3    3    0    0  0.24876170199E+02 -0.79400560387E+00  0.27048892920E+02  0.36757269990E+02  0.51100000000E-03 0. -1.
        -11    1    3    3    0    0  0.30332614490E+01 -0.10437672107E+01  0.82316913642E+01  0.88346402295E+01  0.51100000000E-03 0.  1.
        -12    1    3    3    0    0 -0.27981689892E+02  0.26137083474E+01 -0.34394191438E+02  0.44415840026E+02  0.00000000000E+00 0.  1.
</event>
<event>
 7    1  0.2824898E-015  0.9000777E+02  0.7816164E-02  0.1186339E+00
        -11   -1    0    0    0    0  0.00000000000E+00  0.00000000000E+00  0.45593999997E+02  0.45594000000E+02  0.51100000000E-03 0. -1.
         11   -1    0    0    0    0 -0.00000000000E+00 -0.00000000000E+00 -0.45593999997E+02  0.45594000000E+02  0.51100000000E-03 0.  1.
    9900012    2    1    2    0    0 -0.75864224798E+00 -0.27603031200E-01 -0.90368476952E+00  0.90007768603E+02  0.90000030349E+02 0.  0.
         12    1    1    2    0    0  0.75864224798E+00  0.27603031200E-01  0.90368476952E+00  0.11802313970E+01  0.00000000000E+00 0. -1.
         11    1    3    3    0    0 -0.36381383967E+01 -0.34437319200E+02  0.24136914047E+02  0.42210847239E+02  0.51100000000E-03 0. -1.
        -11    1    3    3    0    0 -0.78664680140E+01  0.65893023532E+01 -0.29319933024E+01  0.10672244820E+02  0.51100000000E-03 0.  1.
        -12    1    3    3    0    0  0.10745964163E+02  0.27820413816E+02 -0.22108605514E+02  0.37124676543E+02  0.00000000000E+00 0.  1.
</event>
<event>
 7    1  0.2404951E-015  0.9000776E+02  0.7816164E-02  0.1186339E+00
        -11   -1    0    0    0    0  0.00000000000E+00  0.00000000000E+00  0.45593999997E+02  0.45594000000E+02  0.51100000000E-03 0.  1.
         11   -1    0    0    0    0 -0.00000000000E+00 -0.00000000000E+00 -0.45593999997E+02  0.45594000000E+02  0.51100000000E-03 0. -1.
    9900012    2    1    2    0    0 -0.70556751170E-01 -0.68023943295E+00  0.96190800420E+00  0.90007758097E+02  0.90000019704E+02 0.  0.
         12    1    1    2    0    0  0.70556751170E-01  0.68023943295E+00 -0.96190800420E+00  0.11802419031E+01  0.00000000000E+00 0. -1.
         11    1    3    3    0    0  0.48873265232E+01  0.32199686009E+02 -0.15440181941E+02  0.36043098621E+02  0.51100000000E-03 0. -1.
        -11    1    3    3    0    0  0.29645995517E+01  0.80918790818E+01  0.72038249670E+01  0.11232206016E+02  0.51100000000E-03 0.  1.
        -12    1    3    3    0    0 -0.79224828261E+01 -0.40971804524E+02  0.91982649777E+01  0.42732453459E+02  0.00000000000E+00 0.  1.
</event>
<event>
 7    1  0.2404951E-015  0.9000774E+02  0.7816164E-02  0.1186339E+00
        -11   -1    0    0    0    0  0.00000000000E+00  0.00000000000E+00  0.45593999997E+02  0.45594000000E+02  0.51100000000E-03 0.  1.
         11   -1    0    0    0    0 -0.00000000000E+00 -0.00000000000E+00 -0.45593999997E+02  0.45594000000E+02  0.51100000000E-03 0. -1.
    9900012    2    1    2    0    0 -0.14776250415E+00  0.23144651881E+00  0.11478730568E+01  0.90007739943E+02  0.90000001310E+02 0.  0.
         12    1    1    2    0    0  0.14776250415E+00 -0.23144651881E+00 -0.11478730568E+01  0.11802600575E+01  0.00000000000E+00 0. -1.
         11    1    3    3    0    0 -0.14139769217E+01  0.18374032455E+00  0.10007302858E+02  0.10108372866E+02  0.51100000000E-03 0. -1.
        -11    1    3    3    0    0  0.18647146489E+02  0.20436796366E+02  0.24609904583E+02  0.37027369901E+02  0.51100000000E-03 0.  1.
         12    1    3    3    0    0 -0.17380932072E+02 -0.20389090172E+02 -0.33469334384E+02  0.42871997176E+02  0.00000000000E+00 0. -1.
</event>
<event>
 7    1  0.2744128E-015  0.9000775E+02  0.7816164E-02  0.1186339E+00
        -11   -1    0    0    0    0  0.00000000000E+00  0.00000000000E+00  0.45593999997E+02  0.45594000000E+02  0.51100000000E-03 0.  1.
         11   -1    0    0    0    0 -0.00000000000E+00 -0.00000000000E+00 -0.45593999997E+02  0.45594000000E+02  0.51100000000E-03 0. -1.
    9900012    2    1    2    0    0  0.48144477655E+00 -0.49719076777E+00  0.95603625690E+00  0.90007748731E+02  0.90000010215E+02 0.  0.
         12    1    1    2    0    0 -0.48144477655E+00  0.49719076777E+00 -0.95603625690E+00  0.11802512686E+01  0.00000000000E+00 0. -1.
         11    1    3    3    0    0 -0.21171297147E+02 -0.18421469682E+01 -0.28648989002E+02  0.35670462562E+02  0.51100000000E-03 0. -1.
        -11    1    3    3    0    0 -0.26334133949E+01 -0.38747249035E+01 -0.79985932851E+01  0.92696199484E+01  0.51100000000E-03 0.  1.
        -12    1    3    3    0    0  0.24286155318E+02  0.52196811040E+01  0.37603618544E+02  0.45067666221E+02  0.00000000000E+00 0.  1.
</event>
<event>
 7    1  0.2404951E-015  0.9000786E+02  0.7816164E-02  0.1186339E+00
        -11   -1    0    0    0    0  0.00000000000E+00  0.00000000000E+00  0.45593999997E+02  0.45594000000E+02  0.51100000000E-03 0.  1.
         11   -1    0    0    0    0 -0.00000000000E+00 -0.00000000000E+00 -0.45593999997E+02  0.45594000000E+02  0.51100000000E-03 0. -1.
    9900012    2    1    2    0    0 -0.35174732131E+00  0.48072431771E+00  0.10187830020E+01  0.90007855580E+02  0.90000118473E+02 0.  0.
         12    1    1    2    0    0  0.35174732131E+00 -0.48072431771E+00 -0.10187830020E+01  0.11801444204E+01  0.00000000000E+00 0. -1.
         11    1    3    3    0    0 -0.86318174041E+01  0.13335744213E+01 -0.56560854871E+01  0.10405671325E+02  0.51100000000E-03 0. -1.
        -11    1    3    3    0    0  0.21293983668E+02  0.31212859348E+02 -0.12798642862E+02  0.39893377753E+02  0.51100000000E-03 0.  1.
         12    1    3    3    0    0 -0.13013913585E+02 -0.32065709452E+02  0.19473511351E+02  0.39708806502E+02  0.00000000000E+00 0. -1.
</event>
<event>
 7    1  0.2404951E-015  0.9000772E+02  0.7816164E-02  0.1186339E+00
        -11   -1    0    0    0    0  0.00000000000E+00  0.00000000000E+00  0.45593999997E+02  0.45594000000E+02  0.51100000000E-03 0. -1.
         11   -1    0    0    0    0 -0.00000000000E+00 -0.00000000000E+00 -0.45593999997E+02  0.45594000000E+02  0.51100000000E-03 0.  1.
    9900012    2    1    2    0    0  0.38030072475E+00 -0.71281391626E+00 -0.86042461513E+00  0.90007719170E+02  0.89999980263E+02 0.  0.
         12    1    1    2    0    0 -0.38030072475E+00  0.71281391626E+00  0.86042461513E+00  0.11802808305E+01  0.00000000000E+00 0. -1.
         11    1    3    3    0    0  0.71757163787E+01  0.29093071499E+02  0.10264651056E+02  0.31674292041E+02  0.51100000000E-03 0. -1.
        -11    1    3    3    0    0  0.16084376659E+01  0.13041632443E+02 -0.57375225772E+01  0.14338424394E+02  0.51100000000E-03 0.  1.
        -12    1    3    3    0    0 -0.84038533198E+01 -0.42847517858E+02 -0.53875530935E+01  0.43995002734E+02  0.00000000000E+00 0.  1.
</event>
<event>
 7    1  0.2404951E-015  0.9000765E+02  0.7816164E-02  0.1186339E+00
        -11   -1    0    0    0    0  0.00000000000E+00  0.00000000000E+00  0.45593999997E+02  0.45594000000E+02  0.51100000000E-03 0.  1.
         11   -1    0    0    0    0 -0.00000000000E+00 -0.00000000000E+00 -0.45593999997E+02  0.45594000000E+02  0.51100000000E-03 0. -1.
    9900012    2    1    2    0    0 -0.43845130755E+00  0.10310838867E+01  0.37129722858E+00  0.90007646171E+02  0.89999906300E+02 0.  0.
         12    1    1    2    0    0  0.43845130755E+00 -0.10310838867E+01 -0.37129722858E+00  0.11803538294E+01  0.00000000000E+00 0. -1.
         11    1    3    3    0    0 -0.34701199209E+02  0.11422570636E+02  0.49577137361E+01  0.36867699578E+02  0.51100000000E-03 0. -1.
        -11    1    3    3    0    0  0.12644911853E+02  0.75417070114E+01  0.13299659561E+02  0.19840667456E+02  0.51100000000E-03 0.  1.
        -12    1    3    3    0    0  0.21617836048E+02 -0.17933193760E+02 -0.17886076068E+02  0.33299279136E+02  0.00000000000E+00 0.  1.
</event>
<event>
 7    1  0.2404951E-015  0.9000779E+02  0.7816164E-02  0.1186339E+00
        -11   -1    0    0    0    0  0.00000000000E+00  0.00000000000E+00  0.45593999997E+02  0.45594000000E+02  0.51100000000E-03 0. -1.
         11   -1    0    0    0    0 -0.00000000000E+00 -0.00000000000E+00 -0.45593999997E+02  0.45594000000E+02  0.51100000000E-03 0.  1.
    9900012    2    1    2    0    0  0.44407677590E+00 -0.68355696214E+00 -0.85349286556E+00  0.90007786301E+02  0.90000048280E+02 0.  0.
         12    1    1    2    0    0 -0.44407677590E+00  0.68355696214E+00  0.85349286556E+00  0.11802136988E+01  0.00000000000E+00 0. -1.
         11    1    3    3    0    0  0.78244009721E+01  0.27275822166E+02  0.53886243471E+01  0.28883022660E+02  0.51100000000E-03 0. -1.
        -11    1    3    3    0    0  0.13112019374E+02  0.63970162776E+01 -0.14175607439E+02  0.20341944741E+02  0.51100000000E-03 0.  1.
        -12    1    3    3    0    0 -0.20492343570E+02 -0.34356395405E+02  0.79334902263E+01  0.40782818900E+02  0.00000000000E+00 0.  1.
</event>
<event>
 7    1  0.2925427E-015  0.9000775E+02  0.7816164E-02  0.1186339E+00
        -11   -1    0    0    0    0  0.00000000000E+00  0.00000000000E+00  0.45593999997E+02  0.45594000000E+02  0.51100000000E-03 0. -1.
         11   -1    0    0    0    0 -0.00000000000E+00 -0.00000000000E+00 -0.45593999997E+02  0.45594000000E+02  0.51100000000E-03 0.  1.
    9900012    2    1    2    0    0 -0.90787544059E+00 -0.11534265718E+00 -0.74529156401E+00  0.90007745256E+02  0.90000006694E+02 0.  0.
         12    1    1    2    0    0  0.90787544059E+00  0.11534265718E+00  0.74529156401E+00  0.11802547435E+01  0.00000000000E+00 0. -1.
         11    1    3    3    0    0 -0.10278259958E+02 -0.37428293188E+02  0.17124469638E+02  0.42423663436E+02  0.51100000000E-03 0. -1.
        -11    1    3    3    0    0  0.67097348880E+01  0.59124931673E+01  0.33969193524E+01  0.95664611570E+01  0.51100000000E-03 0.  1.
        -12    1    3    3    0    0  0.26606496296E+01  0.31400457363E+02 -0.21266680555E+02  0.38017620663E+02  0.00000000000E+00 0.  1.
</event>
<event>
 7    1  0.2404951E-015  0.9000772E+02  0.7816164E-02  0.1186339E+00
        -11   -1    0    0    0    0  0.00000000000E+00  0.00000000000E+00  0.45593999997E+02  0.45594000000E+02  0.51100000000E-03 0. -1.
         11   -1    0    0    0    0 -0.00000000000E+00 -0.00000000000E+00 -0.45593999997E+02  0.45594000000E+02  0.51100000000E-03 0.  1.
    9900012    2    1    2    0    0  0.46986011649E+00  0.49396329236E+00 -0.96347345993E+00  0.90007724875E+02  0.89999986043E+02 0.  0.
         12    1    1    2    0    0 -0.46986011649E+00 -0.49396329236E+00  0.96347345993E+00  0.11802751252E+01  0.00000000000E+00 0. -1.
         11    1    3    3    0    0  0.10654282518E+01  0.99410969142E+01 -0.38592864462E+01  0.10717025583E+02  0.51100000000E-03 0. -1.
        -11    1    3    3    0    0  0.13495972731E+02  0.27633943038E+02  0.19361614596E+02  0.36340723821E+02  0.51100000000E-03 0.  1.
         12    1    3    3    0    0 -0.14091540866E+02 -0.37081076660E+02 -0.16465801610E+02  0.42949975471E+02  0.00000000000E+00 0. -1.
</event>
<event>
 7    1  0.2404951E-015  0.9000776E+02  0.7816164E-02  0.1186339E+00
        -11   -1    0    0    0    0  0.00000000000E+00  0.00000000000E+00  0.45593999997E+02  0.45594000000E+02  0.51100000000E-03 0. -1.
         11   -1    0    0    0    0 -0.00000000000E+00 -0.00000000000E+00 -0.45593999997E+02  0.45594000000E+02  0.51100000000E-03 0.  1.
    9900012    2    1    2    0    0 -0.22737089880E+00 -0.10864683530E+01 -0.40107059626E+00  0.90007759079E+02  0.90000020699E+02 0.  0.
         12    1    1    2    0    0  0.22737089880E+00  0.10864683530E+01  0.40107059626E+00  0.11802409207E+01  0.00000000000E+00 0. -1.
         11    1    3    3    0    0  0.72243642902E+01 -0.20684765624E+01 -0.57102181521E+01  0.94380414437E+01  0.51100000000E-03 0. -1.
        -11    1    3    3    0    0  0.35676351679E+01  0.32667800693E+02 -0.20068230446E+02  0.38505156749E+02  0.51100000000E-03 0.  1.
         12    1    3    3    0    0 -0.11019370357E+02 -0.31685792483E+02  0.25377378002E+02  0.42064560887E+02  0.00000000000E+00 0. -1.
</event>
<event>
 7    1  0.2404951E-015  0.9000753E+02  0.7816164E-02  0.1186339E+00
        -11   -1    0    0    0    0  0.00000000000E+00  0.00000000000E+00  0.45593999997E+02  0.45594000000E+02  0.51100000000E-03 0.  1.
         11   -1    0    0    0    0 -0.00000000000E+00 -0.00000000000E+00 -0.45593999997E+02  0.45594000000E+02  0.51100000000E-03 0. -1.
    9900012    2    1    2    0    0  0.41508857605E+00 -0.11038836945E+01 -0.51553030927E-01  0.90007527446E+02  0.89999786008E+02 0.  0.
         12    1    1    2    0    0 -0.41508857605E+00  0.11038836945E+01  0.51553030927E-01  0.11804725545E+01  0.00000000000E+00 0. -1.
         11    1    3    3    0    0  0.20982771417E+02  0.31594013044E+02 -0.16942575589E+02  0.41539249203E+02  0.51100000000E-03 0. -1.
        -11    1    3    3    0    0 -0.79198158711E+01  0.22596596630E+01  0.36035727243E+01  0.89897320241E+01  0.51100000000E-03 0.  1.
        -12    1    3    3    0    0 -0.12647866970E+02 -0.34957556401E+02  0.13287449834E+02  0.39478546218E+02  0.00000000000E+00 0.  1.
</event>
<event>
 7    1  0.2404951E-015  0.9000772E+02  0.7816164E-02  0.1186339E+00
        -11   -1    0    0    0    0  0.00000000000E+00  0.00000000000E+00  0.45593999997E+02  0.45594000000E+02  0.51100000000E-03 0. -1.
         11   -1    0    0    0    0 -0.00000000000E+00 -0.00000000000E+00 -0.45593999997E+02  0.45594000000E+02  0.51100000000E-03 0.  1.
    9900012    2    1    2    0    0  0.38402502996E+00  0.89580629924E+00 -0.66566701825E+00  0.90007721758E+02  0.89999982885E+02 0.  0.
         12    1    1    2    0    0 -0.38402502996E+00 -0.89580629924E+00  0.66566701825E+00  0.11802782420E+01  0.00000000000E+00 0. -1.
         11    1    3    3    0    0 -0.74823084009E+00 -0.33494294037E+02  0.26444570773E+02  0.42681880301E+02  0.51100000000E-03 0. -1.
        -11    1    3    3    0    0  0.45146442179E+01  0.10957552856E+02 -0.72136682295E+00  0.11873093420E+02  0.51100000000E-03 0.  1.
        -12    1    3    3    0    0 -0.33823883479E+01  0.23432547480E+02 -0.26388870968E+02  0.35452748036E+02  0.00000000000E+00 0.  1.
</event>
<event>
 7    1  0.2404951E-015  0.9000774E+02  0.7816164E-02  0.1186339E+00
        -11   -1    0    0    0    0  0.00000000000E+00  0.00000000000E+00  0.45593999997E+02  0.45594000000E+02  0.51100000000E-03 0.  1.
         11   -1    0    0    0    0 -0.00000000000E+00 -0.00000000000E+00 -0.45593999997E+02  0.45594000000E+02  0.51100000000E-03 0. -1.
    9900012    2    1    2    0    0  0.44620753554E+00 -0.60547558982E+00  0.90956491156E+00  0.90007741476E+02  0.90000002864E+02 0.  0.
         12    1    1    2    0    0 -0.44620753554E+00  0.60547558982E+00 -0.90956491156E+00  0.11802585238E+01  0.00000000000E+00 0. -1.
         11    1    3    3    0    0  0.20136684013E+02  0.34152131776E+02 -0.11955963143E+02  0.41410134059E+02  0.51100000000E-03 0. -1.
        -11    1    3    3    0    0  0.54157431810E+01 -0.83756997940E+01  0.28622443050E-02  0.99740979389E+01  0.51100000000E-03 0.  1.
        -12    1    3    3    0    0 -0.25106219658E+02 -0.26381907572E+02  0.12862665810E+02  0.38623509478E+02  0.00000000000E+00 0.  1.
</event>
<event>
 7    1  0.2404951E-015  0.9000790E+02  0.7816164E-02  0.1186339E+00
        -11   -1    0    0    0    0  0.00000000000E+00  0.00000000000E+00  0.45593999997E+02  0.45594000000E+02  0.51100000000E-03 0.  1.
         11   -1    0    0    0    0 -0.00000000000E+00 -0.00000000000E+00 -0.45593999997E+02  0.45594000000E+02  0.51100000000E-03 0. -1.
    9900012    2    1    2    0    0  0.39935079139E+00 -0.63511926029E+00  0.91091908381E+00  0.90007902078E+02  0.90000165585E+02 0.  0.
         12    1    1    2    0    0 -0.39935079139E+00  0.63511926029E+00 -0.91091908381E+00  0.11800979225E+01  0.00000000000E+00 0. -1.
         11    1    3    3    0    0  0.15695385914E+02  0.16044649867E+02 -0.27980151323E+02  0.35870110074E+02  0.51100000000E-03 0. -1.
        -11    1    3    3    0    0  0.22369889399E+01  0.40825382245E+01 -0.74348564551E+01  0.87720196444E+01  0.51100000000E-03 0.  1.
        -12    1    3    3    0    0 -0.17533024063E+02 -0.20762307352E+02  0.36325926862E+02  0.45365772359E+02  0.00000000000E+00 0.  1.
</event>
<event>
 7    1  0.2404951E-015  0.9000774E+02  0.7816164E-02  0.1186339E+00
        -11   -1    0    0    0    0  0.00000000000E+00  0.00000000000E+00  0.45593999997E+02  0.45594000000E+02  0.51100000000E-03 0. -1.
         11   -1    0    0    0    0 -0.00000000000E+00 -0.00000000000E+00 -0.45593999997E+02  0.45594000000E+02  0.51100000000E-03 0.  1.
    9900012    2    1    2    0    0 -0.14704406464E+00 -0.82258074477E+00 -0.83351167921E+00  0.90007744622E+02  0.90000006051E+02 0.  0.
         12    1    1    2    0    0  0.14704406464E+00  0.82258074477E+00  0.83351167921E+00  0.11802553783E+01  0.00000000000E+00 0. -1.
         11    1    3    3    0    0 -0.25564527378E+02  0.27332143243E+02 -0.20064935485E+02  0.42464017128E+02  0.51100000000E-03 0. -1.
        -11    1    3    3    0    0  0.29449023498E+00 -0.75717001967E+01 -0.30384028179E+01  0.81638998225E+01  0.51100000000E-03 0.  1.
        -12    1    3    3    0    0  0.25122993078E+02 -0.20583023792E+02  0.22269826623E+02  0.39379827672E+02  0.00000000000E+00 0.  1.
</event>
<event>
 7    1  0.2404951E-015  0.9000780E+02  0.7816164E-02  0.1186339E+00
        -11   -1    0    0    0    0  0.00000000000E+00  0.00000000000E+00  0.45593999997E+02  0.45594000000E+02  0.51100000000E-03 0.  1.
         11   -1    0    0    0    0 -0.00000000000E+00 -0.00000000000E+00 -0.45593999997E+02  0.45594000000E+02  0.51100000000E-03 0. -1.
    9900012    2    1    2    0    0  0.31152810709E-01  0.27936605750E+00  0.11462357422E+01  0.90007799903E+02  0.90000062062E+02 0.  0.
         12    1    1    2    0    0 -0.31152810709E-01 -0.27936605750E+00 -0.11462357422E+01  0.11802000968E+01  0.00000000000E+00 0. -1.
         11    1    3    3    0    0  0.68459137354E+01 -0.50870434370E+00 -0.54255664447E+01  0.87499763707E+01  0.51100000000E-03 0. -1.
        -11    1    3    3    0    0  0.33160557068E+02  0.16855943602E+02 -0.23016320684E+01  0.37269865712E+02  0.51100000000E-03 0.  1.
         12    1    3    3    0    0 -0.39975317992E+02 -0.16067873200E+02  0.88734342553E+01  0.43987957821E+02  0.00000000000E+00 0. -1.
</event>
<event>
 7    1  0.2404951E-015  0.9000780E+02  0.7816164E-02  0.1186339E+00
        -11   -1    0    0    0    0  0.00000000000E+00  0.00000000000E+00  0.45593999997E+02  0.45594000000E+02  0.51100000000E-03 0.  1.
         11   -1    0    0    0    0 -0.00000000000E+00 -0.00000000000E+00 -0.45593999997E+02  0.45594000000E+02  0.51100000000E-03 0. -1.
    9900012    2    1    2    0    0 -0.63705293524E+00  0.83387200058E+00  0.54009307444E+00  0.90007796846E+02  0.90000058964E+02 0.  0.
         12    1    1    2    0    0  0.63705293524E+00 -0.83387200058E+00 -0.54009307444E+00  0.11802031540E+01  0.00000000000E+00 0. -1.
         11    1    3    3    0    0  0.13806754545E+02 -0.22359643224E+02 -0.18144370089E+02  0.31934280677E+02  0.51100000000E-03 0. -1.
        -11    1    3    3    0    0  0.85587835646E+01 -0.64428301944E+01 -0.68290095387E+01  0.12704259465E+02  0.51100000000E-03 0.  1.
        -12    1    3    3    0    0 -0.23002591044E+02  0.29636345419E+02  0.25513472702E+02  0.45369256704E+02  0.00000000000E+00 0.  1.
</event>
<event>
 7    1  0.2404951E-015  0.9000761E+02  0.7816164E-02  0.1186339E+00
        -11   -1    0    0    0    0  0.00000000000E+00  0.00000000000E+00  0.45593999997E+02  0.45594000000E+02  0.51100000000E-03 0.  1.
         11   -1    0    0    0    0 -0.00000000000E+00 -0.00000000000E+00 -0.45593999997E+02  0.45594000000E+02  0.51100000000E-03 0. -1.
    9900012    2    1    2    0    0 -0.64468662234E+00 -0.63420645582E+00 -0.75859787210E+00  0.90007614723E+02  0.89999874438E+02 0.  0.
         12    1    1    2    0    0  0.64468662234E+00  0.63420645582E+00  0.75859787210E+00  0.11803852766E+01  0.00000000000E+00 0. -1.
         11    1    3    3    0    0 -0.17741546636E+02  0.31407955979E+02 -0.14712832718E+02  0.38957536147E+02  0.51100000000E-03 0. -1.
        -11    1    3    3    0    0  0.16098040202E+01  0.69573128220E+01  0.18378639373E+01  0.73738331145E+01  0.51100000000E-03 0.  1.
        -12    1    3    3    0    0  0.15487055994E+02 -0.38999475257E+02  0.12116370909E+02  0.43676245462E+02  0.00000000000E+00 0.  1.
</event>
<event>
 7    1  0.2404951E-015  0.9000777E+02  0.7816164E-02  0.1186339E+00
        -11   -1    0    0    0    0  0.00000000000E+00  0.00000000000E+00  0.45593999997E+02  0.45594000000E+02  0.51100000000E-03 0. -1.
         11   -1    0    0    0    0 -0.00000000000E+00 -0.00000000000E+00 -0.45593999997E+02  0.45594000000E+02  0.51100000000E-03 0.  1.
    9900012    2    1    2    0    0 -0.86323071290E+00  0.52951074539E+00 -0.60612961533E+00  0.90007770360E+02  0.90000032128E+02 0.  0.
         12    1    1    2    0    0  0.86323071290E+00 -0.52951074539E+00  0.60612961533E+00  0.11802296403E+01  0.00000000000E+00 0. -1.
         11    1    3    3    0    0  0.42442385558E+01 -0.69849869316E+01 -0.41942766959E+01  0.91867056454E+01  0.51100000000E-03 0. -1.
        -11    1    3    3    0    0 -0.14051962559E+02 -0.83548778614E+01 -0.34734360794E+02  0.38389288296E+02  0.51100000000E-03 0.  1.
         12    1    3    3    0    0  0.89444932905E+01  0.15869375538E+02  0.38322507875E+02  0.42431776418E+02  0.00000000000E+00 0. -1.
</event>
<event>
 7    1  0.2404951E-015  0.9000775E+02  0.7816164E-02  0.1186339E+00
        -11   -1    0    0    0    0  0.00000000000E+00  0.00000000000E+00  0.45593999997E+02  0.45594000000E+02  0.51100000000E-03 0. -1.
         11   -1    0    0    0    0 -0.00000000000E+00 -0.00000000000E+00 -0.45593999997E+02  0.45594000000E+02  0.51100000000E-03 0.  1.
    9900012    2    1    2    0    0  0.99899631748E+00 -0.14897283593E+00 -0.61058047347E+00  0.90007747882E+02  0.90000009354E+02 0.  0.
         12    1    1    2    0    0 -0.99899631748E+00  0.14897283593E+00  0.61058047347E+00  0.11802521183E+01  0.00000000000E+00 0. -1.
         11    1    3    3    0    0 -0.16768700743E+02  0.32272049850E+01  0.32148315734E+01  0.17376401208E+02  0.51100000000E-03 0. -1.
        -11    1    3    3    0    0  0.17521020580E+02  0.25269859097E+02 -0.22791042701E+02  0.38275103770E+02  0.51100000000E-03 0.  1.
         12    1    3    3    0    0  0.24667648125E+00 -0.28646036918E+02  0.18965630654E+02  0.34356242904E+02  0.00000000000E+00 0. -1.
</event>
<event>
 7    1  0.2404951E-015  0.9000768E+02  0.7816164E-02  0.1186339E+00
        -11   -1    0    0    0    0  0.00000000000E+00  0.00000000000E+00  0.45593999997E+02  0.45594000000E+02  0.51100000000E-03 0.  1.
         11   -1    0    0    0    0 -0.00000000000E+00 -0.00000000000E+00 -0.45593999997E+02  0.45594000000E+02  0.51100000000E-03 0. -1.
    9900012    2    1    2    0    0  0.38296430382E+00 -0.96428933897E+00  0.56269853878E+00  0.90007684266E+02  0.89999944898E+02 0.  0.
         12    1    1    2    0    0 -0.38296430382E+00  0.96428933897E+00 -0.56269853878E+00  0.11803157344E+01  0.00000000000E+00 0. -1.
         11    1    3    3    0    0  0.15722025941E+02  0.27301038540E+02 -0.15282559769E+02  0.35015502829E+02  0.51100000000E-03 0. -1.
        -11    1    3    3    0    0  0.45966211623E+01  0.73910124204E+01 -0.39964258917E+01  0.95774428151E+01  0.51100000000E-03 0.  1.
        -12    1    3    3    0    0 -0.19935682800E+02 -0.35656340299E+02  0.19841684199E+02  0.45414738621E+02  0.00000000000E+00 0.  1.
</event>
<event>
 7    1  0.2404951E-015  0.9000780E+02  0.7816164E-02  0.1186339E+00
        -11   -1    0    0    0    0  0.00000000000E+00  0.00000000000E+00  0.45593999997E+02  0.45594000000E+02  0.51100000000E-03 0.  1.
         11   -1    0    0    0    0 -0.00000000000E+00 -0.00000000000E+00 -0.45593999997E+02  0.45594000000E+02  0.51100000000E-03 0. -1.
    9900012    2    1    2    0    0  0.98357983131E+00 -0.17747825677E+00  0.62764555487E+00  0.90007802237E+02  0.90000064427E+02 0.  0.
         12    1    1    2    0    0 -0.98357983131E+00  0.17747825677E+00 -0.62764555487E+00  0.11801977626E+01  0.00000000000E+00 0. -1.
         11    1    3    3    0    0 -0.35269005537E+01 -0.21966345434E+01 -0.11279281739E+02  0.12020250732E+02  0.51100000000E-03 0. -1.
        -11    1    3    3    0    0 -0.12646124165E+02  0.32688481161E+02 -0.10159275746E+02  0.36492083265E+02  0.51100000000E-03 0.  1.
         12    1    3    3    0    0  0.17156604550E+02 -0.30669324875E+02  0.22066203040E+02  0.41495468241E+02  0.00000000000E+00 0. -1.
</event>
<event>
 7    1  0.2404951E-015  0.9000767E+02  0.7816164E-02  0.1186339E+00
        -11   -1    0    0    0    0  0.00000000000E+00  0.00000000000E+00  0.45593999997E+02  0.45594000000E+02  0.51100000000E-03 0. -1.
         11   -1    0    0    0    0 -0.00000000000E+00 -0.00000000000E+00 -0.45593999997E+02  0.45594000000E+02  0.51100000000E-03 0.  1.
    9900012    2    1    2    0    0  0.60315017523E+00 -0.93749046383E+00 -0.38794780388E+00  0.90007668690E+02  0.89999929116E+02 0.  0.
         12    1    1    2    0    0 -0.60315017523E+00  0.93749046383E+00  0.38794780388E+00  0.11803313104E+01  0.00000000000E+00 0. -1.
         11    1    3    3    0    0  0.10158698584E+02 -0.13930229772E+02  0.31503219302E+02  0.35912439141E+02  0.51100000000E-03 0. -1.
        -11    1    3    3    0    0  0.33857025124E+01 -0.75881938237E+01  0.51592160388E+01  0.97806532197E+01  0.51100000000E-03 0.  1.
        -12    1    3    3    0    0 -0.12941250922E+02  0.20580933132E+02 -0.37050383145E+02  0.44314576328E+02  0.00000000000E+00 0.  1.
</event>
<event>
 7    1  0.2404951E-015  0.9000781E+02  0.7816164E-02  0.1186339E+00
        -11   -1    0    0    0    0  0.00000000000E+00  0.00000000000E+00  0.45593999997E+02  0.45594000000E+02  0.51100000000E-03 0.  1.
         11   -1    0    0    0    0 -0.00000000000E+00 -0.00000000000E+00 -0.45593999997E+02  0.45594000000E+02  0.51100000000E-03 0. -1.
    9900012    2    1    2    0    0 -0.96256163964E+00 -0.48486670043E+00 -0.48086307497E+00  0.90007809370E+02  0.90000071653E+02 0.  0.
         12    1    1    2    0    0  0.96256163964E+00  0.48486670043E+00  0.48086307497E+00  0.11801906304E+01  0.00000000000E+00 0. -1.
         11    1    3    3    0    0  0.28272143436E+02 -0.20000940111E+01 -0.28345051799E+02  0.40084366432E+02  0.51100000000E-03 0. -1.
        -11    1    3    3    0    0 -0.73251691654E+01 -0.42685605010E+01 -0.51209632055E+01  0.99046946680E+01  0.51100000000E-03 0.  1.
        -12    1    3    3    0    0 -0.21909535910E+02  0.57837878116E+01  0.32985151930E+02  0.40018748270E+02  0.00000000000E+00 0.  1.
</event>
<event>
 7    1  0.2472901E-015  0.9000775E+02  0.7816164E-02  0.1186339E+00
        -11   -1    0    0    0    0  0.00000000000E+00  0.00000000000E+00  0.45593999997E+02  0.45594000000E+02  0.51100000000E-03 0. -1.
         11   -1    0    0    0    0 -0.00000000000E+00 -0.00000000000E+00 -0.45593999997E+02  0.45594000000E+02  0.51100000000E-03 0.  1.
    9900012    2    1    2    0    0 -0.87213872798E+00 -0.79496950913E+00  0.19949856594E-01  0.90007745588E+02  0.90000007029E+02 0.  0.
         12    1    1    2    0    0  0.87213872798E+00  0.79496950913E+00 -0.19949856594E-01  0.11802544124E+01  0.00000000000E+00 0. -1.
         11    1    3    3    0    0  0.11278183792E+02  0.33937848074E+02  0.37043504061E+01  0.35954098149E+02  0.51100000000E-03 0. -1.
        -11    1    3    3    0    0  0.52521647499E+01  0.57622936409E+01 -0.61178184648E+01  0.99104472953E+01  0.51100000000E-03 0.  1.
        -12    1    3    3    0    0 -0.17402487269E+02 -0.40495111223E+02  0.24334179153E+01  0.44143200144E+02  0.00000000000E+00 0.  1.
</event>
<event>
 7    1  0.2404951E-015  0.9000774E+02  0.7816164E-02  0.1186339E+00
        -11   -1    0    0    0    0  0.00000000000E+00  0.00000000000E+00  0.45593999997E+02  0.45594000000E+02  0.51100000000E-03 0. -1.
         11   -1    0    0    0    0 -0.00000000000E+00 -0.00000000000E+00 -0.45593999997E+02  0.45594000000E+02  0.51100000000E-03 0.  1.
    9900012    2    1    2    0    0  0.82693421290E+00  0.76776105690E+00 -0.34601995575E+00  0.90007742807E+02  0.90000004212E+02 0.  0.
         12    1    1    2    0    0 -0.82693421290E+00 -0.76776105690E+00  0.34601995575E+00  0.11802571935E+01  0.00000000000E+00 0. -1.
         11    1    3    3    0    0 -0.16593728177E+02  0.13506638710E+02  0.32074113136E+02  0.38555542245E+02  0.51100000000E-03 0. -1.
        -11    1    3    3    0    0 -0.38195892420E+01  0.84175297774E+01 -0.37647544990E+01  0.99808539830E+01  0.51100000000E-03 0.  1.
        -12    1    3    3    0    0  0.21240251632E+02 -0.21156407431E+02 -0.28655378593E+02  0.41471346579E+02  0.00000000000E+00 0.  1.
</event>
<event>
 7    1  0.2404951E-015  0.9000771E+02  0.7816164E-02  0.1186339E+00
        -11   -1    0    0    0    0  0.00000000000E+00  0.00000000000E+00  0.45593999997E+02  0.45594000000E+02  0.51100000000E-03 0.  1.
         11   -1    0    0    0    0 -0.00000000000E+00 -0.00000000000E+00 -0.45593999997E+02  0.45594000000E+02  0.51100000000E-03 0. -1.
    9900012    2    1    2    0    0 -0.10722509232E+00  0.10926132448E+01  0.43334672052E+00  0.90007707535E+02  0.89999968474E+02 0.  0.
         12    1    1    2    0    0  0.10722509232E+00 -0.10926132448E+01 -0.43334672052E+00  0.11802924652E+01  0.00000000000E+00 0. -1.
         11    1    3    3    0    0 -0.99236932797E+01  0.53295616171E+01 -0.13470689928E+02  0.17559709643E+02  0.51100000000E-03 0. -1.
        -11    1    3    3    0    0  0.25059786810E+02  0.26467240451E+02  0.10865585430E+02  0.38033783391E+02  0.51100000000E-03 0.  1.
        -12    1    3    3    0    0 -0.15243318623E+02 -0.30704188823E+02  0.30384512183E+01  0.34414214501E+02  0.00000000000E+00 0.  1.
</event>
<event>
 7    1  0.2404951E-015  0.9000757E+02  0.7816164E-02  0.1186339E+00
        -11   -1    0    0    0    0  0.00000000000E+00  0.00000000000E+00  0.45593999997E+02  0.45594000000E+02  0.51100000000E-03 0. -1.
         11   -1    0    0    0    0 -0.00000000000E+00 -0.00000000000E+00 -0.45593999997E+02  0.45594000000E+02  0.51100000000E-03 0.  1.
    9900012    2    1    2    0    0 -0.72808900385E+00 -0.90573589986E+00 -0.20720677779E+00  0.90007573905E+02  0.89999833080E+02 0.  0.
         12    1    1    2    0    0  0.72808900385E+00  0.90573589986E+00  0.20720677779E+00  0.11804260953E+01  0.00000000000E+00 0. -1.
         11    1    3    3    0    0 -0.96939076501E+01 -0.23870361542E+00 -0.13377817952E+01  0.97886917071E+01  0.51100000000E-03 0. -1.
        -11    1    3    3    0    0 -0.28942997206E+02 -0.27484766571E+01 -0.21373664365E+02  0.36084411314E+02  0.51100000000E-03 0.  1.
         12    1    3    3    0    0  0.37908815852E+02  0.20814443727E+01  0.22504239383E+02  0.44134470884E+02  0.00000000000E+00 0. -1.
</event>
<event>
 7    1  0.2404951E-015  0.9000772E+02  0.7816164E-02  0.1186339E+00
        -11   -1    0    0    0    0  0.00000000000E+00  0.00000000000E+00  0.45593999997E+02  0.45594000000E+02  0.51100000000E-03 0.  1.
         11   -1    0    0    0    0 -0.00000000000E+00 -0.00000000000E+00 -0.45593999997E+02  0.45594000000E+02  0.51100000000E-03 0. -1.
    9900012    2    1    2    0    0 -0.24828482055E+00 -0.11445987199E+01  0.14599981974E+00  0.90007717183E+02  0.89999978249E+02 0.  0.
         12    1    1    2    0    0  0.24828482055E+00  0.11445987199E+01 -0.14599981974E+00  0.11802828174E+01  0.00000000000E+00 0. -1.
         11    1    3    3    0    0  0.36033278442E+00  0.62154873268E+01  0.36302255657E+01  0.72069869116E+01  0.51100000000E-03 0. -1.
        -11    1    3    3    0    0  0.14680749438E+02  0.33346735639E+02  0.90585214148E+01  0.37544453550E+02  0.51100000000E-03 0.  1.
         12    1    3    3    0    0 -0.15289367043E+02 -0.40706821686E+02 -0.12542747161E+02  0.45256276721E+02  0.00000000000E+00 0. -1.
</event>
<event>
 7    1  0.2404951E-015  0.9000773E+02  0.7816164E-02  0.1186339E+00
        -11   -1    0    0    0    0  0.00000000000E+00  0.00000000000E+00  0.45593999997E+02  0.45594000000E+02  0.51100000000E-03 0. -1.
         11   -1    0    0    0    0 -0.00000000000E+00 -0.00000000000E+00 -0.45593999997E+02  0.45594000000E+02  0.51100000000E-03 0.  1.
    9900012    2    1    2    0    0  0.93822141273E+00 -0.49365467679E-01 -0.71437639699E+00  0.90007733079E+02  0.89999994355E+02 0.  0.
         12    1    1    2    0    0 -0.93822141273E+00  0.49365467679E-01  0.71437639699E+00  0.11802669212E+01  0.00000000000E+00 0. -1.
         11    1    3    3    0    0 -0.96307404771E+01  0.35422888047E+02  0.86405635461E+01  0.37711954317E+02  0.51100000000E-03 0. -1.
        -11    1    3    3    0    0  0.46480560556E+00  0.64971565040E+01 -0.62313210804E+01  0.90143468736E+01  0.51100000000E-03 0.  1.
        -12    1    3    3    0    0  0.10104156284E+02 -0.41969410019E+02 -0.31236188627E+01  0.43281431889E+02  0.00000000000E+00 0.  1.
</event>
<event>
 7    1  0.2404951E-015  0.9000774E+02  0.7816164E-02  0.1186339E+00
        -11   -1    0    0    0    0  0.00000000000E+00  0.00000000000E+00  0.45593999997E+02  0.45594000000E+02  0.51100000000E-03 0.  1.
         11   -1    0    0    0    0 -0.00000000000E+00 -0.00000000000E+00 -0.45593999997E+02  0.45594000000E+02  0.51100000000E-03 0. -1.
    9900012    2    1    2    0    0 -0.48233909896E+00 -0.94036227483E+00  0.52542515380E+00  0.90007744177E+02  0.90000005601E+02 0.  0.
         12    1    1    2    0    0  0.48233909896E+00  0.94036227483E+00 -0.52542515380E+00  0.11802558225E+01  0.00000000000E+00 0. -1.
         11    1    3    3    0    0  0.26531935349E+02  0.73908104436E+01 -0.23050628439E+02  0.35915165934E+02  0.51100000000E-03 0. -1.
        -11    1    3    3    0    0  0.12299116519E+01 -0.28665274204E+01 -0.96508059636E+01  0.10142372411E+02  0.51100000000E-03 0.  1.
        -12    1    3    3    0    0 -0.28244186100E+02 -0.54646452981E+01  0.33226859556E+02  0.43950205832E+02  0.00000000000E+00 0.  1.
</event>
<event>
 7    1  0.2404951E-015  0.9000778E+02  0.7816164E-02  0.1186339E+00
        -11   -1    0    0    0    0  0.00000000000E+00  0.00000000000E+00  0.45593999997E+02  0.45594000000E+02  0.51100000000E-03 0.  1.
         11   -1    0    0    0    0 -0.00000000000E+00 -0.00000000000E+00 -0.45593999997E+02  0.45594000000E+02  0.51100000000E-03 0. -1.
    9900012    2    1    2    0    0  0.10730462892E+01 -0.42374366594E+00 -0.24886673062E+00  0.90007778969E+02  0.90000040851E+02 0.  0.
         12    1    1    2    0    0 -0.10730462892E+01  0.42374366594E+00  0.24886673062E+00  0.11802210313E+01  0.00000000000E+00 0. -1.
         11    1    3    3    0    0 -0.11516903973E+02 -0.28269543397E+01  0.50356709446E+01  0.12883661362E+02  0.51100000000E-03 0. -1.
        -11    1    3    3    0    0  0.44455657367E+02 -0.99321008291E+00 -0.70837355009E+01  0.45027449929E+02  0.51100000000E-03 0.  1.
         12    1    3    3    0    0 -0.31865707104E+02  0.33964207566E+01  0.17991978257E+01  0.32096667678E+02  0.00000000000E+00 0. -1.
</event>
<event>
 7    1  0.2404951E-015  0.9000775E+02  0.7816164E-02  0.1186339E+00
        -11   -1    0    0    0    0  0.00000000000E+00  0.00000000000E+00  0.45593999997E+02  0.45594000000E+02  0.51100000000E-03 0.  1.
         11   -1    0    0    0    0 -0.00000000000E+00 -0.00000000000E+00 -0.45593999997E+02  0.45594000000E+02  0.51100000000E-03 0. -1.
    9900012    2    1    2    0    0  0.98563646642E+00  0.39125265456E+00  0.51810867585E+00  0.90007748127E+02  0.90000009602E+02 0.  0.
         12    1    1    2    0    0 -0.98563646642E+00 -0.39125265456E+00 -0.51810867585E+00  0.11802518730E+01  0.00000000000E+00 0. -1.
         11    1    3    3    0    0  0.56897826716E+01 -0.51544276502E+01  0.65768583862E+01  0.10109244173E+02  0.51100000000E-03 0. -1.
        -11    1    3    3    0    0 -0.25072573466E+01 -0.15389823076E+02  0.32455558760E+02  0.36006892234E+02  0.51100000000E-03 0.  1.
         12    1    3    3    0    0 -0.21968888586E+01  0.20935503381E+02 -0.38514308470E+02  0.43891611720E+02  0.00000000000E+00 0. -1.
</event>
<event>
 7    1  0.2404951E-015  0.9000779E+02  0.7816164E-02  0.1186339E+00
        -11   -1    0    0    0    0  0.00000000000E+00  0.00000000000E+00  0.45593999997E+02  0.45594000000E+02  0.51100000000E-03 0.  1.
         11   -1    0    0    0    0 -0.00000000000E+00 -0.00000000000E+00 -0.45593999997E+02  0.45594000000E+02  0.51100000000E-03 0. -1.
    9900012    2    1    2    0    0 -0.93463735687E+00  0.47709400914E+00  0.54011265512E+00  0.90007793508E+02  0.90000055583E+02 0.  0.
         12    1    1    2    0    0  0.93463735687E+00 -0.47709400914E+00 -0.54011265512E+00  0.11802064915E+01  0.00000000000E+00 0. -1.
         11    1    3    3    0    0  0.10767769470E+02  0.35503101610E+02  0.56746326178E+01  0.37531540588E+02  0.51100000000E-03 0. -1.
        -11    1    3    3    0    0  0.59639077200E+00  0.66354544517E+01 -0.60908703614E+01  0.90268288869E+01  0.51100000000E-03 0.  1.
        -12    1    3    3    0    0 -0.12298797599E+02 -0.41661462053E+02  0.95635039873E+00  0.43449424033E+02  0.00000000000E+00 0.  1.
</event>
<event>
 7    1  0.2404951E-015  0.9000765E+02  0.7816164E-02  0.1186339E+00
        -11   -1    0    0    0    0  0.00000000000E+00  0.00000000000E+00  0.45593999997E+02  0.45594000000E+02  0.51100000000E-03 0.  1.
         11   -1    0    0    0    0 -0.00000000000E+00 -0.00000000000E+00 -0.45593999997E+02  0.45594000000E+02  0.51100000000E-03 0. -1.
    9900012    2    1    2    0    0  0.93620957676E+00  0.49717628834E+00 -0.51918003851E+00  0.90007652362E+02  0.89999912574E+02 0.  0.
         12    1    1    2    0    0 -0.93620957676E+00 -0.49717628834E+00  0.51918003851E+00  0.11803476376E+01  0.00000000000E+00 0. -1.
         11    1    3    3    0    0 -0.85809635120E+01 -0.23031750763E+01 -0.24756740684E+01  0.92231509031E+01  0.51100000000E-03 0. -1.
        -11    1    3    3    0    0 -0.26123577503E+02  0.26752913543E+02  0.50504108033E+01  0.37731503205E+02  0.51100000000E-03 0.  1.
         12    1    3    3    0    0  0.35640750591E+02 -0.23952562179E+02 -0.30939167734E+01  0.43052998254E+02  0.00000000000E+00 0. -1.
</event>
<event>
 7    1  0.2404951E-015  0.9000766E+02  0.7816164E-02  0.1186339E+00
        -11   -1    0    0    0    0  0.00000000000E+00  0.00000000000E+00  0.45593999997E+02  0.45594000000E+02  0.51100000000E-03 0.  1.
         11   -1    0    0    0    0 -0.00000000000E+00 -0.00000000000E+00 -0.45593999997E+02  0.45594000000E+02  0.51100000000E-03 0. -1.
    9900012    2    1    2    0    0 -0.16206189542E+00  0.11430422140E+01  0.24573166076E+00  0.90007663772E+02  0.89999924134E+02 0.  0.
         12    1    1    2    0    0  0.16206189542E+00 -0.11430422140E+01 -0.24573166076E+00  0.11803362275E+01  0.00000000000E+00 0. -1.
         11    1    3    3    0    0 -0.21310502008E+00 -0.34899726704E+01 -0.30107977250E+01  0.46141333089E+01  0.51100000000E-03 0. -1.
        -11    1    3    3    0    0 -0.95370654114E+00 -0.37006378804E+02  0.18060538124E+02  0.41189375644E+02  0.51100000000E-03 0.  1.
         12    1    3    3    0    0  0.10047496658E+01  0.41639393688E+02 -0.14804008738E+02  0.44204154820E+02  0.00000000000E+00 0. -1.
</event>
<event>
 7    1  0.2404951E-015  0.9000774E+02  0.7816164E-02  0.1186339E+00
        -11   -1    0    0    0    0  0.00000000000E+00  0.00000000000E+00  0.45593999997E+02  0.45594000000E+02  0.51100000000E-03 0. -1.
         11   -1    0    0    0    0 -0.00000000000E+00 -0.00000000000E+00 -0.45593999997E+02  0.45594000000E+02  0.51100000000E-03 0.  1.
    9900012    2    1    2    0    0 -0.48248373056E+00 -0.77024456728E+00  0.75295702490E+00  0.90007740908E+02  0.90000002288E+02 0.  0.
         12    1    1    2    0    0  0.48248373056E+00  0.77024456728E+00 -0.75295702490E+00  0.11802590923E+01  0.00000000000E+00 0. -1.
         11    1    3    3    0    0  0.50300868166E+01  0.10057916437E+02  0.17329845315E+01  0.11378343116E+02  0.51100000000E-03 0. -1.
        -11    1    3    3    0    0 -0.22190228932E+02  0.62973889294E+01 -0.32012699300E+02  0.39457271625E+02  0.51100000000E-03 0.  1.
         12    1    3    3    0    0  0.16677658385E+02 -0.17125549933E+02  0.31032671793E+02  0.39172126166E+02  0.00000000000E+00 0. -1.
</event>
<event>
 7    1  0.2404951E-015  0.9000765E+02  0.7816164E-02  0.1186339E+00
        -11   -1    0    0    0    0  0.00000000000E+00  0.00000000000E+00  0.45593999997E+02  0.45594000000E+02  0.51100000000E-03 0. -1.
         11   -1    0    0    0    0 -0.00000000000E+00 -0.00000000000E+00 -0.45593999997E+02  0.45594000000E+02  0.51100000000E-03 0.  1.
    9900012    2    1    2    0    0  0.52133931718E+00 -0.10479943768E+01  0.15215333159E+00  0.90007645166E+02  0.89999905282E+02 0.  0.
         12    1    1    2    0    0 -0.52133931718E+00  0.10479943768E+01 -0.15215333159E+00  0.11803548339E+01  0.00000000000E+00 0. -1.
         11    1    3    3    0    0  0.10591785997E+02 -0.90346341864E+01 -0.14657014295E+01  0.13998529438E+02  0.51100000000E-03 0. -1.
        -11    1    3    3    0    0 -0.33945787454E+02 -0.18152732905E+02 -0.80145812132E+01  0.39320118388E+02  0.51100000000E-03 0.  1.
         12    1    3    3    0    0  0.23875340774E+02  0.26139372714E+02  0.96324359743E+01  0.36688997340E+02  0.00000000000E+00 0. -1.
</event>
<event>
 7    1  0.2404951E-015  0.9000777E+02  0.7816164E-02  0.1186339E+00
        -11   -1    0    0    0    0  0.00000000000E+00  0.00000000000E+00  0.45593999997E+02  0.45594000000E+02  0.51100000000E-03 0.  1.
         11   -1    0    0    0    0 -0.00000000000E+00 -0.00000000000E+00 -0.45593999997E+02  0.45594000000E+02  0.51100000000E-03 0. -1.
    9900012    2    1    2    0    0 -0.10609206240E+01  0.50312160740E+00  0.11939561915E+00  0.90007771532E+02  0.90000033316E+02 0.  0.
         12    1    1    2    0    0  0.10609206240E+01 -0.50312160740E+00 -0.11939561915E+00  0.11802284678E+01  0.00000000000E+00 0. -1.
         11    1    3    3    0    0  0.30825904774E+01  0.84242608754E+01  0.36101339221E+01  0.96697260843E+01  0.51100000000E-03 0. -1.
        -11    1    3    3    0    0 -0.83383593518E+01  0.92438085084E+01  0.35451857435E+02  0.37574065900E+02  0.51100000000E-03 0.  1.
         12    1    3    3    0    0  0.41948482504E+01 -0.17164947776E+02 -0.38942595738E+02  0.42763979548E+02  0.00000000000E+00 0. -1.
</event>
<event>
 7    1  0.2404951E-015  0.9000772E+02  0.7816164E-02  0.1186339E+00
        -11   -1    0    0    0    0  0.00000000000E+00  0.00000000000E+00  0.45593999997E+02  0.45594000000E+02  0.51100000000E-03 0.  1.
         11   -1    0    0    0    0 -0.00000000000E+00 -0.00000000000E+00 -0.45593999997E+02  0.45594000000E+02  0.51100000000E-03 0. -1.
    9900012    2    1    2    0    0 -0.79993839370E+00 -0.85015326604E-01  0.86366836816E+00  0.90007723723E+02  0.89999984876E+02 0.  0.
         12    1    1    2    0    0  0.79993839370E+00  0.85015326604E-01 -0.86366836816E+00  0.11802762768E+01  0.00000000000E+00 0. -1.
         11    1    3    3    0    0  0.93484297652E+01  0.53138289058E+01 -0.16976074905E+01  0.10886311964E+02  0.51100000000E-03 0. -1.
        -11    1    3    3    0    0 -0.24953362429E+02 -0.19719589693E+02 -0.27928195106E+02  0.42326310923E+02  0.51100000000E-03 0.  1.
         12    1    3    3    0    0  0.14804994270E+02  0.14320745461E+02  0.30489470965E+02  0.36795100837E+02  0.00000000000E+00 0. -1.
</event>
<event>
 7    1  0.2404951E-015  0.9000761E+02  0.7816164E-02  0.1186339E+00
        -11   -1    0    0    0    0  0.00000000000E+00  0.00000000000E+00  0.45593999997E+02  0.45594000000E+02  0.51100000000E-03 0.  1.
         11   -1    0    0    0    0 -0.00000000000E+00 -0.00000000000E+00 -0.45593999997E+02  0.45594000000E+02  0.51100000000E-03 0. -1.
    9900012    2    1    2    0    0 -0.10752594738E+00  0.85401365445E+00 -0.80772247559E+00  0.90007611611E+02  0.89999871284E+02 0.  0.
         12    1    1    2    0    0  0.10752594738E+00 -0.85401365445E+00  0.80772247559E+00  0.11803883890E+01  0.00000000000E+00 0. -1.
         11    1    3    3    0    0  0.94163849101E+01  0.37042251577E+01  0.17619481007E+01  0.10271029655E+02  0.51100000000E-03 0. -1.
        -11    1    3    3    0    0  0.26094838243E+02  0.11412543889E+02  0.20386094055E+02  0.35025413232E+02  0.51100000000E-03 0.  1.
         12    1    3    3    0    0 -0.35618749101E+02 -0.14262755393E+02 -0.22955764632E+02  0.44711168725E+02  0.00000000000E+00 0. -1.
</event>
<event>
 7    1  0.2404951E-015  0.9000771E+02  0.7816164E-02  0.1186339E+00
        -11   -1    0    0    0    0  0.00000000000E+00  0.00000000000E+00  0.45593999997E+02  0.45594000000E+02  0.51100000000E-03 0. -1.
         11   -1    0    0    0    0 -0.00000000000E+00 -0.00000000000E+00 -0.45593999997E+02  0.45594000000E+02  0.51100000000E-03 0.  1.
    9900012    2    1    2    0    0  0.11718952587E+00  0.99917467167E+00  0.61725126122E+00  0.90007710828E+02  0.89999971811E+02 0.  0.
         12    1    1    2    0    0 -0.11718952587E+00 -0.99917467167E+00 -0.61725126122E+00  0.11802891718E+01  0.00000000000E+00 0. -1.
         11    1    3    3    0    0  0.92488254234E+00 -0.56842633978E+01  0.35873803825E+02  0.36333126197E+02  0.51100000000E-03 0. -1.
        -11    1    3    3    0    0  0.87876218909E+00 -0.15516160146E+01  0.87207119486E+01  0.89011545539E+01  0.51100000000E-03 0.  1.
        -12    1    3    3    0    0 -0.16864552056E+01  0.82350540841E+01 -0.43977264512E+02  0.44773430078E+02  0.00000000000E+00 0.  1.
</event>
<event>
 7    1  0.2404951E-015  0.9000757E+02  0.7816164E-02  0.1186339E+00
        -11   -1    0    0    0    0  0.00000000000E+00  0.00000000000E+00  0.45593999997E+02  0.45594000000E+02  0.51100000000E-03 0.  1.
         11   -1    0    0    0    0 -0.00000000000E+00 -0.00000000000E+00 -0.45593999997E+02  0.45594000000E+02  0.51100000000E-03 0. -1.
    9900012    2    1    2    0    0 -0.59287494650E+00 -0.99940820774E+00  0.20757368810E+00  0.90007574524E+02  0.89999833708E+02 0.  0.
         12    1    1    2    0    0  0.59287494650E+00  0.99940820774E+00 -0.20757368810E+00  0.11804254758E+01  0.00000000000E+00 0. -1.
         11    1    3    3    0    0  0.52230298545E+00  0.16351213794E+02 -0.22088049565E+02  0.27486668165E+02  0.51100000000E-03 0. -1.
        -11    1    3    3    0    0 -0.17079128307E+02  0.88464399053E+01  0.25204669396E+02  0.31705385699E+02  0.51100000000E-03 0.  1.
        -12    1    3    3    0    0  0.15963950375E+02 -0.26197061907E+02 -0.29090461422E+01  0.30815520661E+02  0.00000000000E+00 0.  1.
</event>
<event>
 7    1  0.2404951E-015  0.9000775E+02  0.7816164E-02  0.1186339E+00
        -11   -1    0    0    0    0  0.00000000000E+00  0.00000000000E+00  0.45593999997E+02  0.45594000000E+02  0.51100000000E-03 0.  1.
         11   -1    0    0    0    0 -0.00000000000E+00 -0.00000000000E+00 -0.45593999997E+02  0.45594000000E+02  0.51100000000E-03 0. -1.
    9900012    2    1    2    0    0  0.11951045691E+00 -0.91570296445E+00  0.73497222606E+00  0.90007754754E+02  0.90000016316E+02 0.  0.
         12    1    1    2    0    0 -0.11951045691E+00  0.91570296445E+00 -0.73497222606E+00  0.11802452463E+01  0.00000000000E+00 0. -1.
         11    1    3    3    0    0  0.51998115254E+01 -0.22641109588E+02  0.27883756908E+02  0.36292723552E+02  0.51100000000E-03 0. -1.
        -11    1    3    3    0    0  0.11996637965E+02  0.11723880935E+01  0.39764350129E+01  0.12692748007E+02  0.51100000000E-03 0.  1.
        -12    1    3    3    0    0 -0.17076939033E+02  0.20553018530E+02 -0.31125219695E+02  0.41022283194E+02  0.00000000000E+00 0.  1.
</event>
<event>
 7    1  0.2404951E-015  0.9000774E+02  0.7816164E-02  0.1186339E+00
        -11   -1    0    0    0    0  0.00000000000E+00  0.00000000000E+00  0.45593999997E+02  0.45594000000E+02  0.51100000000E-03 0.  1.
         11   -1    0    0    0    0 -0.00000000000E+00 -0.00000000000E+00 -0.45593999997E+02  0.45594000000E+02  0.51100000000E-03 0. -1.
    9900012    2    1    2    0    0  0.10817999057E+01 -0.48397857477E-01  0.46945033489E+00  0.90007738586E+02  0.89999999935E+02 0.  0.
         12    1    1    2    0    0 -0.10817999057E+01  0.48397857477E-01 -0.46945033489E+00  0.11802614141E+01  0.00000000000E+00 0. -1.
         11    1    3    3    0    0 -0.91405292897E+01  0.33841501822E+02 -0.10813912318E+02  0.36684291204E+02  0.51100000000E-03 0. -1.
        -11    1    3    3    0    0  0.69586666758E+01  0.64558326477E+01 -0.36632796192E+01  0.10174499246E+02  0.51100000000E-03 0.  1.
        -12    1    3    3    0    0  0.32636625197E+01 -0.40345732327E+02  0.14946642272E+02  0.43148948136E+02  0.00000000000E+00 0.  1.
</event>
<event>
 7    1  0.2404951E-015  0.9000772E+02  0.7816164E-02  0.1186339E+00
        -11   -1    0    0    0    0  0.00000000000E+00  0.00000000000E+00  0.45593999997E+02  0.45594000000E+02  0.51100000000E-03 0.  1.
         11   -1    0    0    0    0 -0.00000000000E+00 -0.00000000000E+00 -0.45593999997E+02  0.45594000000E+02  0.51100000000E-03 0. -1.
    9900012    2    1    2    0    0 -0.10143051275E+01 -0.26709203074E+00  0.54120973362E+00  0.90007719940E+02  0.89999981043E+02 0.  0.
         12    1    1    2    0    0  0.10143051275E+01  0.26709203074E+00 -0.54120973362E+00  0.11802800601E+01  0.00000000000E+00 0. -1.
         11    1    3    3    0    0  0.33104815031E+01  0.84539113596E+01 -0.63378126908E+01  0.11072297640E+02  0.51100000000E-03 0. -1.
        -11    1    3    3    0    0  0.15088850501E+02  0.30900621221E+02  0.52232077377E+01  0.34782232542E+02  0.51100000000E-03 0.  1.
         12    1    3    3    0    0 -0.19413637132E+02 -0.39621624611E+02  0.16558146868E+01  0.44153189758E+02  0.00000000000E+00 0. -1.
</event>
<event>
 7    1  0.2404951E-015  0.9000764E+02  0.7816164E-02  0.1186339E+00
        -11   -1    0    0    0    0  0.00000000000E+00  0.00000000000E+00  0.45593999997E+02  0.45594000000E+02  0.51100000000E-03 0. -1.
         11   -1    0    0    0    0 -0.00000000000E+00 -0.00000000000E+00 -0.45593999997E+02  0.45594000000E+02  0.51100000000E-03 0.  1.
    9900012    2    1    2    0    0  0.84494902663E+00  0.69544314704E+00 -0.44234719315E+00  0.90007639433E+02  0.89999899474E+02 0.  0.
         12    1    1    2    0    0 -0.84494902663E+00 -0.69544314704E+00  0.44234719315E+00  0.11803605668E+01  0.00000000000E+00 0. -1.
         11    1    3    3    0    0  0.80465989436E+01  0.48096607856E+00 -0.95600988392E+01  0.12504981927E+02  0.51100000000E-03 0. -1.
        -11    1    3    3    0    0  0.26948367791E+02 -0.88850570150E+01 -0.17429686034E+02  0.33300941732E+02  0.51100000000E-03 0.  1.
         12    1    3    3    0    0 -0.34150017708E+02  0.90995340834E+01  0.26547437680E+02  0.44201715774E+02  0.00000000000E+00 0. -1.
</event>
<event>
 7    1  0.2404951E-015  0.9000769E+02  0.7816164E-02  0.1186339E+00
        -11   -1    0    0    0    0  0.00000000000E+00  0.00000000000E+00  0.45593999997E+02  0.45594000000E+02  0.51100000000E-03 0.  1.
         11   -1    0    0    0    0 -0.00000000000E+00 -0.00000000000E+00 -0.45593999997E+02  0.45594000000E+02  0.51100000000E-03 0. -1.
    9900012    2    1    2    0    0  0.10674694063E+01  0.35886889861E+00  0.35335651897E+00  0.90007687054E+02  0.89999947724E+02 0.  0.
         12    1    1    2    0    0 -0.10674694063E+01 -0.35886889861E+00 -0.35335651897E+00  0.11803129455E+01  0.00000000000E+00 0. -1.
         11    1    3    3    0    0  0.57849642004E+01 -0.27009432920E+02 -0.22264421336E+02  0.35477876700E+02  0.51100000000E-03 0. -1.
        -11    1    3    3    0    0 -0.21218345265E+01 -0.81880016911E+01 -0.46445337554E+01  0.96497278468E+01  0.51100000000E-03 0.  1.
        -12    1    3    3    0    0 -0.25956602676E+01  0.35556303510E+02  0.27262311611E+02  0.44880082507E+02  0.00000000000E+00 0.  1.
</event>
<event>
 7    1  0.2404951E-015  0.9000765E+02  0.7816164E-02  0.1186339E+00
        -11   -1    0    0    0    0  0.00000000000E+00  0.00000000000E+00  0.45593999997E+02  0.45594000000E+02  0.51100000000E-03 0.  1.
         11   -1    0    0    0    0 -0.00000000000E+00 -0.00000000000E+00 -0.45593999997E+02  0.45594000000E+02  0.51100000000E-03 0. -1.
    9900012    2    1    2    0    0  0.10117207709E+01  0.54859532247E+00  0.26210906241E+00  0.90007645432E+02  0.89999905551E+02 0.  0.
         12    1    1    2    0    0 -0.10117207709E+01 -0.54859532247E+00 -0.26210906241E+00  0.11803545682E+01  0.00000000000E+00 0. -1.
         11    1    3    3    0    0  0.97908713819E+01 -0.11255021370E+01 -0.51037271170E+00  0.98685560263E+01  0.51100000000E-03 0. -1.
        -11    1    3    3    0    0  0.26714103071E+02  0.13503515394E+02  0.21977539750E+02  0.37134895780E+02  0.51100000000E-03 0.  1.
         12    1    3    3    0    0 -0.35493253682E+02 -0.11829417935E+02 -0.21205057976E+02  0.43004193625E+02  0.00000000000E+00 0. -1.
</event>
<event>
 7    1  0.2404951E-015  0.9000777E+02  0.7816164E-02  0.1186339E+00
        -11   -1    0    0    0    0  0.00000000000E+00  0.00000000000E+00  0.45593999997E+02  0.45594000000E+02  0.51100000000E-03 0.  1.
         11   -1    0    0    0    0 -0.00000000000E+00 -0.00000000000E+00 -0.45593999997E+02  0.45594000000E+02  0.51100000000E-03 0. -1.
    9900012    2    1    2    0    0  0.10516718362E+01  0.58383957756E-01  0.53245837143E+00  0.90007773643E+02  0.90000035455E+02 0.  0.
         12    1    1    2    0    0 -0.10516718362E+01 -0.58383957756E-01 -0.53245837143E+00  0.11802263575E+01  0.00000000000E+00 0. -1.
         11    1    3    3    0    0  0.19673351257E+02  0.41288854365E+01  0.39129199539E+02  0.43990711536E+02  0.51100000000E-03 0. -1.
        -11    1    3    3    0    0 -0.58911795904E+01 -0.58938765952E+01 -0.42767595476E+01  0.93666670045E+01  0.51100000000E-03 0.  1.
        -12    1    3    3    0    0 -0.12730499830E+02  0.18233751164E+01 -0.34319981620E+02  0.36650395102E+02  0.00000000000E+00 0.  1.
</event>
<event>
 7    1  0.2404951E-015  0.9000808E+02  0.7816164E-02  0.1186338E+00
        -11   -1    0    0    0    0  0.00000000000E+00  0.00000000000E+00  0.45593999997E+02  0.45594000000E+02  0.51100000000E-03 0. -1.
         11   -1    0    0    0    0 -0.00000000000E+00 -0.00000000000E+00 -0.45593999997E+02  0.45594000000E+02  0.51100000000E-03 0.  1.
    9900012    2    1    2    0    0 -0.55384501530E+00  0.10359066398E+01 -0.11118078828E+00  0.90008081344E+02  0.90000347217E+02 0.  0.
         12    1    1    2    0    0  0.55384501530E+00 -0.10359066398E+01  0.11118078828E+00  0.11799186561E+01  0.00000000000E+00 0. -1.
         11    1    3    3    0    0 -0.67311486464E+01 -0.29955583458E+00  0.58250793968E+01  0.89067191512E+01  0.51100000000E-03 0. -1.
        -11    1    3    3    0    0 -0.10153395048E+02 -0.37313090988E+02  0.37823681664E+00  0.38671711281E+02  0.51100000000E-03 0.  1.
         12    1    3    3    0    0  0.16330698679E+02  0.38648553462E+02 -0.63144970017E+01  0.42429650911E+02  0.00000000000E+00 0. -1.
</event>
<event>
 7    1  0.2404951E-015  0.9000776E+02  0.7816164E-02  0.1186339E+00
        -11   -1    0    0    0    0  0.00000000000E+00  0.00000000000E+00  0.45593999997E+02  0.45594000000E+02  0.51100000000E-03 0. -1.
         11   -1    0    0    0    0 -0.00000000000E+00 -0.00000000000E+00 -0.45593999997E+02  0.45594000000E+02  0.51100000000E-03 0.  1.
    9900012    2    1    2    0    0  0.99488031496E+00 -0.63251902181E+00  0.55663885554E-01  0.90007760354E+02  0.90000021991E+02 0.  0.
         12    1    1    2    0    0 -0.99488031496E+00  0.63251902181E+00 -0.55663885554E-01  0.11802396461E+01  0.00000000000E+00 0. -1.
         11    1    3    3    0    0  0.93325387745E+01 -0.93202576128E+00 -0.31415023562E+01  0.98911065767E+01  0.51100000000E-03 0. -1.
        -11    1    3    3    0    0 -0.26558334227E+02 -0.14203254054E+02 -0.28042765441E+02  0.41151843658E+02  0.51100000000E-03 0.  1.
         12    1    3    3    0    0  0.18220675768E+02  0.14502760793E+02  0.31239931683E+02  0.38964810119E+02  0.00000000000E+00 0. -1.
</event>
<event>
 7    1  0.2404951E-015  0.9000783E+02  0.7816164E-02  0.1186339E+00
        -11   -1    0    0    0    0  0.00000000000E+00  0.00000000000E+00  0.45593999997E+02  0.45594000000E+02  0.51100000000E-03 0.  1.
         11   -1    0    0    0    0 -0.00000000000E+00 -0.00000000000E+00 -0.45593999997E+02  0.45594000000E+02  0.51100000000E-03 0. -1.
    9900012    2    1    2    0    0 -0.52342269690E+00  0.80100310578E+00 -0.69081625264E+00  0.90007828661E+02  0.90000091199E+02 0.  0.
         12    1    1    2    0    0  0.52342269690E+00 -0.80100310578E+00  0.69081625264E+00  0.11801713393E+01  0.00000000000E+00 0. -1.
         11    1    3    3    0    0  0.55938394085E+01 -0.63702411609E+01  0.46073577803E+01  0.96487697534E+01  0.51100000000E-03 0. -1.
        -11    1    3    3    0    0 -0.13089161810E+02 -0.34626511988E+02 -0.80914829083E+01  0.37891867007E+02  0.51100000000E-03 0.  1.
         12    1    3    3    0    0  0.69718997047E+01  0.41797756255E+02  0.27933088754E+01  0.42467191900E+02  0.00000000000E+00 0. -1.
</event>
<event>
 7    1  0.2404951E-015  0.9000774E+02  0.7816164E-02  0.1186339E+00
        -11   -1    0    0    0    0  0.00000000000E+00  0.00000000000E+00  0.45593999997E+02  0.45594000000E+02  0.51100000000E-03 0.  1.
         11   -1    0    0    0    0 -0.00000000000E+00 -0.00000000000E+00 -0.45593999997E+02  0.45594000000E+02  0.51100000000E-03 0. -1.
    9900012    2    1    2    0    0 -0.91389054222E-01  0.58693305398E+00  0.10198856683E+01  0.90007741916E+02  0.90000003309E+02 0.  0.
         12    1    1    2    0    0  0.91389054222E-01 -0.58693305398E+00 -0.10198856683E+01  0.11802580843E+01  0.00000000000E+00 0. -1.
         11    1    3    3    0    0 -0.19640846308E+02 -0.19595432321E+02 -0.23250865640E+02  0.36198709436E+02  0.51100000000E-03 0. -1.
        -11    1    3    3    0    0  0.16731048894E+01 -0.55344322408E+01 -0.73175099536E+01  0.93260480580E+01  0.51100000000E-03 0.  1.
        -12    1    3    3    0    0  0.17876352364E+02  0.25716797616E+02  0.31588261262E+02  0.44482984422E+02  0.00000000000E+00 0.  1.
</event>
<event>
 7    1  0.2404951E-015  0.9000773E+02  0.7816164E-02  0.1186339E+00
        -11   -1    0    0    0    0  0.00000000000E+00  0.00000000000E+00  0.45593999997E+02  0.45594000000E+02  0.51100000000E-03 0. -1.
         11   -1    0    0    0    0 -0.00000000000E+00 -0.00000000000E+00 -0.45593999997E+02  0.45594000000E+02  0.51100000000E-03 0.  1.
    9900012    2    1    2    0    0 -0.38460336002E-01  0.84496648183E+00 -0.82315249301E+00  0.90007734106E+02  0.89999995397E+02 0.  0.
         12    1    1    2    0    0  0.38460336002E-01 -0.84496648183E+00  0.82315249301E+00  0.11802658936E+01  0.00000000000E+00 0. -1.
         11    1    3    3    0    0  0.54685139100E+01 -0.77572960859E+01  0.52785681906E+00  0.95057309046E+01  0.51100000000E-03 0. -1.
        -11    1    3    3    0    0  0.19377269100E+02  0.27710817894E+02 -0.24291957703E+02  0.41634927590E+02  0.51100000000E-03 0.  1.
         12    1    3    3    0    0 -0.24884243346E+02 -0.19108555326E+02  0.22940948391E+02  0.38867075612E+02  0.00000000000E+00 0. -1.
</event>
<event>
 7    1  0.2404951E-015  0.9000775E+02  0.7816164E-02  0.1186339E+00
        -11   -1    0    0    0    0  0.00000000000E+00  0.00000000000E+00  0.45593999997E+02  0.45594000000E+02  0.51100000000E-03 0.  1.
         11   -1    0    0    0    0 -0.00000000000E+00 -0.00000000000E+00 -0.45593999997E+02  0.45594000000E+02  0.51100000000E-03 0. -1.
    9900012    2    1    2    0    0  0.33115490432E-01 -0.55391702135E-04  0.11797871531E+01  0.90007748177E+02  0.90000009653E+02 0.  0.
         12    1    1    2    0    0 -0.33115490432E-01  0.55391702135E-04 -0.11797871531E+01  0.11802518229E+01  0.00000000000E+00 0. -1.
         11    1    3    3    0    0  0.12429055482E+01  0.65876336597E+01 -0.34989684925E+02  0.35626110970E+02  0.51100000000E-03 0. -1.
        -11    1    3    3    0    0 -0.33561811812E+01  0.34861920137E+01 -0.78234036303E+01  0.91990831881E+01  0.51100000000E-03 0.  1.
        -12    1    3    3    0    0  0.21463911234E+01 -0.10073881065E+02  0.43992875709E+02  0.45182554019E+02  0.00000000000E+00 0.  1.
</event>
<event>
 7    1  0.2404951E-015  0.9000771E+02  0.7816164E-02  0.1186339E+00
        -11   -1    0    0    0    0  0.00000000000E+00  0.00000000000E+00  0.45593999997E+02  0.45594000000E+02  0.51100000000E-03 0. -1.
         11   -1    0    0    0    0 -0.00000000000E+00 -0.00000000000E+00 -0.45593999997E+02  0.45594000000E+02  0.51100000000E-03 0.  1.
    9900012    2    1    2    0    0 -0.31194182362E+00 -0.83846379059E-01 -0.11352308378E+01  0.90007708946E+02  0.89999969904E+02 0.  0.
         12    1    1    2    0    0  0.31194182362E+00  0.83846379059E-01  0.11352308378E+01  0.11802910538E+01  0.00000000000E+00 0. -1.
         11    1    3    3    0    0 -0.11724259160E+01 -0.81139563853E+00  0.12852188919E+02  0.12931036528E+02  0.51100000000E-03 0. -1.
        -11    1    3    3    0    0 -0.29060801922E+02 -0.32581430522E+01 -0.30844370653E+02  0.42503187007E+02  0.51100000000E-03 0.  1.
         12    1    3    3    0    0  0.29921286014E+02  0.39856923117E+01  0.16856950897E+02  0.34573485411E+02  0.00000000000E+00 0. -1.
</event>
<event>
 7    1  0.2404951E-015  0.9000853E+02  0.7816164E-02  0.1186337E+00
        -11   -1    0    0    0    0  0.00000000000E+00  0.00000000000E+00  0.45593999997E+02  0.45594000000E+02  0.51100000000E-03 0.  1.
         11   -1    0    0    0    0 -0.00000000000E+00 -0.00000000000E+00 -0.45593999997E+02  0.45594000000E+02  0.51100000000E-03 0. -1.
    9900012    2    1    2    0    0 -0.11455599597E+01 -0.15074399474E+00 -0.23690941029E+00  0.90008526625E+02  0.90000798373E+02 0.  0.
         12    1    1    2    0    0  0.11455599597E+01  0.15074399474E+00  0.23690941029E+00  0.11794733748E+01  0.00000000000E+00 0. -1.
         11    1    3    3    0    0 -0.75881437322E+00 -0.89585224397E+01 -0.11610050129E+02  0.14684147500E+02  0.51100000000E-03 0. -1.
        -11    1    3    3    0    0  0.31647672420E+02 -0.14532443068E+02  0.51743972255E+01  0.35207122263E+02  0.51100000000E-03 0.  1.
         12    1    3    3    0    0 -0.32034418006E+02  0.23340221513E+02  0.61987434928E+01  0.40117256862E+02  0.00000000000E+00 0. -1.
</event>
<event>
 7    1  0.2404951E-015  0.9000738E+02  0.7816164E-02  0.1186340E+00
        -11   -1    0    0    0    0  0.00000000000E+00  0.00000000000E+00  0.45593999997E+02  0.45594000000E+02  0.51100000000E-03 0. -1.
         11   -1    0    0    0    0 -0.00000000000E+00 -0.00000000000E+00 -0.45593999997E+02  0.45594000000E+02  0.51100000000E-03 0.  1.
    9900012    2    1    2    0    0  0.74458543724E+00  0.45410089944E+00 -0.79577091209E+00  0.90007378789E+02  0.89999635388E+02 0.  0.
         12    1    1    2    0    0 -0.74458543724E+00 -0.45410089944E+00  0.79577091209E+00  0.11806212114E+01  0.00000000000E+00 0. -1.
         11    1    3    3    0    0  0.29302685927E+02  0.29754738313E+02  0.12813166945E+02  0.43682594955E+02  0.51100000000E-03 0. -1.
        -11    1    3    3    0    0 -0.29086253669E+01 -0.35586805709E+01 -0.84527637003E+01  0.96215135693E+01  0.51100000000E-03 0.  1.
        -12    1    3    3    0    0 -0.25649475122E+02 -0.25741956843E+02 -0.51561741568E+01  0.36703270264E+02  0.00000000000E+00 0.  1.
</event>
<event>
 7    1  0.2404951E-015  0.9000780E+02  0.7816164E-02  0.1186339E+00
        -11   -1    0    0    0    0  0.00000000000E+00  0.00000000000E+00  0.45593999997E+02  0.45594000000E+02  0.51100000000E-03 0.  1.
         11   -1    0    0    0    0 -0.00000000000E+00 -0.00000000000E+00 -0.45593999997E+02  0.45594000000E+02  0.51100000000E-03 0. -1.
    9900012    2    1    2    0    0  0.70138052341E+00 -0.17393437335E+00  0.93311038943E+00  0.90007795440E+02  0.90000057540E+02 0.  0.
         12    1    1    2    0    0 -0.70138052341E+00  0.17393437335E+00 -0.93311038943E+00  0.11802045601E+01  0.00000000000E+00 0. -1.
         11    1    3    3    0    0  0.19006329509E+02  0.16092728416E+02 -0.31374903755E+02  0.40057471902E+02  0.51100000000E-03 0. -1.
        -11    1    3    3    0    0 -0.80907052876E+01  0.25973584905E+01 -0.26796256686E+01  0.89098920961E+01  0.51100000000E-03 0.  1.
        -12    1    3    3    0    0 -0.10214243698E+02 -0.18864021280E+02  0.34987639813E+02  0.41040431441E+02  0.00000000000E+00 0.  1.
</event>
<event>
 7    1  0.2404951E-015  0.9000779E+02  0.7816164E-02  0.1186339E+00
        -11   -1    0    0    0    0  0.00000000000E+00  0.00000000000E+00  0.45593999997E+02  0.45594000000E+02  0.51100000000E-03 0. -1.
         11   -1    0    0    0    0 -0.00000000000E+00 -0.00000000000E+00 -0.45593999997E+02  0.45594000000E+02  0.51100000000E-03 0.  1.
    9900012    2    1    2    0    0  0.25488156214E+00  0.24985639026E+00 -0.11249425441E+01  0.90007793004E+02  0.90000055071E+02 0.  0.
         12    1    1    2    0    0 -0.25488156214E+00 -0.24985639026E+00  0.11249425441E+01  0.11802069963E+01  0.00000000000E+00 0. -1.
         11    1    3    3    0    0 -0.33874476172E+01  0.26540575839E+01 -0.80394106094E+01  0.91187140665E+01  0.51100000000E-03 0. -1.
        -11    1    3    3    0    0  0.12594013740E+02 -0.75404624275E+01 -0.34878069543E+02  0.37841082054E+02  0.51100000000E-03 0.  1.
         12    1    3    3    0    0 -0.89516845603E+01  0.51362612338E+01  0.41792537608E+02  0.43047996883E+02  0.00000000000E+00 0. -1.
</event>
<event>
 7    1  0.2404951E-015  0.9000773E+02  0.7816164E-02  0.1186339E+00
        -11   -1    0    0    0    0  0.00000000000E+00  0.00000000000E+00  0.45593999997E+02  0.45594000000E+02  0.51100000000E-03 0. -1.
         11   -1    0    0    0    0 -0.00000000000E+00 -0.00000000000E+00 -0.45593999997E+02  0.45594000000E+02  0.51100000000E-03 0.  1.
    9900012    2    1    2    0    0 -0.92091275185E+00 -0.46294794525E+00 -0.57501875127E+00  0.90007725599E+02  0.89999986777E+02 0.  0.
         12    1    1    2    0    0  0.92091275185E+00  0.46294794525E+00  0.57501875127E+00  0.11802744007E+01  0.00000000000E+00 0. -1.
         11    1    3    3    0    0 -0.51296269917E+00  0.71728067161E+01 -0.36610419465E+01  0.80694185238E+01  0.51100000000E-03 0. -1.
        -11    1    3    3    0    0 -0.11675387569E+02  0.33861062785E+02 -0.96461369247E+01  0.37093587123E+02  0.51100000000E-03 0.  1.
         12    1    3    3    0    0  0.11267437517E+02 -0.41496817446E+02  0.12732160120E+02  0.44844719953E+02  0.00000000000E+00 0. -1.
</event>
<event>
 7    1  0.2404951E-015  0.9000775E+02  0.7816164E-02  0.1186339E+00
        -11   -1    0    0    0    0  0.00000000000E+00  0.00000000000E+00  0.45593999997E+02  0.45594000000E+02  0.51100000000E-03 0. -1.
         11   -1    0    0    0    0 -0.00000000000E+00 -0.00000000000E+00 -0.45593999997E+02  0.45594000000E+02  0.51100000000E-03 0.  1.
    9900012    2    1    2    0    0  0.58064808410E+00 -0.90824123404E+00 -0.48054614718E+00  0.90007754713E+02  0.90000016276E+02 0.  0.
         12    1    1    2    0    0 -0.58064808410E+00  0.90824123404E+00  0.48054614718E+00  0.11802452865E+01  0.00000000000E+00 0. -1.
         11    1    3    3    0    0  0.13717650456E+02 -0.23449714792E+02  0.20948107451E+02  0.34305775955E+02  0.51100000000E-03 0. -1.
        -11    1    3    3    0    0 -0.11185875832E+01 -0.33608856992E+01  0.11548850269E+02  0.12079848246E+02  0.51100000000E-03 0.  1.
        -12    1    3    3    0    0 -0.12018414789E+02  0.25902359258E+02 -0.32977503866E+02  0.43622130512E+02  0.00000000000E+00 0.  1.
</event>
<event>
 7    1  0.2404951E-015  0.9000770E+02  0.7816164E-02  0.1186339E+00
        -11   -1    0    0    0    0  0.00000000000E+00  0.00000000000E+00  0.45593999997E+02  0.45594000000E+02  0.51100000000E-03 0. -1.
         11   -1    0    0    0    0 -0.00000000000E+00 -0.00000000000E+00 -0.45593999997E+02  0.45594000000E+02  0.51100000000E-03 0.  1.
    9900012    2    1    2    0    0  0.61384289525E+00  0.38189383169E+00 -0.93298569236E+00  0.90007699911E+02  0.89999960749E+02 0.  0.
         12    1    1    2    0    0 -0.61384289525E+00 -0.38189383169E+00  0.93298569236E+00  0.11803000893E+01  0.00000000000E+00 0. -1.
         11    1    3    3    0    0  0.45224522627E+01  0.19180851173E+01 -0.89845422662E+01  0.10239805905E+02  0.51100000000E-03 0. -1.
        -11    1    3    3    0    0  0.16746208388E+02  0.23247088691E+01 -0.31063364255E+02  0.35366260274E+02  0.51100000000E-03 0.  1.
         12    1    3    3    0    0 -0.20654817756E+02 -0.38609001546E+01  0.39114920829E+02  0.44401633731E+02  0.00000000000E+00 0. -1.
</event>
<event>
 7    1  0.2404951E-015  0.9000773E+02  0.7816164E-02  0.1186339E+00
        -11   -1    0    0    0    0  0.00000000000E+00  0.00000000000E+00  0.45593999997E+02  0.45594000000E+02  0.51100000000E-03 0. -1.
         11   -1    0    0    0    0 -0.00000000000E+00 -0.00000000000E+00 -0.45593999997E+02  0.45594000000E+02  0.51100000000E-03 0.  1.
    9900012    2    1    2    0    0  0.78900966495E+00  0.86974180668E+00  0.11858273546E+00  0.90007725063E+02  0.89999986234E+02 0.  0.
         12    1    1    2    0    0 -0.78900966495E+00 -0.86974180668E+00 -0.11858273546E+00  0.11802749370E+01  0.00000000000E+00 0. -1.
         11    1    3    3    0    0  0.25514440384E+01  0.53052344903E+01  0.74170405904E+01  0.94693120690E+01  0.51100000000E-03 0. -1.
        -11    1    3    3    0    0  0.28847483746E+02 -0.23823070531E+01 -0.30519119092E+02  0.42062683412E+02  0.51100000000E-03 0.  1.
         12    1    3    3    0    0 -0.30609918120E+02 -0.20531856305E+01  0.23220661238E+02  0.38475729582E+02  0.00000000000E+00 0. -1.
</event>
<event>
 7    1  0.2404951E-015  0.9000773E+02  0.7816164E-02  0.1186339E+00
        -11   -1    0    0    0    0  0.00000000000E+00  0.00000000000E+00  0.45593999997E+02  0.45594000000E+02  0.51100000000E-03 0.  1.
         11   -1    0    0    0    0 -0.00000000000E+00 -0.00000000000E+00 -0.45593999997E+02  0.45594000000E+02  0.51100000000E-03 0. -1.
    9900012    2    1    2    0    0 -0.64782882081E+00  0.98156248004E+00  0.99418752179E-01  0.90007732585E+02  0.89999993855E+02 0.  0.
         12    1    1    2    0    0  0.64782882081E+00 -0.98156248004E+00 -0.99418752179E-01  0.11802674153E+01  0.00000000000E+00 0. -1.
         11    1    3    3    0    0  0.31125311628E+02  0.15216345755E+02  0.15205641923E+02  0.37835614818E+02  0.51100000000E-03 0. -1.
        -11    1    3    3    0    0  0.72532631591E+01 -0.48339422121E+01 -0.70922452186E+01  0.11237293547E+02  0.51100000000E-03 0.  1.
        -12    1    3    3    0    0 -0.39026403608E+02 -0.94008410633E+01 -0.80139779524E+01  0.40934824220E+02  0.00000000000E+00 0.  1.
</event>
<event>
 7    1  0.2404951E-015  0.9000772E+02  0.7816164E-02  0.1186339E+00
        -11   -1    0    0    0    0  0.00000000000E+00  0.00000000000E+00  0.45593999997E+02  0.45594000000E+02  0.51100000000E-03 0. -1.
         11   -1    0    0    0    0 -0.00000000000E+00 -0.00000000000E+00 -0.45593999997E+02  0.45594000000E+02  0.51100000000E-03 0.  1.
    9900012    2    1    2    0    0  0.13556863324E+00 -0.11661693639E+01  0.12138935240E+00  0.90007718163E+02  0.89999979243E+02 0.  0.
         12    1    1    2    0    0 -0.13556863324E+00  0.11661693639E+01 -0.12138935240E+00  0.11802818369E+01  0.00000000000E+00 0. -1.
         11    1    3    3    0    0  0.49447642122E+01 -0.68612910339E+01 -0.16288382435E+01  0.86128463385E+01  0.51100000000E-03 0. -1.
        -11    1    3    3    0    0  0.63264496854E+01 -0.36377202615E+02 -0.53158030310E+01  0.37303922016E+02  0.51100000000E-03 0.  1.
         12    1    3    3    0    0 -0.11135645264E+02  0.42072324285E+02  0.70660306269E+01  0.44090949808E+02  0.00000000000E+00 0. -1.
</event>
<event>
 7    1  0.2404951E-015  0.9000778E+02  0.7816164E-02  0.1186339E+00
        -11   -1    0    0    0    0  0.00000000000E+00  0.00000000000E+00  0.45593999997E+02  0.45594000000E+02  0.51100000000E-03 0.  1.
         11   -1    0    0    0    0 -0.00000000000E+00 -0.00000000000E+00 -0.45593999997E+02  0.45594000000E+02  0.51100000000E-03 0. -1.
    9900012    2    1    2    0    0  0.15536604559E+00 -0.45652705027E+00  0.10771986970E+01  0.90007782821E+02  0.90000044755E+02 0.  0.
         12    1    1    2    0    0 -0.15536604559E+00  0.45652705027E+00 -0.10771986970E+01  0.11802171785E+01  0.00000000000E+00 0. -1.
         11    1    3    3    0    0 -0.15025958423E+02  0.68162082657E+01  0.41438476975E+01  0.17012101448E+02  0.51100000000E-03 0. -1.
        -11    1    3    3    0    0  0.14455142739E+02 -0.36524935605E+02  0.10620240125E+02  0.40691664664E+02  0.51100000000E-03 0.  1.
         12    1    3    3    0    0  0.72618172944E+00  0.29252200289E+02 -0.13686889125E+02  0.32304016710E+02  0.00000000000E+00 0. -1.
</event>
<event>
 7    1  0.2404951E-015  0.9000730E+02  0.7816164E-02  0.1186340E+00
        -11   -1    0    0    0    0  0.00000000000E+00  0.00000000000E+00  0.45593999997E+02  0.45594000000E+02  0.51100000000E-03 0.  1.
         11   -1    0    0    0    0 -0.00000000000E+00 -0.00000000000E+00 -0.45593999997E+02  0.45594000000E+02  0.51100000000E-03 0. -1.
    9900012    2    1    2    0    0  0.87684892040E+00  0.47401779862E+00 -0.63284472230E+00  0.90007301332E+02  0.89999556908E+02 0.  0.
         12    1    1    2    0    0 -0.87684892040E+00 -0.47401779862E+00  0.63284472230E+00  0.11806986682E+01  0.00000000000E+00 0. -1.
         11    1    3    3    0    0 -0.87416551142E+01  0.19856038076E+00 -0.28628871839E+01  0.92006566966E+01  0.51100000000E-03 0. -1.
        -11    1    3    3    0    0 -0.16324063004E+02  0.32881943550E+02 -0.87028969901E+01  0.37728472814E+02  0.51100000000E-03 0.  1.
         12    1    3    3    0    0  0.25942567038E+02 -0.32606486132E+02  0.10932939452E+02  0.43078171821E+02  0.00000000000E+00 0. -1.
</event>
<event>
 7    1  0.2404951E-015  0.9000773E+02  0.7816164E-02  0.1186339E+00
        -11   -1    0    0    0    0  0.00000000000E+00  0.00000000000E+00  0.45593999997E+02  0.45594000000E+02  0.51100000000E-03 0.  1.
         11   -1    0    0    0    0 -0.00000000000E+00 -0.00000000000E+00 -0.45593999997E+02  0.45594000000E+02  0.51100000000E-03 0. -1.
    9900012    2    1    2    0    0  0.33803817045E-01  0.87336360822E+00  0.79317558942E+00  0.90007731299E+02  0.89999992552E+02 0.  0.
         12    1    1    2    0    0 -0.33803817045E-01 -0.87336360822E+00 -0.79317558942E+00  0.11802687007E+01  0.00000000000E+00 0. -1.
         11    1    3    3    0    0 -0.24134797536E+02  0.28277193032E+02 -0.45817696094E+01  0.37457718976E+02  0.51100000000E-03 0. -1.
        -11    1    3    3    0    0 -0.71235487647E+01  0.36751969470E+01  0.23020468988E+01  0.83397505831E+01  0.51100000000E-03 0.  1.
        -12    1    3    3    0    0  0.31292150118E+02 -0.31079026371E+02  0.30728983001E+01  0.44210261740E+02  0.00000000000E+00 0.  1.
</event>
<event>
 7    1  0.2404951E-015  0.9000767E+02  0.7816164E-02  0.1186339E+00
        -11   -1    0    0    0    0  0.00000000000E+00  0.00000000000E+00  0.45593999997E+02  0.45594000000E+02  0.51100000000E-03 0. -1.
         11   -1    0    0    0    0 -0.00000000000E+00 -0.00000000000E+00 -0.45593999997E+02  0.45594000000E+02  0.51100000000E-03 0.  1.
    9900012    2    1    2    0    0  0.10168967310E+01  0.67312988804E-01 -0.59545490217E+00  0.90007671003E+02  0.89999931461E+02 0.  0.
         12    1    1    2    0    0 -0.10168967310E+01 -0.67312988804E-01  0.59545490217E+00  0.11803289967E+01  0.00000000000E+00 0. -1.
         11    1    3    3    0    0  0.29415919360E+02 -0.58843804086E+01 -0.65106916910E+01  0.30697090271E+02  0.51100000000E-03 0. -1.
        -11    1    3    3    0    0 -0.76691010452E+00 -0.19941571852E+02 -0.35687437777E+01  0.20272897460E+02  0.51100000000E-03 0.  1.
        -12    1    3    3    0    0 -0.27632112524E+02  0.25893265249E+02  0.94839805665E+01  0.39037683272E+02  0.00000000000E+00 0.  1.
</event>
<event>
 7    1  0.2404951E-015  0.9000776E+02  0.7816164E-02  0.1186339E+00
        -11   -1    0    0    0    0  0.00000000000E+00  0.00000000000E+00  0.45593999997E+02  0.45594000000E+02  0.51100000000E-03 0. -1.
         11   -1    0    0    0    0 -0.00000000000E+00 -0.00000000000E+00 -0.45593999997E+02  0.45594000000E+02  0.51100000000E-03 0.  1.
    9900012    2    1    2    0    0 -0.91140486283E+00  0.65799119393E+00  0.35965980435E+00  0.90007760020E+02  0.90000021652E+02 0.  0.
         12    1    1    2    0    0  0.91140486283E+00 -0.65799119393E+00 -0.35965980435E+00  0.11802399799E+01  0.00000000000E+00 0. -1.
         11    1    3    3    0    0 -0.30859987831E+02  0.12574375161E+02 -0.19625253635E+02  0.38673044102E+02  0.51100000000E-03 0. -1.
        -11    1    3    3    0    0  0.35373956721E+01  0.70972928723E+01 -0.57915359074E+01  0.98197058349E+01  0.51100000000E-03 0.  1.
        -12    1    3    3    0    0  0.26411187296E+02 -0.19013676839E+02  0.25776449347E+02  0.41515010084E+02  0.00000000000E+00 0.  1.
</event>
<event>
 7    1  0.2404951E-015  0.9000774E+02  0.7816164E-02  0.1186339E+00
        -11   -1    0    0    0    0  0.00000000000E+00  0.00000000000E+00  0.45593999997E+02  0.45594000000E+02  0.51100000000E-03 0.  1.
         11   -1    0    0    0    0 -0.00000000000E+00 -0.00000000000E+00 -0.45593999997E+02  0.45594000000E+02  0.51100000000E-03 0. -1.
    9900012    2    1    2    0    0  0.10253858381E+01 -0.28087411493E+00  0.51255963476E+00  0.90007735723E+02  0.89999997034E+02 0.  0.
         12    1    1    2    0    0 -0.10253858381E+01  0.28087411493E+00 -0.51255963476E+00  0.11802642775E+01  0.00000000000E+00 0. -1.
         11    1    3    3    0    0  0.36664780542E+02 -0.57487666746E+01  0.51713016506E+01  0.37471279822E+02  0.51100000000E-03 0. -1.
        -11    1    3    3    0    0  0.67739415014E+01  0.68394064257E+01 -0.29439783370E+01  0.10066318713E+02  0.51100000000E-03 0.  1.
        -12    1    3    3    0    0 -0.42413336205E+02 -0.13715138660E+01 -0.17147636789E+01  0.42470137188E+02  0.00000000000E+00 0.  1.
</event>
<event>
 7    1  0.2404951E-015  0.9000778E+02  0.7816164E-02  0.1186339E+00
        -11   -1    0    0    0    0  0.00000000000E+00  0.00000000000E+00  0.45593999997E+02  0.45594000000E+02  0.51100000000E-03 0. -1.
         11   -1    0    0    0    0 -0.00000000000E+00 -0.00000000000E+00 -0.45593999997E+02  0.45594000000E+02  0.51100000000E-03 0.  1.
    9900012    2    1    2    0    0 -0.24625688335E+00  0.75311936993E-01 -0.11517786230E+01  0.90007784623E+02  0.90000046580E+02 0.  0.
         12    1    1    2    0    0  0.24625688335E+00 -0.75311936993E-01  0.11517786230E+01  0.11802153773E+01  0.00000000000E+00 0. -1.
         11    1    3    3    0    0  0.75756737972E+01 -0.17724243405E+01  0.56380623829E+01  0.96083333216E+01  0.51100000000E-03 0. -1.
        -11    1    3    3    0    0  0.14533239682E+02 -0.18320522626E+02 -0.33023935100E+02  0.40465255402E+02  0.51100000000E-03 0.  1.
         12    1    3    3    0    0 -0.22355170363E+02  0.20168258904E+02  0.26234094094E+02  0.39934195899E+02  0.00000000000E+00 0. -1.
</event>
<event>
 7    1  0.2404951E-015  0.9000783E+02  0.7816164E-02  0.1186339E+00
        -11   -1    0    0    0    0  0.00000000000E+00  0.00000000000E+00  0.45593999997E+02  0.45594000000E+02  0.51100000000E-03 0.  1.
         11   -1    0    0    0    0 -0.00000000000E+00 -0.00000000000E+00 -0.45593999997E+02  0.45594000000E+02  0.51100000000E-03 0. -1.
    9900012    2    1    2    0    0 -0.53685552706E+00  0.23371296439E+00  0.10246797775E+01  0.90007828719E+02  0.90000091258E+02 0.  0.
         12    1    1    2    0    0  0.53685552706E+00 -0.23371296439E+00 -0.10246797775E+01  0.11801712813E+01  0.00000000000E+00 0. -1.
         11    1    3    3    0    0  0.36520608243E+02  0.91182360464E+01 -0.92011191493E-01  0.37641805500E+02  0.51100000000E-03 0. -1.
        -11    1    3    3    0    0  0.48909860225E+01 -0.14148304546E+01  0.77212716155E+01  0.92488661526E+01  0.51100000000E-03 0.  1.
        -12    1    3    3    0    0 -0.41948449792E+02 -0.74696926275E+01 -0.66045806465E+01  0.43117157066E+02  0.00000000000E+00 0.  1.
</event>
<event>
 7    1  0.2404951E-015  0.9000777E+02  0.7816164E-02  0.1186339E+00
        -11   -1    0    0    0    0  0.00000000000E+00  0.00000000000E+00  0.45593999997E+02  0.45594000000E+02  0.51100000000E-03 0.  1.
         11   -1    0    0    0    0 -0.00000000000E+00 -0.00000000000E+00 -0.45593999997E+02  0.45594000000E+02  0.51100000000E-03 0. -1.
    9900012    2    1    2    0    0 -0.18133916496E+00 -0.88973840424E+00  0.75394254067E+00  0.90007767957E+02  0.90000029694E+02 0.  0.
         12    1    1    2    0    0  0.18133916496E+00  0.88973840424E+00 -0.75394254067E+00  0.11802320430E+01  0.00000000000E+00 0. -1.
         11    1    3    3    0    0  0.78969906733E+01  0.32085157690E+01 -0.41950995328E+01  0.95003102836E+01  0.51100000000E-03 0. -1.
        -11    1    3    3    0    0 -0.13836908750E+02  0.34386961160E+02  0.15518531815E+02  0.40183926780E+02  0.51100000000E-03 0.  1.
         12    1    3    3    0    0  0.57585789116E+01 -0.38485215333E+02 -0.10569489741E+02  0.40323530893E+02  0.00000000000E+00 0. -1.
</event>
<event>
 7    1  0.2404951E-015  0.9000772E+02  0.7816164E-02  0.1186339E+00
        -11   -1    0    0    0    0  0.00000000000E+00  0.00000000000E+00  0.45593999997E+02  0.45594000000E+02  0.51100000000E-03 0.  1.
         11   -1    0    0    0    0 -0.00000000000E+00 -0.00000000000E+00 -0.45593999997E+02  0.45594000000E+02  0.51100000000E-03 0. -1.
    9900012    2    1    2    0    0 -0.96293533007E+00  0.55376201031E+00 -0.39894923910E+00  0.90007721512E+02  0.89999982636E+02 0.  0.
         12    1    1    2    0    0  0.96293533007E+00 -0.55376201031E+00  0.39894923910E+00  0.11802784880E+01  0.00000000000E+00 0. -1.
         11    1    3    3    0    0  0.47761464317E+01  0.41677728893E+01 -0.69913711776E+01  0.94372229389E+01  0.51100000000E-03 0. -1.
        -11    1    3    3    0    0  0.67498735446E+01  0.25572799100E+02  0.30836464880E+02  0.40625317392E+02  0.51100000000E-03 0.  1.
         12    1    3    3    0    0 -0.12488955306E+02 -0.29186809979E+02 -0.24244042941E+02  0.39945181181E+02  0.00000000000E+00 0. -1.
</event>
<event>
 7    1  0.2404951E-015  0.9000772E+02  0.7816164E-02  0.1186339E+00
        -11   -1    0    0    0    0  0.00000000000E+00  0.00000000000E+00  0.45593999997E+02  0.45594000000E+02  0.51100000000E-03 0.  1.
         11   -1    0    0    0    0 -0.00000000000E+00 -0.00000000000E+00 -0.45593999997E+02  0.45594000000E+02  0.51100000000E-03 0. -1.
    9900012    2    1    2    0    0 -0.30075523922E+00 -0.10776234229E+01 -0.37594479323E+00  0.90007720184E+02  0.89999981291E+02 0.  0.
         12    1    1    2    0    0  0.30075523922E+00  0.10776234229E+01  0.37594479323E+00  0.11802798155E+01  0.00000000000E+00 0. -1.
         11    1    3    3    0    0  0.68032702823E+01  0.42237876140E+01 -0.36577017081E+02  0.37443331143E+02  0.51100000000E-03 0. -1.
        -11    1    3    3    0    0  0.49007662013E+01 -0.58038620969E+01 -0.53629120619E+01  0.92985563742E+01  0.51100000000E-03 0.  1.
        -12    1    3    3    0    0 -0.12004791723E+02  0.50245106001E+00  0.41563984349E+02  0.43265832667E+02  0.00000000000E+00 0.  1.
</event>
<event>
 7    1  0.2404951E-015  0.9000770E+02  0.7816164E-02  0.1186339E+00
        -11   -1    0    0    0    0  0.00000000000E+00  0.00000000000E+00  0.45593999997E+02  0.45594000000E+02  0.51100000000E-03 0.  1.
         11   -1    0    0    0    0 -0.00000000000E+00 -0.00000000000E+00 -0.45593999997E+02  0.45594000000E+02  0.51100000000E-03 0. -1.
    9900012    2    1    2    0    0  0.15674785579E+00 -0.90102189325E+00  0.74611407924E+00  0.90007704884E+02  0.89999965788E+02 0.  0.
         12    1    1    2    0    0 -0.15674785579E+00  0.90102189325E+00 -0.74611407924E+00  0.11802951163E+01  0.00000000000E+00 0. -1.
         11    1    3    3    0    0  0.12191777389E+02  0.25736148989E+02 -0.23887494850E+02  0.37169896572E+02  0.51100000000E-03 0. -1.
        -11    1    3    3    0    0  0.17193879440E+01  0.84974296319E+01  0.22112530777E+01  0.89471920560E+01  0.51100000000E-03 0.  1.
        -12    1    3    3    0    0 -0.13754417477E+02 -0.35134600514E+02  0.22422355851E+02  0.43890616256E+02  0.00000000000E+00 0.  1.
</event>
<event>
 7    1  0.2404951E-015  0.9000773E+02  0.7816164E-02  0.1186339E+00
        -11   -1    0    0    0    0  0.00000000000E+00  0.00000000000E+00  0.45593999997E+02  0.45594000000E+02  0.51100000000E-03 0. -1.
         11   -1    0    0    0    0 -0.00000000000E+00 -0.00000000000E+00 -0.45593999997E+02  0.45594000000E+02  0.51100000000E-03 0.  1.
    9900012    2    1    2    0    0  0.76165153198E+00  0.88325996886E+00 -0.18107350215E+00  0.90007725099E+02  0.89999986270E+02 0.  0.
         12    1    1    2    0    0 -0.76165153198E+00 -0.88325996886E+00  0.18107350215E+00  0.11802749010E+01  0.00000000000E+00 0. -1.
         11    1    3    3    0    0 -0.94475859799E+01  0.14558172070E+02  0.32391456003E+02  0.36747839081E+02  0.51100000000E-03 0. -1.
        -11    1    3    3    0    0 -0.33863007741E+00  0.34613112018E+01  0.75842208632E+01  0.83436054514E+01  0.51100000000E-03 0.  1.
        -12    1    3    3    0    0  0.10547867589E+02 -0.17136223303E+02 -0.40156750368E+02  0.44916280566E+02  0.00000000000E+00 0.  1.
</event>
<event>
 7    1  0.2404951E-015  0.9000777E+02  0.7816164E-02  0.1186339E+00
        -11   -1    0    0    0    0  0.00000000000E+00  0.00000000000E+00  0.45593999997E+02  0.45594000000E+02  0.51100000000E-03 0.  1.
         11   -1    0    0    0    0 -0.00000000000E+00 -0.00000000000E+00 -0.45593999997E+02  0.45594000000E+02  0.51100000000E-03 0. -1.
    9900012    2    1    2    0    0  0.53547912833E+00 -0.80089772309E+00  0.68174636416E+00  0.90007765631E+02  0.90000027338E+02 0.  0.
         12    1    1    2    0    0 -0.53547912833E+00  0.80089772309E+00 -0.68174636416E+00  0.11802343686E+01  0.00000000000E+00 0. -1.
         11    1    3    3    0    0 -0.95074902944E+01 -0.35366983618E+02 -0.12473854932E+02  0.38688667062E+02  0.51100000000E-03 0. -1.
        -11    1    3    3    0    0  0.32255909247E+01 -0.58214720055E+01  0.74085943195E+01  0.99589780187E+01  0.51100000000E-03 0.  1.
        -12    1    3    3    0    0  0.68173784979E+01  0.40387557900E+02  0.57470069768E+01  0.41360120550E+02  0.00000000000E+00 0.  1.
</event>
<event>
 7    1  0.2404951E-015  0.9000772E+02  0.7816164E-02  0.1186339E+00
        -11   -1    0    0    0    0  0.00000000000E+00  0.00000000000E+00  0.45593999997E+02  0.45594000000E+02  0.51100000000E-03 0.  1.
         11   -1    0    0    0    0 -0.00000000000E+00 -0.00000000000E+00 -0.45593999997E+02  0.45594000000E+02  0.51100000000E-03 0. -1.
    9900012    2    1    2    0    0 -0.76092572981E+00 -0.53547373584E+00  0.72617097329E+00  0.90007718521E+02  0.89999979605E+02 0.  0.
         12    1    1    2    0    0  0.76092572981E+00  0.53547373584E+00 -0.72617097329E+00  0.11802814794E+01  0.00000000000E+00 0. -1.
         11    1    3    3    0    0 -0.14230212893E+02 -0.30840385069E+02 -0.15048584309E+02  0.37149538357E+02  0.51100000000E-03 0. -1.
        -11    1    3    3    0    0  0.10011613368E+02 -0.58083758107E+01 -0.30735012006E+01  0.11975643685E+02  0.51100000000E-03 0.  1.
        -12    1    3    3    0    0  0.34576737954E+01  0.36113287144E+02  0.18848256483E+02  0.40882536478E+02  0.00000000000E+00 0.  1.
</event>
<event>
 7    1  0.2404951E-015  0.9000772E+02  0.7816164E-02  0.1186339E+00
        -11   -1    0    0    0    0  0.00000000000E+00  0.00000000000E+00  0.45593999997E+02  0.45594000000E+02  0.51100000000E-03 0. -1.
         11   -1    0    0    0    0 -0.00000000000E+00 -0.00000000000E+00 -0.45593999997E+02  0.45594000000E+02  0.51100000000E-03 0.  1.
    9900012    2    1    2    0    0  0.78501177091E+00 -0.88128841764E+00  0.12126206792E-01  0.90007720457E+02  0.89999981567E+02 0.  0.
         12    1    1    2    0    0 -0.78501177091E+00  0.88128841764E+00 -0.12126206792E-01  0.11802795433E+01  0.00000000000E+00 0. -1.
         11    1    3    3    0    0  0.46879154799E+01  0.63000814676E+01 -0.47380913189E+00  0.78671515429E+01  0.51100000000E-03 0. -1.
        -11    1    3    3    0    0 -0.36267822128E+02  0.18340511965E+02  0.36324465936E+01  0.40803479871E+02  0.51100000000E-03 0.  1.
         12    1    3    3    0    0  0.32364918419E+02 -0.25521881850E+02 -0.31465112549E+01  0.41337089043E+02  0.00000000000E+00 0. -1.
</event>
<event>
 7    1  0.2677701E-015  0.9000774E+02  0.7816164E-02  0.1186339E+00
        -11   -1    0    0    0    0  0.00000000000E+00  0.00000000000E+00  0.45593999997E+02  0.45594000000E+02  0.51100000000E-03 0. -1.
         11   -1    0    0    0    0 -0.00000000000E+00 -0.00000000000E+00 -0.45593999997E+02  0.45594000000E+02  0.51100000000E-03 0.  1.
    9900012    2    1    2    0    0  0.53274408855E+00 -0.76570477507E+00 -0.72310945895E+00  0.90007742674E+02  0.90000004077E+02 0.  0.
         12    1    1    2    0    0 -0.53274408855E+00  0.76570477507E+00  0.72310945895E+00  0.11802573262E+01  0.00000000000E+00 0. -1.
         11    1    3    3    0    0 -0.11372624600E+02  0.73313786306E+01  0.32565178735E+02  0.35264381028E+02  0.51100000000E-03 0. -1.
        -11    1    3    3    0    0 -0.68382725884E+01  0.39616584949E+01  0.57620028375E+01  0.97804594464E+01  0.51100000000E-03 0.  1.
        -12    1    3    3    0    0  0.18743641277E+02 -0.12058741901E+02 -0.39050291032E+02  0.44962902200E+02  0.00000000000E+00 0.  1.
</event>
<event>
 7    1  0.2404951E-015  0.9000777E+02  0.7816164E-02  0.1186339E+00
        -11   -1    0    0    0    0  0.00000000000E+00  0.00000000000E+00  0.45593999997E+02  0.45594000000E+02  0.51100000000E-03 0.  1.
         11   -1    0    0    0    0 -0.00000000000E+00 -0.00000000000E+00 -0.45593999997E+02  0.45594000000E+02  0.51100000000E-03 0. -1.
    9900012    2    1    2    0    0 -0.29267891641E+00  0.36260810730E+00  0.10843429670E+01  0.90007768981E+02  0.90000030732E+02 0.  0.
         12    1    1    2    0    0  0.29267891641E+00 -0.36260810730E+00 -0.10843429670E+01  0.11802310187E+01  0.00000000000E+00 0. -1.
         11    1    3    3    0    0 -0.70232211435E+01 -0.17913340387E+02 -0.13907465609E+01  0.19291126855E+02  0.51100000000E-03 0. -1.
        -11    1    3    3    0    0  0.26607529374E+02 -0.10082276815E+02 -0.14737926460E+02  0.32044022871E+02  0.51100000000E-03 0.  1.
         12    1    3    3    0    0 -0.19876987147E+02  0.28358225310E+02  0.17213015987E+02  0.38672619256E+02  0.00000000000E+00 0. -1.
</event>
<event>
 7    1  0.2404951E-015  0.9000762E+02  0.7816164E-02  0.1186339E+00
        -11   -1    0    0    0    0  0.00000000000E+00  0.00000000000E+00  0.45593999997E+02  0.45594000000E+02  0.51100000000E-03 0.  1.
         11   -1    0    0    0    0 -0.00000000000E+00 -0.00000000000E+00 -0.45593999997E+02  0.45594000000E+02  0.51100000000E-03 0. -1.
    9900012    2    1    2    0    0  0.10687958038E+00  0.11754519535E+01 -0.13566128336E-01  0.90007621002E+02  0.89999880799E+02 0.  0.
         12    1    1    2    0    0 -0.10687958038E+00 -0.11754519535E+01  0.13566128336E-01  0.11803789983E+01  0.00000000000E+00 0. -1.
         11    1    3    3    0    0 -0.46080818636E+01  0.44208912072E+00  0.27360277573E+02  0.27749137832E+02  0.51100000000E-03 0. -1.
        -11    1    3    3    0    0 -0.22352712811E+02  0.54162152232E+01  0.66062218014E+00  0.23009032558E+02  0.51100000000E-03 0.  1.
         12    1    3    3    0    0  0.27067674255E+02 -0.46828523904E+01 -0.28034465882E+02  0.39249450612E+02  0.00000000000E+00 0. -1.
</event>
<event>
 7    1  0.2404951E-015  0.9000782E+02  0.7816164E-02  0.1186339E+00
        -11   -1    0    0    0    0  0.00000000000E+00  0.00000000000E+00  0.45593999997E+02  0.45594000000E+02  0.51100000000E-03 0. -1.
         11   -1    0    0    0    0 -0.00000000000E+00 -0.00000000000E+00 -0.45593999997E+02  0.45594000000E+02  0.51100000000E-03 0.  1.
    9900012    2    1    2    0    0 -0.32878563197E+00  0.10981512075E+01 -0.28068903668E+00  0.90007821030E+02  0.90000083467E+02 0.  0.
         12    1    1    2    0    0  0.32878563197E+00 -0.10981512075E+01  0.28068903668E+00  0.11801789702E+01  0.00000000000E+00 0. -1.
         11    1    3    3    0    0 -0.24010202482E+01  0.12137408618E+01 -0.91383466849E+01  0.95261453645E+01  0.51100000000E-03 0. -1.
        -11    1    3    3    0    0  0.25845487137E+02 -0.56716503487E+01 -0.26542788724E+02  0.37479013548E+02  0.51100000000E-03 0.  1.
         12    1    3    3    0    0 -0.23773252520E+02  0.55560606944E+01  0.35400446372E+02  0.43002662117E+02  0.00000000000E+00 0. -1.
</event>
<event>
 7    1  0.2404951E-015  0.9000774E+02  0.7816164E-02  0.1186339E+00
        -11   -1    0    0    0    0  0.00000000000E+00  0.00000000000E+00  0.45593999997E+02  0.45594000000E+02  0.51100000000E-03 0.  1.
         11   -1    0    0    0    0 -0.00000000000E+00 -0.00000000000E+00 -0.45593999997E+02  0.45594000000E+02  0.51100000000E-03 0. -1.
    9900012    2    1    2    0    0  0.27426613107E+00 -0.10503108862E+01  0.46328733319E+00  0.90007741545E+02  0.90000002933E+02 0.  0.
         12    1    1    2    0    0 -0.27426613107E+00  0.10503108862E+01 -0.46328733319E+00  0.11802584553E+01  0.00000000000E+00 0. -1.
         11    1    3    3    0    0 -0.18383304420E+02 -0.22030830475E+02 -0.25890343203E+02  0.38647292845E+02  0.51100000000E-03 0. -1.
        -11    1    3    3    0    0 -0.46680964053E+01 -0.77787697690E+00 -0.48227421499E+01  0.67568527249E+01  0.51100000000E-03 0.  1.
        -12    1    3    3    0    0  0.23325666956E+02  0.21758396566E+02  0.31176372686E+02  0.44603595975E+02  0.00000000000E+00 0.  1.
</event>
<event>
 7    1  0.2404951E-015  0.9000771E+02  0.7816164E-02  0.1186339E+00
        -11   -1    0    0    0    0  0.00000000000E+00  0.00000000000E+00  0.45593999997E+02  0.45594000000E+02  0.51100000000E-03 0. -1.
         11   -1    0    0    0    0 -0.00000000000E+00 -0.00000000000E+00 -0.45593999997E+02  0.45594000000E+02  0.51100000000E-03 0.  1.
    9900012    2    1    2    0    0 -0.15551000124E+00 -0.69975373765E+00 -0.93768565170E+00  0.90007706378E+02  0.89999967302E+02 0.  0.
         12    1    1    2    0    0  0.15551000124E+00  0.69975373765E+00  0.93768565170E+00  0.11802936225E+01  0.00000000000E+00 0. -1.
         11    1    3    3    0    0 -0.71906941894E+01  0.56663363194E+01 -0.54581735998E+01  0.10658569769E+02  0.51100000000E-03 0. -1.
        -11    1    3    3    0    0 -0.30001926512E+02 -0.84951956536E+01 -0.17947366202E+02  0.35977658310E+02  0.51100000000E-03 0.  1.
         12    1    3    3    0    0  0.37037110701E+02  0.21291055966E+01  0.22467854150E+02  0.43371478298E+02  0.00000000000E+00 0. -1.
</event>
<event>
 7    1  0.2404951E-015  0.9000773E+02  0.7816164E-02  0.1186339E+00
        -11   -1    0    0    0    0  0.00000000000E+00  0.00000000000E+00  0.45593999997E+02  0.45594000000E+02  0.51100000000E-03 0. -1.
         11   -1    0    0    0    0 -0.00000000000E+00 -0.00000000000E+00 -0.45593999997E+02  0.45594000000E+02  0.51100000000E-03 0.  1.
    9900012    2    1    2    0    0 -0.55772574832E+00  0.28258409451E+00 -0.10010651097E+01  0.90007727517E+02  0.89999988720E+02 0.  0.
         12    1    1    2    0    0  0.55772574832E+00 -0.28258409451E+00  0.10010651097E+01  0.11802724832E+01  0.00000000000E+00 0. -1.
         11    1    3    3    0    0 -0.43676743739E+00  0.17879146281E+00  0.98802998721E+01  0.98915649927E+01  0.51100000000E-03 0. -1.
        -11    1    3    3    0    0 -0.80845915884E+01 -0.36045285546E+02 -0.19980760937E+02  0.41998262335E+02  0.51100000000E-03 0.  1.
         12    1    3    3    0    0  0.79636332774E+01  0.36149078178E+02  0.90993959548E+01  0.38117900189E+02  0.00000000000E+00 0. -1.
</event>
<event>
 7    1  0.2404951E-015  0.9000776E+02  0.7816164E-02  0.1186339E+00
        -11   -1    0    0    0    0  0.00000000000E+00  0.00000000000E+00  0.45593999997E+02  0.45594000000E+02  0.51100000000E-03 0. -1.
         11   -1    0    0    0    0 -0.00000000000E+00 -0.00000000000E+00 -0.45593999997E+02  0.45594000000E+02  0.51100000000E-03 0.  1.
    9900012    2    1    2    0    0 -0.48289985246E+00  0.10764043698E+01 -0.33452722873E-01  0.90007763702E+02  0.90000025383E+02 0.  0.
         12    1    1    2    0    0  0.48289985246E+00 -0.10764043698E+01  0.33452722873E-01  0.11802362981E+01  0.00000000000E+00 0. -1.
         11    1    3    3    0    0  0.43298724234E+01 -0.75226783198E+01  0.99673014376E+00  0.87368160989E+01  0.51100000000E-03 0. -1.
        -11    1    3    3    0    0  0.20145507901E+02  0.16475599578E+02 -0.31659531913E+02  0.40983079817E+02  0.51100000000E-03 0.  1.
         12    1    3    3    0    0 -0.24958280177E+02 -0.78765168886E+01  0.30629349047E+02  0.40287867786E+02  0.00000000000E+00 0. -1.
</event>
<event>
 7    1  0.2404951E-015  0.9000764E+02  0.7816164E-02  0.1186339E+00
        -11   -1    0    0    0    0  0.00000000000E+00  0.00000000000E+00  0.45593999997E+02  0.45594000000E+02  0.51100000000E-03 0.  1.
         11   -1    0    0    0    0 -0.00000000000E+00 -0.00000000000E+00 -0.45593999997E+02  0.45594000000E+02  0.51100000000E-03 0. -1.
    9900012    2    1    2    0    0 -0.13116295115E+00 -0.73624630603E+00  0.91322709194E+00  0.90007641553E+02  0.89999901621E+02 0.  0.
         12    1    1    2    0    0  0.13116295115E+00  0.73624630603E+00 -0.91322709194E+00  0.11803584474E+01  0.00000000000E+00 0. -1.
         11    1    3    3    0    0 -0.90676611422E+01  0.34807527917E+01  0.68519774216E+01  0.11886450834E+02  0.51100000000E-03 0. -1.
        -11    1    3    3    0    0  0.38037418092E+02 -0.18974903064E+02  0.68869527976E+01  0.43061842047E+02  0.51100000000E-03 0.  1.
         12    1    3    3    0    0 -0.29100919901E+02  0.14757903967E+02 -0.12825703127E+02  0.35059348671E+02  0.00000000000E+00 0. -1.
</event>
<event>
 7    1  0.2404951E-015  0.9000769E+02  0.7816164E-02  0.1186339E+00
        -11   -1    0    0    0    0  0.00000000000E+00  0.00000000000E+00  0.45593999997E+02  0.45594000000E+02  0.51100000000E-03 0.  1.
         11   -1    0    0    0    0 -0.00000000000E+00 -0.00000000000E+00 -0.45593999997E+02  0.45594000000E+02  0.51100000000E-03 0. -1.
    9900012    2    1    2    0    0 -0.54955905551E+00  0.38285558046E+00  0.97187499408E+00  0.90007688789E+02  0.89999949481E+02 0.  0.
         12    1    1    2    0    0  0.54955905551E+00 -0.38285558046E+00 -0.97187499408E+00  0.11803112111E+01  0.00000000000E+00 0. -1.
         11    1    3    3    0    0 -0.67763135724E+01  0.50384007369E+01  0.92833361971E+00  0.84950403877E+01  0.51100000000E-03 0. -1.
        -11    1    3    3    0    0 -0.37090067729E+02 -0.84139555696E+01 -0.13739684942E+00  0.38032705014E+02  0.51100000000E-03 0.  1.
         12    1    3    3    0    0  0.43316822246E+02  0.37584104132E+01  0.18093822380E+00  0.43479943388E+02  0.00000000000E+00 0. -1.
</event>
<event>
 7    1  0.2404951E-015  0.9000785E+02  0.7816164E-02  0.1186339E+00
        -11   -1    0    0    0    0  0.00000000000E+00  0.00000000000E+00  0.45593999997E+02  0.45594000000E+02  0.51100000000E-03 0. -1.
         11   -1    0    0    0    0 -0.00000000000E+00 -0.00000000000E+00 -0.45593999997E+02  0.45594000000E+02  0.51100000000E-03 0.  1.
    9900012    2    1    2    0    0  0.63340007118E+00  0.83898705468E+00 -0.53634945307E+00  0.90007845068E+02  0.90000107823E+02 0.  0.
         12    1    1    2    0    0 -0.63340007118E+00 -0.83898705468E+00  0.53634945307E+00  0.11801549322E+01  0.00000000000E+00 0. -1.
         11    1    3    3    0    0 -0.12880710604E+02 -0.29930872357E+02  0.15542601866E+02  0.36101832346E+02  0.51100000000E-03 0. -1.
        -11    1    3    3    0    0  0.67290991302E+00 -0.91274392729E+01 -0.55035586892E+01  0.10679518432E+02  0.51100000000E-03 0.  1.
        -12    1    3    3    0    0  0.12841200762E+02  0.39897298684E+02 -0.10575392630E+02  0.43226494290E+02  0.00000000000E+00 0.  1.
</event>
<event>
 7    1  0.2404951E-015  0.9000742E+02  0.7816164E-02  0.1186340E+00
        -11   -1    0    0    0    0  0.00000000000E+00  0.00000000000E+00  0.45593999997E+02  0.45594000000E+02  0.51100000000E-03 0. -1.
         11   -1    0    0    0    0 -0.00000000000E+00 -0.00000000000E+00 -0.45593999997E+02  0.45594000000E+02  0.51100000000E-03 0.  1.
    9900012    2    1    2    0    0 -0.41132025392E+00  0.22521682331E-01 -0.11063841286E+01  0.90007416493E+02  0.89999673590E+02 0.  0.
         12    1    1    2    0    0  0.41132025392E+00 -0.22521682331E-01  0.11063841286E+01  0.11805835072E+01  0.00000000000E+00 0. -1.
         11    1    3    3    0    0 -0.30100528037E+02 -0.12599350276E+02 -0.13738331609E+02  0.35405185654E+02  0.51100000000E-03 0. -1.
        -11    1    3    3    0    0 -0.92191985387E+01 -0.29673398696E+01 -0.25619997685E+01  0.10018112131E+02  0.51100000000E-03 0.  1.
        -12    1    3    3    0    0  0.38908406322E+02  0.15589211828E+02  0.15193947249E+02  0.44584118708E+02  0.00000000000E+00 0.  1.
</event>
<event>
 7    1  0.2404951E-015  0.9000771E+02  0.7816164E-02  0.1186339E+00
        -11   -1    0    0    0    0  0.00000000000E+00  0.00000000000E+00  0.45593999997E+02  0.45594000000E+02  0.51100000000E-03 0. -1.
         11   -1    0    0    0    0 -0.00000000000E+00 -0.00000000000E+00 -0.45593999997E+02  0.45594000000E+02  0.51100000000E-03 0.  1.
    9900012    2    1    2    0    0 -0.44318641700E+00  0.46721784262E+00 -0.98913173292E+00  0.90007708384E+02  0.89999969335E+02 0.  0.
         12    1    1    2    0    0  0.44318641700E+00 -0.46721784262E+00  0.98913173292E+00  0.11802916156E+01  0.00000000000E+00 0. -1.
         11    1    3    3    0    0  0.22247886460E+02 -0.23505674479E+02  0.10948110369E+02  0.34166449999E+02  0.51100000000E-03 0. -1.
        -11    1    3    3    0    0  0.87502568101E+01 -0.52902240610E+01  0.25024253139E+01  0.10526898763E+02  0.51100000000E-03 0.  1.
        -12    1    3    3    0    0 -0.31441329687E+02  0.29263116382E+02 -0.14439667416E+02  0.45314359622E+02  0.00000000000E+00 0.  1.
</event>
<event>
 7    1  0.2404951E-015  0.9000760E+02  0.7816164E-02  0.1186339E+00
        -11   -1    0    0    0    0  0.00000000000E+00  0.00000000000E+00  0.45593999997E+02  0.45594000000E+02  0.51100000000E-03 0.  1.
         11   -1    0    0    0    0 -0.00000000000E+00 -0.00000000000E+00 -0.45593999997E+02  0.45594000000E+02  0.51100000000E-03 0. -1.
    9900012    2    1    2    0    0  0.40781233125E+00  0.11057697730E+01 -0.65674660168E-01  0.90007597166E+02  0.89999856649E+02 0.  0.
         12    1    1    2    0    0 -0.40781233125E+00 -0.11057697730E+01  0.65674660168E-01  0.11804028335E+01  0.00000000000E+00 0. -1.
         11    1    3    3    0    0 -0.11422711322E+01  0.95242087491E+01 -0.42770190019E+01  0.10502772369E+02  0.51100000000E-03 0. -1.
        -11    1    3    3    0    0 -0.10823121747E+02  0.33044789784E+02 -0.53764568040E+01  0.35185286474E+02  0.51100000000E-03 0.  1.
         12    1    3    3    0    0  0.12373205210E+02 -0.41463228760E+02  0.95878011458E+01  0.44319538323E+02  0.00000000000E+00 0. -1.
</event>
<event>
 7    1  0.2404951E-015  0.9000763E+02  0.7816164E-02  0.1186339E+00
        -11   -1    0    0    0    0  0.00000000000E+00  0.00000000000E+00  0.45593999997E+02  0.45594000000E+02  0.51100000000E-03 0. -1.
         11   -1    0    0    0    0 -0.00000000000E+00 -0.00000000000E+00 -0.45593999997E+02  0.45594000000E+02  0.51100000000E-03 0.  1.
    9900012    2    1    2    0    0  0.45206373482E+00 -0.83120665884E+00 -0.70570114742E+00  0.90007627076E+02  0.89999886953E+02 0.  0.
         12    1    1    2    0    0 -0.45206373482E+00  0.83120665884E+00  0.70570114742E+00  0.11803729239E+01  0.00000000000E+00 0. -1.
         11    1    3    3    0    0 -0.78943593986E+01  0.16400136575E+01  0.57090538103E+01  0.98794661182E+01  0.51100000000E-03 0. -1.
        -11    1    3    3    0    0 -0.77025191244E+01  0.20736959423E+02 -0.34068082293E+02  0.40620001457E+02  0.51100000000E-03 0.  1.
         12    1    3    3    0    0  0.16048942258E+02 -0.23208179740E+02  0.27653327335E+02  0.39508159501E+02  0.00000000000E+00 0. -1.
</event>
<event>
 7    1  0.2404951E-015  0.9000777E+02  0.7816164E-02  0.1186339E+00
        -11   -1    0    0    0    0  0.00000000000E+00  0.00000000000E+00  0.45593999997E+02  0.45594000000E+02  0.51100000000E-03 0. -1.
         11   -1    0    0    0    0 -0.00000000000E+00 -0.00000000000E+00 -0.45593999997E+02  0.45594000000E+02  0.51100000000E-03 0.  1.
    9900012    2    1    2    0    0 -0.55075048406E+00 -0.65734551860E+00  0.81087882979E+00  0.90007765403E+02  0.90000027107E+02 0.  0.
         12    1    1    2    0    0  0.55075048406E+00  0.65734551860E+00 -0.81087882979E+00  0.11802345966E+01  0.00000000000E+00 0. -1.
         11    1    3    3    0    0  0.18445754001E+02  0.30720255126E+02  0.19563594715E+02  0.40825410642E+02  0.51100000000E-03 0. -1.
        -11    1    3    3    0    0  0.65360721971E+01 -0.27091923416E+01 -0.30695767638E+01  0.77124746145E+01  0.51100000000E-03 0.  1.
        -12    1    3    3    0    0 -0.25532576682E+02 -0.28668408303E+02 -0.15683139121E+02  0.41469880147E+02  0.00000000000E+00 0.  1.
</event>
<event>
 7    1  0.2404951E-015  0.9000771E+02  0.7816164E-02  0.1186339E+00
        -11   -1    0    0    0    0  0.00000000000E+00  0.00000000000E+00  0.45593999997E+02  0.45594000000E+02  0.51100000000E-03 0.  1.
         11   -1    0    0    0    0 -0.00000000000E+00 -0.00000000000E+00 -0.45593999997E+02  0.45594000000E+02  0.51100000000E-03 0. -1.
    9900012    2    1    2    0    0  0.31197156563E+00 -0.86481361076E-01  0.11350205189E+01  0.90007713229E+02  0.89999974244E+02 0.  0.
         12    1    1    2    0    0 -0.31197156563E+00  0.86481361076E-01 -0.11350205189E+01  0.11802867711E+01  0.00000000000E+00 0. -1.
         11    1    3    3    0    0 -0.33852578320E+02 -0.46527732351E+01 -0.20972731489E+02  0.40093650670E+02  0.51100000000E-03 0. -1.
        -11    1    3    3    0    0  0.36483662431E+01 -0.87653000651E+01 -0.74854621165E+00  0.95237273778E+01  0.51100000000E-03 0.  1.
        -12    1    3    3    0    0  0.30516183643E+02  0.13331591939E+02  0.22856298219E+02  0.40390335181E+02  0.00000000000E+00 0.  1.
</event>
<event>
 7    1  0.2404951E-015  0.9000780E+02  0.7816164E-02  0.1186339E+00
        -11   -1    0    0    0    0  0.00000000000E+00  0.00000000000E+00  0.45593999997E+02  0.45594000000E+02  0.51100000000E-03 0. -1.
         11   -1    0    0    0    0 -0.00000000000E+00 -0.00000000000E+00 -0.45593999997E+02  0.45594000000E+02  0.51100000000E-03 0.  1.
    9900012    2    1    2    0    0 -0.44547534705E+00  0.93069611262E+00 -0.57290975703E+00  0.90007801233E+02  0.90000063410E+02 0.  0.
         12    1    1    2    0    0  0.44547534705E+00 -0.93069611262E+00  0.57290975703E+00  0.11801987666E+01  0.00000000000E+00 0. -1.
         11    1    3    3    0    0 -0.18283509690E+02  0.65059507625E+01  0.30574174738E+02  0.36213178307E+02  0.51100000000E-03 0. -1.
        -11    1    3    3    0    0 -0.21138835048E+01  0.27895530238E+01  0.81868117439E+01  0.89035945739E+01  0.51100000000E-03 0.  1.
        -12    1    3    3    0    0  0.19951917848E+02 -0.83648076737E+01 -0.39333896239E+02  0.44891028353E+02  0.00000000000E+00 0.  1.
</event>
<event>
 7    1  0.2404951E-015  0.9000768E+02  0.7816164E-02  0.1186339E+00
        -11   -1    0    0    0    0  0.00000000000E+00  0.00000000000E+00  0.45593999997E+02  0.45594000000E+02  0.51100000000E-03 0. -1.
         11   -1    0    0    0    0 -0.00000000000E+00 -0.00000000000E+00 -0.45593999997E+02  0.45594000000E+02  0.51100000000E-03 0.  1.
    9900012    2    1    2    0    0  0.21532027447E+00  0.62210645035E-01 -0.11588473930E+01  0.90007677898E+02  0.89999938446E+02 0.  0.
         12    1    1    2    0    0 -0.21532027447E+00 -0.62210645035E-01  0.11588473930E+01  0.11803221023E+01  0.00000000000E+00 0. -1.
         11    1    3    3    0    0  0.76174816323E+01 -0.15837938315E+01 -0.15431947732E+02  0.17282344759E+02  0.51100000000E-03 0. -1.
        -11    1    3    3    0    0  0.20366050661E+02 -0.17756655387E+02 -0.12283821107E+02  0.29681089793E+02  0.51100000000E-03 0.  1.
         12    1    3    3    0    0 -0.27768212019E+02  0.19402659864E+02  0.26556921446E+02  0.43044243345E+02  0.00000000000E+00 0. -1.
</event>
<event>
 7    1  0.2404951E-015  0.9000776E+02  0.7816164E-02  0.1186339E+00
        -11   -1    0    0    0    0  0.00000000000E+00  0.00000000000E+00  0.45593999997E+02  0.45594000000E+02  0.51100000000E-03 0. -1.
         11   -1    0    0    0    0 -0.00000000000E+00 -0.00000000000E+00 -0.45593999997E+02  0.45594000000E+02  0.51100000000E-03 0.  1.
    9900012    2    1    2    0    0  0.98002957844E+00  0.53361918083E+00 -0.38440616052E+00  0.90007756169E+02  0.90000017750E+02 0.  0.
         12    1    1    2    0    0 -0.98002957844E+00 -0.53361918083E+00  0.38440616052E+00  0.11802438312E+01  0.00000000000E+00 0. -1.
         11    1    3    3    0    0  0.32476183480E+01 -0.12744303677E+02  0.31844873575E+02  0.34453741081E+02  0.51100000000E-03 0. -1.
        -11    1    3    3    0    0  0.29340328814E+01 -0.12562081873E+02  0.12310209534E+01  0.12958775512E+02  0.51100000000E-03 0.  1.
        -12    1    3    3    0    0 -0.52016216510E+01  0.25840004731E+02 -0.33460300689E+02  0.42595239576E+02  0.00000000000E+00 0.  1.
</event>
<event>
 7    1  0.2404951E-015  0.9000779E+02  0.7816164E-02  0.1186339E+00
        -11   -1    0    0    0    0  0.00000000000E+00  0.00000000000E+00  0.45593999997E+02  0.45594000000E+02  0.51100000000E-03 0.  1.
         11   -1    0    0    0    0 -0.00000000000E+00 -0.00000000000E+00 -0.45593999997E+02  0.45594000000E+02  0.51100000000E-03 0. -1.
    9900012    2    1    2    0    0  0.13882537296E+00  0.10952657901E+01 -0.41714748558E+00  0.90007791688E+02  0.90000053738E+02 0.  0.
         12    1    1    2    0    0 -0.13882537296E+00 -0.10952657901E+01  0.41714748558E+00  0.11802083120E+01  0.00000000000E+00 0. -1.
         11    1    3    3    0    0  0.24742480132E+02 -0.80519702777E+01 -0.47249315800E+01  0.26445217472E+02  0.51100000000E-03 0. -1.
        -11    1    3    3    0    0  0.82811586245E+01 -0.16419791456E+02  0.10918491796E+02  0.21386925982E+02  0.51100000000E-03 0.  1.
        -12    1    3    3    0    0 -0.32884813383E+02  0.25567027523E+02 -0.66107077017E+01  0.42175648234E+02  0.00000000000E+00 0.  1.
</event>
<event>
 7    1  0.2404951E-015  0.9000780E+02  0.7816164E-02  0.1186339E+00
        -11   -1    0    0    0    0  0.00000000000E+00  0.00000000000E+00  0.45593999997E+02  0.45594000000E+02  0.51100000000E-03 0. -1.
         11   -1    0    0    0    0 -0.00000000000E+00 -0.00000000000E+00 -0.45593999997E+02  0.45594000000E+02  0.51100000000E-03 0.  1.
    9900012    2    1    2    0    0 -0.10798629518E+01  0.31028450859E-01  0.47518489850E+00  0.90007801946E+02  0.90000064131E+02 0.  0.
         12    1    1    2    0    0  0.10798629518E+01 -0.31028450859E-01 -0.47518489850E+00  0.11801980542E+01  0.00000000000E+00 0. -1.
         11    1    3    3    0    0 -0.57109017678E+01 -0.61912387620E+01 -0.95213227318E+01  0.12712254845E+02  0.51100000000E-03 0. -1.
        -11    1    3    3    0    0 -0.29900640717E+02  0.16305001697E+02 -0.10818095236E+02  0.35734193435E+02  0.51100000000E-03 0.  1.
         12    1    3    3    0    0  0.34531679533E+02 -0.10082734485E+02  0.20814602866E+02  0.41561353666E+02  0.00000000000E+00 0. -1.
</event>
<event>
 7    1  0.2404951E-015  0.9000768E+02  0.7816164E-02  0.1186339E+00
        -11   -1    0    0    0    0  0.00000000000E+00  0.00000000000E+00  0.45593999997E+02  0.45594000000E+02  0.51100000000E-03 0.  1.
         11   -1    0    0    0    0 -0.00000000000E+00 -0.00000000000E+00 -0.45593999997E+02  0.45594000000E+02  0.51100000000E-03 0. -1.
    9900012    2    1    2    0    0  0.91904964984E+00  0.67449871517E+00 -0.30587446752E+00  0.90007678025E+02  0.89999938575E+02 0.  0.
         12    1    1    2    0    0 -0.91904964984E+00 -0.67449871517E+00  0.30587446752E+00  0.11803219754E+01  0.00000000000E+00 0. -1.
         11    1    3    3    0    0  0.75221653424E+01  0.59603644491E+01 -0.13788614194E+01  0.96958844300E+01  0.51100000000E-03 0. -1.
        -11    1    3    3    0    0  0.18253074490E+02 -0.21636946904E+02  0.28266821203E+02  0.40004317028E+02  0.51100000000E-03 0.  1.
         12    1    3    3    0    0 -0.24856190183E+02  0.16351081170E+02 -0.27193834252E+02  0.40307476566E+02  0.00000000000E+00 0. -1.
</event>
<event>
 7    1  0.2404951E-015  0.9000777E+02  0.7816164E-02  0.1186339E+00
        -11   -1    0    0    0    0  0.00000000000E+00  0.00000000000E+00  0.45593999997E+02  0.45594000000E+02  0.51100000000E-03 0.  1.
         11   -1    0    0    0    0 -0.00000000000E+00 -0.00000000000E+00 -0.45593999997E+02  0.45594000000E+02  0.51100000000E-03 0. -1.
    9900012    2    1    2    0    0 -0.32251051037E+00 -0.13661557427E+00  0.11270561046E+01  0.90007774468E+02  0.90000036291E+02 0.  0.
         12    1    1    2    0    0  0.32251051037E+00  0.13661557427E+00 -0.11270561046E+01  0.11802255324E+01  0.00000000000E+00 0. -1.
         11    1    3    3    0    0  0.11706988561E+02  0.85195234785E+01 -0.30968970904E+02  0.34186444983E+02  0.51100000000E-03 0. -1.
        -11    1    3    3    0    0 -0.35359748602E+01  0.59999947598E+01 -0.89948278633E+01  0.11375850908E+02  0.51100000000E-03 0.  1.
        -12    1    3    3    0    0 -0.84935242109E+01 -0.14656133813E+02  0.41090854872E+02  0.44445478577E+02  0.00000000000E+00 0.  1.
</event>
<event>
 7    1  0.2404951E-015  0.9000774E+02  0.7816164E-02  0.1186339E+00
        -11   -1    0    0    0    0  0.00000000000E+00  0.00000000000E+00  0.45593999997E+02  0.45594000000E+02  0.51100000000E-03 0.  1.
         11   -1    0    0    0    0 -0.00000000000E+00 -0.00000000000E+00 -0.45593999997E+02  0.45594000000E+02  0.51100000000E-03 0. -1.
    9900012    2    1    2    0    0 -0.11128696051E+01  0.33085394979E+00 -0.21229566306E+00  0.90007740477E+02  0.90000001851E+02 0.  0.
         12    1    1    2    0    0  0.11128696051E+01 -0.33085394979E+00  0.21229566306E+00  0.11802595234E+01  0.00000000000E+00 0. -1.
         11    1    3    3    0    0  0.37121665738E+01 -0.35648184941E+02 -0.10963693583E+02  0.37480339480E+02  0.51100000000E-03 0. -1.
        -11    1    3    3    0    0 -0.53083473701E+01 -0.41709096766E+01 -0.59890218299E+01  0.90246009370E+01  0.51100000000E-03 0.  1.
        -12    1    3    3    0    0  0.48331119122E+00  0.40149948567E+02  0.16740419750E+02  0.43502800060E+02  0.00000000000E+00 0.  1.
</event>
<event>
 7    1  0.2404951E-015  0.9000779E+02  0.7816164E-02  0.1186339E+00
        -11   -1    0    0    0    0  0.00000000000E+00  0.00000000000E+00  0.45593999997E+02  0.45594000000E+02  0.51100000000E-03 0.  1.
         11   -1    0    0    0    0 -0.00000000000E+00 -0.00000000000E+00 -0.45593999997E+02  0.45594000000E+02  0.51100000000E-03 0. -1.
    9900012    2    1    2    0    0 -0.98523694059E+00  0.33335201400E+00  0.55774321570E+00  0.90007791167E+02  0.90000053211E+02 0.  0.
         12    1    1    2    0    0  0.98523694059E+00 -0.33335201400E+00 -0.55774321570E+00  0.11802088328E+01  0.00000000000E+00 0. -1.
         11    1    3    3    0    0 -0.83670626578E+01 -0.72828782255E+00 -0.14948506806E+02  0.17146311460E+02  0.51100000000E-03 0. -1.
        -11    1    3    3    0    0 -0.23318503138E+02 -0.21017804777E+02 -0.14330136403E+01  0.31425375648E+02  0.51100000000E-03 0.  1.
         12    1    3    3    0    0  0.30700328855E+02  0.22079444613E+02  0.16939263662E+02  0.41436104060E+02  0.00000000000E+00 0. -1.
</event>
<event>
 7    1  0.2404951E-015  0.9000775E+02  0.7816164E-02  0.1186339E+00
        -11   -1    0    0    0    0  0.00000000000E+00  0.00000000000E+00  0.45593999997E+02  0.45594000000E+02  0.51100000000E-03 0. -1.
         11   -1    0    0    0    0 -0.00000000000E+00 -0.00000000000E+00 -0.45593999997E+02  0.45594000000E+02  0.51100000000E-03 0.  1.
    9900012    2    1    2    0    0 -0.78886056942E+00 -0.39446913027E+00  0.78427174246E+00  0.90007750425E+02  0.90000011931E+02 0.  0.
         12    1    1    2    0    0  0.78886056942E+00  0.39446913027E+00 -0.78427174246E+00  0.11802495748E+01  0.00000000000E+00 0. -1.
         11    1    3    3    0    0 -0.27913940055E+02 -0.28604115612E+02  0.10134300938E+02  0.41232117761E+02  0.51100000000E-03 0. -1.
        -11    1    3    3    0    0 -0.46004355909E+01  0.76912403757E+01  0.22728999216E+01  0.92458239469E+01  0.51100000000E-03 0.  1.
        -12    1    3    3    0    0  0.31725515076E+02  0.20518406106E+02 -0.11622929117E+02  0.39529808717E+02  0.00000000000E+00 0.  1.
</event>
<event>
 7    1  0.2404951E-015  0.9000771E+02  0.7816164E-02  0.1186339E+00
        -11   -1    0    0    0    0  0.00000000000E+00  0.00000000000E+00  0.45593999997E+02  0.45594000000E+02  0.51100000000E-03 0. -1.
         11   -1    0    0    0    0 -0.00000000000E+00 -0.00000000000E+00 -0.45593999997E+02  0.45594000000E+02  0.51100000000E-03 0.  1.
    9900012    2    1    2    0    0 -0.89715330293E+00 -0.76690606637E+00 -0.67161630604E-02  0.90007714411E+02  0.89999975442E+02 0.  0.
         12    1    1    2    0    0  0.89715330293E+00  0.76690606637E+00  0.67161630604E-02  0.11802855885E+01  0.00000000000E+00 0. -1.
         11    1    3    3    0    0  0.23478330608E+02 -0.19870261930E+02 -0.29528644114E+01  0.30899493941E+02  0.51100000000E-03 0. -1.
        -11    1    3    3    0    0  0.88665791210E+01 -0.10126713649E+02 -0.45591398818E+01  0.14210992624E+02  0.51100000000E-03 0.  1.
        -12    1    3    3    0    0 -0.33242063032E+02  0.29230069513E+02  0.75052881301E+01  0.44897227846E+02  0.00000000000E+00 0.  1.
</event>
<event>
 7    1  0.2404951E-015  0.9000775E+02  0.7816164E-02  0.1186339E+00
        -11   -1    0    0    0    0  0.00000000000E+00  0.00000000000E+00  0.45593999997E+02  0.45594000000E+02  0.51100000000E-03 0.  1.
         11   -1    0    0    0    0 -0.00000000000E+00 -0.00000000000E+00 -0.45593999997E+02  0.45594000000E+02  0.51100000000E-03 0. -1.
    9900012    2    1    2    0    0  0.19593442304E+00  0.40889227995E+00  0.10896766981E+01  0.90007754898E+02  0.90000016462E+02 0.  0.
         12    1    1    2    0    0 -0.19593442304E+00 -0.40889227995E+00 -0.10896766981E+01  0.11802451022E+01  0.00000000000E+00 0. -1.
         11    1    3    3    0    0 -0.19885386279E+02 -0.30324374701E+02  0.41814201687E+01  0.36503158266E+02  0.51100000000E-03 0. -1.
        -11    1    3    3    0    0 -0.73124693278E+01 -0.46170620757E+01  0.30705116720E+00  0.86535397706E+01  0.51100000000E-03 0.  1.
        -12    1    3    3    0    0  0.27393790030E+02  0.35350329057E+02 -0.33987946378E+01  0.44851056862E+02  0.00000000000E+00 0.  1.
</event>
<event>
 7    1  0.2404951E-015  0.9000777E+02  0.7816164E-02  0.1186339E+00
        -11   -1    0    0    0    0  0.00000000000E+00  0.00000000000E+00  0.45593999997E+02  0.45594000000E+02  0.51100000000E-03 0. -1.
         11   -1    0    0    0    0 -0.00000000000E+00 -0.00000000000E+00 -0.45593999997E+02  0.45594000000E+02  0.51100000000E-03 0.  1.
    9900012    2    1    2    0    0 -0.87771124257E+00  0.74222766963E+00  0.26769822000E+00  0.90007770668E+02  0.90000032441E+02 0.  0.
         12    1    1    2    0    0  0.87771124257E+00 -0.74222766963E+00 -0.26769822000E+00  0.11802293319E+01  0.00000000000E+00 0. -1.
         11    1    3    3    0    0  0.57138273641E+01 -0.36803668581E+01 -0.61222866620E+01  0.91474213628E+01  0.51100000000E-03 0. -1.
        -11    1    3    3    0    0  0.16953672679E+02 -0.17695431432E+02 -0.25570404308E+02  0.35417522324E+02  0.51100000000E-03 0.  1.
         12    1    3    3    0    0 -0.23545211286E+02  0.22118025960E+02  0.31960389190E+02  0.45442826981E+02  0.00000000000E+00 0. -1.
</event>
<event>
 7    1  0.2404951E-015  0.9000774E+02  0.7816164E-02  0.1186339E+00
        -11   -1    0    0    0    0  0.00000000000E+00  0.00000000000E+00  0.45593999997E+02  0.45594000000E+02  0.51100000000E-03 0.  1.
         11   -1    0    0    0    0 -0.00000000000E+00 -0.00000000000E+00 -0.45593999997E+02  0.45594000000E+02  0.51100000000E-03 0. -1.
    9900012    2    1    2    0    0 -0.15255916677E+00  0.11620612102E+01 -0.13915764908E+00  0.90007735027E+02  0.89999996329E+02 0.  0.
         12    1    1    2    0    0  0.15255916677E+00 -0.11620612102E+01  0.13915764908E+00  0.11802649732E+01  0.00000000000E+00 0. -1.
         11    1    3    3    0    0  0.13465301061E+01  0.80685824307E+01  0.41652976815E+01  0.91795899040E+01  0.51100000000E-03 0. -1.
        -11    1    3    3    0    0 -0.20465377078E+01 -0.19748937267E+01  0.38064012149E+02  0.38170113217E+02  0.51100000000E-03 0.  1.
         12    1    3    3    0    0  0.54744843497E+00 -0.49316274938E+01 -0.42368467480E+02  0.42658031906E+02  0.00000000000E+00 0. -1.
</event>
<event>
 7    1  0.2404951E-015  0.9000792E+02  0.7816164E-02  0.1186339E+00
        -11   -1    0    0    0    0  0.00000000000E+00  0.00000000000E+00  0.45593999997E+02  0.45594000000E+02  0.51100000000E-03 0. -1.
         11   -1    0    0    0    0 -0.00000000000E+00 -0.00000000000E+00 -0.45593999997E+02  0.45594000000E+02  0.51100000000E-03 0.  1.
    9900012    2    1    2    0    0  0.90583403506E-01 -0.10367011084E+01  0.55645257774E+00  0.90007917794E+02  0.90000181509E+02 0.  0.
         12    1    1    2    0    0 -0.90583403506E-01  0.10367011084E+01 -0.55645257774E+00  0.11800822058E+01  0.00000000000E+00 0. -1.
         11    1    3    3    0    0  0.68577102483E+01 -0.85031961049E+01 -0.36541366851E+01  0.11518908326E+02  0.51100000000E-03 0. -1.
        -11    1    3    3    0    0  0.14594941212E+02 -0.23166104996E+02 -0.20066399375E+02  0.33946150206E+02  0.51100000000E-03 0.  1.
         12    1    3    3    0    0 -0.21362068057E+02  0.30632599992E+02  0.24276988638E+02  0.44542859262E+02  0.00000000000E+00 0. -1.
</event>
<event>
 7    1  0.2404951E-015  0.9000778E+02  0.7816164E-02  0.1186339E+00
        -11   -1    0    0    0    0  0.00000000000E+00  0.00000000000E+00  0.45593999997E+02  0.45594000000E+02  0.51100000000E-03 0. -1.
         11   -1    0    0    0    0 -0.00000000000E+00 -0.00000000000E+00 -0.45593999997E+02  0.45594000000E+02  0.51100000000E-03 0.  1.
    9900012    2    1    2    0    0  0.10583361033E+01  0.12755958654E+00 -0.50652522440E+00  0.90007781987E+02  0.90000043909E+02 0.  0.
         12    1    1    2    0    0 -0.10583361033E+01 -0.12755958654E+00  0.50652522440E+00  0.11802180132E+01  0.00000000000E+00 0. -1.
         11    1    3    3    0    0 -0.27276004364E+02  0.29681087044E+02 -0.16340835085E+02  0.43496784177E+02  0.51100000000E-03 0. -1.
        -11    1    3    3    0    0  0.67779913406E+01 -0.96545486201E+01 -0.23048877903E+01  0.12019317105E+02  0.51100000000E-03 0.  1.
        -12    1    3    3    0    0  0.21556349127E+02 -0.19898978838E+02  0.18139197650E+02  0.34491680705E+02  0.00000000000E+00 0.  1.
</event>
<event>
 7    1  0.2404951E-015  0.9000769E+02  0.7816164E-02  0.1186339E+00
        -11   -1    0    0    0    0  0.00000000000E+00  0.00000000000E+00  0.45593999997E+02  0.45594000000E+02  0.51100000000E-03 0.  1.
         11   -1    0    0    0    0 -0.00000000000E+00 -0.00000000000E+00 -0.45593999997E+02  0.45594000000E+02  0.51100000000E-03 0. -1.
    9900012    2    1    2    0    0  0.53646618723E-01  0.96951036311E+00 -0.67104367167E+00  0.90007691603E+02  0.89999952332E+02 0.  0.
         12    1    1    2    0    0 -0.53646618723E-01 -0.96951036311E+00  0.67104367167E+00  0.11803083975E+01  0.00000000000E+00 0. -1.
         11    1    3    3    0    0 -0.10236036555E+02 -0.16421645606E+01 -0.44170129730E+01  0.11268680165E+02  0.51100000000E-03 0. -1.
        -11    1    3    3    0    0  0.18131762069E+02 -0.28714290046E+02  0.23117713312E+02  0.41081625061E+02  0.51100000000E-03 0.  1.
         12    1    3    3    0    0 -0.78420788951E+01  0.31325964970E+02 -0.19371744011E+02  0.37657386377E+02  0.00000000000E+00 0. -1.
</event>
<event>
 7    1  0.2404951E-015  0.9000754E+02  0.7816164E-02  0.1186339E+00
        -11   -1    0    0    0    0  0.00000000000E+00  0.00000000000E+00  0.45593999997E+02  0.45594000000E+02  0.51100000000E-03 0. -1.
         11   -1    0    0    0    0 -0.00000000000E+00 -0.00000000000E+00 -0.45593999997E+02  0.45594000000E+02  0.51100000000E-03 0.  1.
    9900012    2    1    2    0    0  0.74357120835E-01 -0.99123676539E-01 -0.11739405938E+01  0.90007537801E+02  0.89999796500E+02 0.  0.
         12    1    1    2    0    0 -0.74357120835E-01  0.99123676539E-01  0.11739405938E+01  0.11804621986E+01  0.00000000000E+00 0. -1.
         11    1    3    3    0    0  0.35808380392E+01 -0.83256753812E+01 -0.35073870563E+01  0.97180777853E+01  0.51100000000E-03 0. -1.
        -11    1    3    3    0    0  0.16003204936E+02 -0.21659243744E+02 -0.23891355627E+02  0.36000309467E+02  0.51100000000E-03 0.  1.
         12    1    3    3    0    0 -0.19509685854E+02  0.29885795449E+02  0.26224802089E+02  0.44289150549E+02  0.00000000000E+00 0. -1.
</event>
<event>
 7    1  0.2491639E-015  0.9000769E+02  0.7816164E-02  0.1186339E+00
        -11   -1    0    0    0    0  0.00000000000E+00  0.00000000000E+00  0.45593999997E+02  0.45594000000E+02  0.51100000000E-03 0. -1.
         11   -1    0    0    0    0 -0.00000000000E+00 -0.00000000000E+00 -0.45593999997E+02  0.45594000000E+02  0.51100000000E-03 0.  1.
    9900012    2    1    2    0    0  0.46148940648E+00 -0.10852609139E+01 -0.48709035420E-01  0.90007688052E+02  0.89999948735E+02 0.  0.
         12    1    1    2    0    0 -0.46148940648E+00  0.10852609139E+01  0.48709035420E-01  0.11803119476E+01  0.00000000000E+00 0. -1.
         11    1    3    3    0    0 -0.34021415290E+02 -0.49467554499E+01 -0.11965766870E+02  0.36402014572E+02  0.51100000000E-03 0. -1.
        -11    1    3    3    0    0 -0.86111815651E+01  0.20391137894E+01  0.41710610310E+01  0.97830559325E+01  0.51100000000E-03 0.  1.
        -12    1    3    3    0    0  0.43094086262E+02  0.18223807467E+01  0.77459968038E+01  0.43822617548E+02  0.00000000000E+00 0.  1.
</event>
<event>
 7    1  0.2404951E-015  0.9000775E+02  0.7816164E-02  0.1186339E+00
        -11   -1    0    0    0    0  0.00000000000E+00  0.00000000000E+00  0.45593999997E+02  0.45594000000E+02  0.51100000000E-03 0. -1.
         11   -1    0    0    0    0 -0.00000000000E+00 -0.00000000000E+00 -0.45593999997E+02  0.45594000000E+02  0.51100000000E-03 0.  1.
    9900012    2    1    2    0    0 -0.33469657401E+00  0.94339426741E+00 -0.62527137938E+00  0.90007754755E+02  0.90000016318E+02 0.  0.
         12    1    1    2    0    0  0.33469657401E+00 -0.94339426741E+00  0.62527137938E+00  0.11802452450E+01  0.00000000000E+00 0. -1.
         11    1    3    3    0    0  0.42265859229E+01 -0.42862968524E+01 -0.56764989053E+01  0.82739959725E+01  0.51100000000E-03 0. -1.
        -11    1    3    3    0    0  0.29178018746E+02 -0.23310518905E+02  0.35872567994E+01  0.37518068729E+02  0.51100000000E-03 0.  1.
         12    1    3    3    0    0 -0.33739301243E+02  0.28540210025E+02  0.14639707265E+01  0.44215690053E+02  0.00000000000E+00 0. -1.
</event>
<event>
 7    1  0.2404951E-015  0.9000776E+02  0.7816164E-02  0.1186339E+00
        -11   -1    0    0    0    0  0.00000000000E+00  0.00000000000E+00  0.45593999997E+02  0.45594000000E+02  0.51100000000E-03 0.  1.
         11   -1    0    0    0    0 -0.00000000000E+00 -0.00000000000E+00 -0.45593999997E+02  0.45594000000E+02  0.51100000000E-03 0. -1.
    9900012    2    1    2    0    0  0.11617995153E+01  0.17158871018E+00  0.11719907557E+00  0.90007764251E+02  0.90000025939E+02 0.  0.
         12    1    1    2    0    0 -0.11617995153E+01 -0.17158871018E+00 -0.11719907557E+00  0.11802357487E+01  0.00000000000E+00 0. -1.
         11    1    3    3    0    0  0.12657431659E+02 -0.15586444165E+01 -0.30643693738E+01  0.13116032500E+02  0.51100000000E-03 0. -1.
        -11    1    3    3    0    0  0.32239596372E+02 -0.91934342760E+00  0.66788453650E+01  0.32936966196E+02  0.51100000000E-03 0.  1.
         12    1    3    3    0    0 -0.43735228515E+02  0.26495765542E+01 -0.34972769156E+01  0.43954765555E+02  0.00000000000E+00 0. -1.
</event>
<event>
 7    1  0.2404951E-015  0.9000769E+02  0.7816164E-02  0.1186339E+00
        -11   -1    0    0    0    0  0.00000000000E+00  0.00000000000E+00  0.45593999997E+02  0.45594000000E+02  0.51100000000E-03 0. -1.
         11   -1    0    0    0    0 -0.00000000000E+00 -0.00000000000E+00 -0.45593999997E+02  0.45594000000E+02  0.51100000000E-03 0.  1.
    9900012    2    1    2    0    0  0.27447259488E+00 -0.43549732548E-01 -0.11471301333E+01  0.90007686767E+02  0.89999947433E+02 0.  0.
         12    1    1    2    0    0 -0.27447259488E+00  0.43549732548E-01  0.11471301333E+01  0.11803132327E+01  0.00000000000E+00 0. -1.
         11    1    3    3    0    0 -0.39782111139E+02 -0.92499264128E+01  0.95767541051E+01  0.41951063452E+02  0.51100000000E-03 0. -1.
        -11    1    3    3    0    0  0.41154409924E+01  0.91350636296E+01  0.14196196826E+01  0.10119365711E+02  0.51100000000E-03 0.  1.
        -12    1    3    3    0    0  0.35941142741E+02  0.71313050659E-01 -0.12143503921E+02  0.37937257605E+02  0.00000000000E+00 0.  1.
</event>
<event>
 7    1  0.2419725E-015  0.9000777E+02  0.7816164E-02  0.1186339E+00
        -11   -1    0    0    0    0  0.00000000000E+00  0.00000000000E+00  0.45593999997E+02  0.45594000000E+02  0.51100000000E-03 0.  1.
         11   -1    0    0    0    0 -0.00000000000E+00 -0.00000000000E+00 -0.45593999997E+02  0.45594000000E+02  0.51100000000E-03 0. -1.
    9900012    2    1    2    0    0  0.87180713325E+00 -0.78827000173E+00 -0.10739978987E+00  0.90007766130E+02  0.90000027843E+02 0.  0.
         12    1    1    2    0    0 -0.87180713325E+00  0.78827000173E+00  0.10739978987E+00  0.11802338701E+01  0.00000000000E+00 0. -1.
         11    1    3    3    0    0  0.24157200572E+02  0.26128913762E+02 -0.11929713697E+02  0.37531434065E+02  0.51100000000E-03 0. -1.
        -11    1    3    3    0    0 -0.24093829120E+01  0.91233491269E+01  0.13731059158E+01  0.95355149533E+01  0.51100000000E-03 0.  1.
        -12    1    3    3    0    0 -0.20876010527E+02 -0.36040532890E+02  0.10449207991E+02  0.42940817111E+02  0.00000000000E+00 0.  1.
</event>
<event>
 7    1  0.2404951E-015  0.9000759E+02  0.7816164E-02  0.1186339E+00
        -11   -1    0    0    0    0  0.00000000000E+00  0.00000000000E+00  0.45593999997E+02  0.45594000000E+02  0.51100000000E-03 0.  1.
         11   -1    0    0    0    0 -0.00000000000E+00 -0.00000000000E+00 -0.45593999997E+02  0.45594000000E+02  0.51100000000E-03 0. -1.
    9900012    2    1    2    0    0 -0.14234199586E+00  0.10465750982E+01 -0.52704831785E+00  0.90007593032E+02  0.89999852460E+02 0.  0.
         12    1    1    2    0    0  0.14234199586E+00 -0.10465750982E+01  0.52704831785E+00  0.11804069676E+01  0.00000000000E+00 0. -1.
         11    1    3    3    0    0  0.93248421454E+01  0.71077065587E+00 -0.35356261282E+01  0.99979262020E+01  0.51100000000E-03 0. -1.
        -11    1    3    3    0    0 -0.24088923616E+02  0.15758792264E+02 -0.29469932311E+02  0.41195784800E+02  0.51100000000E-03 0.  1.
         12    1    3    3    0    0  0.14621739475E+02 -0.15422987822E+02  0.32478510121E+02  0.38813882031E+02  0.00000000000E+00 0. -1.
</event>
<event>
 7    1  0.2404951E-015  0.9000785E+02  0.7816164E-02  0.1186339E+00
        -11   -1    0    0    0    0  0.00000000000E+00  0.00000000000E+00  0.45593999997E+02  0.45594000000E+02  0.51100000000E-03 0.  1.
         11   -1    0    0    0    0 -0.00000000000E+00 -0.00000000000E+00 -0.45593999997E+02  0.45594000000E+02  0.51100000000E-03 0. -1.
    9900012    2    1    2    0    0  0.28245341614E+00 -0.11143132646E+01 -0.26696331902E+00  0.90007854502E+02  0.90000117381E+02 0.  0.
         12    1    1    2    0    0 -0.28245341614E+00  0.11143132646E+01  0.26696331902E+00  0.11801454985E+01  0.00000000000E+00 0. -1.
         11    1    3    3    0    0  0.11975644188E+02 -0.68521833418E+01 -0.33498343501E+02  0.36228545208E+02  0.51100000000E-03 0. -1.
        -11    1    3    3    0    0  0.51418761377E+01 -0.51654692100E+01 -0.61811716302E+01  0.95565603309E+01  0.51100000000E-03 0.  1.
        -12    1    3    3    0    0 -0.16835066909E+02  0.10903339287E+02  0.39412551813E+02  0.44222748963E+02  0.00000000000E+00 0.  1.
</event>
<event>
 7    1  0.2404951E-015  0.9000777E+02  0.7816164E-02  0.1186339E+00
        -11   -1    0    0    0    0  0.00000000000E+00  0.00000000000E+00  0.45593999997E+02  0.45594000000E+02  0.51100000000E-03 0.  1.
         11   -1    0    0    0    0 -0.00000000000E+00 -0.00000000000E+00 -0.45593999997E+02  0.45594000000E+02  0.51100000000E-03 0. -1.
    9900012    2    1    2    0    0 -0.74031672589E+00  0.82934700715E+00  0.39630903770E+00  0.90007768596E+02  0.90000030342E+02 0.  0.
         12    1    1    2    0    0  0.74031672589E+00 -0.82934700715E+00 -0.39630903770E+00  0.11802314037E+01  0.00000000000E+00 0. -1.
         11    1    3    3    0    0 -0.83310231881E-01  0.84971372576E+01 -0.43828062365E+01  0.95612380441E+01  0.51100000000E-03 0. -1.
        -11    1    3    3    0    0  0.17249774517E+02 -0.25001194364E+02  0.31602091144E+02  0.43832711592E+02  0.51100000000E-03 0.  1.
         12    1    3    3    0    0 -0.17906781011E+02  0.17333404114E+02 -0.26822975870E+02  0.36613818961E+02  0.00000000000E+00 0. -1.
</event>
<event>
 7    1  0.2404951E-015  0.9000769E+02  0.7816164E-02  0.1186339E+00
        -11   -1    0    0    0    0  0.00000000000E+00  0.00000000000E+00  0.45593999997E+02  0.45594000000E+02  0.51100000000E-03 0. -1.
         11   -1    0    0    0    0 -0.00000000000E+00 -0.00000000000E+00 -0.45593999997E+02  0.45594000000E+02  0.51100000000E-03 0.  1.
    9900012    2    1    2    0    0  0.11470508162E+01  0.26408018954E+00 -0.87619768486E-01  0.90007685997E+02  0.89999946652E+02 0.  0.
         12    1    1    2    0    0 -0.11470508162E+01 -0.26408018954E+00  0.87619768486E-01  0.11803140028E+01  0.00000000000E+00 0. -1.
         11    1    3    3    0    0  0.63665462197E+01 -0.11538583206E+01 -0.72880274684E+01  0.97457500703E+01  0.51100000000E-03 0. -1.
        -11    1    3    3    0    0  0.37063052928E+02  0.54299088454E+01  0.28387262723E+01  0.37566103997E+02  0.51100000000E-03 0.  1.
         12    1    3    3    0    0 -0.42282548331E+02 -0.40119703352E+01  0.43616814276E+01  0.42695831930E+02  0.00000000000E+00 0. -1.
</event>
<event>
 7    1  0.2404951E-015  0.9000765E+02  0.7816164E-02  0.1186339E+00
        -11   -1    0    0    0    0  0.00000000000E+00  0.00000000000E+00  0.45593999997E+02  0.45594000000E+02  0.51100000000E-03 0.  1.
         11   -1    0    0    0    0 -0.00000000000E+00 -0.00000000000E+00 -0.45593999997E+02  0.45594000000E+02  0.51100000000E-03 0. -1.
    9900012    2    1    2    0    0  0.71319157031E+00 -0.72555746588E-01  0.93772010437E+00  0.90007650244E+02  0.89999910427E+02 0.  0.
         12    1    1    2    0    0 -0.71319157031E+00  0.72555746588E-01 -0.93772010437E+00  0.11803497560E+01  0.00000000000E+00 0. -1.
         11    1    3    3    0    0  0.51942436092E+00  0.79616199890E+01  0.10017991299E+02  0.12806925644E+02  0.51100000000E-03 0. -1.
        -11    1    3    3    0    0  0.16401367752E+02 -0.11031850318E+02  0.29349728111E+02  0.35385210555E+02  0.51100000000E-03 0.  1.
         12    1    3    3    0    0 -0.16207600543E+02  0.29976745823E+01 -0.38429999306E+02  0.41815514045E+02  0.00000000000E+00 0. -1.
</event>
<event>
 7    1  0.2404951E-015  0.9000770E+02  0.7816164E-02  0.1186339E+00
        -11   -1    0    0    0    0  0.00000000000E+00  0.00000000000E+00  0.45593999997E+02  0.45594000000E+02  0.51100000000E-03 0.  1.
         11   -1    0    0    0    0 -0.00000000000E+00 -0.00000000000E+00 -0.45593999997E+02  0.45594000000E+02  0.51100000000E-03 0. -1.
    9900012    2    1    2    0    0  0.10614004740E+01 -0.30275264321E+00  0.41817535490E+00  0.90007703107E+02  0.89999963988E+02 0.  0.
         12    1    1    2    0    0 -0.10614004740E+01  0.30275264321E+00 -0.41817535490E+00  0.11802968935E+01  0.00000000000E+00 0. -1.
         11    1    3    3    0    0  0.75976568924E+01 -0.14100877887E+01  0.57773326788E+01  0.96483320304E+01  0.51100000000E-03 0. -1.
        -11    1    3    3    0    0 -0.13761272307E+02  0.14652246401E+02  0.33225539325E+02  0.38832942250E+02  0.51100000000E-03 0.  1.
         12    1    3    3    0    0  0.72250158891E+01 -0.13544911255E+02 -0.38584696649E+02  0.41526428826E+02  0.00000000000E+00 0. -1.
</event>
<event>
 7    1  0.2404951E-015  0.9000791E+02  0.7816164E-02  0.1186339E+00
        -11   -1    0    0    0    0  0.00000000000E+00  0.00000000000E+00  0.45593999997E+02  0.45594000000E+02  0.51100000000E-03 0.  1.
         11   -1    0    0    0    0 -0.00000000000E+00 -0.00000000000E+00 -0.45593999997E+02  0.45594000000E+02  0.51100000000E-03 0. -1.
    9900012    2    1    2    0    0 -0.24759700784E+00 -0.35688839702E+00  0.10972378200E+01  0.90007913376E+02  0.90000177033E+02 0.  0.
         12    1    1    2    0    0  0.24759700784E+00  0.35688839702E+00 -0.10972378200E+01  0.11800866239E+01  0.00000000000E+00 0. -1.
         11    1    3    3    0    0 -0.97647630612E+01  0.22171248124E+00  0.42318282767E+01  0.10644628922E+02  0.51100000000E-03 0. -1.
        -11    1    3    3    0    0 -0.29445755169E+02 -0.19297529727E+02 -0.72400335359E+01  0.35942526857E+02  0.51100000000E-03 0.  1.
         12    1    3    3    0    0  0.38962921222E+02  0.18718928848E+02  0.41054430792E+01  0.43420757597E+02  0.00000000000E+00 0. -1.
</event>
<event>
 7    1  0.2404951E-015  0.9000777E+02  0.7816164E-02  0.1186339E+00
        -11   -1    0    0    0    0  0.00000000000E+00  0.00000000000E+00  0.45593999997E+02  0.45594000000E+02  0.51100000000E-03 0. -1.
         11   -1    0    0    0    0 -0.00000000000E+00 -0.00000000000E+00 -0.45593999997E+02  0.45594000000E+02  0.51100000000E-03 0.  1.
    9900012    2    1    2    0    0 -0.71347722456E+00  0.58989568100E+00 -0.73205894940E+00  0.90007772492E+02  0.90000034289E+02 0.  0.
         12    1    1    2    0    0  0.71347722456E+00 -0.58989568100E+00  0.73205894940E+00  0.11802275077E+01  0.00000000000E+00 0. -1.
         11    1    3    3    0    0  0.19709310832E+02 -0.35309196530E+02  0.49650488133E+01  0.40741232223E+02  0.51100000000E-03 0. -1.
        -11    1    3    3    0    0  0.18038889791E+00  0.75743711239E+01  0.85770273839E+01  0.11444170441E+02  0.51100000000E-03 0.  1.
        -12    1    3    3    0    0 -0.20603176955E+02  0.28324721087E+02 -0.14274135147E+02  0.37822369829E+02  0.00000000000E+00 0.  1.
</event>
<event>
 7    1  0.2404951E-015  0.9000779E+02  0.7816164E-02  0.1186339E+00
        -11   -1    0    0    0    0  0.00000000000E+00  0.00000000000E+00  0.45593999997E+02  0.45594000000E+02  0.51100000000E-03 0. -1.
         11   -1    0    0    0    0 -0.00000000000E+00 -0.00000000000E+00 -0.45593999997E+02  0.45594000000E+02  0.51100000000E-03 0.  1.
    9900012    2    1    2    0    0  0.27755213412E+00  0.10642616790E+01 -0.42802037439E+00  0.90007792582E+02  0.90000054644E+02 0.  0.
         12    1    1    2    0    0 -0.27755213412E+00 -0.10642616790E+01  0.42802037439E+00  0.11802074180E+01  0.00000000000E+00 0. -1.
         11    1    3    3    0    0  0.22505254081E+02  0.17730614239E+01 -0.27473823823E+02  0.35558982041E+02  0.51100000000E-03 0. -1.
        -11    1    3    3    0    0  0.66065898121E+01  0.53806644190E+01 -0.58098447510E+01  0.10312753019E+02  0.51100000000E-03 0.  1.
        -12    1    3    3    0    0 -0.28834291759E+02 -0.60894641638E+01  0.32855648200E+02  0.44136057523E+02  0.00000000000E+00 0.  1.
</event>
<event>
 7    1  0.2404951E-015  0.9000773E+02  0.7816164E-02  0.1186339E+00
        -11   -1    0    0    0    0  0.00000000000E+00  0.00000000000E+00  0.45593999997E+02  0.45594000000E+02  0.51100000000E-03 0.  1.
         11   -1    0    0    0    0 -0.00000000000E+00 -0.00000000000E+00 -0.45593999997E+02  0.45594000000E+02  0.51100000000E-03 0. -1.
    9900012    2    1    2    0    0 -0.77293091011E+00  0.65761962697E+00  0.60262486377E+00  0.90007727789E+02  0.89999988996E+02 0.  0.
         12    1    1    2    0    0  0.77293091011E+00 -0.65761962697E+00 -0.60262486377E+00  0.11802722110E+01  0.00000000000E+00 0. -1.
         11    1    3    3    0    0  0.12256440984E+02  0.33449707415E+01 -0.28712603064E+01  0.13025103103E+02  0.51100000000E-03 0. -1.
        -11    1    3    3    0    0 -0.59844765657E+01  0.20879045791E+02  0.32403794205E+02  0.39009670494E+02  0.51100000000E-03 0.  1.
         12    1    3    3    0    0 -0.70448953279E+01 -0.23566396905E+02 -0.28929909035E+02  0.37972954192E+02  0.00000000000E+00 0. -1.
</event>
<event>
 7    1  0.2404951E-015  0.9000755E+02  0.7816164E-02  0.1186339E+00
        -11   -1    0    0    0    0  0.00000000000E+00  0.00000000000E+00  0.45593999997E+02  0.45594000000E+02  0.51100000000E-03 0.  1.
         11   -1    0    0    0    0 -0.00000000000E+00 -0.00000000000E+00 -0.45593999997E+02  0.45594000000E+02  0.51100000000E-03 0. -1.
    9900012    2    1    2    0    0 -0.59376515548E+00  0.83666525871E-01  0.10168140926E+01  0.90007547525E+02  0.89999806352E+02 0.  0.
         12    1    1    2    0    0  0.59376515548E+00 -0.83666525871E-01 -0.10168140926E+01  0.11804524753E+01  0.00000000000E+00 0. -1.
         11    1    3    3    0    0  0.32689546887E+01  0.37406396379E+02  0.76819201011E+01  0.38326706766E+02  0.51100000000E-03 0. -1.
        -11    1    3    3    0    0  0.12096746965E+02 -0.30540327669E+01  0.26335798487E+01  0.12751240973E+02  0.51100000000E-03 0.  1.
        -12    1    3    3    0    0 -0.15959466809E+02 -0.34268697086E+02 -0.92986858572E+01  0.38929599786E+02  0.00000000000E+00 0.  1.
</event>
<event>
 7    1  0.2404951E-015  0.9000770E+02  0.7816164E-02  0.1186339E+00
        -11   -1    0    0    0    0  0.00000000000E+00  0.00000000000E+00  0.45593999997E+02  0.45594000000E+02  0.51100000000E-03 0. -1.
         11   -1    0    0    0    0 -0.00000000000E+00 -0.00000000000E+00 -0.45593999997E+02  0.45594000000E+02  0.51100000000E-03 0.  1.
    9900012    2    1    2    0    0 -0.42506365208E+00  0.10494873530E+01 -0.33315967128E+00  0.90007704198E+02  0.89999965094E+02 0.  0.
         12    1    1    2    0    0  0.42506365208E+00 -0.10494873530E+01  0.33315967128E+00  0.11802958015E+01  0.00000000000E+00 0. -1.
         11    1    3    3    0    0  0.30047546022E+02  0.18481442723E+02  0.13510007521E+02  0.37774846797E+02  0.51100000000E-03 0. -1.
        -11    1    3    3    0    0  0.56307807197E+01 -0.56468377520E+01  0.54265324289E+01  0.96457100607E+01  0.51100000000E-03 0.  1.
        -12    1    3    3    0    0 -0.36103390393E+02 -0.11785117618E+02 -0.19269699621E+02  0.42587147341E+02  0.00000000000E+00 0.  1.
</event>
<event>
 7    1  0.2404951E-015  0.9000769E+02  0.7816164E-02  0.1186339E+00
        -11   -1    0    0    0    0  0.00000000000E+00  0.00000000000E+00  0.45593999997E+02  0.45594000000E+02  0.51100000000E-03 0. -1.
         11   -1    0    0    0    0 -0.00000000000E+00 -0.00000000000E+00 -0.45593999997E+02  0.45594000000E+02  0.51100000000E-03 0.  1.
    9900012    2    1    2    0    0 -0.62324324278E+00 -0.88270595583E+00 -0.47490630407E+00  0.90007687354E+02  0.89999948027E+02 0.  0.
         12    1    1    2    0    0  0.62324324278E+00  0.88270595583E+00  0.47490630407E+00  0.11803126458E+01  0.00000000000E+00 0. -1.
         11    1    3    3    0    0  0.11133847869E+01  0.47770949436E+01 -0.78696404047E+01  0.92731603106E+01  0.51100000000E-03 0. -1.
        -11    1    3    3    0    0 -0.12516602310E+02  0.35590192981E+02  0.23202052579E+01  0.37798287296E+02  0.51100000000E-03 0.  1.
         12    1    3    3    0    0  0.10779974280E+02 -0.41249993881E+02  0.50745288427E+01  0.42936239747E+02  0.00000000000E+00 0. -1.
</event>
<event>
 7    1  0.2404951E-015  0.9000724E+02  0.7816164E-02  0.1186340E+00
        -11   -1    0    0    0    0  0.00000000000E+00  0.00000000000E+00  0.45593999997E+02  0.45594000000E+02  0.51100000000E-03 0. -1.
         11   -1    0    0    0    0 -0.00000000000E+00 -0.00000000000E+00 -0.45593999997E+02  0.45594000000E+02  0.51100000000E-03 0.  1.
    9900012    2    1    2    0    0 -0.11361231826E+01  0.33774101521E-01 -0.31982707457E+00  0.90007235022E+02  0.89999489723E+02 0.  0.
         12    1    1    2    0    0  0.11361231826E+01 -0.33774101521E-01  0.31982707457E+00  0.11807649782E+01  0.00000000000E+00 0. -1.
         11    1    3    3    0    0 -0.12511419612E+01  0.12534847608E+02 -0.12898027864E+02  0.18029056654E+02  0.51100000000E-03 0. -1.
        -11    1    3    3    0    0  0.23313722886E+02 -0.28458345580E+01 -0.19990797808E+02  0.30842510377E+02  0.51100000000E-03 0.  1.
         12    1    3    3    0    0 -0.23198704107E+02 -0.96552389486E+01  0.32568998598E+02  0.41135667991E+02  0.00000000000E+00 0. -1.
</event>
<event>
 7    1  0.2404951E-015  0.9000778E+02  0.7816164E-02  0.1186339E+00
        -11   -1    0    0    0    0  0.00000000000E+00  0.00000000000E+00  0.45593999997E+02  0.45594000000E+02  0.51100000000E-03 0. -1.
         11   -1    0    0    0    0 -0.00000000000E+00 -0.00000000000E+00 -0.45593999997E+02  0.45594000000E+02  0.51100000000E-03 0.  1.
    9900012    2    1    2    0    0 -0.10351299603E+01  0.47531077074E+00  0.30902668971E+00  0.90007783131E+02  0.90000045068E+02 0.  0.
         12    1    1    2    0    0  0.10351299603E+01 -0.47531077074E+00 -0.30902668971E+00  0.11802168693E+01  0.00000000000E+00 0. -1.
         11    1    3    3    0    0  0.84690692973E+01 -0.29966188237E+01 -0.13487981093E+01  0.90842784930E+01  0.51100000000E-03 0. -1.
        -11    1    3    3    0    0  0.72672191972E+01 -0.56429403591E+01 -0.36830170944E+02  0.37962043448E+02  0.51100000000E-03 0.  1.
         12    1    3    3    0    0 -0.16771418455E+02  0.91148699536E+01  0.38487995743E+02  0.42961461190E+02  0.00000000000E+00 0. -1.
</event>
<event>
 7    1  0.2404951E-015  0.9000763E+02  0.7816164E-02  0.1186339E+00
        -11   -1    0    0    0    0  0.00000000000E+00  0.00000000000E+00  0.45593999997E+02  0.45594000000E+02  0.51100000000E-03 0.  1.
         11   -1    0    0    0    0 -0.00000000000E+00 -0.00000000000E+00 -0.45593999997E+02  0.45594000000E+02  0.51100000000E-03 0. -1.
    9900012    2    1    2    0    0  0.83098173738E+00  0.82820326096E+00 -0.12973237522E+00  0.90007626424E+02  0.89999886293E+02 0.  0.
         12    1    1    2    0    0 -0.83098173738E+00 -0.82820326096E+00  0.12973237522E+00  0.11803735758E+01  0.00000000000E+00 0. -1.
         11    1    3    3    0    0 -0.31472402010E+01 -0.25322379932E+01 -0.73032151883E+01  0.83459153174E+01  0.51100000000E-03 0. -1.
        -11    1    3    3    0    0 -0.15041951636E+02  0.17765420174E+01  0.40509544149E+02  0.43248578913E+02  0.51100000000E-03 0.  1.
         12    1    3    3    0    0  0.19020173575E+02  0.15838992367E+01 -0.33336061336E+02  0.38413132194E+02  0.00000000000E+00 0. -1.
</event>
<event>
 7    1  0.2404951E-015  0.9000772E+02  0.7816164E-02  0.1186339E+00
        -11   -1    0    0    0    0  0.00000000000E+00  0.00000000000E+00  0.45593999997E+02  0.45594000000E+02  0.51100000000E-03 0.  1.
         11   -1    0    0    0    0 -0.00000000000E+00 -0.00000000000E+00 -0.45593999997E+02  0.45594000000E+02  0.51100000000E-03 0. -1.
    9900012    2    1    2    0    0 -0.57706389297E+00  0.76242565027E-01  0.10267654722E+01  0.90007719101E+02  0.89999980193E+02 0.  0.
         12    1    1    2    0    0  0.57706389297E+00 -0.76242565027E-01 -0.10267654722E+01  0.11802808989E+01  0.00000000000E+00 0. -1.
         11    1    3    3    0    0  0.33410985674E+02 -0.58905874361E+01 -0.93307023722E+01  0.35186005614E+02  0.51100000000E-03 0. -1.
        -11    1    3    3    0    0  0.80383487109E+01 -0.31204764876E+01 -0.39795538866E+01  0.94968032992E+01  0.51100000000E-03 0.  1.
        -12    1    3    3    0    0 -0.42026398278E+02  0.90873064888E+01  0.14337021731E+02  0.45324910188E+02  0.00000000000E+00 0.  1.
</event>
<event>
 7    1  0.2404951E-015  0.9000760E+02  0.7816164E-02  0.1186339E+00
        -11   -1    0    0    0    0  0.00000000000E+00  0.00000000000E+00  0.45593999997E+02  0.45594000000E+02  0.51100000000E-03 0. -1.
         11   -1    0    0    0    0 -0.00000000000E+00 -0.00000000000E+00 -0.45593999997E+02  0.45594000000E+02  0.51100000000E-03 0.  1.
    9900012    2    1    2    0    0  0.11228681802E+01  0.15152360304E+00 -0.33096835151E+00  0.90007604980E+02  0.89999864566E+02 0.  0.
         12    1    1    2    0    0 -0.11228681802E+01 -0.15152360304E+00  0.33096835151E+00  0.11803950195E+01  0.00000000000E+00 0. -1.
         11    1    3    3    0    0  0.17773973744E+02  0.24131636889E+02  0.30882697399E+02  0.43034765487E+02  0.51100000000E-03 0. -1.
        -11    1    3    3    0    0 -0.42729228869E+01  0.30855949598E+01 -0.57981070846E+01  0.78356117999E+01  0.51100000000E-03 0.  1.
        -12    1    3    3    0    0 -0.12378182677E+02 -0.27065708246E+02 -0.25415558666E+02  0.39137227694E+02  0.00000000000E+00 0.  1.
</event>
<event>
 7    1  0.2404951E-015  0.9000767E+02  0.7816164E-02  0.1186339E+00
        -11   -1    0    0    0    0  0.00000000000E+00  0.00000000000E+00  0.45593999997E+02  0.45594000000E+02  0.51100000000E-03 0.  1.
         11   -1    0    0    0    0 -0.00000000000E+00 -0.00000000000E+00 -0.45593999997E+02  0.45594000000E+02  0.51100000000E-03 0. -1.
    9900012    2    1    2    0    0  0.12031290171E+00  0.10037485626E+01 -0.60925854982E+00  0.90007668542E+02  0.89999928966E+02 0.  0.
         12    1    1    2    0    0 -0.12031290171E+00 -0.10037485626E+01  0.60925854982E+00  0.11803314585E+01  0.00000000000E+00 0. -1.
         11    1    3    3    0    0  0.28098988046E+01 -0.78471689333E+01  0.27984887147E+01  0.87923336440E+01  0.51100000000E-03 0. -1.
        -11    1    3    3    0    0  0.18836004185E+02  0.35937157991E+02  0.13428059139E+02  0.42738590882E+02  0.51100000000E-03 0.  1.
         12    1    3    3    0    0 -0.21525590088E+02 -0.27086240495E+02 -0.16835806403E+02  0.38476744015E+02  0.00000000000E+00 0. -1.
</event>
<event>
 7    1  0.2404951E-015  0.9000768E+02  0.7816164E-02  0.1186339E+00
        -11   -1    0    0    0    0  0.00000000000E+00  0.00000000000E+00  0.45593999997E+02  0.45594000000E+02  0.51100000000E-03 0. -1.
         11   -1    0    0    0    0 -0.00000000000E+00 -0.00000000000E+00 -0.45593999997E+02  0.45594000000E+02  0.51100000000E-03 0.  1.
    9900012    2    1    2    0    0  0.17354711701E+00  0.27460073887E+00 -0.11347395243E+01  0.90007678876E+02  0.89999939437E+02 0.  0.
         12    1    1    2    0    0 -0.17354711701E+00 -0.27460073887E+00  0.11347395243E+01  0.11803211240E+01  0.00000000000E+00 0. -1.
         11    1    3    3    0    0 -0.22766588737E+01  0.82674755593E+00  0.10601075724E+02  0.10874258316E+02  0.51100000000E-03 0. -1.
        -11    1    3    3    0    0  0.36316231967E+02  0.15747392656E+02 -0.12595997551E+02  0.41539237286E+02  0.51100000000E-03 0.  1.
         12    1    3    3    0    0 -0.33866025976E+02 -0.16299539473E+02  0.86018230256E+00  0.37594183274E+02  0.00000000000E+00 0. -1.
</event>
<event>
 7    1  0.2489222E-015  0.9000778E+02  0.7816164E-02  0.1186339E+00
        -11   -1    0    0    0    0  0.00000000000E+00  0.00000000000E+00  0.45593999997E+02  0.45594000000E+02  0.51100000000E-03 0. -1.
         11   -1    0    0    0    0 -0.00000000000E+00 -0.00000000000E+00 -0.45593999997E+02  0.45594000000E+02  0.51100000000E-03 0.  1.
    9900012    2    1    2    0    0 -0.11601139851E+01 -0.20943970264E+00  0.56389652295E-01  0.90007784240E+02  0.90000046192E+02 0.  0.
         12    1    1    2    0    0  0.11601139851E+01  0.20943970264E+00 -0.56389652295E-01  0.11802157600E+01  0.00000000000E+00 0. -1.
         11    1    3    3    0    0  0.32686074486E+02  0.12673342560E+02  0.22287813511E+02  0.41542023402E+02  0.51100000000E-03 0. -1.
        -11    1    3    3    0    0  0.13730263296E+01 -0.47770604597E+01 -0.84179689962E+01  0.97758738852E+01  0.51100000000E-03 0.  1.
        -12    1    3    3    0    0 -0.35219214801E+02 -0.81057218030E+01 -0.13813454863E+02  0.38689886953E+02  0.00000000000E+00 0.  1.
</event>
<event>
 7    1  0.2404951E-015  0.9000709E+02  0.7816164E-02  0.1186340E+00
        -11   -1    0    0    0    0  0.00000000000E+00  0.00000000000E+00  0.45593999997E+02  0.45594000000E+02  0.51100000000E-03 0.  1.
         11   -1    0    0    0    0 -0.00000000000E+00 -0.00000000000E+00 -0.45593999997E+02  0.45594000000E+02  0.51100000000E-03 0. -1.
    9900012    2    1    2    0    0  0.10615503591E+01  0.47989418512E+00  0.19328140534E+00  0.90007091326E+02  0.89999344130E+02 0.  0.
         12    1    1    2    0    0 -0.10615503591E+01 -0.47989418512E+00 -0.19328140534E+00  0.11809086736E+01  0.00000000000E+00 0. -1.
         11    1    3    3    0    0  0.44978485781E+00 -0.47541926705E+01  0.82180505046E+01  0.95047887259E+01  0.51100000000E-03 0. -1.
        -11    1    3    3    0    0 -0.13384507583E+02 -0.13321496324E+02  0.30286854424E+02  0.35691747768E+02  0.51100000000E-03 0.  1.
         12    1    3    3    0    0  0.13996273085E+02  0.18555583180E+02 -0.38311623524E+02  0.44810554833E+02  0.00000000000E+00 0. -1.
</event>
<event>
 7    1  0.2404951E-015  0.9000852E+02  0.7816164E-02  0.1186337E+00
        -11   -1    0    0    0    0  0.00000000000E+00  0.00000000000E+00  0.45593999997E+02  0.45594000000E+02  0.51100000000E-03 0.  1.
         11   -1    0    0    0    0 -0.00000000000E+00 -0.00000000000E+00 -0.45593999997E+02  0.45594000000E+02  0.51100000000E-03 0. -1.
    9900012    2    1    2    0    0 -0.60895553919E+00  0.10100022477E+01  0.15760453641E-01  0.90008517155E+02  0.90000788778E+02 0.  0.
         12    1    1    2    0    0  0.60895553919E+00 -0.10100022477E+01 -0.15760453641E-01  0.11794828447E+01  0.00000000000E+00 0. -1.
         11    1    3    3    0    0 -0.20445708028E+02  0.29316941473E+02  0.45319465137E+01  0.36028441176E+02  0.51100000000E-03 0. -1.
        -11    1    3    3    0    0  0.10661409461E+02  0.22165449929E+01  0.13518463685E+02  0.17358789821E+02  0.51100000000E-03 0.  1.
        -12    1    3    3    0    0  0.91753430283E+01 -0.30523484218E+02 -0.18034649745E+02  0.36621286159E+02  0.00000000000E+00 0.  1.
</event>
<event>
 7    1  0.2404951E-015  0.9000769E+02  0.7816164E-02  0.1186339E+00
        -11   -1    0    0    0    0  0.00000000000E+00  0.00000000000E+00  0.45593999997E+02  0.45594000000E+02  0.51100000000E-03 0.  1.
         11   -1    0    0    0    0 -0.00000000000E+00 -0.00000000000E+00 -0.45593999997E+02  0.45594000000E+02  0.51100000000E-03 0. -1.
    9900012    2    1    2    0    0  0.80343136271E+00 -0.21374804978E+00  0.83781571601E+00  0.90007692685E+02  0.89999953429E+02 0.  0.
         12    1    1    2    0    0 -0.80343136271E+00  0.21374804978E+00 -0.83781571601E+00  0.11803073148E+01  0.00000000000E+00 0. -1.
         11    1    3    3    0    0  0.20529270083E+00 -0.19510127624E+01  0.94924379743E+01  0.96930374419E+01  0.51100000000E-03 0. -1.
        -11    1    3    3    0    0  0.10345829113E+02  0.85009402136E+01  0.33735326721E+02  0.36295653098E+02  0.51100000000E-03 0.  1.
         12    1    3    3    0    0 -0.97476904512E+01 -0.67636755010E+01 -0.42389948979E+02  0.44019002146E+02  0.00000000000E+00 0. -1.
</event>
<event>
 7    1  0.2404951E-015  0.9000797E+02  0.7816164E-02  0.1186339E+00
        -11   -1    0    0    0    0  0.00000000000E+00  0.00000000000E+00  0.45593999997E+02  0.45594000000E+02  0.51100000000E-03 0.  1.
         11   -1    0    0    0    0 -0.00000000000E+00 -0.00000000000E+00 -0.45593999997E+02  0.45594000000E+02  0.51100000000E-03 0. -1.
    9900012    2    1    2    0    0 -0.39537632470E+00  0.73224858783E+00 -0.83663549240E+00  0.90007970602E+02  0.90000235014E+02 0.  0.
         12    1    1    2    0    0  0.39537632470E+00 -0.73224858783E+00  0.83663549240E+00  0.11800293978E+01  0.00000000000E+00 0. -1.
         11    1    3    3    0    0  0.95932222113E+00  0.88889586607E+01  0.14749801799E+01  0.90614265978E+01  0.51100000000E-03 0. -1.
        -11    1    3    3    0    0  0.35417620942E+02  0.56035631506E+01  0.13914427025E+02  0.38463217142E+02  0.51100000000E-03 0.  1.
         12    1    3    3    0    0 -0.36772319488E+02 -0.13760273223E+02 -0.16226042697E+02  0.42483326863E+02  0.00000000000E+00 0. -1.
</event>
<event>
 7    1  0.2404951E-015  0.9000759E+02  0.7816164E-02  0.1186339E+00
        -11   -1    0    0    0    0  0.00000000000E+00  0.00000000000E+00  0.45593999997E+02  0.45594000000E+02  0.51100000000E-03 0. -1.
         11   -1    0    0    0    0 -0.00000000000E+00 -0.00000000000E+00 -0.45593999997E+02  0.45594000000E+02  0.51100000000E-03 0.  1.
    9900012    2    1    2    0    0  0.54299901707E-01  0.10834812415E+01  0.46528374907E+00  0.90007589458E+02  0.89999848839E+02 0.  0.
         12    1    1    2    0    0 -0.54299901707E-01 -0.10834812415E+01 -0.46528374907E+00  0.11804105418E+01  0.00000000000E+00 0. -1.
         11    1    3    3    0    0 -0.70279489723E+01 -0.68781657348E+01 -0.13430198174E+01  0.99249651448E+01  0.51100000000E-03 0. -1.
        -11    1    3    3    0    0  0.14468704797E+02 -0.25219818368E+02 -0.23758187630E+02  0.37547758079E+02  0.51100000000E-03 0.  1.
         12    1    3    3    0    0 -0.73864559230E+01  0.33181465344E+02  0.25566491197E+02  0.42534866235E+02  0.00000000000E+00 0. -1.
</event>
<event>
 7    1  0.2404951E-015  0.9000775E+02  0.7816164E-02  0.1186339E+00
        -11   -1    0    0    0    0  0.00000000000E+00  0.00000000000E+00  0.45593999997E+02  0.45594000000E+02  0.51100000000E-03 0. -1.
         11   -1    0    0    0    0 -0.00000000000E+00 -0.00000000000E+00 -0.45593999997E+02  0.45594000000E+02  0.51100000000E-03 0.  1.
    9900012    2    1    2    0    0  0.11236663102E+01  0.36103951600E+00  0.32149098135E-02  0.90007751787E+02  0.90000013310E+02 0.  0.
         12    1    1    2    0    0 -0.11236663102E+01 -0.36103951600E+00 -0.32149098135E-02  0.11802482131E+01  0.00000000000E+00 0. -1.
         11    1    3    3    0    0  0.10002414801E+02  0.74261885473E+01 -0.69833629957E+01  0.14281594350E+02  0.51100000000E-03 0. -1.
        -11    1    3    3    0    0 -0.16935371377E+02 -0.35797056217E+02 -0.10722389417E+02  0.41026889628E+02  0.51100000000E-03 0.  1.
         12    1    3    3    0    0  0.80566228864E+01  0.28731907186E+02  0.17708967323E+02  0.34699267809E+02  0.00000000000E+00 0. -1.
</event>
<event>
 7    1  0.2404951E-015  0.9000777E+02  0.7816164E-02  0.1186339E+00
        -11   -1    0    0    0    0  0.00000000000E+00  0.00000000000E+00  0.45593999997E+02  0.45594000000E+02  0.51100000000E-03 0. -1.
         11   -1    0    0    0    0 -0.00000000000E+00 -0.00000000000E+00 -0.45593999997E+02  0.45594000000E+02  0.51100000000E-03 0.  1.
    9900012    2    1    2    0    0  0.10503671871E+01 -0.51626980161E+00  0.15211659704E+00  0.90007769008E+02  0.90000030759E+02 0.  0.
         12    1    1    2    0    0 -0.10503671871E+01  0.51626980161E+00 -0.15211659704E+00  0.11802309922E+01  0.00000000000E+00 0. -1.
         11    1    3    3    0    0 -0.30804416008E+02  0.17070763084E+02  0.16883201555E-01  0.35218223737E+02  0.51100000000E-03 0. -1.
        -11    1    3    3    0    0 -0.63760367314E+01  0.68479541743E+01 -0.94385111285E+00  0.94042105441E+01  0.51100000000E-03 0.  1.
        -12    1    3    3    0    0  0.38230819927E+02 -0.24434987060E+02  0.10790845083E+01  0.45385334727E+02  0.00000000000E+00 0.  1.
</event>
<event>
 7    1  0.2404951E-015  0.9000775E+02  0.7816164E-02  0.1186339E+00
        -11   -1    0    0    0    0  0.00000000000E+00  0.00000000000E+00  0.45593999997E+02  0.45594000000E+02  0.51100000000E-03 0. -1.
         11   -1    0    0    0    0 -0.00000000000E+00 -0.00000000000E+00 -0.45593999997E+02  0.45594000000E+02  0.51100000000E-03 0.  1.
    9900012    2    1    2    0    0 -0.89188899641E+00  0.77244203201E+00  0.29123025670E-01  0.90007753913E+02  0.90000015465E+02 0.  0.
         12    1    1    2    0    0  0.89188899641E+00 -0.77244203201E+00 -0.29123025670E-01  0.11802460868E+01  0.00000000000E+00 0. -1.
         11    1    3    3    0    0  0.33193212202E+02 -0.14230630962E+02  0.25394708514E+00  0.36115989302E+02  0.51100000000E-03 0. -1.
        -11    1    3    3    0    0  0.78675018644E+01 -0.24982012630E+01  0.15567474759E+01  0.84001225052E+01  0.51100000000E-03 0.  1.
        -12    1    3    3    0    0 -0.41952603063E+02  0.17501274257E+02 -0.17815715353E+01  0.45491642106E+02  0.00000000000E+00 0.  1.
</event>
<event>
 7    1  0.2404951E-015  0.9000773E+02  0.7816164E-02  0.1186339E+00
        -11   -1    0    0    0    0  0.00000000000E+00  0.00000000000E+00  0.45593999997E+02  0.45594000000E+02  0.51100000000E-03 0.  1.
         11   -1    0    0    0    0 -0.00000000000E+00 -0.00000000000E+00 -0.45593999997E+02  0.45594000000E+02  0.51100000000E-03 0. -1.
    9900012    2    1    2    0    0  0.55589291229E+00 -0.86033457380E+00  0.58637545335E+00  0.90007733640E+02  0.89999994924E+02 0.  0.
         12    1    1    2    0    0 -0.55589291229E+00  0.86033457380E+00 -0.58637545335E+00  0.11802663602E+01  0.00000000000E+00 0. -1.
         11    1    3    3    0    0  0.20683506333E+02 -0.23837606490E+01 -0.33347029431E+02  0.39313027373E+02  0.51100000000E-03 0. -1.
        -11    1    3    3    0    0  0.46854573218E+01  0.95867892626E+01  0.51562456679E+01  0.11851029843E+02  0.51100000000E-03 0.  1.
        -12    1    3    3    0    0 -0.24813070743E+02 -0.80633631874E+01  0.28777159217E+02  0.38843676424E+02  0.00000000000E+00 0.  1.
</event>
<event>
 7    1  0.2404951E-015  0.9000791E+02  0.7816164E-02  0.1186339E+00
        -11   -1    0    0    0    0  0.00000000000E+00  0.00000000000E+00  0.45593999997E+02  0.45594000000E+02  0.51100000000E-03 0.  1.
         11   -1    0    0    0    0 -0.00000000000E+00 -0.00000000000E+00 -0.45593999997E+02  0.45594000000E+02  0.51100000000E-03 0. -1.
    9900012    2    1    2    0    0  0.11077511349E+01 -0.35211237994E+00 -0.20378023552E+00  0.90007905898E+02  0.90000169456E+02 0.  0.
         12    1    1    2    0    0 -0.11077511349E+01  0.35211237994E+00  0.20378023552E+00  0.11800941020E+01  0.00000000000E+00 0. -1.
         11    1    3    3    0    0 -0.62724963600E+01 -0.31349261841E+01  0.45213344475E+01  0.83435267251E+01  0.51100000000E-03 0. -1.
        -11    1    3    3    0    0  0.14713071374E+02 -0.32690991388E+02  0.16732752608E+02  0.39562108100E+02  0.51100000000E-03 0.  1.
         12    1    3    3    0    0 -0.73328238794E+01  0.35473805192E+02 -0.21457867291E+02  0.42102271073E+02  0.00000000000E+00 0. -1.
</event>
<event>
 7    1  0.2404951E-015  0.9000769E+02  0.7816164E-02  0.1186339E+00
        -11   -1    0    0    0    0  0.00000000000E+00  0.00000000000E+00  0.45593999997E+02  0.45594000000E+02  0.51100000000E-03 0. -1.
         11   -1    0    0    0    0 -0.00000000000E+00 -0.00000000000E+00 -0.45593999997E+02  0.45594000000E+02  0.51100000000E-03 0.  1.
    9900012    2    1    2    0    0  0.11667539363E+01 -0.28287536732E-03  0.17836331087E+00  0.90007691439E+02  0.89999952166E+02 0.  0.
         12    1    1    2    0    0 -0.11667539363E+01  0.28287536732E-03 -0.17836331087E+00  0.11803085608E+01  0.00000000000E+00 0. -1.
         11    1    3    3    0    0  0.59489493602E+01  0.99913556042E+00 -0.22119780761E+01  0.64250383368E+01  0.51100000000E-03 0. -1.
        -11    1    3    3    0    0  0.32561007554E+02 -0.58522924338E+01 -0.21063235346E+02  0.39218980394E+02  0.51100000000E-03 0.  1.
         12    1    3    3    0    0 -0.37343202977E+02  0.48528739980E+01  0.23453576733E+02  0.44363672709E+02  0.00000000000E+00 0. -1.
</event>
<event>
 7    1  0.2404951E-015  0.9000785E+02  0.7816164E-02  0.1186339E+00
        -11   -1    0    0    0    0  0.00000000000E+00  0.00000000000E+00  0.45593999997E+02  0.45594000000E+02  0.51100000000E-03 0. -1.
         11   -1    0    0    0    0 -0.00000000000E+00 -0.00000000000E+00 -0.45593999997E+02  0.45594000000E+02  0.51100000000E-03 0.  1.
    9900012    2    1    2    0    0  0.69185981033E+00 -0.45731376967E+00 -0.83961038769E+00  0.90007851075E+02  0.90000113910E+02 0.  0.
         12    1    1    2    0    0 -0.69185981033E+00  0.45731376967E+00  0.83961038769E+00  0.11801489246E+01  0.00000000000E+00 0. -1.
         11    1    3    3    0    0  0.69779668692E+01 -0.73569806745E+01  0.19750910755E+01  0.10330448746E+02  0.51100000000E-03 0. -1.
        -11    1    3    3    0    0  0.33857652390E+02  0.98714000266E+01 -0.13927812342E+02  0.37917926113E+02  0.51100000000E-03 0.  1.
         12    1    3    3    0    0 -0.40143759449E+02 -0.29717331217E+01  0.11113110879E+02  0.41759476216E+02  0.00000000000E+00 0. -1.
</event>
<event>
 7    1  0.2404951E-015  0.9000779E+02  0.7816164E-02  0.1186339E+00
        -11   -1    0    0    0    0  0.00000000000E+00  0.00000000000E+00  0.45593999997E+02  0.45594000000E+02  0.51100000000E-03 0.  1.
         11   -1    0    0    0    0 -0.00000000000E+00 -0.00000000000E+00 -0.45593999997E+02  0.45594000000E+02  0.51100000000E-03 0. -1.
    9900012    2    1    2    0    0  0.77010966472E+00  0.43926223797E+00  0.77902097647E+00  0.90007790743E+02  0.90000052780E+02 0.  0.
         12    1    1    2    0    0 -0.77010966472E+00 -0.43926223797E+00 -0.77902097647E+00  0.11802092574E+01  0.00000000000E+00 0. -1.
         11    1    3    3    0    0 -0.44816341991E+01 -0.59040538819E+01 -0.66486318016E+01  0.99572688238E+01  0.51100000000E-03 0. -1.
        -11    1    3    3    0    0 -0.25186503853E+02  0.73757161987E+01 -0.24516865002E+02  0.35914312406E+02  0.51100000000E-03 0.  1.
         12    1    3    3    0    0  0.30438247717E+02 -0.10324000788E+01  0.31944517780E+02  0.44136209513E+02  0.00000000000E+00 0. -1.
</event>
<event>
 7    1  0.2404951E-015  0.9000774E+02  0.7816164E-02  0.1186339E+00
        -11   -1    0    0    0    0  0.00000000000E+00  0.00000000000E+00  0.45593999997E+02  0.45594000000E+02  0.51100000000E-03 0. -1.
         11   -1    0    0    0    0 -0.00000000000E+00 -0.00000000000E+00 -0.45593999997E+02  0.45594000000E+02  0.51100000000E-03 0.  1.
    9900012    2    1    2    0    0 -0.85360166497E+00  0.55775213269E+00 -0.59437947505E+00  0.90007741467E+02  0.90000002855E+02 0.  0.
         12    1    1    2    0    0  0.85360166497E+00 -0.55775213269E+00  0.59437947505E+00  0.11802585328E+01  0.00000000000E+00 0. -1.
         11    1    3    3    0    0  0.50822522099E+01 -0.76441478137E+01 -0.14689085320E+01  0.92962344989E+01  0.51100000000E-03 0. -1.
        -11    1    3    3    0    0 -0.25613214061E+02 -0.18854423143E+01 -0.32037659123E+02  0.41060969663E+02  0.51100000000E-03 0.  1.
         12    1    3    3    0    0  0.19677360187E+02  0.10087342261E+02  0.32912188180E+02  0.39650537305E+02  0.00000000000E+00 0. -1.
</event>
<event>
 7    1  0.2404951E-015  0.9000772E+02  0.7816164E-02  0.1186339E+00
        -11   -1    0    0    0    0  0.00000000000E+00  0.00000000000E+00  0.45593999997E+02  0.45594000000E+02  0.51100000000E-03 0. -1.
         11   -1    0    0    0    0 -0.00000000000E+00 -0.00000000000E+00 -0.45593999997E+02  0.45594000000E+02  0.51100000000E-03 0.  1.
    9900012    2    1    2    0    0  0.57632010350E+00 -0.10259157609E+01 -0.91697115230E-01  0.90007721909E+02  0.89999983039E+02 0.  0.
         12    1    1    2    0    0 -0.57632010350E+00  0.10259157609E+01  0.91697115230E-01  0.11802780906E+01  0.00000000000E+00 0. -1.
         11    1    3    3    0    0  0.82989019607E+00 -0.60007130930E+01  0.46811670994E+01  0.76557560721E+01  0.51100000000E-03 0. -1.
        -11    1    3    3    0    0  0.16393377992E+02 -0.59464321624E+01  0.34311514464E+02  0.38488737606E+02  0.51100000000E-03 0.  1.
         12    1    3    3    0    0 -0.16646948085E+02  0.10921229494E+02 -0.39084378678E+02  0.43863228231E+02  0.00000000000E+00 0. -1.
</event>
<event>
 7    1  0.2404951E-015  0.9000776E+02  0.7816164E-02  0.1186339E+00
        -11   -1    0    0    0    0  0.00000000000E+00  0.00000000000E+00  0.45593999997E+02  0.45594000000E+02  0.51100000000E-03 0.  1.
         11   -1    0    0    0    0 -0.00000000000E+00 -0.00000000000E+00 -0.45593999997E+02  0.45594000000E+02  0.51100000000E-03 0. -1.
    9900012    2    1    2    0    0  0.10014287090E+01 -0.17977101498E+00  0.59816150409E+00  0.90007756694E+02  0.90000018282E+02 0.  0.
         12    1    1    2    0    0 -0.10014287090E+01  0.17977101498E+00 -0.59816150409E+00  0.11802433063E+01  0.00000000000E+00 0. -1.
         11    1    3    3    0    0 -0.26038510794E+02 -0.28743645628E+02  0.31411190076E+01  0.38911024623E+02  0.51100000000E-03 0. -1.
        -11    1    3    3    0    0  0.33691136083E+01 -0.52354549677E+01  0.63420199917E+01  0.88871892666E+01  0.51100000000E-03 0.  1.
        -12    1    3    3    0    0  0.23670825895E+02  0.33799329580E+02 -0.88849774953E+01  0.42209542804E+02  0.00000000000E+00 0.  1.
</event>
<event>
 7    1  0.2404951E-015  0.9000776E+02  0.7816164E-02  0.1186339E+00
        -11   -1    0    0    0    0  0.00000000000E+00  0.00000000000E+00  0.45593999997E+02  0.45594000000E+02  0.51100000000E-03 0.  1.
         11   -1    0    0    0    0 -0.00000000000E+00 -0.00000000000E+00 -0.45593999997E+02  0.45594000000E+02  0.51100000000E-03 0. -1.
    9900012    2    1    2    0    0 -0.11495500548E+01 -0.26458844522E+00 -0.38646626036E-01  0.90007760221E+02  0.90000021856E+02 0.  0.
         12    1    1    2    0    0  0.11495500548E+01  0.26458844522E+00  0.38646626036E-01  0.11802397789E+01  0.00000000000E+00 0. -1.
         11    1    3    3    0    0 -0.57366240212E+01 -0.10613182168E+02  0.10518082179E+01  0.12110111134E+02  0.51100000000E-03 0. -1.
        -11    1    3    3    0    0  0.31395811973E+00 -0.28652641955E+02  0.18435715307E+02  0.34072687887E+02  0.51100000000E-03 0.  1.
         12    1    3    3    0    0  0.42731158466E+01  0.39001235677E+02 -0.19526170151E+02  0.43824961200E+02  0.00000000000E+00 0. -1.
</event>
<event>
 7    1  0.2404951E-015  0.9000769E+02  0.7816164E-02  0.1186339E+00
        -11   -1    0    0    0    0  0.00000000000E+00  0.00000000000E+00  0.45593999997E+02  0.45594000000E+02  0.51100000000E-03 0. -1.
         11   -1    0    0    0    0 -0.00000000000E+00 -0.00000000000E+00 -0.45593999997E+02  0.45594000000E+02  0.51100000000E-03 0.  1.
    9900012    2    1    2    0    0 -0.22579504963E+00 -0.34644546439E+00 -0.11054951388E+01  0.90007691834E+02  0.89999952566E+02 0.  0.
         12    1    1    2    0    0  0.22579504963E+00  0.34644546439E+00  0.11054951388E+01  0.11803081658E+01  0.00000000000E+00 0. -1.
         11    1    3    3    0    0  0.46890019589E+01  0.15018493616E+01 -0.77300545788E+01  0.91649350749E+01  0.51100000000E-03 0. -1.
        -11    1    3    3    0    0 -0.42294270654E+02 -0.16045714286E+01 -0.23857289879E+01  0.42391882274E+02  0.51100000000E-03 0.  1.
         12    1    3    3    0    0  0.37379473646E+02 -0.24372339739E+00  0.90102884279E+01  0.38450874485E+02  0.00000000000E+00 0. -1.
</event>
<event>
 7    1  0.2404951E-015  0.9000782E+02  0.7816164E-02  0.1186339E+00
        -11   -1    0    0    0    0  0.00000000000E+00  0.00000000000E+00  0.45593999997E+02  0.45594000000E+02  0.51100000000E-03 0.  1.
         11   -1    0    0    0    0 -0.00000000000E+00 -0.00000000000E+00 -0.45593999997E+02  0.45594000000E+02  0.51100000000E-03 0. -1.
    9900012    2    1    2    0    0  0.11256378321E+01  0.34874917192E+00  0.64385434800E-01  0.90007816964E+02  0.90000079348E+02 0.  0.
         12    1    1    2    0    0 -0.11256378321E+01 -0.34874917192E+00 -0.64385434800E-01  0.11801830358E+01  0.00000000000E+00 0. -1.
         11    1    3    3    0    0 -0.81816415093E+01 -0.52088029968E+01 -0.38571603202E+01  0.10437843285E+02  0.51100000000E-03 0. -1.
        -11    1    3    3    0    0  0.21373916567E+01 -0.25899400723E+02 -0.25132569573E+02  0.36152364439E+02  0.51100000000E-03 0.  1.
         12    1    3    3    0    0  0.71698876846E+01  0.31456952892E+02  0.29054115328E+02  0.43417609240E+02  0.00000000000E+00 0. -1.
</event>
<event>
 7    1  0.2404951E-015  0.9000766E+02  0.7816164E-02  0.1186339E+00
        -11   -1    0    0    0    0  0.00000000000E+00  0.00000000000E+00  0.45593999997E+02  0.45594000000E+02  0.51100000000E-03 0.  1.
         11   -1    0    0    0    0 -0.00000000000E+00 -0.00000000000E+00 -0.45593999997E+02  0.45594000000E+02  0.51100000000E-03 0. -1.
    9900012    2    1    2    0    0  0.83157302185E+00  0.39543700089E+00  0.73845146298E+00  0.90007663321E+02  0.89999923677E+02 0.  0.
         12    1    1    2    0    0 -0.83157302185E+00 -0.39543700089E+00 -0.73845146298E+00  0.11803366789E+01  0.00000000000E+00 0. -1.
         11    1    3    3    0    0  0.62533572064E+01  0.54481365429E+01 -0.27441742706E+01  0.87359693698E+01  0.51100000000E-03 0. -1.
        -11    1    3    3    0    0 -0.35146950830E+02  0.21583807583E+02  0.30175438466E+01  0.41355464857E+02  0.51100000000E-03 0.  1.
         12    1    3    3    0    0  0.29725166645E+02 -0.26636507125E+02  0.46508188700E+00  0.39916229094E+02  0.00000000000E+00 0. -1.
</event>
<event>
 7    1  0.2404951E-015  0.9000775E+02  0.7816164E-02  0.1186339E+00
        -11   -1    0    0    0    0  0.00000000000E+00  0.00000000000E+00  0.45593999997E+02  0.45594000000E+02  0.51100000000E-03 0. -1.
         11   -1    0    0    0    0 -0.00000000000E+00 -0.00000000000E+00 -0.45593999997E+02  0.45594000000E+02  0.51100000000E-03 0.  1.
    9900012    2    1    2    0    0 -0.41843410399E+00  0.50108917456E+00 -0.98326682095E+00  0.90007749560E+02  0.90000011054E+02 0.  0.
         12    1    1    2    0    0  0.41843410399E+00 -0.50108917456E+00  0.98326682095E+00  0.11802504401E+01  0.00000000000E+00 0. -1.
         11    1    3    3    0    0 -0.31329893145E+02  0.20600403663E+02 -0.14167849154E+02  0.40083248190E+02  0.51100000000E-03 0. -1.
        -11    1    3    3    0    0  0.25721337519E+01  0.40102517583E+01 -0.63201621233E+01  0.79146977661E+01  0.51100000000E-03 0.  1.
        -12    1    3    3    0    0  0.28339325289E+02 -0.24109566247E+02  0.19504744457E+02  0.42009803603E+02  0.00000000000E+00 0.  1.
</event>
<event>
 7    1  0.2404951E-015  0.9000773E+02  0.7816164E-02  0.1186339E+00
        -11   -1    0    0    0    0  0.00000000000E+00  0.00000000000E+00  0.45593999997E+02  0.45594000000E+02  0.51100000000E-03 0.  1.
         11   -1    0    0    0    0 -0.00000000000E+00 -0.00000000000E+00 -0.45593999997E+02  0.45594000000E+02  0.51100000000E-03 0. -1.
    9900012    2    1    2    0    0 -0.24764663361E+00 -0.11524421357E+01  0.59864046080E-01  0.90007730778E+02  0.89999992025E+02 0.  0.
         12    1    1    2    0    0  0.24764663361E+00  0.11524421357E+01 -0.59864046080E-01  0.11802692215E+01  0.00000000000E+00 0. -1.
         11    1    3    3    0    0  0.35054461305E+02 -0.91356371573E+01 -0.27183379446E+01  0.36327186584E+02  0.51100000000E-03 0. -1.
        -11    1    3    3    0    0  0.84506961276E+01 -0.17748201227E+01  0.19131388569E+01  0.88444531802E+01  0.51100000000E-03 0.  1.
        -12    1    3    3    0    0 -0.43752804066E+02  0.97580151443E+01  0.86506313372E+00  0.44836091014E+02  0.00000000000E+00 0.  1.
</event>
<event>
 7    1  0.2404951E-015  0.9000785E+02  0.7816164E-02  0.1186339E+00
        -11   -1    0    0    0    0  0.00000000000E+00  0.00000000000E+00  0.45593999997E+02  0.45594000000E+02  0.51100000000E-03 0. -1.
         11   -1    0    0    0    0 -0.00000000000E+00 -0.00000000000E+00 -0.45593999997E+02  0.45594000000E+02  0.51100000000E-03 0.  1.
    9900012    2    1    2    0    0  0.60178691958E+00  0.20898416397E+00 -0.99344263115E+00  0.90007851645E+02  0.90000114487E+02 0.  0.
         12    1    1    2    0    0 -0.60178691958E+00 -0.20898416397E+00  0.99344263115E+00  0.11801483546E+01  0.00000000000E+00 0. -1.
         11    1    3    3    0    0 -0.50151741868E+01 -0.17335580331E+00 -0.16604164253E+02  0.17345901393E+02  0.51100000000E-03 0. -1.
        -11    1    3    3    0    0 -0.12967258392E+02  0.92717029755E+01 -0.23535526435E+02  0.28425961217E+02  0.51100000000E-03 0.  1.
         12    1    3    3    0    0  0.18584219498E+02 -0.88893630082E+01  0.39146248056E+02  0.44235989035E+02  0.00000000000E+00 0. -1.
</event>
<event>
 7    1  0.2404951E-015  0.9000763E+02  0.7816164E-02  0.1186339E+00
        -11   -1    0    0    0    0  0.00000000000E+00  0.00000000000E+00  0.45593999997E+02  0.45594000000E+02  0.51100000000E-03 0.  1.
         11   -1    0    0    0    0 -0.00000000000E+00 -0.00000000000E+00 -0.45593999997E+02  0.45594000000E+02  0.51100000000E-03 0. -1.
    9900012    2    1    2    0    0 -0.30787151348E+00  0.67417299634E+00  0.91868676412E+00  0.90007627403E+02  0.89999887284E+02 0.  0.
         12    1    1    2    0    0  0.30787151348E+00 -0.67417299634E+00 -0.91868676412E+00  0.11803725973E+01  0.00000000000E+00 0. -1.
         11    1    3    3    0    0 -0.66837307611E+01 -0.96765416294E+01  0.63122962730E+01  0.13347389231E+02  0.51100000000E-03 0. -1.
        -11    1    3    3    0    0 -0.29664249647E+02  0.14593632730E+02 -0.18731735687E+02  0.37997628157E+02  0.51100000000E-03 0.  1.
         12    1    3    3    0    0  0.36040108895E+02 -0.42429181044E+01  0.13338126178E+02  0.38662610015E+02  0.00000000000E+00 0. -1.
</event>
<event>
 7    1  0.2641437E-015  0.9000768E+02  0.7816164E-02  0.1186339E+00
        -11   -1    0    0    0    0  0.00000000000E+00  0.00000000000E+00  0.45593999997E+02  0.45594000000E+02  0.51100000000E-03 0. -1.
         11   -1    0    0    0    0 -0.00000000000E+00 -0.00000000000E+00 -0.45593999997E+02  0.45594000000E+02  0.51100000000E-03 0.  1.
    9900012    2    1    2    0    0 -0.10640058901E+00  0.10885312069E+01 -0.44376269175E+00  0.90007683686E+02  0.89999944311E+02 0.  0.
         12    1    1    2    0    0  0.10640058901E+00 -0.10885312069E+01  0.44376269175E+00  0.11803163137E+01  0.00000000000E+00 0. -1.
         11    1    3    3    0    0 -0.86004331646E+01 -0.14774674589E+02  0.30874158695E+02  0.35291247289E+02  0.51100000000E-03 0. -1.
        -11    1    3    3    0    0  0.12409844348E+01 -0.52498978248E+01  0.79139315638E+01  0.95776710424E+01  0.51100000000E-03 0.  1.
        -12    1    3    3    0    0  0.72530481408E+01  0.21113103621E+02 -0.39231852950E+02  0.45138765355E+02  0.00000000000E+00 0.  1.
</event>
<event>
 7    1  0.2404951E-015  0.9000803E+02  0.7816164E-02  0.1186338E+00
        -11   -1    0    0    0    0  0.00000000000E+00  0.00000000000E+00  0.45593999997E+02  0.45594000000E+02  0.51100000000E-03 0.  1.
         11   -1    0    0    0    0 -0.00000000000E+00 -0.00000000000E+00 -0.45593999997E+02  0.45594000000E+02  0.51100000000E-03 0. -1.
    9900012    2    1    2    0    0 -0.48437885734E+00 -0.97313812744E+00  0.45901884695E+00  0.90008034325E+02  0.90000299578E+02 0.  0.
         12    1    1    2    0    0  0.48437885734E+00  0.97313812744E+00 -0.45901884695E+00  0.11799656751E+01  0.00000000000E+00 0. -1.
         11    1    3    3    0    0  0.24325123384E+01 -0.25525384372E+02 -0.32356251311E+02  0.41284250784E+02  0.51100000000E-03 0. -1.
        -11    1    3    3    0    0  0.54293538189E+01 -0.36433025813E+01  0.72077318993E+01  0.97315433505E+01  0.51100000000E-03 0.  1.
        -12    1    3    3    0    0 -0.83462450146E+01  0.28195548826E+02  0.25607538258E+02  0.38992240191E+02  0.00000000000E+00 0.  1.
</event>
<event>
 7    1  0.2404951E-015  0.9000775E+02  0.7816164E-02  0.1186339E+00
        -11   -1    0    0    0    0  0.00000000000E+00  0.00000000000E+00  0.45593999997E+02  0.45594000000E+02  0.51100000000E-03 0.  1.
         11   -1    0    0    0    0 -0.00000000000E+00 -0.00000000000E+00 -0.45593999997E+02  0.45594000000E+02  0.51100000000E-03 0. -1.
    9900012    2    1    2    0    0  0.10298429097E+01 -0.57572650907E+00 -0.30804722470E-01  0.90007751567E+02  0.90000013088E+02 0.  0.
         12    1    1    2    0    0 -0.10298429097E+01  0.57572650907E+00  0.30804722470E-01  0.11802484327E+01  0.00000000000E+00 0. -1.
         11    1    3    3    0    0  0.10594831045E+02 -0.10152866692E+01 -0.12656587812E+01  0.10718355485E+02  0.51100000000E-03 0. -1.
        -11    1    3    3    0    0  0.34763959253E+02 -0.13659933975E+01  0.27369111947E+01  0.34898273368E+02  0.51100000000E-03 0.  1.
         12    1    3    3    0    0 -0.44328947388E+02  0.18055535576E+01 -0.15020571360E+01  0.44391122714E+02  0.00000000000E+00 0. -1.
</event>
<event>
 7    1  0.2404951E-015  0.9000754E+02  0.7816164E-02  0.1186339E+00
        -11   -1    0    0    0    0  0.00000000000E+00  0.00000000000E+00  0.45593999997E+02  0.45594000000E+02  0.51100000000E-03 0.  1.
         11   -1    0    0    0    0 -0.00000000000E+00 -0.00000000000E+00 -0.45593999997E+02  0.45594000000E+02  0.51100000000E-03 0. -1.
    9900012    2    1    2    0    0  0.13621972692E+00 -0.10625019827E+01 -0.49601139358E+00  0.90007536710E+02  0.89999795394E+02 0.  0.
         12    1    1    2    0    0 -0.13621972692E+00  0.10625019827E+01  0.49601139358E+00  0.11804632903E+01  0.00000000000E+00 0. -1.
         11    1    3    3    0    0  0.29881699714E+02  0.32623230696E+01 -0.25308951209E+01  0.30165612210E+02  0.51100000000E-03 0. -1.
        -11    1    3    3    0    0  0.14643617127E+02 -0.46509728064E+01  0.16204960466E+01  0.15449695088E+02  0.51100000000E-03 0.  1.
        -12    1    3    3    0    0 -0.44389097115E+02  0.32614775423E+00  0.41438768078E+00  0.44392229412E+02  0.00000000000E+00 0.  1.
</event>
<event>
 7    1  0.2404951E-015  0.9000768E+02  0.7816164E-02  0.1186339E+00
        -11   -1    0    0    0    0  0.00000000000E+00  0.00000000000E+00  0.45593999997E+02  0.45594000000E+02  0.51100000000E-03 0.  1.
         11   -1    0    0    0    0 -0.00000000000E+00 -0.00000000000E+00 -0.45593999997E+02  0.45594000000E+02  0.51100000000E-03 0. -1.
    9900012    2    1    2    0    0  0.62914193951E+00 -0.40025273345E+00  0.91494761381E+00  0.90007681837E+02  0.89999942437E+02 0.  0.
         12    1    1    2    0    0 -0.62914193951E+00  0.40025273345E+00 -0.91494761381E+00  0.11803181633E+01  0.00000000000E+00 0. -1.
         11    1    3    3    0    0  0.60691122522E+01  0.56298662792E+01 -0.43325669781E+01  0.93434819384E+01  0.51100000000E-03 0. -1.
        -11    1    3    3    0    0  0.30597953562E+02  0.16805591023E+02 -0.83347768698E+01  0.35890544124E+02  0.51100000000E-03 0.  1.
         12    1    3    3    0    0 -0.36037923875E+02 -0.22835710035E+02  0.13582291462E+02  0.44773655774E+02  0.00000000000E+00 0. -1.
</event>
<event>
 7    1  0.2404951E-015  0.9000741E+02  0.7816164E-02  0.1186340E+00
        -11   -1    0    0    0    0  0.00000000000E+00  0.00000000000E+00  0.45593999997E+02  0.45594000000E+02  0.51100000000E-03 0.  1.
         11   -1    0    0    0    0 -0.00000000000E+00 -0.00000000000E+00 -0.45593999997E+02  0.45594000000E+02  0.51100000000E-03 0. -1.
    9900012    2    1    2    0    0 -0.85993334964E+00  0.34149790322E+00  0.73327812784E+00  0.90007405660E+02  0.89999662614E+02 0.  0.
         12    1    1    2    0    0  0.85993334964E+00 -0.34149790322E+00 -0.73327812784E+00  0.11805943404E+01  0.00000000000E+00 0. -1.
         11    1    3    3    0    0  0.50424795056E+01  0.26224618594E+00  0.43602725965E+01  0.66713829153E+01  0.51100000000E-03 0. -1.
        -11    1    3    3    0    0 -0.22522772256E+02  0.21250798543E+02  0.28040725740E+02  0.41775040504E+02  0.51100000000E-03 0.  1.
         12    1    3    3    0    0  0.16620359400E+02 -0.21171546826E+02 -0.31667720209E+02  0.41560982241E+02  0.00000000000E+00 0. -1.
</event>
<event>
 7    1  0.2404951E-015  0.9000775E+02  0.7816164E-02  0.1186339E+00
        -11   -1    0    0    0    0  0.00000000000E+00  0.00000000000E+00  0.45593999997E+02  0.45594000000E+02  0.51100000000E-03 0.  1.
         11   -1    0    0    0    0 -0.00000000000E+00 -0.00000000000E+00 -0.45593999997E+02  0.45594000000E+02  0.51100000000E-03 0. -1.
    9900012    2    1    2    0    0 -0.72661270972E+00 -0.80215012250E+00  0.47072793691E+00  0.90007747637E+02  0.90000009106E+02 0.  0.
         12    1    1    2    0    0  0.72661270972E+00  0.80215012250E+00 -0.47072793691E+00  0.11802523626E+01  0.00000000000E+00 0. -1.
         11    1    3    3    0    0  0.15292749218E+02 -0.28556539043E+01 -0.33941681135E+02  0.37337121694E+02  0.51100000000E-03 0. -1.
        -11    1    3    3    0    0  0.25501019922E+01  0.33803922969E+01 -0.64794375055E+01  0.77403606441E+01  0.51100000000E-03 0.  1.
        -12    1    3    3    0    0 -0.18569463919E+02 -0.13268885151E+01  0.40891846577E+02  0.44930265300E+02  0.00000000000E+00 0.  1.
</event>
<event>
 7    1  0.2404951E-015  0.9000773E+02  0.7816164E-02  0.1186339E+00
        -11   -1    0    0    0    0  0.00000000000E+00  0.00000000000E+00  0.45593999997E+02  0.45594000000E+02  0.51100000000E-03 0. -1.
         11   -1    0    0    0    0 -0.00000000000E+00 -0.00000000000E+00 -0.45593999997E+02  0.45594000000E+02  0.51100000000E-03 0.  1.
    9900012    2    1    2    0    0 -0.10964454774E+01 -0.29542555497E+00  0.32180737460E+00  0.90007733534E+02  0.89999994817E+02 0.  0.
         12    1    1    2    0    0  0.10964454774E+01  0.29542555497E+00 -0.32180737460E+00  0.11802664655E+01  0.00000000000E+00 0. -1.
         11    1    3    3    0    0  0.12816509035E+02  0.22621044901E+01 -0.13553811908E+02  0.18790578439E+02  0.51100000000E-03 0. -1.
        -11    1    3    3    0    0 -0.14124801529E+02  0.29690628348E+02 -0.58761878637E+01  0.33400194820E+02  0.51100000000E-03 0.  1.
         12    1    3    3    0    0  0.21184701652E+00 -0.32248158393E+02  0.19751807147E+02  0.37816960275E+02  0.00000000000E+00 0. -1.
</event>
<event>
 7    1  0.2525926E-015  0.9000776E+02  0.7816164E-02  0.1186339E+00
        -11   -1    0    0    0    0  0.00000000000E+00  0.00000000000E+00  0.45593999997E+02  0.45594000000E+02  0.51100000000E-03 0.  1.
         11   -1    0    0    0    0 -0.00000000000E+00 -0.00000000000E+00 -0.45593999997E+02  0.45594000000E+02  0.51100000000E-03 0. -1.
    9900012    2    1    2    0    0 -0.53260274293E+00 -0.56197540466E+00  0.89078360706E+00  0.90007755334E+02  0.90000016904E+02 0.  0.
         12    1    1    2    0    0  0.53260274293E+00  0.56197540466E+00 -0.89078360706E+00  0.11802446661E+01  0.00000000000E+00 0. -1.
         11    1    3    3    0    0 -0.19968715967E+01 -0.26372060668E+02 -0.26657734428E+02  0.37551403238E+02  0.51100000000E-03 0. -1.
        -11    1    3    3    0    0 -0.54092210363E+01 -0.79911717639E+01  0.29501349778E+01  0.10090678621E+02  0.51100000000E-03 0.  1.
        -12    1    3    3    0    0  0.68734898901E+01  0.33801257027E+02  0.24598383058E+02  0.42365673475E+02  0.00000000000E+00 0.  1.
</event>
<event>
 7    1  0.2404951E-015  0.9000776E+02  0.7816164E-02  0.1186339E+00
        -11   -1    0    0    0    0  0.00000000000E+00  0.00000000000E+00  0.45593999997E+02  0.45594000000E+02  0.51100000000E-03 0.  1.
         11   -1    0    0    0    0 -0.00000000000E+00 -0.00000000000E+00 -0.45593999997E+02  0.45594000000E+02  0.51100000000E-03 0. -1.
    9900012    2    1    2    0    0  0.31445902231E+00  0.38468827107E+00 -0.10705615376E+01  0.90007757843E+02  0.90000019447E+02 0.  0.
         12    1    1    2    0    0 -0.31445902231E+00 -0.38468827107E+00  0.10705615376E+01  0.11802421567E+01  0.00000000000E+00 0. -1.
         11    1    3    3    0    0  0.92571810603E+00 -0.30548772668E+02 -0.23118686535E+02  0.38321771004E+02  0.51100000000E-03 0. -1.
        -11    1    3    3    0    0  0.87079544747E+01 -0.30300870815E+01 -0.14700650212E+01  0.93365405950E+01  0.51100000000E-03 0.  1.
        -12    1    3    3    0    0 -0.93192135584E+01  0.33963548020E+02  0.23518190018E+02  0.42349446244E+02  0.00000000000E+00 0.  1.
</event>
<event>
 7    1  0.2404951E-015  0.9000785E+02  0.7816164E-02  0.1186339E+00
        -11   -1    0    0    0    0  0.00000000000E+00  0.00000000000E+00  0.45593999997E+02  0.45594000000E+02  0.51100000000E-03 0.  1.
         11   -1    0    0    0    0 -0.00000000000E+00 -0.00000000000E+00 -0.45593999997E+02  0.45594000000E+02  0.51100000000E-03 0. -1.
    9900012    2    1    2    0    0 -0.82888737684E+00 -0.46969310988E+00 -0.69647767807E+00  0.90007852951E+02  0.90000115810E+02 0.  0.
         12    1    1    2    0    0  0.82888737684E+00  0.46969310988E+00  0.69647767807E+00  0.11801470489E+01  0.00000000000E+00 0. -1.
         11    1    3    3    0    0 -0.93739757674E+00 -0.19736897791E+02 -0.35506926148E+02  0.40634537691E+02  0.51100000000E-03 0. -1.
        -11    1    3    3    0    0 -0.84966438488E+01  0.17678769375E+01 -0.85930543167E+00  0.87210522098E+01  0.51100000000E-03 0.  1.
        -12    1    3    3    0    0  0.86051540487E+01  0.17499327743E+02  0.35669753902E+02  0.40652263050E+02  0.00000000000E+00 0.  1.
</event>
<event>
 7    1  0.2404951E-015  0.9000786E+02  0.7816164E-02  0.1186339E+00
        -11   -1    0    0    0    0  0.00000000000E+00  0.00000000000E+00  0.45593999997E+02  0.45594000000E+02  0.51100000000E-03 0. -1.
         11   -1    0    0    0    0 -0.00000000000E+00 -0.00000000000E+00 -0.45593999997E+02  0.45594000000E+02  0.51100000000E-03 0.  1.
    9900012    2    1    2    0    0  0.71182814127E+00  0.46882830116E+00 -0.81622852706E+00  0.90007860904E+02  0.90000123867E+02 0.  0.
         12    1    1    2    0    0 -0.71182814127E+00 -0.46882830116E+00  0.81622852706E+00  0.11801390965E+01  0.00000000000E+00 0. -1.
         11    1    3    3    0    0 -0.39393884563E+02 -0.37171315806E+01  0.18982058551E+01  0.39614371052E+02  0.51100000000E-03 0. -1.
        -11    1    3    3    0    0  0.40256228114E+01 -0.94071306673E+01  0.44837695687E+01  0.11171568208E+02  0.51100000000E-03 0.  1.
        -12    1    3    3    0    0  0.36080089892E+02  0.13593090549E+02 -0.71982039509E+01  0.39221921644E+02  0.00000000000E+00 0.  1.
</event>
<event>
 7    1  0.2404951E-015  0.9000761E+02  0.7816164E-02  0.1186339E+00
        -11   -1    0    0    0    0  0.00000000000E+00  0.00000000000E+00  0.45593999997E+02  0.45594000000E+02  0.51100000000E-03 0.  1.
         11   -1    0    0    0    0 -0.00000000000E+00 -0.00000000000E+00 -0.45593999997E+02  0.45594000000E+02  0.51100000000E-03 0. -1.
    9900012    2    1    2    0    0  0.72246356699E-01  0.96413399729E+00  0.67715977269E+00  0.90007610548E+02  0.89999870207E+02 0.  0.
         12    1    1    2    0    0 -0.72246356699E-01 -0.96413399729E+00 -0.67715977269E+00  0.11803894521E+01  0.00000000000E+00 0. -1.
         11    1    3    3    0    0 -0.87947702020E+01 -0.10989466960E+01  0.44183539196E+01  0.99034094315E+01  0.51100000000E-03 0. -1.
        -11    1    3    3    0    0  0.89598941884E+01 -0.29162283249E+02  0.23623506303E+02  0.38584822385E+02  0.51100000000E-03 0.  1.
         12    1    3    3    0    0 -0.92877629696E-01  0.31225363942E+02 -0.27364700450E+02  0.41519378732E+02  0.00000000000E+00 0. -1.
</event>
<event>
 7    1  0.2404951E-015  0.9000771E+02  0.7816164E-02  0.1186339E+00
        -11   -1    0    0    0    0  0.00000000000E+00  0.00000000000E+00  0.45593999997E+02  0.45594000000E+02  0.51100000000E-03 0.  1.
         11   -1    0    0    0    0 -0.00000000000E+00 -0.00000000000E+00 -0.45593999997E+02  0.45594000000E+02  0.51100000000E-03 0. -1.
    9900012    2    1    2    0    0 -0.11608596647E+01  0.13535361742E+00  0.16480056401E+00  0.90007714022E+02  0.89999975048E+02 0.  0.
         12    1    1    2    0    0  0.11608596647E+01 -0.13535361742E+00 -0.16480056401E+00  0.11802859776E+01  0.00000000000E+00 0. -1.
         11    1    3    3    0    0 -0.74901146934E+01  0.63344986124E+01 -0.32928581520E+02  0.34358684083E+02  0.51100000000E-03 0. -1.
        -11    1    3    3    0    0 -0.20005514814E+01 -0.19733551959E+00 -0.10588087550E+02  0.10777232751E+02  0.51100000000E-03 0.  1.
        -12    1    3    3    0    0  0.83298065101E+01 -0.60018094754E+01  0.43681469634E+02  0.44871797188E+02  0.00000000000E+00 0.  1.
</event>
<event>
 7    1  0.2404951E-015  0.9000775E+02  0.7816164E-02  0.1186339E+00
        -11   -1    0    0    0    0  0.00000000000E+00  0.00000000000E+00  0.45593999997E+02  0.45594000000E+02  0.51100000000E-03 0.  1.
         11   -1    0    0    0    0 -0.00000000000E+00 -0.00000000000E+00 -0.45593999997E+02  0.45594000000E+02  0.51100000000E-03 0. -1.
    9900012    2    1    2    0    0  0.26756176435E+00  0.85207157115E+00 -0.77160383788E+00  0.90007750983E+02  0.90000012496E+02 0.  0.
         12    1    1    2    0    0 -0.26756176435E+00 -0.85207157115E+00  0.77160383788E+00  0.11802490173E+01  0.00000000000E+00 0. -1.
         11    1    3    3    0    0 -0.51075873983E+01 -0.38373294601E+00  0.65712778902E+01  0.83316500992E+01  0.51100000000E-03 0. -1.
        -11    1    3    3    0    0  0.17110111292E+02  0.10059217934E+02  0.33131106265E+02  0.38621418623E+02  0.51100000000E-03 0.  1.
         12    1    3    3    0    0 -0.11734962130E+02 -0.88234134172E+01 -0.40473987993E+02  0.43054682260E+02  0.00000000000E+00 0. -1.
</event>
<event>
 7    1  0.2404951E-015  0.9000771E+02  0.7816164E-02  0.1186339E+00
        -11   -1    0    0    0    0  0.00000000000E+00  0.00000000000E+00  0.45593999997E+02  0.45594000000E+02  0.51100000000E-03 0. -1.
         11   -1    0    0    0    0 -0.00000000000E+00 -0.00000000000E+00 -0.45593999997E+02  0.45594000000E+02  0.51100000000E-03 0.  1.
    9900012    2    1    2    0    0  0.68024434823E+00 -0.90868434423E+00  0.32347085366E+00  0.90007714863E+02  0.89999975899E+02 0.  0.
         12    1    1    2    0    0 -0.68024434823E+00  0.90868434423E+00 -0.32347085366E+00  0.11802851367E+01  0.00000000000E+00 0. -1.
         11    1    3    3    0    0  0.10995513261E+02 -0.54682024540E+01  0.10413471627E+01  0.12324242538E+02  0.51100000000E-03 0. -1.
        -11    1    3    3    0    0 -0.11925664072E+02  0.23615603695E+02 -0.31690787038E+02  0.41282250239E+02  0.51100000000E-03 0.  1.
         12    1    3    3    0    0  0.16103951592E+01 -0.19056085585E+02  0.30972910729E+02  0.36401222087E+02  0.00000000000E+00 0. -1.
</event>
<event>
 7    1  0.2404951E-015  0.9000750E+02  0.7816164E-02  0.1186340E+00
        -11   -1    0    0    0    0  0.00000000000E+00  0.00000000000E+00  0.45593999997E+02  0.45594000000E+02  0.51100000000E-03 0. -1.
         11   -1    0    0    0    0 -0.00000000000E+00 -0.00000000000E+00 -0.45593999997E+02  0.45594000000E+02  0.51100000000E-03 0.  1.
    9900012    2    1    2    0    0 -0.49143812120E+00  0.23987891684E+00 -0.10461982996E+01  0.90007498325E+02  0.89999756503E+02 0.  0.
         12    1    1    2    0    0  0.49143812120E+00 -0.23987891684E+00  0.10461982996E+01  0.11805016747E+01  0.00000000000E+00 0. -1.
         11    1    3    3    0    0  0.29635439494E+02  0.66327183914E+00  0.29289464749E+02  0.41672196355E+02  0.51100000000E-03 0. -1.
        -11    1    3    3    0    0  0.15037728078E+01 -0.53698468805E+01 -0.53040251095E+01  0.76960555352E+01  0.51100000000E-03 0.  1.
        -12    1    3    3    0    0 -0.31630650423E+02  0.49464539582E+01 -0.25031637939E+02  0.40639246435E+02  0.00000000000E+00 0.  1.
</event>
<event>
 7    1  0.2404951E-015  0.9000794E+02  0.7816164E-02  0.1186339E+00
        -11   -1    0    0    0    0  0.00000000000E+00  0.00000000000E+00  0.45593999997E+02  0.45594000000E+02  0.51100000000E-03 0. -1.
         11   -1    0    0    0    0 -0.00000000000E+00 -0.00000000000E+00 -0.45593999997E+02  0.45594000000E+02  0.51100000000E-03 0.  1.
    9900012    2    1    2    0    0  0.91927925860E+00 -0.11456882142E+00 -0.73098555689E+00  0.90007940572E+02  0.90000204587E+02 0.  0.
         12    1    1    2    0    0 -0.91927925860E+00  0.11456882142E+00  0.73098555689E+00  0.11800594284E+01  0.00000000000E+00 0. -1.
         11    1    3    3    0    0 -0.14165186297E+02  0.93309079030E+01  0.31810520851E+02  0.36050347879E+02  0.51100000000E-03 0. -1.
        -11    1    3    3    0    0 -0.83362903651E+01  0.63857756077E+01  0.45049464126E+00  0.10510699922E+02  0.51100000000E-03 0.  1.
        -12    1    3    3    0    0  0.23420755920E+02 -0.15831252332E+02 -0.32992001049E+02  0.43446892771E+02  0.00000000000E+00 0.  1.
</event>
<event>
 7    1  0.2404951E-015  0.9000769E+02  0.7816164E-02  0.1186339E+00
        -11   -1    0    0    0    0  0.00000000000E+00  0.00000000000E+00  0.45593999997E+02  0.45594000000E+02  0.51100000000E-03 0.  1.
         11   -1    0    0    0    0 -0.00000000000E+00 -0.00000000000E+00 -0.45593999997E+02  0.45594000000E+02  0.51100000000E-03 0. -1.
    9900012    2    1    2    0    0  0.25902562084E+00 -0.28919663058E+00  0.11146304330E+01  0.90007690733E+02  0.89999951451E+02 0.  0.
         12    1    1    2    0    0 -0.25902562084E+00  0.28919663058E+00 -0.11146304330E+01  0.11803092669E+01  0.00000000000E+00 0. -1.
         11    1    3    3    0    0  0.22879464167E+02  0.52173518536E+00 -0.22966442202E+01  0.23000362238E+02  0.51100000000E-03 0. -1.
        -11    1    3    3    0    0  0.32324591345E+01 -0.36279425707E+01  0.29661135632E+02  0.30056508889E+02  0.51100000000E-03 0.  1.
        -12    1    3    3    0    0 -0.25852897680E+02  0.28170107547E+01 -0.26249860979E+02  0.36950819605E+02  0.00000000000E+00 0.  1.
</event>
<event>
 7    1  0.2404951E-015  0.9000781E+02  0.7816164E-02  0.1186339E+00
        -11   -1    0    0    0    0  0.00000000000E+00  0.00000000000E+00  0.45593999997E+02  0.45594000000E+02  0.51100000000E-03 0. -1.
         11   -1    0    0    0    0 -0.00000000000E+00 -0.00000000000E+00 -0.45593999997E+02  0.45594000000E+02  0.51100000000E-03 0.  1.
    9900012    2    1    2    0    0  0.10533137991E+01 -0.25003521975E+00 -0.46995492098E+00  0.90007811372E+02  0.90000073682E+02 0.  0.
         12    1    1    2    0    0 -0.10533137991E+01  0.25003521975E+00  0.46995492098E+00  0.11801886283E+01  0.00000000000E+00 0. -1.
         11    1    3    3    0    0 -0.65991979358E+01 -0.22865833506E+01 -0.63914413219E+01  0.94672276432E+01  0.51100000000E-03 0. -1.
        -11    1    3    3    0    0 -0.43210334533E+01  0.39569268695E+02 -0.37310905362E+01  0.39978986881E+02  0.51100000000E-03 0.  1.
         12    1    3    3    0    0  0.11973545188E+02 -0.37532720564E+02  0.96525769371E+01  0.40561596848E+02  0.00000000000E+00 0. -1.
</event>
<event>
 7    1  0.2404951E-015  0.9000769E+02  0.7816164E-02  0.1186339E+00
        -11   -1    0    0    0    0  0.00000000000E+00  0.00000000000E+00  0.45593999997E+02  0.45594000000E+02  0.51100000000E-03 0.  1.
         11   -1    0    0    0    0 -0.00000000000E+00 -0.00000000000E+00 -0.45593999997E+02  0.45594000000E+02  0.51100000000E-03 0. -1.
    9900012    2    1    2    0    0 -0.73529671882E-02  0.10700629088E+01  0.49805074103E+00  0.90007685112E+02  0.89999945755E+02 0.  0.
         12    1    1    2    0    0  0.73529671882E-02 -0.10700629088E+01 -0.49805074103E+00  0.11803148883E+01  0.00000000000E+00 0. -1.
         11    1    3    3    0    0  0.14924752772E+02  0.11305996701E+02 -0.29973331118E+02  0.35340831701E+02  0.51100000000E-03 0. -1.
        -11    1    3    3    0    0  0.49704543218E+01  0.44781725693E+01 -0.70487507898E+01  0.97182474595E+01  0.51100000000E-03 0.  1.
        -12    1    3    3    0    0 -0.19902560061E+02 -0.14714106361E+02  0.37520132649E+02  0.44948605952E+02  0.00000000000E+00 0.  1.
</event>
<event>
 7    1  0.2404951E-015  0.9000789E+02  0.7816164E-02  0.1186339E+00
        -11   -1    0    0    0    0  0.00000000000E+00  0.00000000000E+00  0.45593999997E+02  0.45594000000E+02  0.51100000000E-03 0. -1.
         11   -1    0    0    0    0 -0.00000000000E+00 -0.00000000000E+00 -0.45593999997E+02  0.45594000000E+02  0.51100000000E-03 0.  1.
    9900012    2    1    2    0    0 -0.21335751803E+00  0.26547630783E+00 -0.11298901095E+01  0.90007893751E+02  0.90000157148E+02 0.  0.
         12    1    1    2    0    0  0.21335751803E+00 -0.26547630783E+00  0.11298901095E+01  0.11801062495E+01  0.00000000000E+00 0. -1.
         11    1    3    3    0    0  0.66733560628E+01 -0.11918138216E+02  0.31785526003E+02  0.34596175558E+02  0.51100000000E-03 0. -1.
        -11    1    3    3    0    0 -0.44415952093E+01 -0.70722618912E+01  0.70841552348E+01  0.10951251614E+02  0.51100000000E-03 0.  1.
        -12    1    3    3    0    0 -0.24451183715E+01  0.19255876415E+02 -0.39999571348E+02  0.44460466578E+02  0.00000000000E+00 0.  1.
</event>
<event>
 7    1  0.2404951E-015  0.9000784E+02  0.7816164E-02  0.1186339E+00
        -11   -1    0    0    0    0  0.00000000000E+00  0.00000000000E+00  0.45593999997E+02  0.45594000000E+02  0.51100000000E-03 0.  1.
         11   -1    0    0    0    0 -0.00000000000E+00 -0.00000000000E+00 -0.45593999997E+02  0.45594000000E+02  0.51100000000E-03 0. -1.
    9900012    2    1    2    0    0 -0.58643397690E+00 -0.90848202162E+00  0.47278400523E+00  0.90007843608E+02  0.90000106344E+02 0.  0.
         12    1    1    2    0    0  0.58643397690E+00  0.90848202162E+00 -0.47278400523E+00  0.11801563915E+01  0.00000000000E+00 0. -1.
         11    1    3    3    0    0  0.23997091290E+02  0.25909179721E+02  0.23202693491E+01  0.35391095410E+02  0.51100000000E-03 0. -1.
        -11    1    3    3    0    0  0.99851525183E+01  0.93386381247E+00  0.15890421966E+01  0.10153838082E+02  0.51100000000E-03 0.  1.
        -12    1    3    3    0    0 -0.34568677785E+02 -0.27751525555E+02 -0.34365275405E+01  0.44462910116E+02  0.00000000000E+00 0.  1.
</event>
<event>
 7    1  0.2404951E-015  0.9000819E+02  0.7816164E-02  0.1186338E+00
        -11   -1    0    0    0    0  0.00000000000E+00  0.00000000000E+00  0.45593999997E+02  0.45594000000E+02  0.51100000000E-03 0.  1.
         11   -1    0    0    0    0 -0.00000000000E+00 -0.00000000000E+00 -0.45593999997E+02  0.45594000000E+02  0.51100000000E-03 0. -1.
    9900012    2    1    2    0    0 -0.53298881755E+00 -0.98084640957E+00  0.38184930637E+00  0.90008192536E+02  0.90000459877E+02 0.  0.
         12    1    1    2    0    0  0.53298881755E+00  0.98084640957E+00 -0.38184930637E+00  0.11798074638E+01  0.00000000000E+00 0. -1.
         11    1    3    3    0    0 -0.23690777190E+02  0.15307897782E+02  0.30804790788E+02  0.41767448978E+02  0.51100000000E-03 0. -1.
        -11    1    3    3    0    0  0.56577576037E+01 -0.64565888110E+01  0.31336011574E+01  0.91387754460E+01  0.51100000000E-03 0.  1.
        -12    1    3    3    0    0  0.17500030768E+02 -0.98321553808E+01 -0.33556542639E+02  0.39101968112E+02  0.00000000000E+00 0.  1.
</event>
<event>
 7    1  0.2404951E-015  0.9000779E+02  0.7816164E-02  0.1186339E+00
        -11   -1    0    0    0    0  0.00000000000E+00  0.00000000000E+00  0.45593999997E+02  0.45594000000E+02  0.51100000000E-03 0.  1.
         11   -1    0    0    0    0 -0.00000000000E+00 -0.00000000000E+00 -0.45593999997E+02  0.45594000000E+02  0.51100000000E-03 0. -1.
    9900012    2    1    2    0    0  0.83119517223E+00  0.81805000715E+00  0.18109228369E+00  0.90007794237E+02  0.90000056321E+02 0.  0.
         12    1    1    2    0    0 -0.83119517223E+00 -0.81805000715E+00 -0.18109228369E+00  0.11802057633E+01  0.00000000000E+00 0. -1.
         11    1    3    3    0    0  0.25874310761E+02  0.23179745480E+02  0.49832287633E+01  0.35094346084E+02  0.51100000000E-03 0. -1.
        -11    1    3    3    0    0  0.59164694235E+01  0.88572570006E+01 -0.21493319014E+01  0.10866243136E+02  0.51100000000E-03 0.  1.
        -12    1    3    3    0    0 -0.30959585013E+02 -0.31218952473E+02 -0.26528045782E+01  0.44047205017E+02  0.00000000000E+00 0.  1.
</event>
<event>
 7    1  0.2404951E-015  0.9000781E+02  0.7816164E-02  0.1186339E+00
        -11   -1    0    0    0    0  0.00000000000E+00  0.00000000000E+00  0.45593999997E+02  0.45594000000E+02  0.51100000000E-03 0.  1.
         11   -1    0    0    0    0 -0.00000000000E+00 -0.00000000000E+00 -0.45593999997E+02  0.45594000000E+02  0.51100000000E-03 0. -1.
    9900012    2    1    2    0    0  0.37284780490E+00 -0.34588789337E-01  0.11192145055E+01  0.90007808075E+02  0.90000070342E+02 0.  0.
         12    1    1    2    0    0 -0.37284780490E+00  0.34588789337E-01 -0.11192145055E+01  0.11801919248E+01  0.00000000000E+00 0. -1.
         11    1    3    3    0    0 -0.47667417511E+01  0.27683864295E+00  0.77411609198E+01  0.90952756529E+01  0.51100000000E-03 0. -1.
        -11    1    3    3    0    0  0.29166077093E+02  0.90727535613E+01  0.25448054719E+02  0.39756488771E+02  0.51100000000E-03 0.  1.
         12    1    3    3    0    0 -0.24026487537E+02 -0.93841809936E+01 -0.32070001133E+02  0.41156043651E+02  0.00000000000E+00 0. -1.
</event>
<event>
 7    1  0.2404951E-015  0.9000774E+02  0.7816164E-02  0.1186339E+00
        -11   -1    0    0    0    0  0.00000000000E+00  0.00000000000E+00  0.45593999997E+02  0.45594000000E+02  0.51100000000E-03 0.  1.
         11   -1    0    0    0    0 -0.00000000000E+00 -0.00000000000E+00 -0.45593999997E+02  0.45594000000E+02  0.51100000000E-03 0. -1.
    9900012    2    1    2    0    0  0.74633680794E+00  0.84995739392E+00  0.33699073526E+00  0.90007741995E+02  0.90000003389E+02 0.  0.
         12    1    1    2    0    0 -0.74633680794E+00 -0.84995739392E+00 -0.33699073526E+00  0.11802580049E+01  0.00000000000E+00 0. -1.
         11    1    3    3    0    0  0.34757868260E+01 -0.50242692622E+01  0.77541222413E+01  0.98717165515E+01  0.51100000000E-03 0. -1.
        -11    1    3    3    0    0 -0.27160904020E+01 -0.17657916492E+02  0.30595064493E+02  0.35429325897E+02  0.51100000000E-03 0.  1.
         12    1    3    3    0    0 -0.13359616078E-01  0.23532143148E+02 -0.38012196000E+02  0.44706699546E+02  0.00000000000E+00 0. -1.
</event>
<event>
 7    1  0.2404951E-015  0.9000739E+02  0.7816164E-02  0.1186340E+00
        -11   -1    0    0    0    0  0.00000000000E+00  0.00000000000E+00  0.45593999997E+02  0.45594000000E+02  0.51100000000E-03 0. -1.
         11   -1    0    0    0    0 -0.00000000000E+00 -0.00000000000E+00 -0.45593999997E+02  0.45594000000E+02  0.51100000000E-03 0.  1.
    9900012    2    1    2    0    0 -0.96676850366E+00 -0.51218253765E+00 -0.44368852199E+00  0.90007393463E+02  0.89999650256E+02 0.  0.
         12    1    1    2    0    0  0.96676850366E+00  0.51218253765E+00  0.44368852199E+00  0.11806065374E+01  0.00000000000E+00 0. -1.
         11    1    3    3    0    0  0.54497538703E+01 -0.47616601225E+01 -0.43013249546E+01  0.84187066106E+01  0.51100000000E-03 0. -1.
        -11    1    3    3    0    0 -0.77305604609E+01 -0.38070699468E+02  0.53934865634E+01  0.39220267982E+02  0.51100000000E-03 0.  1.
         12    1    3    3    0    0  0.13140380870E+01  0.42320177053E+02 -0.15358501308E+01  0.42368418870E+02  0.00000000000E+00 0. -1.
</event>
<event>
 7    1  0.2404951E-015  0.9000772E+02  0.7816164E-02  0.1186339E+00
        -11   -1    0    0    0    0  0.00000000000E+00  0.00000000000E+00  0.45593999997E+02  0.45594000000E+02  0.51100000000E-03 0.  1.
         11   -1    0    0    0    0 -0.00000000000E+00 -0.00000000000E+00 -0.45593999997E+02  0.45594000000E+02  0.51100000000E-03 0. -1.
    9900012    2    1    2    0    0 -0.51239507561E+00  0.14635037311E+00  0.10531310602E+01  0.90007723687E+02  0.89999984840E+02 0.  0.
         12    1    1    2    0    0  0.51239507561E+00 -0.14635037311E+00 -0.10531310602E+01  0.11802763130E+01  0.00000000000E+00 0. -1.
         11    1    3    3    0    0  0.45887750235E+01  0.23753018979E+01 -0.69836897687E+01  0.86873953731E+01  0.51100000000E-03 0. -1.
        -11    1    3    3    0    0 -0.39178824736E+01  0.38804834925E+02  0.98595394078E+01  0.40229038445E+02  0.51100000000E-03 0.  1.
         12    1    3    3    0    0 -0.11832876255E+01 -0.41033786450E+02 -0.18227185790E+01  0.41091289868E+02  0.00000000000E+00 0. -1.
</event>
<event>
 7    1  0.2404951E-015  0.9000765E+02  0.7816164E-02  0.1186339E+00
        -11   -1    0    0    0    0  0.00000000000E+00  0.00000000000E+00  0.45593999997E+02  0.45594000000E+02  0.51100000000E-03 0.  1.
         11   -1    0    0    0    0 -0.00000000000E+00 -0.00000000000E+00 -0.45593999997E+02  0.45594000000E+02  0.51100000000E-03 0. -1.
    9900012    2    1    2    0    0  0.82489945001E+00  0.77201947917E+00 -0.34168612535E+00  0.90007651498E+02  0.89999911697E+02 0.  0.
         12    1    1    2    0    0 -0.82489945001E+00 -0.77201947917E+00  0.34168612535E+00  0.11803485024E+01  0.00000000000E+00 0. -1.
         11    1    3    3    0    0  0.11999766717E+02  0.25339559955E+01  0.27792672784E+01  0.12575359283E+02  0.51100000000E-03 0. -1.
        -11    1    3    3    0    0  0.32899639685E+02  0.11770806538E+01  0.18999227680E+01  0.32975468413E+02  0.51100000000E-03 0.  1.
         12    1    3    3    0    0 -0.44074506952E+02 -0.29390171701E+01 -0.50208761717E+01  0.44456823801E+02  0.00000000000E+00 0. -1.
</event>
<event>
 7    1  0.2404951E-015  0.9000774E+02  0.7816164E-02  0.1186339E+00
        -11   -1    0    0    0    0  0.00000000000E+00  0.00000000000E+00  0.45593999997E+02  0.45594000000E+02  0.51100000000E-03 0.  1.
         11   -1    0    0    0    0 -0.00000000000E+00 -0.00000000000E+00 -0.45593999997E+02  0.45594000000E+02  0.51100000000E-03 0. -1.
    9900012    2    1    2    0    0  0.33626275575E+00 -0.16999005585E+00  0.11185056158E+01  0.90007735592E+02  0.89999996902E+02 0.  0.
         12    1    1    2    0    0 -0.33626275575E+00  0.16999005585E+00 -0.11185056158E+01  0.11802644079E+01  0.00000000000E+00 0. -1.
         11    1    3    3    0    0  0.33628126044E+02 -0.15555698670E+02  0.54164534146E+01  0.37445541660E+02  0.51100000000E-03 0. -1.
        -11    1    3    3    0    0  0.67421278162E+01  0.86334948753E+01  0.28956186222E+01  0.11330407262E+02  0.51100000000E-03 0.  1.
        -12    1    3    3    0    0 -0.40033991105E+02  0.67522137387E+01 -0.71935664210E+01  0.41231786670E+02  0.00000000000E+00 0.  1.
</event>
<event>
 7    1  0.2404951E-015  0.9000764E+02  0.7816164E-02  0.1186339E+00
        -11   -1    0    0    0    0  0.00000000000E+00  0.00000000000E+00  0.45593999997E+02  0.45594000000E+02  0.51100000000E-03 0. -1.
         11   -1    0    0    0    0 -0.00000000000E+00 -0.00000000000E+00 -0.45593999997E+02  0.45594000000E+02  0.51100000000E-03 0.  1.
    9900012    2    1    2    0    0 -0.21227778362E+00 -0.10724082767E+01  0.44511031632E+00  0.90007642189E+02  0.89999902265E+02 0.  0.
         12    1    1    2    0    0  0.21227778362E+00  0.10724082767E+01 -0.44511031632E+00  0.11803578114E+01  0.00000000000E+00 0. -1.
         11    1    3    3    0    0 -0.84367122383E+01  0.55352148640E+00 -0.38133214633E+01  0.92750159176E+01  0.51100000000E-03 0. -1.
        -11    1    3    3    0    0  0.23907402563E+02  0.11534885357E+02 -0.30474740648E+02  0.40414444142E+02  0.51100000000E-03 0.  1.
         12    1    3    3    0    0 -0.15682968108E+02 -0.13160815120E+02  0.34733172427E+02  0.40318182129E+02  0.00000000000E+00 0. -1.
</event>
<event>
 7    1  0.2404951E-015  0.9000772E+02  0.7816164E-02  0.1186339E+00
        -11   -1    0    0    0    0  0.00000000000E+00  0.00000000000E+00  0.45593999997E+02  0.45594000000E+02  0.51100000000E-03 0.  1.
         11   -1    0    0    0    0 -0.00000000000E+00 -0.00000000000E+00 -0.45593999997E+02  0.45594000000E+02  0.51100000000E-03 0. -1.
    9900012    2    1    2    0    0 -0.11187068256E+01 -0.16642171066E+00 -0.33743486628E+00  0.90007718916E+02  0.89999980006E+02 0.  0.
         12    1    1    2    0    0  0.11187068256E+01  0.16642171066E+00  0.33743486628E+00  0.11802810837E+01  0.00000000000E+00 0. -1.
         11    1    3    3    0    0 -0.33996286869E+01 -0.66800915624E+01 -0.42765913893E+01  0.86296194970E+01  0.51100000000E-03 0. -1.
        -11    1    3    3    0    0  0.31763834918E+02 -0.20531253761E+02  0.13647699501E+02  0.40208622106E+02  0.51100000000E-03 0.  1.
         12    1    3    3    0    0 -0.29482913057E+02  0.27044923613E+02 -0.97085429781E+01  0.41169477314E+02  0.00000000000E+00 0. -1.
</event>
<event>
 7    1  0.2404951E-015  0.9000776E+02  0.7816164E-02  0.1186339E+00
        -11   -1    0    0    0    0  0.00000000000E+00  0.00000000000E+00  0.45593999997E+02  0.45594000000E+02  0.51100000000E-03 0.  1.
         11   -1    0    0    0    0 -0.00000000000E+00 -0.00000000000E+00 -0.45593999997E+02  0.45594000000E+02  0.51100000000E-03 0. -1.
    9900012    2    1    2    0    0  0.24518102606E+00  0.92338049530E+00 -0.69298123249E+00  0.90007759235E+02  0.90000020857E+02 0.  0.
         12    1    1    2    0    0 -0.24518102606E+00 -0.92338049530E+00  0.69298123249E+00  0.11802407649E+01  0.00000000000E+00 0. -1.
         11    1    3    3    0    0  0.10645158348E+02  0.22828897075E+00 -0.19711431769E+01  0.10828523343E+02  0.51100000000E-03 0. -1.
        -11    1    3    3    0    0  0.26103489199E+02 -0.13990727924E+02  0.19866591773E+02  0.35662502508E+02  0.51100000000E-03 0.  1.
         12    1    3    3    0    0 -0.36503466521E+02  0.14685819448E+02 -0.18588429829E+02  0.43516733384E+02  0.00000000000E+00 0. -1.
</event>
<event>
 7    1  0.2404951E-015  0.9000746E+02  0.7816164E-02  0.1186340E+00
        -11   -1    0    0    0    0  0.00000000000E+00  0.00000000000E+00  0.45593999997E+02  0.45594000000E+02  0.51100000000E-03 0. -1.
         11   -1    0    0    0    0 -0.00000000000E+00 -0.00000000000E+00 -0.45593999997E+02  0.45594000000E+02  0.51100000000E-03 0.  1.
    9900012    2    1    2    0    0  0.26058434456E+00 -0.15842867127E+00 -0.11404650278E+01  0.90007464391E+02  0.89999722120E+02 0.  0.
         12    1    1    2    0    0 -0.26058434456E+00  0.15842867127E+00  0.11404650278E+01  0.11805356090E+01  0.00000000000E+00 0. -1.
         11    1    3    3    0    0  0.25795135016E+02  0.20289635122E+02  0.20370908228E+02  0.38626832463E+02  0.51100000000E-03 0. -1.
        -11    1    3    3    0    0  0.25220213138E+01  0.67084157256E+01 -0.60686976388E+01  0.93910874955E+01  0.51100000000E-03 0.  1.
        -12    1    3    3    0    0 -0.28056571985E+02 -0.27156479519E+02 -0.15442675617E+02  0.41989544432E+02  0.00000000000E+00 0.  1.
</event>
<event>
 7    1  0.2404951E-015  0.9000761E+02  0.7816164E-02  0.1186339E+00
        -11   -1    0    0    0    0  0.00000000000E+00  0.00000000000E+00  0.45593999997E+02  0.45594000000E+02  0.51100000000E-03 0. -1.
         11   -1    0    0    0    0 -0.00000000000E+00 -0.00000000000E+00 -0.45593999997E+02  0.45594000000E+02  0.51100000000E-03 0.  1.
    9900012    2    1    2    0    0  0.61068778025E+00 -0.93813347015E+00  0.37453846764E+00  0.90007613184E+02  0.89999872877E+02 0.  0.
         12    1    1    2    0    0 -0.61068778025E+00  0.93813347015E+00 -0.37453846764E+00  0.11803868165E+01  0.00000000000E+00 0. -1.
         11    1    3    3    0    0 -0.25253260595E+02  0.30414424303E+02 -0.36701370395E+01  0.39701817118E+02  0.51100000000E-03 0. -1.
        -11    1    3    3    0    0 -0.43759454402E+01 -0.42179747476E+01  0.73557175464E+01  0.95418441797E+01  0.51100000000E-03 0.  1.
        -12    1    3    3    0    0  0.30239893815E+02 -0.27134583025E+02 -0.33110420392E+01  0.40763951885E+02  0.00000000000E+00 0.  1.
</event>
<event>
 7    1  0.2404951E-015  0.9000776E+02  0.7816164E-02  0.1186339E+00
        -11   -1    0    0    0    0  0.00000000000E+00  0.00000000000E+00  0.45593999997E+02  0.45594000000E+02  0.51100000000E-03 0.  1.
         11   -1    0    0    0    0 -0.00000000000E+00 -0.00000000000E+00 -0.45593999997E+02  0.45594000000E+02  0.51100000000E-03 0. -1.
    9900012    2    1    2    0    0  0.59369161758E+00  0.97570059903E+00 -0.29747965662E+00  0.90007764624E+02  0.90000026317E+02 0.  0.
         12    1    1    2    0    0 -0.59369161758E+00 -0.97570059903E+00  0.29747965662E+00  0.11802353756E+01  0.00000000000E+00 0. -1.
         11    1    3    3    0    0  0.29575591585E+01 -0.26367485214E+02 -0.14410233096E+02  0.30193480270E+02  0.51100000000E-03 0. -1.
        -11    1    3    3    0    0 -0.13186990036E+02 -0.11443926854E+02  0.10989503934E+01  0.17494795234E+02  0.51100000000E-03 0.  1.
        -12    1    3    3    0    0  0.10823122495E+02  0.38787112667E+02  0.13013803046E+02  0.42319489120E+02  0.00000000000E+00 0.  1.
</event>
<event>
 7    1  0.2404951E-015  0.9000773E+02  0.7816164E-02  0.1186339E+00
        -11   -1    0    0    0    0  0.00000000000E+00  0.00000000000E+00  0.45593999997E+02  0.45594000000E+02  0.51100000000E-03 0.  1.
         11   -1    0    0    0    0 -0.00000000000E+00 -0.00000000000E+00 -0.45593999997E+02  0.45594000000E+02  0.51100000000E-03 0. -1.
    9900012    2    1    2    0    0  0.46609417512E+00 -0.10776463135E+01 -0.12033416904E+00  0.90007726443E+02  0.89999987632E+02 0.  0.
         12    1    1    2    0    0 -0.46609417512E+00  0.10776463135E+01  0.12033416904E+00  0.11802735570E+01  0.00000000000E+00 0. -1.
         11    1    3    3    0    0 -0.38583086941E+02 -0.72354073073E+01 -0.17652381270E+01  0.39295315023E+02  0.51100000000E-03 0. -1.
        -11    1    3    3    0    0 -0.14174412069E+01  0.97652168205E+01  0.20734792023E+01  0.10083050897E+02  0.51100000000E-03 0.  1.
        -12    1    3    3    0    0  0.40466622323E+02 -0.36074558268E+01 -0.42857524429E+00  0.40629360523E+02  0.00000000000E+00 0.  1.
</event>
<event>
 7    1  0.2404951E-015  0.9000775E+02  0.7816164E-02  0.1186339E+00
        -11   -1    0    0    0    0  0.00000000000E+00  0.00000000000E+00  0.45593999997E+02  0.45594000000E+02  0.51100000000E-03 0.  1.
         11   -1    0    0    0    0 -0.00000000000E+00 -0.00000000000E+00 -0.45593999997E+02  0.45594000000E+02  0.51100000000E-03 0. -1.
    9900012    2    1    2    0    0  0.42906983088E+00 -0.10726215783E+01 -0.24159609028E+00  0.90007751450E+02  0.90000012969E+02 0.  0.
         12    1    1    2    0    0 -0.42906983088E+00  0.10726215783E+01  0.24159609028E+00  0.11802485504E+01  0.00000000000E+00 0. -1.
         11    1    3    3    0    0 -0.13905710156E+02 -0.37761304828E+01 -0.37722129019E+02  0.40380526920E+02  0.51100000000E-03 0. -1.
        -11    1    3    3    0    0  0.82639662106E+01  0.57588948562E+01 -0.13890352620E+01  0.10167960794E+02  0.51100000000E-03 0.  1.
        -12    1    3    3    0    0  0.60708137760E+01 -0.30553859517E+01  0.38869568191E+02  0.39459263735E+02  0.00000000000E+00 0.  1.
</event>
<event>
 7    1  0.3261963E-015  0.9000780E+02  0.7816164E-02  0.1186339E+00
        -11   -1    0    0    0    0  0.00000000000E+00  0.00000000000E+00  0.45593999997E+02  0.45594000000E+02  0.51100000000E-03 0.  1.
         11   -1    0    0    0    0 -0.00000000000E+00 -0.00000000000E+00 -0.45593999997E+02  0.45594000000E+02  0.51100000000E-03 0. -1.
    9900012    2    1    2    0    0  0.58541057005E+00  0.68025591589E+00  0.76643858351E+00  0.90007795887E+02  0.90000057992E+02 0.  0.
         12    1    1    2    0    0 -0.58541057005E+00 -0.68025591589E+00 -0.76643858351E+00  0.11802041132E+01  0.00000000000E+00 0. -1.
         11    1    3    3    0    0 -0.73312443744E+01 -0.80222885452E+01 -0.36900655198E+02  0.38467682694E+02  0.51100000000E-03 0. -1.
        -11    1    3    3    0    0  0.75506155872E+01  0.42229083081E+01 -0.40706148715E+01  0.95611011927E+01  0.51100000000E-03 0.  1.
        -12    1    3    3    0    0  0.36603935727E+00  0.44796361530E+01  0.41737708653E+02  0.41979012000E+02  0.00000000000E+00 0.  1.
</event>
<event>
 7    1  0.2404951E-015  0.9000774E+02  0.7816164E-02  0.1186339E+00
        -11   -1    0    0    0    0  0.00000000000E+00  0.00000000000E+00  0.45593999997E+02  0.45594000000E+02  0.51100000000E-03 0. -1.
         11   -1    0    0    0    0 -0.00000000000E+00 -0.00000000000E+00 -0.45593999997E+02  0.45594000000E+02  0.51100000000E-03 0.  1.
    9900012    2    1    2    0    0 -0.11674021130E+01 -0.16882504547E+00  0.41117774989E-01  0.90007737207E+02  0.89999998538E+02 0.  0.
         12    1    1    2    0    0  0.11674021130E+01  0.16882504547E+00 -0.41117774989E-01  0.11802627931E+01  0.00000000000E+00 0. -1.
         11    1    3    3    0    0 -0.11391311439E+02 -0.30149931222E+01  0.27766915248E+01  0.12106286628E+02  0.51100000000E-03 0. -1.
        -11    1    3    3    0    0 -0.31016027907E+02 -0.12469253507E+02 -0.52464495713E+01  0.33837870848E+02  0.51100000000E-03 0.  1.
         12    1    3    3    0    0  0.41239937233E+02  0.15315421584E+02  0.25108758215E+01  0.44063579731E+02  0.00000000000E+00 0. -1.
</event>
<event>
 7    1  0.2404951E-015  0.9000766E+02  0.7816164E-02  0.1186339E+00
        -11   -1    0    0    0    0  0.00000000000E+00  0.00000000000E+00  0.45593999997E+02  0.45594000000E+02  0.51100000000E-03 0. -1.
         11   -1    0    0    0    0 -0.00000000000E+00 -0.00000000000E+00 -0.45593999997E+02  0.45594000000E+02  0.51100000000E-03 0.  1.
    9900012    2    1    2    0    0 -0.56134314404E+00 -0.36016537493E+00 -0.97384440180E+00  0.90007661853E+02  0.89999922189E+02 0.  0.
         12    1    1    2    0    0  0.56134314404E+00  0.36016537493E+00  0.97384440180E+00  0.11803381471E+01  0.00000000000E+00 0. -1.
         11    1    3    3    0    0 -0.93105014680E+01 -0.26671897465E+01  0.32339301434E+01  0.10210663209E+02  0.51100000000E-03 0. -1.
        -11    1    3    3    0    0 -0.21557076948E+02 -0.28045068933E+02  0.55595770550E+01  0.35807015448E+02  0.51100000000E-03 0.  1.
         12    1    3    3    0    0  0.30306235272E+02  0.30352093304E+02 -0.97673516002E+01  0.43989983196E+02  0.00000000000E+00 0. -1.
</event>
<event>
 7    1  0.3575249E-015  0.9000776E+02  0.7816164E-02  0.1186339E+00
        -11   -1    0    0    0    0  0.00000000000E+00  0.00000000000E+00  0.45593999997E+02  0.45594000000E+02  0.51100000000E-03 0. -1.
         11   -1    0    0    0    0 -0.00000000000E+00 -0.00000000000E+00 -0.45593999997E+02  0.45594000000E+02  0.51100000000E-03 0.  1.
    9900012    2    1    2    0    0 -0.82457811116E-01 -0.55412384677E+00 -0.10388077190E+01  0.90007756802E+02  0.90000018392E+02 0.  0.
         12    1    1    2    0    0  0.82457811116E-01  0.55412384677E+00  0.10388077190E+01  0.11802431975E+01  0.00000000000E+00 0. -1.
         11    1    3    3    0    0 -0.12179087969E+02 -0.32246634923E+02  0.14643897862E+02  0.37451560614E+02  0.51100000000E-03 0. -1.
        -11    1    3    3    0    0 -0.45675078773E+01 -0.62734847428E+01 -0.64211572688E+01  0.10072239074E+02  0.51100000000E-03 0.  1.
        -12    1    3    3    0    0  0.16664138035E+02  0.37965995819E+02 -0.92615483122E+01  0.42483957114E+02  0.00000000000E+00 0.  1.
</event>
<event>
 7    1  0.2404951E-015  0.9000772E+02  0.7816164E-02  0.1186339E+00
        -11   -1    0    0    0    0  0.00000000000E+00  0.00000000000E+00  0.45593999997E+02  0.45594000000E+02  0.51100000000E-03 0.  1.
         11   -1    0    0    0    0 -0.00000000000E+00 -0.00000000000E+00 -0.45593999997E+02  0.45594000000E+02  0.51100000000E-03 0. -1.
    9900012    2    1    2    0    0 -0.27643788083E+00 -0.16997128376E-01 -0.11473202835E+01  0.90007724338E+02  0.89999985500E+02 0.  0.
         12    1    1    2    0    0  0.27643788083E+00  0.16997128376E-01  0.11473202835E+01  0.11802756615E+01  0.00000000000E+00 0. -1.
         11    1    3    3    0    0 -0.31388154082E+02  0.26676082787E+02  0.12318116025E+02  0.42994948449E+02  0.51100000000E-03 0. -1.
        -11    1    3    3    0    0  0.35574537354E+01 -0.77513422470E+01  0.38511396845E+01  0.93578876270E+01  0.51100000000E-03 0.  1.
        -12    1    3    3    0    0  0.27554262465E+02 -0.18941737668E+02 -0.17316575993E+02  0.37654888262E+02  0.00000000000E+00 0.  1.
</event>
<event>
 7    1  0.2404951E-015  0.9000769E+02  0.7816164E-02  0.1186339E+00
        -11   -1    0    0    0    0  0.00000000000E+00  0.00000000000E+00  0.45593999997E+02  0.45594000000E+02  0.51100000000E-03 0. -1.
         11   -1    0    0    0    0 -0.00000000000E+00 -0.00000000000E+00 -0.45593999997E+02  0.45594000000E+02  0.51100000000E-03 0.  1.
    9900012    2    1    2    0    0 -0.10455077349E+01  0.54135532758E+00  0.83498626185E-01  0.90007693245E+02  0.89999953996E+02 0.  0.
         12    1    1    2    0    0  0.10455077349E+01 -0.54135532758E+00 -0.83498626185E-01  0.11803067546E+01  0.00000000000E+00 0. -1.
         11    1    3    3    0    0 -0.90131619287E+01  0.43391415054E+01  0.42549487377E+01  0.10870594555E+02  0.51100000000E-03 0. -1.
        -11    1    3    3    0    0 -0.33663073954E+02 -0.96202201751E+00 -0.13664871505E+02  0.36343592942E+02  0.51100000000E-03 0.  1.
         12    1    3    3    0    0  0.41630728148E+02 -0.28357641603E+01  0.94934213935E+01  0.42793505749E+02  0.00000000000E+00 0. -1.
</event>
<event>
 7    1  0.2404951E-015  0.9000773E+02  0.7816164E-02  0.1186339E+00
        -11   -1    0    0    0    0  0.00000000000E+00  0.00000000000E+00  0.45593999997E+02  0.45594000000E+02  0.51100000000E-03 0. -1.
         11   -1    0    0    0    0 -0.00000000000E+00 -0.00000000000E+00 -0.45593999997E+02  0.45594000000E+02  0.51100000000E-03 0.  1.
    9900012    2    1    2    0    0 -0.46213649514E+00  0.93839724705E+00 -0.54670632896E+00  0.90007725734E+02  0.89999986913E+02 0.  0.
         12    1    1    2    0    0  0.46213649514E+00 -0.93839724705E+00  0.54670632896E+00  0.11802742662E+01  0.00000000000E+00 0. -1.
         11    1    3    3    0    0 -0.22604173175E+01  0.73324304665E+01 -0.64509725553E+01  0.10024423682E+02  0.51100000000E-03 0. -1.
        -11    1    3    3    0    0 -0.73902090541E+01  0.35811766776E+02  0.22923777512E+01  0.36638133488E+02  0.51100000000E-03 0.  1.
         12    1    3    3    0    0  0.91884898765E+01 -0.42205799995E+02  0.36118884752E+01  0.43345168563E+02  0.00000000000E+00 0. -1.
</event>
<event>
 7    1  0.2404951E-015  0.9000772E+02  0.7816164E-02  0.1186339E+00
        -11   -1    0    0    0    0  0.00000000000E+00  0.00000000000E+00  0.45593999997E+02  0.45594000000E+02  0.51100000000E-03 0. -1.
         11   -1    0    0    0    0 -0.00000000000E+00 -0.00000000000E+00 -0.45593999997E+02  0.45594000000E+02  0.51100000000E-03 0.  1.
    9900012    2    1    2    0    0  0.54308328352E+00  0.10036281294E+01 -0.30141729807E+00  0.90007719837E+02  0.89999980939E+02 0.  0.
         12    1    1    2    0    0 -0.54308328352E+00 -0.10036281294E+01  0.30141729807E+00  0.11802801627E+01  0.00000000000E+00 0. -1.
         11    1    3    3    0    0 -0.75608770011E+01 -0.36025411972E+01  0.33687152389E+01  0.90273698676E+01  0.51100000000E-03 0. -1.
        -11    1    3    3    0    0 -0.27589539496E+02 -0.20812108261E+01  0.22955298653E+02  0.35950797830E+02  0.51100000000E-03 0.  1.
         12    1    3    3    0    0  0.35693499780E+02  0.66873801527E+01 -0.26625431190E+02  0.45029552140E+02  0.00000000000E+00 0. -1.
</event>
<event>
 7    1  0.2473571E-015  0.9000848E+02  0.7816164E-02  0.1186338E+00
        -11   -1    0    0    0    0  0.00000000000E+00  0.00000000000E+00  0.45593999997E+02  0.45594000000E+02  0.51100000000E-03 0. -1.
         11   -1    0    0    0    0 -0.00000000000E+00 -0.00000000000E+00 -0.45593999997E+02  0.45594000000E+02  0.51100000000E-03 0.  1.
    9900012    2    1    2    0    0  0.69247966826E-01 -0.12491456344E+00 -0.11708376041E+01  0.90008483309E+02  0.90000754486E+02 0.  0.
         12    1    1    2    0    0 -0.69247966826E-01  0.12491456344E+00  0.11708376041E+01  0.11795166910E+01  0.00000000000E+00 0. -1.
         11    1    3    3    0    0 -0.31866258496E+01 -0.35720945803E+02  0.16742497669E+02  0.39578425711E+02  0.51100000000E-03 0. -1.
        -11    1    3    3    0    0 -0.72245832960E+01  0.24897261548E+01  0.47180561889E+01  0.89807235003E+01  0.51100000000E-03 0.  1.
        -12    1    3    3    0    0  0.10480457112E+02  0.33106305084E+02 -0.22631391462E+02  0.41449334097E+02  0.00000000000E+00 0.  1.
</event>
<event>
 7    1  0.2404951E-015  0.9000774E+02  0.7816164E-02  0.1186339E+00
        -11   -1    0    0    0    0  0.00000000000E+00  0.00000000000E+00  0.45593999997E+02  0.45594000000E+02  0.51100000000E-03 0.  1.
         11   -1    0    0    0    0 -0.00000000000E+00 -0.00000000000E+00 -0.45593999997E+02  0.45594000000E+02  0.51100000000E-03 0. -1.
    9900012    2    1    2    0    0 -0.10237178872E+01 -0.40379494130E+00  0.42657246556E+00  0.90007740395E+02  0.90000001768E+02 0.  0.
         12    1    1    2    0    0  0.10237178872E+01  0.40379494130E+00 -0.42657246556E+00  0.11802596051E+01  0.00000000000E+00 0. -1.
         11    1    3    3    0    0  0.34164575374E+02 -0.17777281717E+02  0.17146935832E+02  0.42157648943E+02  0.51100000000E-03 0. -1.
        -11    1    3    3    0    0 -0.37157157906E+01 -0.34262472588E+01 -0.74506515669E+01  0.90032173776E+01  0.51100000000E-03 0.  1.
        -12    1    3    3    0    0 -0.31472577470E+02  0.20799734034E+02 -0.92697117993E+01  0.38846874075E+02  0.00000000000E+00 0.  1.
</event>
<event>
 7    1  0.2404951E-015  0.9000790E+02  0.7816164E-02  0.1186339E+00
        -11   -1    0    0    0    0  0.00000000000E+00  0.00000000000E+00  0.45593999997E+02  0.45594000000E+02  0.51100000000E-03 0.  1.
         11   -1    0    0    0    0 -0.00000000000E+00 -0.00000000000E+00 -0.45593999997E+02  0.45594000000E+02  0.51100000000E-03 0. -1.
    9900012    2    1    2    0    0  0.47650235143E+00  0.79365626285E+00  0.73190937045E+00  0.90007899970E+02  0.90000163449E+02 0.  0.
         12    1    1    2    0    0 -0.47650235143E+00 -0.79365626285E+00 -0.73190937045E+00  0.11801000301E+01  0.00000000000E+00 0. -1.
         11    1    3    3    0    0  0.59601552492E+01  0.67346592203E+00  0.12461973253E+02  0.13830321203E+02  0.51100000000E-03 0. -1.
        -11    1    3    3    0    0  0.16967841164E+02 -0.25534072611E+02  0.13766391590E+02  0.33606696290E+02  0.51100000000E-03 0.  1.
         12    1    3    3    0    0 -0.22451494062E+02  0.25654262951E+02 -0.25496455473E+02  0.42570882477E+02  0.00000000000E+00 0. -1.
</event>
<event>
 7    1  0.2404951E-015  0.9000773E+02  0.7816164E-02  0.1186339E+00
        -11   -1    0    0    0    0  0.00000000000E+00  0.00000000000E+00  0.45593999997E+02  0.45594000000E+02  0.51100000000E-03 0. -1.
         11   -1    0    0    0    0 -0.00000000000E+00 -0.00000000000E+00 -0.45593999997E+02  0.45594000000E+02  0.51100000000E-03 0.  1.
    9900012    2    1    2    0    0 -0.14046335010E+00  0.11638686687E+01 -0.13678785158E+00  0.90007732595E+02  0.89999993865E+02 0.  0.
         12    1    1    2    0    0  0.14046335010E+00 -0.11638686687E+01  0.13678785158E+00  0.11802674049E+01  0.00000000000E+00 0. -1.
         11    1    3    3    0    0  0.60478662624E+01 -0.85894252073E+01 -0.29714749383E+01  0.10917168831E+02  0.51100000000E-03 0. -1.
        -11    1    3    3    0    0 -0.15172734719E+02 -0.26973103339E+02 -0.18120562160E+02  0.35862444923E+02  0.51100000000E-03 0.  1.
         12    1    3    3    0    0  0.89844051070E+01  0.36726397215E+02  0.20955249247E+02  0.43228118841E+02  0.00000000000E+00 0. -1.
</event>
<event>
 7    1  0.2404951E-015  0.9000784E+02  0.7816164E-02  0.1186339E+00
        -11   -1    0    0    0    0  0.00000000000E+00  0.00000000000E+00  0.45593999997E+02  0.45594000000E+02  0.51100000000E-03 0.  1.
         11   -1    0    0    0    0 -0.00000000000E+00 -0.00000000000E+00 -0.45593999997E+02  0.45594000000E+02  0.51100000000E-03 0. -1.
    9900012    2    1    2    0    0 -0.62567134282E+00 -0.15615880578E+00  0.98839859702E+00  0.90007838152E+02  0.90000100815E+02 0.  0.
         12    1    1    2    0    0  0.62567134282E+00  0.15615880578E+00 -0.98839859702E+00  0.11801618484E+01  0.00000000000E+00 0. -1.
         11    1    3    3    0    0  0.12945530880E+02  0.15745302707E+02 -0.18928354367E+01  0.20471544967E+02  0.51100000000E-03 0. -1.
        -11    1    3    3    0    0  0.53518308079E+01 -0.13531737400E+02  0.31756487495E+02  0.34931712073E+02  0.51100000000E-03 0.  1.
         12    1    3    3    0    0 -0.18923033031E+02 -0.23697241124E+01 -0.28875253461E+02  0.34604581111E+02  0.00000000000E+00 0. -1.
</event>
<event>
 7    1  0.2976589E-015  0.9000773E+02  0.7816164E-02  0.1186339E+00
        -11   -1    0    0    0    0  0.00000000000E+00  0.00000000000E+00  0.45593999997E+02  0.45594000000E+02  0.51100000000E-03 0.  1.
         11   -1    0    0    0    0 -0.00000000000E+00 -0.00000000000E+00 -0.45593999997E+02  0.45594000000E+02  0.51100000000E-03 0. -1.
    9900012    2    1    2    0    0 -0.80343511708E+00 -0.12504245179E+00  0.85550721050E+00  0.90007730459E+02  0.89999991701E+02 0.  0.
         12    1    1    2    0    0  0.80343511708E+00  0.12504245179E+00 -0.85550721050E+00  0.11802695410E+01  0.00000000000E+00 0. -1.
         11    1    3    3    0    0  0.30971236485E+02 -0.53300909102E+01 -0.22968902091E+02  0.38925542026E+02  0.51100000000E-03 0. -1.
        -11    1    3    3    0    0  0.37096432668E+01  0.83237110261E+01  0.20752319665E+01  0.93462402274E+01  0.51100000000E-03 0.  1.
        -12    1    3    3    0    0 -0.35484314869E+02 -0.31186625677E+01  0.21749177335E+02  0.41735948206E+02  0.00000000000E+00 0.  1.
</event>
<event>
 7    1  0.2404951E-015  0.9000773E+02  0.7816164E-02  0.1186339E+00
        -11   -1    0    0    0    0  0.00000000000E+00  0.00000000000E+00  0.45593999997E+02  0.45594000000E+02  0.51100000000E-03 0.  1.
         11   -1    0    0    0    0 -0.00000000000E+00 -0.00000000000E+00 -0.45593999997E+02  0.45594000000E+02  0.51100000000E-03 0. -1.
    9900012    2    1    2    0    0  0.70539312187E+00  0.64228008797E+00  0.69494036082E+00  0.90007726611E+02  0.89999987802E+02 0.  0.
         12    1    1    2    0    0 -0.70539312187E+00 -0.64228008797E+00 -0.69494036082E+00  0.11802733890E+01  0.00000000000E+00 0. -1.
         11    1    3    3    0    0 -0.29941202348E+02 -0.17085473425E+02 -0.89834523705E+01  0.35624309354E+02  0.51100000000E-03 0. -1.
        -11    1    3    3    0    0 -0.77978342386E+01  0.20087279789E+01 -0.59440252401E+01  0.10008628439E+02  0.51100000000E-03 0.  1.
        -12    1    3    3    0    0  0.38444429709E+02  0.15719025535E+02  0.15622417971E+02  0.44374788818E+02  0.00000000000E+00 0.  1.
</event>
<event>
 7    1  0.2404951E-015  0.9000815E+02  0.7816164E-02  0.1186338E+00
        -11   -1    0    0    0    0  0.00000000000E+00  0.00000000000E+00  0.45593999997E+02  0.45594000000E+02  0.51100000000E-03 0.  1.
         11   -1    0    0    0    0 -0.00000000000E+00 -0.00000000000E+00 -0.45593999997E+02  0.45594000000E+02  0.51100000000E-03 0. -1.
    9900012    2    1    2    0    0 -0.33863824788E+00  0.34680342803E+00  0.10756880738E+01  0.90008146911E+02  0.90000413649E+02 0.  0.
         12    1    1    2    0    0  0.33863824788E+00 -0.34680342803E+00 -0.10756880738E+01  0.11798530895E+01  0.00000000000E+00 0. -1.
         11    1    3    3    0    0 -0.29731723596E+02  0.46945315764E+01 -0.63731291368E+01  0.30767365665E+02  0.51100000000E-03 0. -1.
        -11    1    3    3    0    0  0.23907321992E+01  0.28775970750E+01 -0.19832227743E+02  0.20182007405E+02  0.51100000000E-03 0.  1.
        -12    1    3    3    0    0  0.27002353149E+02 -0.72253252234E+01  0.27281044954E+02  0.39058773841E+02  0.00000000000E+00 0.  1.
</event>
<event>
 7    1  0.2404951E-015  0.9000776E+02  0.7816164E-02  0.1186339E+00
        -11   -1    0    0    0    0  0.00000000000E+00  0.00000000000E+00  0.45593999997E+02  0.45594000000E+02  0.51100000000E-03 0. -1.
         11   -1    0    0    0    0 -0.00000000000E+00 -0.00000000000E+00 -0.45593999997E+02  0.45594000000E+02  0.51100000000E-03 0.  1.
    9900012    2    1    2    0    0  0.18322823740E+00  0.53707368193E+00 -0.10348619156E+01  0.90007762773E+02  0.90000024442E+02 0.  0.
         12    1    1    2    0    0 -0.18322823740E+00 -0.53707368193E+00  0.10348619156E+01  0.11802372267E+01  0.00000000000E+00 0. -1.
         11    1    3    3    0    0  0.10558622844E+02  0.52206751401E+01 -0.10627950641E+02  0.15864844795E+02  0.51100000000E-03 0. -1.
        -11    1    3    3    0    0 -0.33486930072E+02 -0.56488864989E+01 -0.17757198933E+02  0.38322350118E+02  0.51100000000E-03 0.  1.
         12    1    3    3    0    0  0.23111535466E+02  0.96528504069E+00  0.27350287659E+02  0.35820567860E+02  0.00000000000E+00 0. -1.
</event>
<event>
 7    1  0.2404951E-015  0.9000767E+02  0.7816164E-02  0.1186339E+00
        -11   -1    0    0    0    0  0.00000000000E+00  0.00000000000E+00  0.45593999997E+02  0.45594000000E+02  0.51100000000E-03 0. -1.
         11   -1    0    0    0    0 -0.00000000000E+00 -0.00000000000E+00 -0.45593999997E+02  0.45594000000E+02  0.51100000000E-03 0.  1.
    9900012    2    1    2    0    0 -0.83865186780E+00  0.49334553666E+00  0.66816506740E+00  0.90007673210E+02  0.89999933696E+02 0.  0.
         12    1    1    2    0    0  0.83865186780E+00 -0.49334553666E+00 -0.66816506740E+00  0.11803267900E+01  0.00000000000E+00 0. -1.
         11    1    3    3    0    0  0.12151267937E+02  0.20847692350E+01 -0.37770982898E+00  0.12334595260E+02  0.51100000000E-03 0. -1.
        -11    1    3    3    0    0  0.20263535343E+02  0.76019331012E+01  0.26924943999E+02  0.34544939732E+02  0.51100000000E-03 0.  1.
         12    1    3    3    0    0 -0.33253455148E+02 -0.91933567995E+01 -0.25879069103E+02  0.43128138218E+02  0.00000000000E+00 0. -1.
</event>
<event>
 7    1  0.2404951E-015  0.9000776E+02  0.7816164E-02  0.1186339E+00
        -11   -1    0    0    0    0  0.00000000000E+00  0.00000000000E+00  0.45593999997E+02  0.45594000000E+02  0.51100000000E-03 0. -1.
         11   -1    0    0    0    0 -0.00000000000E+00 -0.00000000000E+00 -0.45593999997E+02  0.45594000000E+02  0.51100000000E-03 0.  1.
    9900012    2    1    2    0    0 -0.36180885573E+00  0.89767092746E+00 -0.67545378803E+00  0.90007764192E+02  0.90000025880E+02 0.  0.
         12    1    1    2    0    0  0.36180885573E+00 -0.89767092746E+00  0.67545378803E+00  0.11802358077E+01  0.00000000000E+00 0. -1.
         11    1    3    3    0    0  0.36133190309E+02  0.13982881835E+02  0.11491440106E+02  0.40412641862E+02  0.51100000000E-03 0. -1.
        -11    1    3    3    0    0  0.16846582350E+01 -0.90177521163E+01  0.43551373357E+00  0.91840948968E+01  0.51100000000E-03 0.  1.
        -12    1    3    3    0    0 -0.38179657400E+02 -0.40674587916E+01 -0.12602407628E+02  0.40411027433E+02  0.00000000000E+00 0.  1.
</event>
<event>
 7    1  0.2404951E-015  0.9000777E+02  0.7816164E-02  0.1186339E+00
        -11   -1    0    0    0    0  0.00000000000E+00  0.00000000000E+00  0.45593999997E+02  0.45594000000E+02  0.51100000000E-03 0.  1.
         11   -1    0    0    0    0 -0.00000000000E+00 -0.00000000000E+00 -0.45593999997E+02  0.45594000000E+02  0.51100000000E-03 0. -1.
    9900012    2    1    2    0    0  0.10241654247E+01  0.57635921073E+00  0.10882516526E+00  0.90007767958E+02  0.90000029695E+02 0.  0.
         12    1    1    2    0    0 -0.10241654247E+01 -0.57635921073E+00 -0.10882516526E+00  0.11802320422E+01  0.00000000000E+00 0. -1.
         11    1    3    3    0    0 -0.52601442732E+00 -0.44182095823E+01  0.94129336420E+01  0.10411560263E+02  0.51100000000E-03 0. -1.
        -11    1    3    3    0    0  0.10926807951E+02  0.36142978616E+02  0.13246747895E+02  0.40014826818E+02  0.51100000000E-03 0.  1.
         12    1    3    3    0    0 -0.93766280991E+01 -0.31148409823E+02 -0.22550856371E+02  0.39581380877E+02  0.00000000000E+00 0. -1.
</event>
<event>
 7    1  0.2404951E-015  0.9000778E+02  0.7816164E-02  0.1186339E+00
        -11   -1    0    0    0    0  0.00000000000E+00  0.00000000000E+00  0.45593999997E+02  0.45594000000E+02  0.51100000000E-03 0.  1.
         11   -1    0    0    0    0 -0.00000000000E+00 -0.00000000000E+00 -0.45593999997E+02  0.45594000000E+02  0.51100000000E-03 0. -1.
    9900012    2    1    2    0    0 -0.11465500143E+01 -0.22728825248E+00 -0.16337503654E+00  0.90007776171E+02  0.90000038016E+02 0.  0.
         12    1    1    2    0    0  0.11465500143E+01  0.22728825248E+00  0.16337503654E+00  0.11802238294E+01  0.00000000000E+00 0. -1.
         11    1    3    3    0    0  0.70413828045E+01  0.41193253046E+01 -0.28318005922E+01  0.86353348297E+01  0.51100000000E-03 0. -1.
        -11    1    3    3    0    0  0.28400036479E+02  0.12833146046E+02  0.20384912433E+02  0.37239714883E+02  0.51100000000E-03 0.  1.
         12    1    3    3    0    0 -0.36587969298E+02 -0.17179759603E+02 -0.17716486877E+02  0.44132726458E+02  0.00000000000E+00 0. -1.
</event>
<event>
 7    1  0.2404951E-015  0.9000773E+02  0.7816164E-02  0.1186339E+00
        -11   -1    0    0    0    0  0.00000000000E+00  0.00000000000E+00  0.45593999997E+02  0.45594000000E+02  0.51100000000E-03 0.  1.
         11   -1    0    0    0    0 -0.00000000000E+00 -0.00000000000E+00 -0.45593999997E+02  0.45594000000E+02  0.51100000000E-03 0. -1.
    9900012    2    1    2    0    0 -0.14124452436E+00  0.29280952261E+00  0.11346131149E+01  0.90007731237E+02  0.89999992489E+02 0.  0.
         12    1    1    2    0    0  0.14124452436E+00 -0.29280952261E+00 -0.11346131149E+01  0.11802687629E+01  0.00000000000E+00 0. -1.
         11    1    3    3    0    0  0.54575374838E+01  0.68463411640E+01  0.70204422194E+01  0.11222464611E+02  0.51100000000E-03 0. -1.
        -11    1    3    3    0    0 -0.67850452202E+01  0.35672419668E+02 -0.33639476220E+01  0.36467444488E+02  0.51100000000E-03 0.  1.
         12    1    3    3    0    0  0.11862632121E+01 -0.42225951309E+02 -0.25218814825E+01  0.42317822139E+02  0.00000000000E+00 0. -1.
</event>
<event>
 7    1  0.2404951E-015  0.9000778E+02  0.7816164E-02  0.1186339E+00
        -11   -1    0    0    0    0  0.00000000000E+00  0.00000000000E+00  0.45593999997E+02  0.45594000000E+02  0.51100000000E-03 0.  1.
         11   -1    0    0    0    0 -0.00000000000E+00 -0.00000000000E+00 -0.45593999997E+02  0.45594000000E+02  0.51100000000E-03 0. -1.
    9900012    2    1    2    0    0  0.23917535801E+00 -0.48845884437E+00  0.10474311399E+01  0.90007784389E+02  0.90000046343E+02 0.  0.
         12    1    1    2    0    0 -0.23917535801E+00  0.48845884437E+00 -0.10474311399E+01  0.11802156105E+01  0.00000000000E+00 0. -1.
         11    1    3    3    0    0 -0.28848863248E+01  0.97668913521E+01  0.80101074230E+01  0.12956718604E+02  0.51100000000E-03 0. -1.
        -11    1    3    3    0    0 -0.15913562707E+02 -0.12857797291E+02  0.29462103815E+02  0.35868927928E+02  0.51100000000E-03 0.  1.
         12    1    3    3    0    0  0.19037624390E+02  0.26024470946E+01 -0.36424780098E+02  0.41182137858E+02  0.00000000000E+00 0. -1.
</event>
<event>
 7    1  0.2404951E-015  0.9000774E+02  0.7816164E-02  0.1186339E+00
        -11   -1    0    0    0    0  0.00000000000E+00  0.00000000000E+00  0.45593999997E+02  0.45594000000E+02  0.51100000000E-03 0.  1.
         11   -1    0    0    0    0 -0.00000000000E+00 -0.00000000000E+00 -0.45593999997E+02  0.45594000000E+02  0.51100000000E-03 0. -1.
    9900012    2    1    2    0    0 -0.86703847286E+00  0.72083746851E+00  0.34878140258E+00  0.90007741199E+02  0.90000002583E+02 0.  0.
         12    1    1    2    0    0  0.86703847286E+00 -0.72083746851E+00 -0.34878140258E+00  0.11802588005E+01  0.00000000000E+00 0. -1.
         11    1    3    3    0    0 -0.23293059778E+02  0.27631423473E+02 -0.16929174146E+02  0.39908133688E+02  0.51100000000E-03 0. -1.
        -11    1    3    3    0    0  0.85977024031E+01  0.59586921820E+01 -0.31762753491E-01  0.10460760406E+02  0.51100000000E-03 0.  1.
        -12    1    3    3    0    0  0.13828318902E+02 -0.32869278186E+02  0.17309718302E+02  0.39638847105E+02  0.00000000000E+00 0.  1.
</event>
<event>
 7    1  0.2404951E-015  0.9000773E+02  0.7816164E-02  0.1186339E+00
        -11   -1    0    0    0    0  0.00000000000E+00  0.00000000000E+00  0.45593999997E+02  0.45594000000E+02  0.51100000000E-03 0. -1.
         11   -1    0    0    0    0 -0.00000000000E+00 -0.00000000000E+00 -0.45593999997E+02  0.45594000000E+02  0.51100000000E-03 0.  1.
    9900012    2    1    2    0    0 -0.47270818812E+00  0.36782298722E+00 -0.10169990678E+01  0.90007731435E+02  0.89999992690E+02 0.  0.
         12    1    1    2    0    0  0.47270818812E+00 -0.36782298722E+00  0.10169990678E+01  0.11802685648E+01  0.00000000000E+00 0. -1.
         11    1    3    3    0    0 -0.99061793111E+01 -0.18358299854E+01 -0.56518068524E+01  0.11551864838E+02  0.51100000000E-03 0. -1.
        -11    1    3    3    0    0 -0.26499352785E+02 -0.18492069750E+02 -0.11007432469E+02  0.34137016734E+02  0.51100000000E-03 0.  1.
         12    1    3    3    0    0  0.35932823908E+02  0.20695722723E+02  0.15642240253E+02  0.44318849863E+02  0.00000000000E+00 0. -1.
</event>
<event>
 8    1  0.2404951E-015  0.9000740E+02  0.7816164E-02  0.1186340E+00
        -11   -1    0    0    0    0  0.00000000000E+00  0.00000000000E+00  0.45593999997E+02  0.45594000000E+02  0.51100000000E-03 0.  1.
         11   -1    0    0    0    0 -0.00000000000E+00 -0.00000000000E+00 -0.45593999997E+02  0.45594000000E+02  0.51100000000E-03 0. -1.
    9900012    2    1    2    0    0 -0.12363564554E+00  0.93579871915E+00  0.70909362897E+00  0.90007398971E+02  0.89999655837E+02 0.  0.
         23    2    3    3    0    0 -0.12142777470E+02 -0.26336647332E+01 -0.25144920702E+02  0.61273605338E+02  0.54477559044E+02 0.  0.
         12    1    1    2    0    0  0.12363564554E+00 -0.93579871915E+00 -0.70909362897E+00  0.11806010292E+01  0.00000000000E+00 0. -1.
         11    1    4    4    0    0 -0.31673349610E+02  0.92450480553E+01 -0.15701751282E+02  0.36540620994E+02  0.51100000000E-03 0. -1.
        -11    1    4    4    0    0  0.19530572139E+02 -0.11878712788E+02 -0.94431694198E+01  0.24732984344E+02  0.51100000000E-03 0.  1.
        -12    1    3    3    0    0  0.12019141825E+02  0.35694634523E+01  0.25854014330E+02  0.28733793633E+02  0.00000000000E+00 0.  1.
</event>
<event>
 7    1  0.3763172E-015  0.9000755E+02  0.7816164E-02  0.1186339E+00
        -11   -1    0    0    0    0  0.00000000000E+00  0.00000000000E+00  0.45593999997E+02  0.45594000000E+02  0.51100000000E-03 0. -1.
         11   -1    0    0    0    0 -0.00000000000E+00 -0.00000000000E+00 -0.45593999997E+02  0.45594000000E+02  0.51100000000E-03 0.  1.
    9900012    2    1    2    0    0  0.27363136271E+00 -0.52453836110E+00 -0.10214940679E+01  0.90007548923E+02  0.89999807768E+02 0.  0.
         12    1    1    2    0    0 -0.27363136271E+00  0.52453836110E+00  0.10214940679E+01  0.11804510772E+01  0.00000000000E+00 0. -1.
         11    1    3    3    0    0 -0.16069928589E+02  0.21613774470E+02  0.25376660665E+02  0.37005036934E+02  0.51100000000E-03 0. -1.
        -11    1    3    3    0    0  0.64478678841E+01  0.55265442942E+01  0.51177912420E+01  0.99151136930E+01  0.51100000000E-03 0.  1.
        -12    1    3    3    0    0  0.98956920681E+01 -0.27664857125E+02 -0.31515945975E+02  0.43087398296E+02  0.00000000000E+00 0.  1.
</event>
<event>
 7    1  0.2404951E-015  0.9000761E+02  0.7816164E-02  0.1186339E+00
        -11   -1    0    0    0    0  0.00000000000E+00  0.00000000000E+00  0.45593999997E+02  0.45594000000E+02  0.51100000000E-03 0.  1.
         11   -1    0    0    0    0 -0.00000000000E+00 -0.00000000000E+00 -0.45593999997E+02  0.45594000000E+02  0.51100000000E-03 0. -1.
    9900012    2    1    2    0    0  0.39653720479E+00 -0.98837462629E+00  0.50911454069E+00  0.90007608636E+02  0.89999868270E+02 0.  0.
         12    1    1    2    0    0 -0.39653720479E+00  0.98837462629E+00 -0.50911454069E+00  0.11803913640E+01  0.00000000000E+00 0. -1.
         11    1    3    3    0    0 -0.20512075302E+02  0.30859615269E+01 -0.29025945151E+02  0.35675956665E+02  0.51100000000E-03 0. -1.
        -11    1    3    3    0    0 -0.43075822939E+01  0.35617793371E+01 -0.72063665577E+01  0.91199373073E+01  0.51100000000E-03 0.  1.
        -12    1    3    3    0    0  0.25216194801E+02 -0.76361154903E+01  0.36741426250E+02  0.45211714664E+02  0.00000000000E+00 0.  1.
</event>
<event>
 7    1  0.2404951E-015  0.9000768E+02  0.7816164E-02  0.1186339E+00
        -11   -1    0    0    0    0  0.00000000000E+00  0.00000000000E+00  0.45593999997E+02  0.45594000000E+02  0.51100000000E-03 0.  1.
         11   -1    0    0    0    0 -0.00000000000E+00 -0.00000000000E+00 -0.45593999997E+02  0.45594000000E+02  0.51100000000E-03 0. -1.
    9900012    2    1    2    0    0  0.35491550200E+00  0.70367859444E+00 -0.87864667867E+00  0.90007682855E+02  0.89999943468E+02 0.  0.
         12    1    1    2    0    0 -0.35491550200E+00 -0.70367859444E+00  0.87864667867E+00  0.11803171454E+01  0.00000000000E+00 0. -1.
         11    1    3    3    0    0  0.99140396218E+01 -0.22850385910E+02  0.39573571606E+01  0.25220804781E+02  0.51100000000E-03 0. -1.
        -11    1    3    3    0    0 -0.12140605689E+02 -0.18142520795E+02 -0.70824943617E+01  0.22950100086E+02  0.51100000000E-03 0.  1.
         12    1    3    3    0    0  0.25814815694E+01  0.41696585299E+02  0.22464905224E+01  0.41836777988E+02  0.00000000000E+00 0. -1.
</event>
<event>
 7    1  0.2404951E-015  0.9000772E+02  0.7816164E-02  0.1186339E+00
        -11   -1    0    0    0    0  0.00000000000E+00  0.00000000000E+00  0.45593999997E+02  0.45594000000E+02  0.51100000000E-03 0. -1.
         11   -1    0    0    0    0 -0.00000000000E+00 -0.00000000000E+00 -0.45593999997E+02  0.45594000000E+02  0.51100000000E-03 0.  1.
    9900012    2    1    2    0    0 -0.98459827499E+00 -0.25262786453E+00 -0.59984403751E+00  0.90007717207E+02  0.89999978275E+02 0.  0.
         12    1    1    2    0    0  0.98459827499E+00  0.25262786453E+00  0.59984403751E+00  0.11802827925E+01  0.00000000000E+00 0. -1.
         11    1    3    3    0    0  0.33380935751E+02  0.17377761328E+02  0.71420913795E+01  0.38305129290E+02  0.51100000000E-03 0. -1.
        -11    1    3    3    0    0  0.51500143437E+01 -0.93091133489E+01 -0.31683058793E+00  0.10643430883E+02  0.51100000000E-03 0.  1.
        -12    1    3    3    0    0 -0.39515548370E+02 -0.83212758433E+01 -0.74251048290E+01  0.41059157034E+02  0.00000000000E+00 0.  1.
</event>
<event>
 7    1  0.2404951E-015  0.9000781E+02  0.7816164E-02  0.1186339E+00
        -11   -1    0    0    0    0  0.00000000000E+00  0.00000000000E+00  0.45593999997E+02  0.45594000000E+02  0.51100000000E-03 0.  1.
         11   -1    0    0    0    0 -0.00000000000E+00 -0.00000000000E+00 -0.45593999997E+02  0.45594000000E+02  0.51100000000E-03 0. -1.
    9900012    2    1    2    0    0  0.17823203631E+00 -0.63722698067E+00  0.97725280656E+00  0.90007810214E+02  0.90000072509E+02 0.  0.
         12    1    1    2    0    0 -0.17823203631E+00  0.63722698067E+00 -0.97725280656E+00  0.11801897863E+01  0.00000000000E+00 0. -1.
         11    1    3    3    0    0 -0.26323951007E+02 -0.24515840037E+02 -0.66626623278E+01  0.36583710568E+02  0.51100000000E-03 0. -1.
        -11    1    3    3    0    0  0.69362843864E+00 -0.95230435181E+01 -0.27828302665E+01  0.99455328068E+01  0.51100000000E-03 0.  1.
        -12    1    3    3    0    0  0.25808554605E+02  0.33401656574E+02  0.10422745401E+02  0.43478566839E+02  0.00000000000E+00 0.  1.
</event>
<event>
 7    1  0.2404951E-015  0.9000786E+02  0.7816164E-02  0.1186339E+00
        -11   -1    0    0    0    0  0.00000000000E+00  0.00000000000E+00  0.45593999997E+02  0.45594000000E+02  0.51100000000E-03 0. -1.
         11   -1    0    0    0    0 -0.00000000000E+00 -0.00000000000E+00 -0.45593999997E+02  0.45594000000E+02  0.51100000000E-03 0.  1.
    9900012    2    1    2    0    0  0.33873284611E+00 -0.87194504219E+00 -0.71952209223E+00  0.90007855882E+02  0.90000118780E+02 0.  0.
         12    1    1    2    0    0 -0.33873284611E+00  0.87194504219E+00  0.71952209223E+00  0.11801441178E+01  0.00000000000E+00 0. -1.
         11    1    3    3    0    0 -0.50891855433E+01  0.66390342053E+01 -0.12381540259E+00  0.83661170915E+01  0.51100000000E-03 0. -1.
        -11    1    3    3    0    0 -0.31457137983E+02  0.18404577000E+02  0.18865348293E+01  0.36494369408E+02  0.51100000000E-03 0.  1.
         12    1    3    3    0    0  0.36885056372E+02 -0.25915556247E+02 -0.24822415190E+01  0.45147369382E+02  0.00000000000E+00 0. -1.
</event>
<event>
 7    1  0.2404951E-015  0.9000774E+02  0.7816164E-02  0.1186339E+00
        -11   -1    0    0    0    0  0.00000000000E+00  0.00000000000E+00  0.45593999997E+02  0.45594000000E+02  0.51100000000E-03 0. -1.
         11   -1    0    0    0    0 -0.00000000000E+00 -0.00000000000E+00 -0.45593999997E+02  0.45594000000E+02  0.51100000000E-03 0.  1.
    9900012    2    1    2    0    0  0.24391014833E+00  0.10310483267E+01 -0.52005012767E+00  0.90007743694E+02  0.90000005111E+02 0.  0.
         12    1    1    2    0    0 -0.24391014833E+00 -0.10310483267E+01  0.52005012767E+00  0.11802563059E+01  0.00000000000E+00 0. -1.
         11    1    3    3    0    0 -0.38212643326E+02  0.43422066045E+01  0.16092096417E+01  0.38492212512E+02  0.51100000000E-03 0. -1.
        -11    1    3    3    0    0 -0.76971961516E+00  0.23350513575E+01  0.98196893728E+01  0.10122807554E+02  0.51100000000E-03 0.  1.
        -12    1    3    3    0    0  0.39226273090E+02 -0.56462096353E+01 -0.11948949142E+02  0.41392723628E+02  0.00000000000E+00 0.  1.
</event>
<event>
 7    1  0.2404951E-015  0.9000769E+02  0.7816164E-02  0.1186339E+00
        -11   -1    0    0    0    0  0.00000000000E+00  0.00000000000E+00  0.45593999997E+02  0.45594000000E+02  0.51100000000E-03 0. -1.
         11   -1    0    0    0    0 -0.00000000000E+00 -0.00000000000E+00 -0.45593999997E+02  0.45594000000E+02  0.51100000000E-03 0.  1.
    9900012    2    1    2    0    0 -0.33147061046E+00  0.43005986190E-01 -0.11319986038E+01  0.90007685161E+02  0.89999945805E+02 0.  0.
         12    1    1    2    0    0  0.33147061046E+00 -0.43005986190E-01  0.11319986038E+01  0.11803148392E+01  0.00000000000E+00 0. -1.
         11    1    3    3    0    0 -0.99253982874E+01  0.25828307541E+01  0.25336151465E+01  0.10564267691E+02  0.51100000000E-03 0. -1.
        -11    1    3    3    0    0 -0.27892978391E+02 -0.22724372756E+02  0.39425299608E+01  0.36193354410E+02  0.51100000000E-03 0.  1.
         12    1    3    3    0    0  0.37486906068E+02  0.20184547988E+02 -0.76081437111E+01  0.43250063061E+02  0.00000000000E+00 0. -1.
</event>
<event>
 7    1  0.2404951E-015  0.9000777E+02  0.7816164E-02  0.1186339E+00
        -11   -1    0    0    0    0  0.00000000000E+00  0.00000000000E+00  0.45593999997E+02  0.45594000000E+02  0.51100000000E-03 0. -1.
         11   -1    0    0    0    0 -0.00000000000E+00 -0.00000000000E+00 -0.45593999997E+02  0.45594000000E+02  0.51100000000E-03 0.  1.
    9900012    2    1    2    0    0 -0.84987761782E+00  0.39269315531E+00  0.71864696605E+00  0.90007765557E+02  0.90000027262E+02 0.  0.
         12    1    1    2    0    0  0.84987761782E+00 -0.39269315531E+00 -0.71864696605E+00  0.11802344434E+01  0.00000000000E+00 0. -1.
         11    1    3    3    0    0  0.85740071651E+01  0.17379010087E+02  0.31820665914E+02  0.37257192191E+02  0.51100000000E-03 0. -1.
        -11    1    3    3    0    0 -0.11021110736E+02  0.37044159601E+01  0.37253036534E+01  0.12209236955E+02  0.51100000000E-03 0.  1.
        -12    1    3    3    0    0  0.15972259530E+01 -0.20690732892E+02 -0.34827322601E+02  0.40541336410E+02  0.00000000000E+00 0.  1.
</event>
<event>
 7    1  0.2404951E-015  0.9000782E+02  0.7816164E-02  0.1186339E+00
        -11   -1    0    0    0    0  0.00000000000E+00  0.00000000000E+00  0.45593999997E+02  0.45594000000E+02  0.51100000000E-03 0.  1.
         11   -1    0    0    0    0 -0.00000000000E+00 -0.00000000000E+00 -0.45593999997E+02  0.45594000000E+02  0.51100000000E-03 0. -1.
    9900012    2    1    2    0    0 -0.71562374874E+00 -0.92912673759E+00  0.13206993292E+00  0.90007815137E+02  0.90000077497E+02 0.  0.
         12    1    1    2    0    0  0.71562374874E+00  0.92912673759E+00 -0.13206993292E+00  0.11801848632E+01  0.00000000000E+00 0. -1.
         11    1    3    3    0    0 -0.27222102706E+02  0.17554394253E+02 -0.13463750647E+02  0.35078087392E+02  0.51100000000E-03 0. -1.
        -11    1    3    3    0    0 -0.92747852547E+01  0.38000625071E+01 -0.15424455622E+01  0.10141067752E+02  0.51100000000E-03 0.  1.
        -12    1    3    3    0    0  0.35781264212E+02 -0.22283583498E+02  0.15138266142E+02  0.44788659992E+02  0.00000000000E+00 0.  1.
</event>
<event>
 7    1  0.2404951E-015  0.9000772E+02  0.7816164E-02  0.1186339E+00
        -11   -1    0    0    0    0  0.00000000000E+00  0.00000000000E+00  0.45593999997E+02  0.45594000000E+02  0.51100000000E-03 0.  1.
         11   -1    0    0    0    0 -0.00000000000E+00 -0.00000000000E+00 -0.45593999997E+02  0.45594000000E+02  0.51100000000E-03 0. -1.
    9900012    2    1    2    0    0  0.35494764273E+00  0.10006186057E+01  0.51558942415E+00  0.90007721271E+02  0.89999982392E+02 0.  0.
         12    1    1    2    0    0 -0.35494764273E+00 -0.10006186057E+01 -0.51558942415E+00  0.11802787287E+01  0.00000000000E+00 0. -1.
         11    1    3    3    0    0 -0.13761705570E+01 -0.81470634533E+01  0.14368712046E+01  0.83864824232E+01  0.51100000000E-03 0. -1.
        -11    1    3    3    0    0 -0.32155414798E+02 -0.16782263202E+02 -0.10757411331E+02  0.37833014125E+02  0.51100000000E-03 0.  1.
         12    1    3    3    0    0  0.33886532997E+02  0.25929945261E+02  0.98361295504E+01  0.43788224723E+02  0.00000000000E+00 0. -1.
</event>
<event>
 7    1  0.2404951E-015  0.9000783E+02  0.7816164E-02  0.1186339E+00
        -11   -1    0    0    0    0  0.00000000000E+00  0.00000000000E+00  0.45593999997E+02  0.45594000000E+02  0.51100000000E-03 0.  1.
         11   -1    0    0    0    0 -0.00000000000E+00 -0.00000000000E+00 -0.45593999997E+02  0.45594000000E+02  0.51100000000E-03 0. -1.
    9900012    2    1    2    0    0  0.91512725274E+00 -0.66258421333E+00  0.34108185933E+00  0.90007825198E+02  0.90000087691E+02 0.  0.
         12    1    1    2    0    0 -0.91512725274E+00  0.66258421333E+00 -0.34108185933E+00  0.11801748020E+01  0.00000000000E+00 0. -1.
         11    1    3    3    0    0  0.71331326855E+01 -0.69609514632E+01  0.29642975777E+00  0.99711733534E+01  0.51100000000E-03 0. -1.
        -11    1    3    3    0    0 -0.27870586618E+01  0.42872506699E+02 -0.36437162905E+01  0.43117237798E+02  0.51100000000E-03 0.  1.
         12    1    3    3    0    0 -0.34309467709E+01 -0.36574139449E+02  0.36883683921E+01  0.36919414047E+02  0.00000000000E+00 0. -1.
</event>
<event>
 7    1  0.2404951E-015  0.9000775E+02  0.7816164E-02  0.1186339E+00
        -11   -1    0    0    0    0  0.00000000000E+00  0.00000000000E+00  0.45593999997E+02  0.45594000000E+02  0.51100000000E-03 0.  1.
         11   -1    0    0    0    0 -0.00000000000E+00 -0.00000000000E+00 -0.45593999997E+02  0.45594000000E+02  0.51100000000E-03 0. -1.
    9900012    2    1    2    0    0 -0.88914838958E+00  0.69328038337E+00  0.34895147110E+00  0.90007750163E+02  0.90000011665E+02 0.  0.
         12    1    1    2    0    0  0.88914838958E+00 -0.69328038337E+00 -0.34895147110E+00  0.11802498370E+01  0.00000000000E+00 0. -1.
         11    1    3    3    0    0  0.95146485057E+01  0.10141958784E+01  0.23144667895E+01  0.98444850677E+01  0.51100000000E-03 0. -1.
        -11    1    3    3    0    0  0.11855097099E+02 -0.15264299497E+02  0.31699781254E+02  0.37127056148E+02  0.51100000000E-03 0.  1.
         12    1    3    3    0    0 -0.22258893994E+02  0.14943384002E+02 -0.33665296573E+02  0.43036208948E+02  0.00000000000E+00 0. -1.
</event>
<event>
 7    1  0.2404951E-015  0.9000764E+02  0.7816164E-02  0.1186339E+00
        -11   -1    0    0    0    0  0.00000000000E+00  0.00000000000E+00  0.45593999997E+02  0.45594000000E+02  0.51100000000E-03 0. -1.
         11   -1    0    0    0    0 -0.00000000000E+00 -0.00000000000E+00 -0.45593999997E+02  0.45594000000E+02  0.51100000000E-03 0.  1.
    9900012    2    1    2    0    0  0.27905904493E+00  0.10438108596E+01 -0.47521253445E+00  0.90007643268E+02  0.89999903359E+02 0.  0.
         12    1    1    2    0    0 -0.27905904493E+00 -0.10438108596E+01  0.47521253445E+00  0.11803567317E+01  0.00000000000E+00 0. -1.
         11    1    3    3    0    0  0.58280985692E+01  0.30021412471E+00 -0.51950627602E+01  0.78131644547E+01  0.51100000000E-03 0. -1.
        -11    1    3    3    0    0 -0.51787004794E+01  0.14469841321E+02 -0.36042042730E+02  0.39181935773E+02  0.51100000000E-03 0.  1.
         12    1    3    3    0    0 -0.37033904487E+00 -0.13726244586E+02  0.40761892956E+02  0.43012543040E+02  0.00000000000E+00 0. -1.
</event>
<event>
 7    1  0.2404951E-015  0.9000788E+02  0.7816164E-02  0.1186339E+00
        -11   -1    0    0    0    0  0.00000000000E+00  0.00000000000E+00  0.45593999997E+02  0.45594000000E+02  0.51100000000E-03 0.  1.
         11   -1    0    0    0    0 -0.00000000000E+00 -0.00000000000E+00 -0.45593999997E+02  0.45594000000E+02  0.51100000000E-03 0. -1.
    9900012    2    1    2    0    0  0.84891446698E+00 -0.50819718367E-01  0.81820260574E+00  0.90007875464E+02  0.90000138620E+02 0.  0.
         12    1    1    2    0    0 -0.84891446698E+00  0.50819718367E-01 -0.81820260574E+00  0.11801245358E+01  0.00000000000E+00 0. -1.
         11    1    3    3    0    0 -0.40205105626E+02 -0.20649348687E+01 -0.10012718309E+00  0.40258222764E+02  0.51100000000E-03 0. -1.
        -11    1    3    3    0    0  0.16106923556E+01 -0.85722315032E+01  0.17766817891E+01  0.89013527763E+01  0.51100000000E-03 0.  1.
        -12    1    3    3    0    0  0.39443327738E+02  0.10586346653E+02 -0.85835200027E+00  0.40848299923E+02  0.00000000000E+00 0.  1.
</event>
<event>
 7    1  0.2404951E-015  0.9000772E+02  0.7816164E-02  0.1186339E+00
        -11   -1    0    0    0    0  0.00000000000E+00  0.00000000000E+00  0.45593999997E+02  0.45594000000E+02  0.51100000000E-03 0. -1.
         11   -1    0    0    0    0 -0.00000000000E+00 -0.00000000000E+00 -0.45593999997E+02  0.45594000000E+02  0.51100000000E-03 0.  1.
    9900012    2    1    2    0    0 -0.37938988721E-01  0.10284249690E+01 -0.57789448115E+00  0.90007720662E+02  0.89999981775E+02 0.  0.
         12    1    1    2    0    0  0.37938988721E-01 -0.10284249690E+01  0.57789448115E+00  0.11802793377E+01  0.00000000000E+00 0. -1.
         11    1    3    3    0    0  0.46917751700E+01  0.10274066712E+02 -0.32854854159E+01  0.11762806456E+02  0.51100000000E-03 0. -1.
        -11    1    3    3    0    0 -0.39399229440E+02 -0.57085807925E+01  0.13046905225E+02  0.41894019995E+02  0.51100000000E-03 0.  1.
         12    1    3    3    0    0  0.34669515281E+02 -0.35370609503E+01 -0.10339314291E+02  0.36350894212E+02  0.00000000000E+00 0. -1.
</event>
<event>
 7    1  0.2404951E-015  0.9000755E+02  0.7816164E-02  0.1186339E+00
        -11   -1    0    0    0    0  0.00000000000E+00  0.00000000000E+00  0.45593999997E+02  0.45594000000E+02  0.51100000000E-03 0.  1.
         11   -1    0    0    0    0 -0.00000000000E+00 -0.00000000000E+00 -0.45593999997E+02  0.45594000000E+02  0.51100000000E-03 0. -1.
    9900012    2    1    2    0    0 -0.27736349156E+00 -0.11160060713E+01 -0.26657598983E+00  0.90007549740E+02  0.89999808597E+02 0.  0.
         12    1    1    2    0    0  0.27736349156E+00  0.11160060713E+01  0.26657598983E+00  0.11804502598E+01  0.00000000000E+00 0. -1.
         11    1    3    3    0    0  0.28864719744E+02  0.58075610074E+01 -0.21923704399E+02  0.36708972004E+02  0.51100000000E-03 0. -1.
        -11    1    3    3    0    0  0.65867227124E+01  0.61366489351E+01 -0.94128583579E+00  0.90514858188E+01  0.51100000000E-03 0.  1.
        -12    1    3    3    0    0 -0.35728805948E+02 -0.13060216014E+02  0.22598414245E+02  0.44247091918E+02  0.00000000000E+00 0.  1.
</event>
<event>
 7    1  0.2404951E-015  0.9000771E+02  0.7816164E-02  0.1186339E+00
        -11   -1    0    0    0    0  0.00000000000E+00  0.00000000000E+00  0.45593999997E+02  0.45594000000E+02  0.51100000000E-03 0.  1.
         11   -1    0    0    0    0 -0.00000000000E+00 -0.00000000000E+00 -0.45593999997E+02  0.45594000000E+02  0.51100000000E-03 0. -1.
    9900012    2    1    2    0    0 -0.68010508429E+00  0.19789787555E+00  0.94412206851E+00  0.90007714876E+02  0.89999975912E+02 0.  0.
         12    1    1    2    0    0  0.68010508429E+00 -0.19789787555E+00 -0.94412206851E+00  0.11802851245E+01  0.00000000000E+00 0. -1.
         11    1    3    3    0    0 -0.30315392733E+02 -0.15218963468E+02 -0.10525572516E+02  0.35516581517E+02  0.51100000000E-03 0. -1.
        -11    1    3    3    0    0 -0.83723016731E+01  0.36330523853E+01 -0.61156917141E+01  0.10986181791E+02  0.51100000000E-03 0.  1.
        -12    1    3    3    0    0  0.38007589322E+02  0.11783808959E+02  0.17585386298E+02  0.43504951568E+02  0.00000000000E+00 0.  1.
</event>
<event>
 7    1  0.2404951E-015  0.9000774E+02  0.7816164E-02  0.1186339E+00
        -11   -1    0    0    0    0  0.00000000000E+00  0.00000000000E+00  0.45593999997E+02  0.45594000000E+02  0.51100000000E-03 0.  1.
         11   -1    0    0    0    0 -0.00000000000E+00 -0.00000000000E+00 -0.45593999997E+02  0.45594000000E+02  0.51100000000E-03 0. -1.
    9900012    2    1    2    0    0 -0.37197351140E+00 -0.11159906320E+01  0.95994061531E-01  0.90007739756E+02  0.90000001121E+02 0.  0.
         12    1    1    2    0    0  0.37197351140E+00  0.11159906320E+01 -0.95994061531E-01  0.11802602441E+01  0.00000000000E+00 0. -1.
         11    1    3    3    0    0  0.72863028025E+01 -0.58824349735E+01  0.21305858309E+01  0.96037829000E+01  0.51100000000E-03 0. -1.
        -11    1    3    3    0    0  0.32455871655E+02 -0.14845901164E+02 -0.21033237236E+01  0.35752039903E+02  0.51100000000E-03 0.  1.
         12    1    3    3    0    0 -0.40114147969E+02  0.19612345506E+02  0.68731954305E-01  0.44651916953E+02  0.00000000000E+00 0. -1.
</event>
<event>
 7    1  0.2404951E-015  0.9000764E+02  0.7816164E-02  0.1186339E+00
        -11   -1    0    0    0    0  0.00000000000E+00  0.00000000000E+00  0.45593999997E+02  0.45594000000E+02  0.51100000000E-03 0.  1.
         11   -1    0    0    0    0 -0.00000000000E+00 -0.00000000000E+00 -0.45593999997E+02  0.45594000000E+02  0.51100000000E-03 0. -1.
    9900012    2    1    2    0    0 -0.92772260568E+00  0.67774441949E+00 -0.27065183584E+00  0.90007636011E+02  0.89999896006E+02 0.  0.
         12    1    1    2    0    0  0.92772260568E+00 -0.67774441949E+00  0.27065183584E+00  0.11803639894E+01  0.00000000000E+00 0. -1.
         11    1    3    3    0    0  0.89053318471E+01 -0.30842655887E+02 -0.28968599477E+00  0.32103866990E+02  0.51100000000E-03 0.  1.
        -11    1    3    3    0    0  0.41044624936E+01 -0.11400533367E+02  0.35845401017E+01  0.12635968559E+02  0.51100000000E-03 0. -1.
        -12    1    3    3    0    0 -0.13937516946E+02  0.42920933674E+02 -0.35655059428E+01  0.45267800462E+02  0.00000000000E+00 0.  1.
</event>
<event>
 7    1  0.2404951E-015  0.9000783E+02  0.7816164E-02  0.1186339E+00
        -11   -1    0    0    0    0  0.00000000000E+00  0.00000000000E+00  0.45593999997E+02  0.45594000000E+02  0.51100000000E-03 0.  1.
         11   -1    0    0    0    0 -0.00000000000E+00 -0.00000000000E+00 -0.45593999997E+02  0.45594000000E+02  0.51100000000E-03 0. -1.
    9900012    2    1    2    0    0 -0.85410173942E+00  0.29104264429E+00  0.76066760114E+00  0.90007825944E+02  0.90000088447E+02 0.  0.
         12    1    1    2    0    0  0.85410173942E+00 -0.29104264429E+00 -0.76066760114E+00  0.11801740556E+01  0.00000000000E+00 0. -1.
         11    1    3    3    0    0  0.11723440725E+00  0.10145878095E+01  0.89684622583E+01  0.90264305165E+01  0.51100000000E-03 0. -1.
        -11    1    3    3    0    0  0.12271483585E+02 -0.49903410298E+01  0.34026544166E+02  0.36514360478E+02  0.51100000000E-03 0.  1.
         12    1    3    3    0    0 -0.13242819732E+02  0.42667958646E+01 -0.42234338823E+02  0.44467034950E+02  0.00000000000E+00 0. -1.
</event>
<event>
 7    1  0.2404951E-015  0.9000738E+02  0.7816164E-02  0.1186340E+00
        -11   -1    0    0    0    0  0.00000000000E+00  0.00000000000E+00  0.45593999997E+02  0.45594000000E+02  0.51100000000E-03 0.  1.
         11   -1    0    0    0    0 -0.00000000000E+00 -0.00000000000E+00 -0.45593999997E+02  0.45594000000E+02  0.51100000000E-03 0. -1.
    9900012    2    1    2    0    0 -0.11780980551E+00  0.15089878121E+00  0.11649962151E+01  0.90007379073E+02  0.89999635676E+02 0.  0.
         12    1    1    2    0    0  0.11780980551E+00 -0.15089878121E+00 -0.11649962151E+01  0.11806209271E+01  0.00000000000E+00 0. -1.
         11    1    3    3    0    0  0.18949489200E+02  0.32181538039E+01 -0.14254755756E+02  0.23929849911E+02  0.51100000000E-03 0. -1.
        -11    1    3    3    0    0  0.17194704897E+02  0.15787011328E+02  0.44918196134E+01  0.23771075845E+02  0.51100000000E-03 0.  1.
        -12    1    3    3    0    0 -0.36262003902E+02 -0.18854266351E+02  0.10927932358E+02  0.42306453316E+02  0.00000000000E+00 0.  1.
</event>
<event>
 7    1  0.2404951E-015  0.9000772E+02  0.7816164E-02  0.1186339E+00
        -11   -1    0    0    0    0  0.00000000000E+00  0.00000000000E+00  0.45593999997E+02  0.45594000000E+02  0.51100000000E-03 0. -1.
         11   -1    0    0    0    0 -0.00000000000E+00 -0.00000000000E+00 -0.45593999997E+02  0.45594000000E+02  0.51100000000E-03 0.  1.
    9900012    2    1    2    0    0 -0.54482900342E+00  0.90399735365E+00  0.52820671062E+00  0.90007723682E+02  0.89999984834E+02 0.  0.
         12    1    1    2    0    0  0.54482900342E+00 -0.90399735365E+00 -0.52820671062E+00  0.11802763183E+01  0.00000000000E+00 0. -1.
         11    1    3    3    0    0 -0.37892974591E+01  0.12549477565E+02  0.31681256937E+02  0.34286297609E+02  0.51100000000E-03 0. -1.
        -11    1    3    3    0    0 -0.44608638825E+01  0.26968808506E+01  0.10103271300E+02  0.11368753851E+02  0.51100000000E-03 0.  1.
        -12    1    3    3    0    0  0.77053323381E+01 -0.14342361062E+02 -0.41256321527E+02  0.44352672221E+02  0.00000000000E+00 0.  1.
</event>
<event>
 7    1  0.2404951E-015  0.9000774E+02  0.7816164E-02  0.1186339E+00
        -11   -1    0    0    0    0  0.00000000000E+00  0.00000000000E+00  0.45593999997E+02  0.45594000000E+02  0.51100000000E-03 0. -1.
         11   -1    0    0    0    0 -0.00000000000E+00 -0.00000000000E+00 -0.45593999997E+02  0.45594000000E+02  0.51100000000E-03 0.  1.
    9900012    2    1    2    0    0 -0.43445610073E+00  0.97888631636E+00 -0.49603856052E+00  0.90007735294E+02  0.89999996599E+02 0.  0.
         12    1    1    2    0    0  0.43445610073E+00 -0.97888631636E+00  0.49603856052E+00  0.11802647065E+01  0.00000000000E+00 0. -1.
         11    1    3    3    0    0  0.65125314497E+01 -0.30442121905E+01 -0.69748856972E+01  0.10016452690E+02  0.51100000000E-03 0. -1.
        -11    1    3    3    0    0  0.30871736810E+02  0.18818936592E+02  0.13850557452E+02  0.38717624541E+02  0.51100000000E-03 0.  1.
         12    1    3    3    0    0 -0.37818724360E+02 -0.14795838086E+02 -0.73717103155E+01  0.41273658062E+02  0.00000000000E+00 0. -1.
</event>
<event>
 7    1  0.2404951E-015  0.9000762E+02  0.7816164E-02  0.1186339E+00
        -11   -1    0    0    0    0  0.00000000000E+00  0.00000000000E+00  0.45593999997E+02  0.45594000000E+02  0.51100000000E-03 0. -1.
         11   -1    0    0    0    0 -0.00000000000E+00 -0.00000000000E+00 -0.45593999997E+02  0.45594000000E+02  0.51100000000E-03 0.  1.
    9900012    2    1    2    0    0  0.27155508988E+00 -0.14352488993E+00 -0.11397158211E+01  0.90007621369E+02  0.89999881170E+02 0.  0.
         12    1    1    2    0    0 -0.27155508988E+00  0.14352488993E+00  0.11397158211E+01  0.11803786315E+01  0.00000000000E+00 0. -1.
         11    1    3    3    0    0 -0.48931390134E+01  0.22189469683E+01 -0.88449659685E+01  0.10348910972E+02  0.51100000000E-03 0. -1.
        -11    1    3    3    0    0 -0.74498677704E+01 -0.15281436594E+02 -0.31891240645E+02  0.36139646710E+02  0.51100000000E-03 0.  1.
         12    1    3    3    0    0  0.12614561874E+02  0.12918964736E+02  0.39596490793E+02  0.43519063687E+02  0.00000000000E+00 0. -1.
</event>
<event>
 7    1  0.2404951E-015  0.9000775E+02  0.7816164E-02  0.1186339E+00
        -11   -1    0    0    0    0  0.00000000000E+00  0.00000000000E+00  0.45593999997E+02  0.45594000000E+02  0.51100000000E-03 0. -1.
         11   -1    0    0    0    0 -0.00000000000E+00 -0.00000000000E+00 -0.45593999997E+02  0.45594000000E+02  0.51100000000E-03 0.  1.
    9900012    2    1    2    0    0 -0.59272405847E+00  0.70165523853E+00 -0.74118098633E+00  0.90007749544E+02  0.90000011038E+02 0.  0.
         12    1    1    2    0    0  0.59272405847E+00 -0.70165523853E+00  0.74118098633E+00  0.11802504555E+01  0.00000000000E+00 0. -1.
         11    1    3    3    0    0 -0.13109736595E+01  0.53896243738E+01 -0.80102486057E+01  0.97432430850E+01  0.51100000000E-03 0. -1.
        -11    1    3    3    0    0  0.31148829305E+02 -0.10657704129E-01 -0.21722274859E+02  0.37975082699E+02  0.51100000000E-03 0.  1.
         12    1    3    3    0    0 -0.30430579704E+02 -0.46773114312E+01  0.28991342478E+02  0.42289423761E+02  0.00000000000E+00 0. -1.
</event>
<event>
 7    1  0.2404951E-015  0.9000780E+02  0.7816164E-02  0.1186339E+00
        -11   -1    0    0    0    0  0.00000000000E+00  0.00000000000E+00  0.45593999997E+02  0.45594000000E+02  0.51100000000E-03 0. -1.
         11   -1    0    0    0    0 -0.00000000000E+00 -0.00000000000E+00 -0.45593999997E+02  0.45594000000E+02  0.51100000000E-03 0.  1.
    9900012    2    1    2    0    0  0.37461859739E+00 -0.95416510480E+00 -0.58489540910E+00  0.90007799686E+02  0.90000061842E+02 0.  0.
         12    1    1    2    0    0 -0.37461859739E+00  0.95416510480E+00  0.58489540910E+00  0.11802003136E+01  0.00000000000E+00 0. -1.
         11    1    3    3    0    0  0.88462394388E+01  0.12305573083E+01 -0.70754313871E+01  0.11394382523E+02  0.51100000000E-03 0. -1.
        -11    1    3    3    0    0  0.17513464774E+02 -0.29178182149E+02 -0.12938443732E+02  0.36407294439E+02  0.51100000000E-03 0.  1.
         12    1    3    3    0    0 -0.25985085615E+02  0.26993459735E+02  0.19428979710E+02  0.42206122725E+02  0.00000000000E+00 0. -1.
</event>
<event>
 7    1  0.2404951E-015  0.9000743E+02  0.7816164E-02  0.1186340E+00
        -11   -1    0    0    0    0  0.00000000000E+00  0.00000000000E+00  0.45593999997E+02  0.45594000000E+02  0.51100000000E-03 0. -1.
         11   -1    0    0    0    0 -0.00000000000E+00 -0.00000000000E+00 -0.45593999997E+02  0.45594000000E+02  0.51100000000E-03 0.  1.
    9900012    2    1    2    0    0 -0.69334616976E-01 -0.81501020116E+00 -0.85129083390E+00  0.90007430222E+02  0.89999687500E+02 0.  0.
         12    1    1    2    0    0  0.69334616976E-01  0.81501020116E+00  0.85129083390E+00  0.11805697781E+01  0.00000000000E+00 0. -1.
         11    1    3    3    0    0  0.47869607695E+01 -0.17435983330E+01  0.74054515591E+01  0.89886507114E+01  0.51100000000E-03 0. -1.
        -11    1    3    3    0    0  0.33824468485E+02 -0.16827277951E+02 -0.71082440667E+01  0.38441892325E+02  0.51100000000E-03 0.  1.
         12    1    3    3    0    0 -0.38680763872E+02  0.17755866082E+02 -0.11484983263E+01  0.42576887186E+02  0.00000000000E+00 0. -1.
</event>
<event>
 7    1  0.2404951E-015  0.9000839E+02  0.7816164E-02  0.1186338E+00
        -11   -1    0    0    0    0  0.00000000000E+00  0.00000000000E+00  0.45593999997E+02  0.45594000000E+02  0.51100000000E-03 0.  1.
         11   -1    0    0    0    0 -0.00000000000E+00 -0.00000000000E+00 -0.45593999997E+02  0.45594000000E+02  0.51100000000E-03 0. -1.
    9900012    2    1    2    0    0  0.11562805984E+01 -0.23282012442E+00 -0.16889442093E-01  0.90008391893E+02  0.90000661864E+02 0.  0.
         12    1    1    2    0    0 -0.11562805984E+01  0.23282012442E+00  0.16889442093E-01  0.11796081069E+01  0.00000000000E+00 0. -1.
         11    1    3    3    0    0 -0.43408328388E+01 -0.86177135937E+01  0.54033499057E+01  0.11059114240E+02  0.51100000000E-03 0. -1.
        -11    1    3    3    0    0 -0.10182250336E+02  0.32715147852E+02  0.20641482745E+02  0.40000374136E+02  0.51100000000E-03 0.  1.
         12    1    3    3    0    0  0.15679363774E+02 -0.24330254382E+02 -0.26061722093E+02  0.38948903516E+02  0.00000000000E+00 0. -1.
</event>
<event>
 7    1  0.2404951E-015  0.9000783E+02  0.7816164E-02  0.1186339E+00
        -11   -1    0    0    0    0  0.00000000000E+00  0.00000000000E+00  0.45593999997E+02  0.45594000000E+02  0.51100000000E-03 0. -1.
         11   -1    0    0    0    0 -0.00000000000E+00 -0.00000000000E+00 -0.45593999997E+02  0.45594000000E+02  0.51100000000E-03 0.  1.
    9900012    2    1    2    0    0 -0.10590761480E+01  0.34070229080E+00 -0.39379361969E+00  0.90007833167E+02  0.90000095765E+02 0.  0.
         12    1    1    2    0    0  0.10590761480E+01 -0.34070229080E+00  0.39379361969E+00  0.11801668328E+01  0.00000000000E+00 0. -1.
         11    1    3    3    0    0  0.81698319417E+01  0.17804849488E+00 -0.54088595807E+00  0.81896528072E+01  0.51100000000E-03 0. -1.
        -11    1    3    3    0    0  0.31387768875E+01  0.23692322037E+02 -0.32104719875E+02  0.40023631549E+02  0.51100000000E-03 0.  1.
         12    1    3    3    0    0 -0.12367684977E+02 -0.23529668241E+02  0.32251812213E+02  0.41794548811E+02  0.00000000000E+00 0. -1.
</event>
<event>
 7    1  0.2404951E-015  0.9000770E+02  0.7816164E-02  0.1186339E+00
        -11   -1    0    0    0    0  0.00000000000E+00  0.00000000000E+00  0.45593999997E+02  0.45594000000E+02  0.51100000000E-03 0. -1.
         11   -1    0    0    0    0 -0.00000000000E+00 -0.00000000000E+00 -0.45593999997E+02  0.45594000000E+02  0.51100000000E-03 0.  1.
    9900012    2    1    2    0    0 -0.34470953273E+00  0.11246537080E+01  0.97123625829E-01  0.90007701892E+02  0.89999962757E+02 0.  0.
         12    1    1    2    0    0  0.34470953273E+00 -0.11246537080E+01 -0.97123625829E-01  0.11802981079E+01  0.00000000000E+00 0. -1.
         11    1    3    3    0    0 -0.50098498539E+01 -0.45764938844E+01  0.54267971710E+01  0.86886719140E+01  0.51100000000E-03 0. -1.
        -11    1    3    3    0    0  0.41049030014E+02  0.94852236326E+01  0.70178553998E+01  0.42711153428E+02  0.51100000000E-03 0.  1.
         12    1    3    3    0    0 -0.36383889693E+02 -0.37840760402E+01 -0.12347528945E+02  0.38607876550E+02  0.00000000000E+00 0. -1.
</event>
<event>
 7    1  0.2404951E-015  0.9000784E+02  0.7816164E-02  0.1186339E+00
        -11   -1    0    0    0    0  0.00000000000E+00  0.00000000000E+00  0.45593999997E+02  0.45594000000E+02  0.51100000000E-03 0.  1.
         11   -1    0    0    0    0 -0.00000000000E+00 -0.00000000000E+00 -0.45593999997E+02  0.45594000000E+02  0.51100000000E-03 0. -1.
    9900012    2    1    2    0    0  0.65535170436E+00 -0.11762421617E+00  0.97439846036E+00  0.90007841675E+02  0.90000104385E+02 0.  0.
         12    1    1    2    0    0 -0.65535170436E+00  0.11762421617E+00 -0.97439846036E+00  0.11801583251E+01  0.00000000000E+00 0. -1.
         11    1    3    3    0    0  0.36140437049E+02 -0.86426813675E+01 -0.32592209813E+01  0.37302140059E+02  0.51100000000E-03 0. -1.
        -11    1    3    3    0    0  0.43962607664E+01 -0.80781388327E+01  0.22111012128E+01  0.94589853875E+01  0.51100000000E-03 0.  1.
        -12    1    3    3    0    0 -0.39881346111E+02  0.16603195984E+02  0.20225182289E+01  0.43246716228E+02  0.00000000000E+00 0.  1.
</event>
<event>
 7    1  0.2404951E-015  0.9000776E+02  0.7816164E-02  0.1186339E+00
        -11   -1    0    0    0    0  0.00000000000E+00  0.00000000000E+00  0.45593999997E+02  0.45594000000E+02  0.51100000000E-03 0.  1.
         11   -1    0    0    0    0 -0.00000000000E+00 -0.00000000000E+00 -0.45593999997E+02  0.45594000000E+02  0.51100000000E-03 0. -1.
    9900012    2    1    2    0    0 -0.66770964673E+00 -0.57480154011E+00  0.78531696058E+00  0.90007764553E+02  0.90000026245E+02 0.  0.
         12    1    1    2    0    0  0.66770964673E+00  0.57480154011E+00 -0.78531696058E+00  0.11802354474E+01  0.00000000000E+00 0. -1.
         11    1    3    3    0    0 -0.30818914945E+01 -0.97905987485E+01  0.47312729582E+01  0.11302160108E+02  0.51100000000E-03 0. -1.
        -11    1    3    3    0    0 -0.25969719291E+02 -0.31650141129E+01  0.25095057723E+02  0.36251973143E+02  0.51100000000E-03 0.  1.
         12    1    3    3    0    0  0.28383901138E+02  0.12380811321E+02 -0.29041013720E+02  0.42453631302E+02  0.00000000000E+00 0. -1.
</event>
<event>
 7    1  0.2404951E-015  0.9000773E+02  0.7816164E-02  0.1186339E+00
        -11   -1    0    0    0    0  0.00000000000E+00  0.00000000000E+00  0.45593999997E+02  0.45594000000E+02  0.51100000000E-03 0.  1.
         11   -1    0    0    0    0 -0.00000000000E+00 -0.00000000000E+00 -0.45593999997E+02  0.45594000000E+02  0.51100000000E-03 0. -1.
    9900012    2    1    2    0    0 -0.72196888124E+00  0.30528579322E+00  0.88238661404E+00  0.90007726889E+02  0.89999988083E+02 0.  0.
         12    1    1    2    0    0  0.72196888124E+00 -0.30528579322E+00 -0.88238661404E+00  0.11802731115E+01  0.00000000000E+00 0. -1.
         11    1    3    3    0    0 -0.21756087804E+02  0.30152522323E+02 -0.17427894671E+02  0.41063773230E+02  0.51100000000E-03 0. -1.
        -11    1    3    3    0    0 -0.25454004147E+01  0.17477950183E+00  0.94040378958E+01  0.97440002130E+01  0.51100000000E-03 0.  1.
        -12    1    3    3    0    0  0.23579519338E+02 -0.30022016031E+02  0.89062433895E+01  0.39199953445E+02  0.00000000000E+00 0.  1.
</event>
<event>
 7    1  0.2404951E-015  0.9000776E+02  0.7816164E-02  0.1186339E+00
        -11   -1    0    0    0    0  0.00000000000E+00  0.00000000000E+00  0.45593999997E+02  0.45594000000E+02  0.51100000000E-03 0. -1.
         11   -1    0    0    0    0 -0.00000000000E+00 -0.00000000000E+00 -0.45593999997E+02  0.45594000000E+02  0.51100000000E-03 0.  1.
    9900012    2    1    2    0    0  0.13293099402E+00 -0.11409445308E+01 -0.27120156990E+00  0.90007756227E+02  0.90000017809E+02 0.  0.
         12    1    1    2    0    0 -0.13293099402E+00  0.11409445308E+01  0.27120156990E+00  0.11802437728E+01  0.00000000000E+00 0. -1.
         11    1    3    3    0    0 -0.69942329716E+01 -0.19937415011E+01 -0.62381355776E+01  0.95816823043E+01  0.51100000000E-03 0. -1.
        -11    1    3    3    0    0 -0.10154388005E+02  0.52213161065E+01  0.40221697980E+02  0.41810988105E+02  0.51100000000E-03 0.  1.
         12    1    3    3    0    0  0.17281551970E+02 -0.43685191362E+01 -0.34254763972E+02  0.38615085818E+02  0.00000000000E+00 0. -1.
</event>
<event>
 7    1  0.2404951E-015  0.9000784E+02  0.7816164E-02  0.1186339E+00
        -11   -1    0    0    0    0  0.00000000000E+00  0.00000000000E+00  0.45593999997E+02  0.45594000000E+02  0.51100000000E-03 0. -1.
         11   -1    0    0    0    0 -0.00000000000E+00 -0.00000000000E+00 -0.45593999997E+02  0.45594000000E+02  0.51100000000E-03 0.  1.
    9900012    2    1    2    0    0 -0.32171323530E+00  0.94044565791E+00 -0.63627192114E+00  0.90007839249E+02  0.90000101927E+02 0.  0.
         12    1    1    2    0    0  0.32171323530E+00 -0.94044565791E+00  0.63627192114E+00  0.11801607513E+01  0.00000000000E+00 0. -1.
         11    1    3    3    0    0  0.57491834834E+01 -0.58473777062E+01 -0.72156304043E+01  0.10922923563E+02  0.51100000000E-03 0. -1.
        -11    1    3    3    0    0 -0.31890259098E+02  0.33293182255E+01 -0.23157385054E+02  0.39551706258E+02  0.51100000000E-03 0.  1.
         12    1    3    3    0    0  0.25819362379E+02  0.34585051386E+01  0.29736743537E+02  0.39533209427E+02  0.00000000000E+00 0. -1.
</event>
<event>
 7    1  0.2404951E-015  0.9000774E+02  0.7816164E-02  0.1186339E+00
        -11   -1    0    0    0    0  0.00000000000E+00  0.00000000000E+00  0.45593999997E+02  0.45594000000E+02  0.51100000000E-03 0.  1.
         11   -1    0    0    0    0 -0.00000000000E+00 -0.00000000000E+00 -0.45593999997E+02  0.45594000000E+02  0.51100000000E-03 0. -1.
    9900012    2    1    2    0    0 -0.93637262853E+00 -0.69472272950E+00 -0.18322256878E+00  0.90007744146E+02  0.90000005569E+02 0.  0.
         12    1    1    2    0    0  0.93637262853E+00  0.69472272950E+00  0.18322256878E+00  0.11802558536E+01  0.00000000000E+00 0. -1.
         11    1    3    3    0    0  0.37658377163E+01 -0.26595546030E+02  0.17622375010E+02  0.32125577094E+02  0.51100000000E-03 0. -1.
        -11    1    3    3    0    0  0.48424617051E+01 -0.12968776477E+02  0.53954882743E+00  0.13853869924E+02  0.51100000000E-03 0.  1.
        -12    1    3    3    0    0 -0.95446720499E+01  0.38869599777E+02 -0.18345146406E+02  0.44028297129E+02  0.00000000000E+00 0.  1.
</event>
<event>
 7    1  0.2404951E-015  0.9000764E+02  0.7816164E-02  0.1186339E+00
        -11   -1    0    0    0    0  0.00000000000E+00  0.00000000000E+00  0.45593999997E+02  0.45594000000E+02  0.51100000000E-03 0.  1.
         11   -1    0    0    0    0 -0.00000000000E+00 -0.00000000000E+00 -0.45593999997E+02  0.45594000000E+02  0.51100000000E-03 0. -1.
    9900012    2    1    2    0    0 -0.16080366684E+00  0.10979606384E+01 -0.40235009856E+00  0.90007635232E+02  0.89999895217E+02 0.  0.
         12    1    1    2    0    0  0.16080366684E+00 -0.10979606384E+01  0.40235009856E+00  0.11803647676E+01  0.00000000000E+00 0. -1.
         11    1    3    3    0    0  0.96718364333E+01  0.72117258511E+01 -0.72989604438E+01  0.14100646566E+02  0.51100000000E-03 0. -1.
        -11    1    3    3    0    0 -0.21132028499E+02  0.30499038824E+02  0.59490512736E+01  0.37578520581E+02  0.51100000000E-03 0.  1.
         12    1    3    3    0    0  0.11299388399E+02 -0.36612804037E+02  0.94755907171E+00  0.38328468086E+02  0.00000000000E+00 0. -1.
</event>
<event>
 7    1  0.2404951E-015  0.9000766E+02  0.7816164E-02  0.1186339E+00
        -11   -1    0    0    0    0  0.00000000000E+00  0.00000000000E+00  0.45593999997E+02  0.45594000000E+02  0.51100000000E-03 0. -1.
         11   -1    0    0    0    0 -0.00000000000E+00 -0.00000000000E+00 -0.45593999997E+02  0.45594000000E+02  0.51100000000E-03 0.  1.
    9900012    2    1    2    0    0 -0.76893935126E+00 -0.50486475623E+00 -0.73963089948E+00  0.90007656823E+02  0.89999917093E+02 0.  0.
         12    1    1    2    0    0  0.76893935126E+00  0.50486475623E+00  0.73963089948E+00  0.11803431770E+01  0.00000000000E+00 0. -1.
         11    1    3    3    0    0 -0.28599398534E+01  0.29237406226E+01  0.95240477611E+01  0.10365085683E+02  0.51100000000E-03 0. -1.
        -11    1    3    3    0    0  0.73662922485E+01 -0.37845382957E+02  0.93588840465E+01  0.39675231361E+02  0.51100000000E-03 0.  1.
         12    1    3    3    0    0 -0.52752917463E+01  0.34416777578E+02 -0.19622562707E+02  0.39967339780E+02  0.00000000000E+00 0. -1.
</event>
<event>
 7    1  0.2404951E-015  0.9000763E+02  0.7816164E-02  0.1186339E+00
        -11   -1    0    0    0    0  0.00000000000E+00  0.00000000000E+00  0.45593999997E+02  0.45594000000E+02  0.51100000000E-03 0.  1.
         11   -1    0    0    0    0 -0.00000000000E+00 -0.00000000000E+00 -0.45593999997E+02  0.45594000000E+02  0.51100000000E-03 0. -1.
    9900012    2    1    2    0    0  0.36908915782E+00  0.68598234317E+00  0.88683113688E+00  0.90007632241E+02  0.89999892186E+02 0.  0.
         12    1    1    2    0    0 -0.36908915782E+00 -0.68598234317E+00 -0.88683113688E+00  0.11803677592E+01  0.00000000000E+00 0. -1.
         11    1    3    3    0    0  0.38159553923E+02  0.96181261400E+01 -0.64852105593E+01  0.39883804512E+02  0.51100000000E-03 0. -1.
        -11    1    3    3    0    0  0.46156199175E+01  0.30226416046E+01  0.97876647866E+00  0.56034180259E+01  0.51100000000E-03 0.  1.
        -12    1    3    3    0    0 -0.42406084683E+02 -0.11954785401E+02  0.63932752175E+01  0.44520409703E+02  0.00000000000E+00 0.  1.
</event>
<event>
 7    1  0.2404951E-015  0.9000775E+02  0.7816164E-02  0.1186339E+00
        -11   -1    0    0    0    0  0.00000000000E+00  0.00000000000E+00  0.45593999997E+02  0.45594000000E+02  0.51100000000E-03 0. -1.
         11   -1    0    0    0    0 -0.00000000000E+00 -0.00000000000E+00 -0.45593999997E+02  0.45594000000E+02  0.51100000000E-03 0.  1.
    9900012    2    1    2    0    0  0.11623635900E+01 -0.33971861287E-01 -0.20185872760E+00  0.90007749964E+02  0.90000011463E+02 0.  0.
         12    1    1    2    0    0 -0.11623635900E+01  0.33971861287E-01  0.20185872760E+00  0.11802500365E+01  0.00000000000E+00 0. -1.
         11    1    3    3    0    0 -0.26306012667E+02  0.29527902890E+00  0.25220740556E+02  0.36444193592E+02  0.51100000000E-03 0. -1.
        -11    1    3    3    0    0  0.49094377624E+01 -0.70497314700E+01  0.86236950773E+01  0.12172485777E+02  0.51100000000E-03 0.  1.
        -12    1    3    3    0    0  0.22558938494E+02  0.67204805798E+01 -0.34046294361E+02  0.41391070594E+02  0.00000000000E+00 0.  1.
</event>
<event>
 7    1  0.2404951E-015  0.9000780E+02  0.7816164E-02  0.1186339E+00
        -11   -1    0    0    0    0  0.00000000000E+00  0.00000000000E+00  0.45593999997E+02  0.45594000000E+02  0.51100000000E-03 0.  1.
         11   -1    0    0    0    0 -0.00000000000E+00 -0.00000000000E+00 -0.45593999997E+02  0.45594000000E+02  0.51100000000E-03 0. -1.
    9900012    2    1    2    0    0  0.60187128744E+00  0.33672778612E+00  0.95772928651E+00  0.90007796613E+02  0.90000058728E+02 0.  0.
         12    1    1    2    0    0 -0.60187128744E+00 -0.33672778612E+00 -0.95772928651E+00  0.11802033871E+01  0.00000000000E+00 0. -1.
         11    1    3    3    0    0  0.55335299675E+01 -0.13859570365E+02  0.18167593489E+02  0.23511042045E+02  0.51100000000E-03 0. -1.
        -11    1    3    3    0    0 -0.22961602466E+00 -0.11688931030E+02  0.18655800597E+02  0.22016419516E+02  0.51100000000E-03 0.  1.
         12    1    3    3    0    0 -0.47020426554E+01  0.25885229181E+02 -0.35865664799E+02  0.44480335052E+02  0.00000000000E+00 0. -1.
</event>
<event>
 7    1  0.2404951E-015  0.9000772E+02  0.7816164E-02  0.1186339E+00
        -11   -1    0    0    0    0  0.00000000000E+00  0.00000000000E+00  0.45593999997E+02  0.45594000000E+02  0.51100000000E-03 0. -1.
         11   -1    0    0    0    0 -0.00000000000E+00 -0.00000000000E+00 -0.45593999997E+02  0.45594000000E+02  0.51100000000E-03 0.  1.
    9900012    2    1    2    0    0  0.10752665354E+01 -0.48024151825E+00 -0.78863797173E-01  0.90007724805E+02  0.89999985972E+02 0.  0.
         12    1    1    2    0    0 -0.10752665354E+01  0.48024151825E+00  0.78863797173E-01  0.11802751953E+01  0.00000000000E+00 0. -1.
         11    1    3    3    0    0 -0.29676034615E+01 -0.29668222575E+01 -0.83543894892E+01  0.93490389137E+01  0.51100000000E-03 0. -1.
        -11    1    3    3    0    0  0.30275716336E+02  0.19700937337E+02 -0.17420648072E+02  0.40102679600E+02  0.51100000000E-03 0.  1.
         12    1    3    3    0    0 -0.26232846339E+02 -0.17214356597E+02  0.25696173764E+02  0.40556006291E+02  0.00000000000E+00 0. -1.
</event>
<event>
 7    1  0.2940976E-015  0.9000770E+02  0.7816164E-02  0.1186339E+00
        -11   -1    0    0    0    0  0.00000000000E+00  0.00000000000E+00  0.45593999997E+02  0.45594000000E+02  0.51100000000E-03 0. -1.
         11   -1    0    0    0    0 -0.00000000000E+00 -0.00000000000E+00 -0.45593999997E+02  0.45594000000E+02  0.51100000000E-03 0.  1.
    9900012    2    1    2    0    0  0.78030487869E+00  0.73240140980E+00 -0.49781566195E+00  0.90007700054E+02  0.89999960895E+02 0.  0.
         12    1    1    2    0    0 -0.78030487869E+00 -0.73240140980E+00  0.49781566195E+00  0.11802999458E+01  0.00000000000E+00 0. -1.
         11    1    3    3    0    0  0.94539136425E+01 -0.36741524420E+02 -0.94714989197E+01  0.39102754275E+02  0.51100000000E-03 0. -1.
        -11    1    3    3    0    0 -0.89980568559E+01 -0.27840779109E+01 -0.87200264047E+00  0.94592021789E+01  0.51100000000E-03 0.  1.
        -12    1    3    3    0    0  0.32444809211E+00  0.40258003741E+02  0.98456858982E+01  0.41445743600E+02  0.00000000000E+00 0.  1.
</event>
<event>
 7    1  0.2404951E-015  0.9000776E+02  0.7816164E-02  0.1186339E+00
        -11   -1    0    0    0    0  0.00000000000E+00  0.00000000000E+00  0.45593999997E+02  0.45594000000E+02  0.51100000000E-03 0. -1.
         11   -1    0    0    0    0 -0.00000000000E+00 -0.00000000000E+00 -0.45593999997E+02  0.45594000000E+02  0.51100000000E-03 0.  1.
    9900012    2    1    2    0    0 -0.79629432829E+00 -0.38109185298E-01 -0.87030717645E+00  0.90007757843E+02  0.90000019447E+02 0.  0.
         12    1    1    2    0    0  0.79629432829E+00  0.38109185298E-01  0.87030717645E+00  0.11802421568E+01  0.00000000000E+00 0. -1.
         11    1    3    3    0    0 -0.52025354613E+01  0.30697076336E+02 -0.22971510509E+02  0.38691952214E+02  0.51100000000E-03 0. -1.
        -11    1    3    3    0    0  0.57518592947E+01 -0.37847533715E+01 -0.82223359639E+01  0.10724507093E+02  0.51100000000E-03 0.  1.
        -12    1    3    3    0    0 -0.13456181616E+01 -0.26950432150E+02  0.30323539297E+02  0.40591298536E+02  0.00000000000E+00 0.  1.
</event>
<event>
 7    1  0.2404951E-015  0.9000774E+02  0.7816164E-02  0.1186339E+00
        -11   -1    0    0    0    0  0.00000000000E+00  0.00000000000E+00  0.45593999997E+02  0.45594000000E+02  0.51100000000E-03 0.  1.
         11   -1    0    0    0    0 -0.00000000000E+00 -0.00000000000E+00 -0.45593999997E+02  0.45594000000E+02  0.51100000000E-03 0. -1.
    9900012    2    1    2    0    0 -0.63003942162E-02  0.10153063120E+01  0.60176630830E+00  0.90007741854E+02  0.90000003246E+02 0.  0.
         12    1    1    2    0    0  0.63003942162E-02 -0.10153063120E+01 -0.60176630830E+00  0.11802581463E+01  0.00000000000E+00 0. -1.
         11    1    3    3    0    0  0.87403074014E+01 -0.43215252310E+01 -0.46312724169E+01  0.10794315090E+02  0.51100000000E-03 0. -1.
        -11    1    3    3    0    0  0.17398868387E+02  0.71285695789E+01  0.34891582532E+02  0.39635333445E+02  0.51100000000E-03 0.  1.
         12    1    3    3    0    0 -0.26145476183E+02 -0.17917380359E+01 -0.29658543807E+02  0.39578093319E+02  0.00000000000E+00 0. -1.
</event>
<event>
 7    1  0.2404951E-015  0.9000770E+02  0.7816164E-02  0.1186339E+00
        -11   -1    0    0    0    0  0.00000000000E+00  0.00000000000E+00  0.45593999997E+02  0.45594000000E+02  0.51100000000E-03 0.  1.
         11   -1    0    0    0    0 -0.00000000000E+00 -0.00000000000E+00 -0.45593999997E+02  0.45594000000E+02  0.51100000000E-03 0. -1.
    9900012    2    1    2    0    0 -0.70568869460E+00 -0.36407892991E+00  0.87324426499E+00  0.90007701077E+02  0.89999961931E+02 0.  0.
         12    1    1    2    0    0  0.70568869460E+00  0.36407892991E+00 -0.87324426499E+00  0.11802989228E+01  0.00000000000E+00 0. -1.
         11    1    3    3    0    0  0.13947048662E+02  0.17076725091E+02 -0.28434830669E+02  0.35981582811E+02  0.51100000000E-03 0. -1.
        -11    1    3    3    0    0  0.18673744685E+01  0.73999136550E+01 -0.45618432176E+01  0.88913566631E+01  0.51100000000E-03 0.  1.
        -12    1    3    3    0    0 -0.16520111825E+02 -0.24840717676E+02  0.33869918151E+02  0.45134761603E+02  0.00000000000E+00 0.  1.
</event>
<event>
 7    1  0.2404951E-015  0.9000770E+02  0.7816164E-02  0.1186339E+00
        -11   -1    0    0    0    0  0.00000000000E+00  0.00000000000E+00  0.45593999997E+02  0.45594000000E+02  0.51100000000E-03 0.  1.
         11   -1    0    0    0    0 -0.00000000000E+00 -0.00000000000E+00 -0.45593999997E+02  0.45594000000E+02  0.51100000000E-03 0. -1.
    9900012    2    1    2    0    0 -0.22976899917E+00 -0.71133503527E+00  0.91340445689E+00  0.90007703839E+02  0.89999964730E+02 0.  0.
         12    1    1    2    0    0  0.22976899917E+00  0.71133503527E+00 -0.91340445689E+00  0.11802961608E+01  0.00000000000E+00 0. -1.
         11    1    3    3    0    0 -0.62978206963E+00 -0.20108843743E+01 -0.75496180806E+01  0.78381767552E+01  0.51100000000E-03 0. -1.
        -11    1    3    3    0    0 -0.69350536800E+00 -0.77691366781E+01  0.44405069387E+02  0.45084926771E+02  0.51100000000E-03 0.  1.
         12    1    3    3    0    0  0.10935184385E+01  0.90686860171E+01 -0.35942046849E+02  0.37084600313E+02  0.00000000000E+00 0. -1.
</event>
<event>
 7    1  0.2404951E-015  0.9000767E+02  0.7816164E-02  0.1186339E+00
        -11   -1    0    0    0    0  0.00000000000E+00  0.00000000000E+00  0.45593999997E+02  0.45594000000E+02  0.51100000000E-03 0. -1.
         11   -1    0    0    0    0 -0.00000000000E+00 -0.00000000000E+00 -0.45593999997E+02  0.45594000000E+02  0.51100000000E-03 0.  1.
    9900012    2    1    2    0    0 -0.53134946035E+00 -0.88155858776E+00 -0.57767514655E+00  0.90007666840E+02  0.89999927243E+02 0.  0.
         12    1    1    2    0    0  0.53134946035E+00  0.88155858776E+00  0.57767514655E+00  0.11803331596E+01  0.00000000000E+00 0. -1.
         11    1    3    3    0    0 -0.39280049634E+02 -0.45697718262E+01  0.10905162615E+02  0.41021063927E+02  0.51100000000E-03 0. -1.
        -11    1    3    3    0    0  0.12126186343E+01 -0.75232758768E+01 -0.54065438229E+01  0.93434918656E+01  0.51100000000E-03 0.  1.
        -12    1    3    3    0    0  0.37536081539E+02  0.11211489115E+02 -0.60762939388E+01  0.39643111048E+02  0.00000000000E+00 0.  1.
</event>
<event>
 7    1  0.2404951E-015  0.9000772E+02  0.7816164E-02  0.1186339E+00
        -11   -1    0    0    0    0  0.00000000000E+00  0.00000000000E+00  0.45593999997E+02  0.45594000000E+02  0.51100000000E-03 0. -1.
         11   -1    0    0    0    0 -0.00000000000E+00 -0.00000000000E+00 -0.45593999997E+02  0.45594000000E+02  0.51100000000E-03 0.  1.
    9900012    2    1    2    0    0  0.27591329765E+00 -0.10652632295E+01 -0.42679219659E+00  0.90007718053E+02  0.89999979131E+02 0.  0.
         12    1    1    2    0    0 -0.27591329765E+00  0.10652632295E+01  0.42679219659E+00  0.11802819473E+01  0.00000000000E+00 0. -1.
         11    1    3    3    0    0  0.68538211213E+01  0.39629825468E+01 -0.40487011413E+01  0.88922480746E+01  0.51100000000E-03 0. -1.
        -11    1    3    3    0    0 -0.31114337810E+02 -0.77730378633E+01 -0.26899589738E+02  0.41858213809E+02  0.51100000000E-03 0.  1.
         12    1    3    3    0    0  0.24536429986E+02  0.27447920870E+01  0.30521498683E+02  0.39257256169E+02  0.00000000000E+00 0. -1.
</event>
<event>
 7    1  0.2404951E-015  0.9000773E+02  0.7816164E-02  0.1186339E+00
        -11   -1    0    0    0    0  0.00000000000E+00  0.00000000000E+00  0.45593999997E+02  0.45594000000E+02  0.51100000000E-03 0.  1.
         11   -1    0    0    0    0 -0.00000000000E+00 -0.00000000000E+00 -0.45593999997E+02  0.45594000000E+02  0.51100000000E-03 0. -1.
    9900012    2    1    2    0    0  0.75123053740E+00 -0.48926627184E+00  0.76766134175E+00  0.90007731920E+02  0.89999993181E+02 0.  0.
         12    1    1    2    0    0 -0.75123053740E+00  0.48926627184E+00 -0.76766134175E+00  0.11802680800E+01  0.00000000000E+00 0. -1.
         11    1    3    3    0    0 -0.38466136014E+02  0.33848153666E+01  0.46479979506E+01  0.38893501772E+02  0.51100000000E-03 0. -1.
        -11    1    3    3    0    0 -0.78758559467E+00 -0.10259443440E+02 -0.24518188066E+01  0.10577707053E+02  0.51100000000E-03 0.  1.
        -12    1    3    3    0    0  0.40004952146E+02  0.63853618018E+01 -0.14285178022E+01  0.40536523095E+02  0.00000000000E+00 0.  1.
</event>
<event>
 7    1  0.2404951E-015  0.9000769E+02  0.7816164E-02  0.1186339E+00
        -11   -1    0    0    0    0  0.00000000000E+00  0.00000000000E+00  0.45593999997E+02  0.45594000000E+02  0.51100000000E-03 0.  1.
         11   -1    0    0    0    0 -0.00000000000E+00 -0.00000000000E+00 -0.45593999997E+02  0.45594000000E+02  0.51100000000E-03 0. -1.
    9900012    2    1    2    0    0 -0.78682829432E-01  0.38947261242E-01  0.11770426485E+01  0.90007687637E+02  0.89999948314E+02 0.  0.
         12    1    1    2    0    0  0.78682829432E-01 -0.38947261242E-01 -0.11770426485E+01  0.11803123626E+01  0.00000000000E+00 0. -1.
         11    1    3    3    0    0  0.26529703338E+02  0.65783343560E+01 -0.29433942878E+02  0.40167855752E+02  0.51100000000E-03 0. -1.
        -11    1    3    3    0    0 -0.44742068170E+00 -0.87600985404E+01 -0.90778587371E+00  0.88183664677E+01  0.51100000000E-03 0.  1.
        -12    1    3    3    0    0 -0.26160965486E+02  0.22207114456E+01  0.31518771400E+02  0.41021465418E+02  0.00000000000E+00 0.  1.
</event>
<event>
 7    1  0.2404951E-015  0.9000781E+02  0.7816164E-02  0.1186339E+00
        -11   -1    0    0    0    0  0.00000000000E+00  0.00000000000E+00  0.45593999997E+02  0.45594000000E+02  0.51100000000E-03 0.  1.
         11   -1    0    0    0    0 -0.00000000000E+00 -0.00000000000E+00 -0.45593999997E+02  0.45594000000E+02  0.51100000000E-03 0. -1.
    9900012    2    1    2    0    0 -0.32061554233E+00  0.58298957262E+00  0.97477284072E+00  0.90007807957E+02  0.90000070222E+02 0.  0.
         12    1    1    2    0    0  0.32061554233E+00 -0.58298957262E+00 -0.97477284072E+00  0.11801920432E+01  0.00000000000E+00 0. -1.
         11    1    3    3    0    0  0.44921959889E+01 -0.73576891191E+01  0.50518193769E+01  0.99918113099E+01  0.51100000000E-03 0. -1.
        -11    1    3    3    0    0 -0.10714838018E+02  0.49242716593E+01  0.36780339297E+02  0.38624468465E+02  0.51100000000E-03 0.  1.
         12    1    3    3    0    0  0.59020264871E+01  0.30164070324E+01 -0.40857385834E+02  0.41391528182E+02  0.00000000000E+00 0. -1.
</event>
<event>
 7    1  0.2404951E-015  0.9000775E+02  0.7816164E-02  0.1186339E+00
        -11   -1    0    0    0    0  0.00000000000E+00  0.00000000000E+00  0.45593999997E+02  0.45594000000E+02  0.51100000000E-03 0.  1.
         11   -1    0    0    0    0 -0.00000000000E+00 -0.00000000000E+00 -0.45593999997E+02  0.45594000000E+02  0.51100000000E-03 0. -1.
    9900012    2    1    2    0    0  0.74645874645E+00 -0.13819064128E+00  0.90371482345E+00  0.90007746724E+02  0.90000008181E+02 0.  0.
         12    1    1    2    0    0 -0.74645874645E+00  0.13819064128E+00 -0.90371482345E+00  0.11802532760E+01  0.00000000000E+00 0. -1.
         11    1    3    3    0    0 -0.83133550205E+01 -0.64573556594E+01 -0.14147614579E+00  0.10527550977E+02  0.51100000000E-03 0. -1.
        -11    1    3    3    0    0 -0.24943873952E+02  0.13883120374E+02  0.24389130137E+02  0.37546871350E+02  0.51100000000E-03 0.  1.
         12    1    3    3    0    0  0.34003687719E+02 -0.75639553564E+01 -0.23343939168E+02  0.41933324397E+02  0.00000000000E+00 0. -1.
</event>
<event>
 7    1  0.2404951E-015  0.9000741E+02  0.7816164E-02  0.1186340E+00
        -11   -1    0    0    0    0  0.00000000000E+00  0.00000000000E+00  0.45593999997E+02  0.45594000000E+02  0.51100000000E-03 0.  1.
         11   -1    0    0    0    0 -0.00000000000E+00 -0.00000000000E+00 -0.45593999997E+02  0.45594000000E+02  0.51100000000E-03 0. -1.
    9900012    2    1    2    0    0  0.99979520730E+00 -0.55567765602E+00 -0.29227968738E+00  0.90007408822E+02  0.89999665818E+02 0.  0.
         12    1    1    2    0    0 -0.99979520730E+00  0.55567765602E+00  0.29227968738E+00  0.11805911780E+01  0.00000000000E+00 0. -1.
         11    1    3    3    0    0  0.67651355873E+01 -0.47025745270E+01 -0.41869524089E+01  0.92418524892E+01  0.51100000000E-03 0. -1.
        -11    1    3    3    0    0  0.31819336934E+02 -0.18456054720E+02  0.69067910297E+00  0.36790939057E+02  0.51100000000E-03 0.  1.
         12    1    3    3    0    0 -0.37584677314E+02  0.22602951591E+02  0.32039936186E+01  0.43974617276E+02  0.00000000000E+00 0. -1.
</event>
<event>
 7    1  0.2404951E-015  0.9000773E+02  0.7816164E-02  0.1186339E+00
        -11   -1    0    0    0    0  0.00000000000E+00  0.00000000000E+00  0.45593999997E+02  0.45594000000E+02  0.51100000000E-03 0.  1.
         11   -1    0    0    0    0 -0.00000000000E+00 -0.00000000000E+00 -0.45593999997E+02  0.45594000000E+02  0.51100000000E-03 0. -1.
    9900012    2    1    2    0    0  0.21212907880E+00 -0.52168044143E+00  0.10372487894E+01  0.90007731268E+02  0.89999992521E+02 0.  0.
         12    1    1    2    0    0 -0.21212907880E+00  0.52168044143E+00 -0.10372487894E+01  0.11802687322E+01  0.00000000000E+00 0. -1.
         11    1    3    3    0    0 -0.51158092184E+01 -0.21125038870E+01  0.79373817843E+01  0.96765803093E+01  0.51100000000E-03 0. -1.
        -11    1    3    3    0    0 -0.12414065609E+02 -0.35143569909E+02  0.55418430587E+01  0.37681448429E+02  0.51100000000E-03 0.  1.
         12    1    3    3    0    0  0.17742003906E+02  0.36734393355E+02 -0.12441976054E+02  0.42649702530E+02  0.00000000000E+00 0. -1.
</event>
<event>
 7    1  0.2404951E-015  0.9000768E+02  0.7816164E-02  0.1186339E+00
        -11   -1    0    0    0    0  0.00000000000E+00  0.00000000000E+00  0.45593999997E+02  0.45594000000E+02  0.51100000000E-03 0.  1.
         11   -1    0    0    0    0 -0.00000000000E+00 -0.00000000000E+00 -0.45593999997E+02  0.45594000000E+02  0.51100000000E-03 0. -1.
    9900012    2    1    2    0    0 -0.69590217032E+00  0.62908672863E+00  0.71633555690E+00  0.90007675226E+02  0.89999935739E+02 0.  0.
         12    1    1    2    0    0  0.69590217032E+00 -0.62908672863E+00 -0.71633555690E+00  0.11803247743E+01  0.00000000000E+00 0. -1.
         11    1    3    3    0    0 -0.74929182929E+01  0.38614351632E+01  0.43495065798E+01  0.94853947632E+01  0.51100000000E-03 0. -1.
        -11    1    3    3    0    0  0.29312724779E+02  0.28761781641E+02 -0.50368656236E+01  0.41374459908E+02  0.51100000000E-03 0.  1.
         12    1    3    3    0    0 -0.22515708656E+02 -0.31994130076E+02  0.14036946006E+01  0.39147820554E+02  0.00000000000E+00 0. -1.
</event>
<event>
 7    1  0.2404951E-015  0.9000764E+02  0.7816164E-02  0.1186339E+00
        -11   -1    0    0    0    0  0.00000000000E+00  0.00000000000E+00  0.45593999997E+02  0.45594000000E+02  0.51100000000E-03 0.  1.
         11   -1    0    0    0    0 -0.00000000000E+00 -0.00000000000E+00 -0.45593999997E+02  0.45594000000E+02  0.51100000000E-03 0. -1.
    9900012    2    1    2    0    0 -0.11410190856E+00 -0.11141871331E+01  0.37259092794E+00  0.90007637254E+02  0.89999897265E+02 0.  0.
         12    1    1    2    0    0  0.11410190856E+00  0.11141871331E+01 -0.37259092794E+00  0.11803627462E+01  0.00000000000E+00 0. -1.
         11    1    3    3    0    0 -0.87959311089E+01 -0.79941615369E+00 -0.88069612187E+00  0.88759842373E+01  0.51100000000E-03 0. -1.
        -11    1    3    3    0    0  0.21649255959E+02  0.27195184727E+02  0.24773565579E+02  0.42684867432E+02  0.51100000000E-03 0.  1.
         12    1    3    3    0    0 -0.12967426758E+02 -0.27509955707E+02 -0.23520278529E+02  0.38446785585E+02  0.00000000000E+00 0. -1.
</event>
<event>
 7    1  0.2404951E-015  0.9000774E+02  0.7816164E-02  0.1186339E+00
        -11   -1    0    0    0    0  0.00000000000E+00  0.00000000000E+00  0.45593999997E+02  0.45594000000E+02  0.51100000000E-03 0.  1.
         11   -1    0    0    0    0 -0.00000000000E+00 -0.00000000000E+00 -0.45593999997E+02  0.45594000000E+02  0.51100000000E-03 0. -1.
    9900012    2    1    2    0    0 -0.11634018093E+01 -0.10189104722E+00 -0.17066143025E+00  0.90007741181E+02  0.90000002565E+02 0.  0.
         12    1    1    2    0    0  0.11634018093E+01  0.10189104722E+00  0.17066143025E+00  0.11802588187E+01  0.00000000000E+00 0. -1.
         11    1    3    3    0    0 -0.54808663746E+01  0.75616906722E+01 -0.17859709158E+01  0.95083518241E+01  0.51100000000E-03 0. -1.
        -11    1    3    3    0    0 -0.33349166674E+02  0.10464070895E+01  0.18681543834E+02  0.38239534071E+02  0.51100000000E-03 0.  1.
         12    1    3    3    0    0  0.37666631240E+02 -0.87099888089E+01 -0.17066234349E+02  0.42259855286E+02  0.00000000000E+00 0. -1.
</event>
<event>
 7    1  0.2404951E-015  0.9000775E+02  0.7816164E-02  0.1186339E+00
        -11   -1    0    0    0    0  0.00000000000E+00  0.00000000000E+00  0.45593999997E+02  0.45594000000E+02  0.51100000000E-03 0. -1.
         11   -1    0    0    0    0 -0.00000000000E+00 -0.00000000000E+00 -0.45593999997E+02  0.45594000000E+02  0.51100000000E-03 0.  1.
    9900012    2    1    2    0    0 -0.10592282577E+01  0.22162515908E+00  0.47106366344E+00  0.90007752912E+02  0.90000014451E+02 0.  0.
         12    1    1    2    0    0  0.10592282577E+01 -0.22162515908E+00 -0.47106366344E+00  0.11802470878E+01  0.00000000000E+00 0. -1.
         11    1    3    3    0    0 -0.56669767360E+00 -0.26027074205E+01  0.13328202323E+02  0.13591769921E+02  0.51100000000E-03 0. -1.
        -11    1    3    3    0    0  0.34627901500E+02  0.74175197107E+01  0.65711926975E+01  0.36017936292E+02  0.51100000000E-03 0.  1.
         12    1    3    3    0    0 -0.35120432084E+02 -0.45931871312E+01 -0.19428331357E+02  0.40398046700E+02  0.00000000000E+00 0. -1.
</event>
<event>
 7    1  0.2404951E-015  0.9000779E+02  0.7816164E-02  0.1186339E+00
        -11   -1    0    0    0    0  0.00000000000E+00  0.00000000000E+00  0.45593999997E+02  0.45594000000E+02  0.51100000000E-03 0. -1.
         11   -1    0    0    0    0 -0.00000000000E+00 -0.00000000000E+00 -0.45593999997E+02  0.45594000000E+02  0.51100000000E-03 0.  1.
    9900012    2    1    2    0    0  0.64394969964E-01 -0.21991784533E+00 -0.11577506674E+01  0.90007789350E+02  0.90000051369E+02 0.  0.
         12    1    1    2    0    0 -0.64394969964E-01  0.21991784533E+00  0.11577506674E+01  0.11802106502E+01  0.00000000000E+00 0. -1.
         11    1    3    3    0    0  0.39332420441E+01  0.89672195714E+01 -0.12765942016E+01  0.98747715333E+01  0.51100000000E-03 0. -1.
        -11    1    3    3    0    0 -0.16457664298E+02  0.53457752518E+01 -0.35591734628E+02  0.39575290287E+02  0.51100000000E-03 0.  1.
         12    1    3    3    0    0  0.12588817224E+02 -0.14532912668E+02  0.35710578162E+02  0.40557727530E+02  0.00000000000E+00 0. -1.
</event>
<event>
 7    1  0.2404951E-015  0.9000779E+02  0.7816164E-02  0.1186339E+00
        -11   -1    0    0    0    0  0.00000000000E+00  0.00000000000E+00  0.45593999997E+02  0.45594000000E+02  0.51100000000E-03 0. -1.
         11   -1    0    0    0    0 -0.00000000000E+00 -0.00000000000E+00 -0.45593999997E+02  0.45594000000E+02  0.51100000000E-03 0.  1.
    9900012    2    1    2    0    0  0.58967241008E+00  0.99889375465E+00 -0.21770349304E+00  0.90007789385E+02  0.90000051405E+02 0.  0.
         12    1    1    2    0    0 -0.58967241008E+00 -0.99889375465E+00  0.21770349304E+00  0.11802106148E+01  0.00000000000E+00 0. -1.
         11    1    3    3    0    0  0.13895057131E+02 -0.34393480568E+02 -0.35855656344E+01  0.37267149065E+02  0.51100000000E-03 0. -1.
        -11    1    3    3    0    0 -0.39544900635E+00 -0.37647554882E+01 -0.89432877641E+01  0.97114447996E+01  0.51100000000E-03 0.  1.
        -12    1    3    3    0    0 -0.12909935715E+02  0.39157129811E+02  0.12311149906E+02  0.43029195521E+02  0.00000000000E+00 0.  1.
</event>
<event>
 7    1  0.2404951E-015  0.9000775E+02  0.7816164E-02  0.1186339E+00
        -11   -1    0    0    0    0  0.00000000000E+00  0.00000000000E+00  0.45593999997E+02  0.45594000000E+02  0.51100000000E-03 0.  1.
         11   -1    0    0    0    0 -0.00000000000E+00 -0.00000000000E+00 -0.45593999997E+02  0.45594000000E+02  0.51100000000E-03 0. -1.
    9900012    2    1    2    0    0 -0.27514383637E+00  0.18136791097E+00 -0.11333099776E+01  0.90007750045E+02  0.90000011546E+02 0.  0.
         12    1    1    2    0    0  0.27514383637E+00 -0.18136791097E+00  0.11333099776E+01  0.11802499545E+01  0.00000000000E+00 0. -1.
         11    1    3    3    0    0 -0.31154566569E+01 -0.45119736618E+01  0.72721393995E+01  0.91075786141E+01  0.51100000000E-03 0. -1.
        -11    1    3    3    0    0  0.53783753760E+01 -0.14128409334E+02  0.32476191116E+02  0.35822365383E+02  0.51100000000E-03 0.  1.
         12    1    3    3    0    0 -0.25380625555E+01  0.18821750907E+02 -0.40881640493E+02  0.45077806048E+02  0.00000000000E+00 0. -1.
</event>
<event>
 7    1  0.2404951E-015  0.9000771E+02  0.7816164E-02  0.1186339E+00
        -11   -1    0    0    0    0  0.00000000000E+00  0.00000000000E+00  0.45593999997E+02  0.45594000000E+02  0.51100000000E-03 0.  1.
         11   -1    0    0    0    0 -0.00000000000E+00 -0.00000000000E+00 -0.45593999997E+02  0.45594000000E+02  0.51100000000E-03 0. -1.
    9900012    2    1    2    0    0  0.10751636181E+01  0.14281311870E+00 -0.46552219543E+00  0.90007710499E+02  0.89999971477E+02 0.  0.
         12    1    1    2    0    0 -0.10751636181E+01 -0.14281311870E+00  0.46552219543E+00  0.11802895014E+01  0.00000000000E+00 0. -1.
         11    1    3    3    0    0  0.28033399559E+01  0.90336603344E+01  0.34870124955E+01  0.10080922098E+02  0.51100000000E-03 0. -1.
        -11    1    3    3    0    0 -0.23772884550E+01  0.26265007971E+02  0.23495212340E+02  0.35320350328E+02  0.51100000000E-03 0.  1.
         12    1    3    3    0    0  0.64911211722E+00 -0.35155855187E+02 -0.27447747031E+02  0.44606438073E+02  0.00000000000E+00 0. -1.
</event>
<event>
 7    1  0.2404951E-015  0.9000769E+02  0.7816164E-02  0.1186339E+00
        -11   -1    0    0    0    0  0.00000000000E+00  0.00000000000E+00  0.45593999997E+02  0.45594000000E+02  0.51100000000E-03 0. -1.
         11   -1    0    0    0    0 -0.00000000000E+00 -0.00000000000E+00 -0.45593999997E+02  0.45594000000E+02  0.51100000000E-03 0.  1.
    9900012    2    1    2    0    0 -0.68028602018E+00 -0.94777024398E+00  0.17908999837E+00  0.90007690408E+02  0.89999951122E+02 0.  0.
         12    1    1    2    0    0  0.68028602018E+00  0.94777024398E+00 -0.17908999837E+00  0.11803095916E+01  0.00000000000E+00 0. -1.
         11    1    3    3    0    0 -0.30166513080E+02 -0.22975569742E+02  0.14539187249E+01  0.37947453094E+02  0.51100000000E-03 0. -1.
        -11    1    3    3    0    0 -0.32380770957E+01 -0.70950611416E+01 -0.26359826832E+01  0.82324626236E+01  0.51100000000E-03 0.  1.
        -12    1    3    3    0    0  0.32724304155E+02  0.29122860640E+02  0.13611539567E+01  0.43827774691E+02  0.00000000000E+00 0.  1.
</event>
<event>
 7    1  0.2404951E-015  0.9000777E+02  0.7816164E-02  0.1186339E+00
        -11   -1    0    0    0    0  0.00000000000E+00  0.00000000000E+00  0.45593999997E+02  0.45594000000E+02  0.51100000000E-03 0.  1.
         11   -1    0    0    0    0 -0.00000000000E+00 -0.00000000000E+00 -0.45593999997E+02  0.45594000000E+02  0.51100000000E-03 0. -1.
    9900012    2    1    2    0    0  0.11090236702E+01  0.30899058336E+00  0.25988434225E+00  0.90007767585E+02  0.90000029317E+02 0.  0.
         12    1    1    2    0    0 -0.11090236702E+01 -0.30899058336E+00 -0.25988434225E+00  0.11802324148E+01  0.00000000000E+00 0. -1.
         11    1    3    3    0    0  0.28019451225E+01 -0.78325572770E+01  0.55923955937E+01  0.10023708830E+02  0.51100000000E-03 0. -1.
        -11    1    3    3    0    0  0.24030930930E+02  0.62518010642E+01  0.28267974632E+02  0.37625111933E+02  0.51100000000E-03 0.  1.
         12    1    3    3    0    0 -0.25723852383E+02  0.18897467961E+01 -0.33600485883E+02  0.42358946823E+02  0.00000000000E+00 0. -1.
</event>
<event>
 7    1  0.2404951E-015  0.9000760E+02  0.7816164E-02  0.1186339E+00
        -11   -1    0    0    0    0  0.00000000000E+00  0.00000000000E+00  0.45593999997E+02  0.45594000000E+02  0.51100000000E-03 0.  1.
         11   -1    0    0    0    0 -0.00000000000E+00 -0.00000000000E+00 -0.45593999997E+02  0.45594000000E+02  0.51100000000E-03 0. -1.
    9900012    2    1    2    0    0  0.78446804705E+00 -0.87926478287E+00  0.69603077468E-01  0.90007601227E+02  0.89999860763E+02 0.  0.
         12    1    1    2    0    0 -0.78446804705E+00  0.87926478287E+00 -0.69603077468E-01  0.11803987731E+01  0.00000000000E+00 0. -1.
         11    1    3    3    0    0 -0.10237613112E+02  0.71642986576E+01 -0.40911352555E+02  0.42777034325E+02  0.51100000000E-03 0. -1.
        -11    1    3    3    0    0  0.75592236786E+01 -0.33522155309E+01  0.29875338347E+01  0.87923017614E+01  0.51100000000E-03 0.  1.
        -12    1    3    3    0    0  0.34628574805E+01 -0.46913479096E+01  0.37993421798E+02  0.38438265141E+02  0.00000000000E+00 0.  1.
</event>
<event>
 7    1  0.2404951E-015  0.9000775E+02  0.7816164E-02  0.1186339E+00
        -11   -1    0    0    0    0  0.00000000000E+00  0.00000000000E+00  0.45593999997E+02  0.45594000000E+02  0.51100000000E-03 0. -1.
         11   -1    0    0    0    0 -0.00000000000E+00 -0.00000000000E+00 -0.45593999997E+02  0.45594000000E+02  0.51100000000E-03 0.  1.
    9900012    2    1    2    0    0  0.10956750374E+01  0.12027112427E+00 -0.42191456439E+00  0.90007753911E+02  0.90000015463E+02 0.  0.
         12    1    1    2    0    0 -0.10956750374E+01 -0.12027112427E+00  0.42191456439E+00  0.11802460890E+01  0.00000000000E+00 0. -1.
         11    1    3    3    0    0 -0.31846042601E+02 -0.10239868335E+02  0.82897636091E+01  0.34463683985E+02  0.51100000000E-03 0. -1.
        -11    1    3    3    0    0 -0.63996778567E+01 -0.68450174837E+01  0.48010241817E+01  0.10529006338E+02  0.51100000000E-03 0.  1.
        -12    1    3    3    0    0  0.39341395495E+02  0.17205156942E+02 -0.13512702355E+02  0.45015063588E+02  0.00000000000E+00 0.  1.
</event>
<event>
 7    1  0.2404951E-015  0.9000811E+02  0.7816164E-02  0.1186338E+00
        -11   -1    0    0    0    0  0.00000000000E+00  0.00000000000E+00  0.45593999997E+02  0.45594000000E+02  0.51100000000E-03 0.  1.
         11   -1    0    0    0    0 -0.00000000000E+00 -0.00000000000E+00 -0.45593999997E+02  0.45594000000E+02  0.51100000000E-03 0. -1.
    9900012    2    1    2    0    0 -0.10860854875E+01 -0.86805712025E-01  0.45280361823E+00  0.90008106770E+02  0.90000372978E+02 0.  0.
         12    1    1    2    0    0  0.10860854875E+01  0.86805712025E-01 -0.45280361823E+00  0.11798932301E+01  0.00000000000E+00 0. -1.
         11    1    3    3    0    0 -0.34941150699E+02 -0.15256914392E+01 -0.11705191284E+02  0.36881204560E+02  0.51100000000E-03 0. -1.
        -11    1    3    3    0    0 -0.79546643362E+01  0.25817033634E+01 -0.26258030143E+01  0.87656556338E+01  0.51100000000E-03 0.  1.
        -12    1    3    3    0    0  0.41809729547E+02 -0.11428176362E+01  0.14783797917E+02  0.44361246576E+02  0.00000000000E+00 0.  1.
</event>
<event>
 7    1  0.2404951E-015  0.9000778E+02  0.7816164E-02  0.1186339E+00
        -11   -1    0    0    0    0  0.00000000000E+00  0.00000000000E+00  0.45593999997E+02  0.45594000000E+02  0.51100000000E-03 0. -1.
         11   -1    0    0    0    0 -0.00000000000E+00 -0.00000000000E+00 -0.45593999997E+02  0.45594000000E+02  0.51100000000E-03 0.  1.
    9900012    2    1    2    0    0 -0.66646762332E+00 -0.23933494833E+00 -0.94416972647E+00  0.90007781045E+02  0.90000042954E+02 0.  0.
         12    1    1    2    0    0  0.66646762332E+00  0.23933494833E+00  0.94416972647E+00  0.11802189555E+01  0.00000000000E+00 0. -1.
         11    1    3    3    0    0 -0.20310969498E+02 -0.25300197450E+02 -0.20000452958E+02  0.38113692969E+02  0.51100000000E-03 0. -1.
        -11    1    3    3    0    0 -0.95321107852E+01 -0.24773532697E+00  0.51925022066E+01  0.10857466935E+02  0.51100000000E-03 0.  1.
        -12    1    3    3    0    0  0.29176612660E+02  0.25308597829E+02  0.13863781025E+02  0.41036621141E+02  0.00000000000E+00 0.  1.
</event>
<event>
 7    1  0.2404951E-015  0.9000781E+02  0.7816164E-02  0.1186339E+00
        -11   -1    0    0    0    0  0.00000000000E+00  0.00000000000E+00  0.45593999997E+02  0.45594000000E+02  0.51100000000E-03 0. -1.
         11   -1    0    0    0    0 -0.00000000000E+00 -0.00000000000E+00 -0.45593999997E+02  0.45594000000E+02  0.51100000000E-03 0.  1.
    9900012    2    1    2    0    0 -0.18487976374E+00  0.11528767036E+01 -0.17188463098E+00  0.90007809529E+02  0.90000071815E+02 0.  0.
         12    1    1    2    0    0  0.18487976374E+00 -0.11528767036E+01  0.17188463098E+00  0.11801904707E+01  0.00000000000E+00 0. -1.
         11    1    3    3    0    0 -0.54415995169E+01 -0.79103925218E+01  0.41921909029E+01  0.10476630182E+02  0.51100000000E-03 0. -1.
        -11    1    3    3    0    0  0.15568194225E+02 -0.31796281151E+02 -0.10544152618E+02  0.36939833800E+02  0.51100000000E-03 0.  1.
         12    1    3    3    0    0 -0.10311474472E+02  0.40859550376E+02  0.61800770838E+01  0.42591345547E+02  0.00000000000E+00 0. -1.
</event>
<event>
 7    1  0.2404951E-015  0.9000774E+02  0.7816164E-02  0.1186339E+00
        -11   -1    0    0    0    0  0.00000000000E+00  0.00000000000E+00  0.45593999997E+02  0.45594000000E+02  0.51100000000E-03 0.  1.
         11   -1    0    0    0    0 -0.00000000000E+00 -0.00000000000E+00 -0.45593999997E+02  0.45594000000E+02  0.51100000000E-03 0. -1.
    9900012    2    1    2    0    0  0.81226946452E+00  0.90836388931E-01  0.85146307116E+00  0.90007736346E+02  0.89999997665E+02 0.  0.
         12    1    1    2    0    0 -0.81226946452E+00 -0.90836388931E-01 -0.85146307116E+00  0.11802636545E+01  0.00000000000E+00 0. -1.
         11    1    3    3    0    0 -0.15443660996E+02  0.28703526852E+02  0.28560791777E+02  0.43337258172E+02  0.51100000000E-03 0. -1.
        -11    1    3    3    0    0  0.40473938215E+01 -0.10506498008E+02  0.16530879177E+00  0.11260338556E+02  0.51100000000E-03 0.  1.
        -12    1    3    3    0    0  0.12208536639E+02 -0.18106192456E+02 -0.27874637497E+02  0.35410139617E+02  0.00000000000E+00 0.  1.
</event>
<event>
 7    1  0.2404951E-015  0.9000800E+02  0.7816164E-02  0.1186339E+00
        -11   -1    0    0    0    0  0.00000000000E+00  0.00000000000E+00  0.45593999997E+02  0.45594000000E+02  0.51100000000E-03 0. -1.
         11   -1    0    0    0    0 -0.00000000000E+00 -0.00000000000E+00 -0.45593999997E+02  0.45594000000E+02  0.51100000000E-03 0.  1.
    9900012    2    1    2    0    0  0.60003040685E+00  0.89793999131E+00 -0.47546704460E+00  0.90007999310E+02  0.90000264101E+02 0.  0.
         12    1    1    2    0    0 -0.60003040685E+00 -0.89793999131E+00  0.47546704460E+00  0.11800006897E+01  0.00000000000E+00 0. -1.
         11    1    3    3    0    0 -0.68193490727E+01 -0.26413422878E+01  0.65520250939E+01  0.98188209042E+01  0.51100000000E-03 0. -1.
        -11    1    3    3    0    0 -0.27150834501E+02 -0.18817851083E+02 -0.17948575323E+02  0.37595620621E+02  0.51100000000E-03 0.  1.
         12    1    3    3    0    0  0.34570213981E+02  0.22357133362E+02  0.10921083185E+02  0.42593557785E+02  0.00000000000E+00 0. -1.
</event>
<event>
 7    1  0.2404951E-015  0.9000771E+02  0.7816164E-02  0.1186339E+00
        -11   -1    0    0    0    0  0.00000000000E+00  0.00000000000E+00  0.45593999997E+02  0.45594000000E+02  0.51100000000E-03 0.  1.
         11   -1    0    0    0    0 -0.00000000000E+00 -0.00000000000E+00 -0.45593999997E+02  0.45594000000E+02  0.51100000000E-03 0. -1.
    9900012    2    1    2    0    0  0.71646149114E-01  0.42174967723E+00  0.11000328490E+01  0.90007712649E+02  0.89999973656E+02 0.  0.
         12    1    1    2    0    0 -0.71646149114E-01 -0.42174967723E+00 -0.11000328490E+01  0.11802873506E+01  0.00000000000E+00 0. -1.
         11    1    3    3    0    0  0.46110428714E+00 -0.93773625143E+01  0.74636946671E+01  0.11993926931E+02  0.51100000000E-03 0. -1.
        -11    1    3    3    0    0 -0.24499972108E+02 -0.22722335683E+02  0.91725416672E+01  0.34650955154E+02  0.51100000000E-03 0.  1.
         12    1    3    3    0    0  0.24110513970E+02  0.32521447875E+02 -0.15536203485E+02  0.43362830564E+02  0.00000000000E+00 0. -1.
</event>
<event>
 7    1  0.2404951E-015  0.9000771E+02  0.7816164E-02  0.1186339E+00
        -11   -1    0    0    0    0  0.00000000000E+00  0.00000000000E+00  0.45593999997E+02  0.45594000000E+02  0.51100000000E-03 0. -1.
         11   -1    0    0    0    0 -0.00000000000E+00 -0.00000000000E+00 -0.45593999997E+02  0.45594000000E+02  0.51100000000E-03 0.  1.
    9900012    2    1    2    0    0  0.11392567382E+01  0.38056230008E-01 -0.30614179971E+00  0.90007713173E+02  0.89999974187E+02 0.  0.
         12    1    1    2    0    0 -0.11392567382E+01 -0.38056230008E-01  0.30614179971E+00  0.11802868269E+01  0.00000000000E+00 0. -1.
         11    1    3    3    0    0  0.95892224950E+01 -0.24648606848E+01 -0.34408096103E+00  0.99069227424E+01  0.51100000000E-03 0. -1.
        -11    1    3    3    0    0 -0.38173990712E+02  0.10223924750E+02 -0.19123122142E+02  0.43903029564E+02  0.51100000000E-03 0.  1.
         12    1    3    3    0    0  0.29724024955E+02 -0.77210078351E+01  0.19161061304E+02  0.36197760867E+02  0.00000000000E+00 0. -1.
</event>
<event>
 7    1  0.2404951E-015  0.9000783E+02  0.7816164E-02  0.1186339E+00
        -11   -1    0    0    0    0  0.00000000000E+00  0.00000000000E+00  0.45593999997E+02  0.45594000000E+02  0.51100000000E-03 0.  1.
         11   -1    0    0    0    0 -0.00000000000E+00 -0.00000000000E+00 -0.45593999997E+02  0.45594000000E+02  0.51100000000E-03 0. -1.
    9900012    2    1    2    0    0 -0.11163611496E+01 -0.19075303281E+00  0.33190045197E+00  0.90007827620E+02  0.90000090145E+02 0.  0.
         12    1    1    2    0    0  0.11163611496E+01  0.19075303281E+00 -0.33190045197E+00  0.11801723797E+01  0.00000000000E+00 0. -1.
         11    1    3    3    0    0 -0.39540068342E+02 -0.49530922557E+01 -0.78738472539E+01  0.40619546997E+02  0.51100000000E-03 0. -1.
        -11    1    3    3    0    0  0.52458757599E+01  0.22648970502E+01 -0.99584226490E+01  0.11481252242E+02  0.51100000000E-03 0.  1.
        -12    1    3    3    0    0  0.33177831433E+02  0.24974421727E+01  0.18164170355E+02  0.37907028381E+02  0.00000000000E+00 0.  1.
</event>
<event>
 7    1  0.2404951E-015  0.9000794E+02  0.7816164E-02  0.1186339E+00
        -11   -1    0    0    0    0  0.00000000000E+00  0.00000000000E+00  0.45593999997E+02  0.45594000000E+02  0.51100000000E-03 0.  1.
         11   -1    0    0    0    0 -0.00000000000E+00 -0.00000000000E+00 -0.45593999997E+02  0.45594000000E+02  0.51100000000E-03 0. -1.
    9900012    2    1    2    0    0  0.78422981996E+00  0.16794919179E+00  0.86563539382E+00  0.90007937300E+02  0.90000201272E+02 0.  0.
         12    1    1    2    0    0 -0.78422981996E+00 -0.16794919179E+00 -0.86563539382E+00  0.11800627003E+01  0.00000000000E+00 0. -1.
         11    1    3    3    0    0  0.10950991054E+02 -0.17870257269E+02 -0.29567827047E+02  0.36242608853E+02  0.51100000000E-03 0. -1.
        -11    1    3    3    0    0  0.46376700279E+01  0.49341733768E+01 -0.80384834078E+01  0.10510531193E+02  0.51100000000E-03 0.  1.
        -12    1    3    3    0    0 -0.14804431262E+02  0.13104033084E+02  0.38471945849E+02  0.43254797254E+02  0.00000000000E+00 0.  1.
</event>
<event>
 7    1  0.2404951E-015  0.9000778E+02  0.7816164E-02  0.1186339E+00
        -11   -1    0    0    0    0  0.00000000000E+00  0.00000000000E+00  0.45593999997E+02  0.45594000000E+02  0.51100000000E-03 0.  1.
         11   -1    0    0    0    0 -0.00000000000E+00 -0.00000000000E+00 -0.45593999997E+02  0.45594000000E+02  0.51100000000E-03 0. -1.
    9900012    2    1    2    0    0  0.13846880361E-01 -0.78118254837E+00  0.88457438335E+00  0.90007784024E+02  0.90000045973E+02 0.  0.
         12    1    1    2    0    0 -0.13846880361E-01  0.78118254837E+00 -0.88457438335E+00  0.11802159759E+01  0.00000000000E+00 0. -1.
         11    1    3    3    0    0 -0.57274168013E+01  0.19214909699E+01  0.66803115089E+01  0.90067748323E+01  0.51100000000E-03 0. -1.
        -11    1    3    3    0    0 -0.34739907196E+02  0.61088936757E+01  0.99996378208E+01  0.36662958020E+02  0.51100000000E-03 0.  1.
         12    1    3    3    0    0  0.40481170878E+02 -0.88115671940E+01 -0.15795374946E+02  0.44338051172E+02  0.00000000000E+00 0. -1.
</event>
<event>
 7    1  0.2404951E-015  0.9000773E+02  0.7816164E-02  0.1186339E+00
        -11   -1    0    0    0    0  0.00000000000E+00  0.00000000000E+00  0.45593999997E+02  0.45594000000E+02  0.51100000000E-03 0.  1.
         11   -1    0    0    0    0 -0.00000000000E+00 -0.00000000000E+00 -0.45593999997E+02  0.45594000000E+02  0.51100000000E-03 0. -1.
    9900012    2    1    2    0    0  0.71245119848E+00 -0.90188965660E+00 -0.26843348098E+00  0.90007725372E+02  0.89999986547E+02 0.  0.
         12    1    1    2    0    0 -0.71245119848E+00  0.90188965660E+00  0.26843348098E+00  0.11802746276E+01  0.00000000000E+00 0. -1.
         11    1    3    3    0    0 -0.43842528175E+01 -0.88681693088E+01 -0.48487423541E+01  0.11017095912E+02  0.51100000000E-03 0. -1.
        -11    1    3    3    0    0 -0.35413090972E+02  0.66677370283E+01  0.11600521542E+02  0.37856542758E+02  0.51100000000E-03 0.  1.
         12    1    3    3    0    0  0.40509794988E+02  0.12985426239E+01 -0.70202126691E+01  0.41134086702E+02  0.00000000000E+00 0. -1.
</event>
<event>
 7    1  0.2553147E-015  0.9000775E+02  0.7816164E-02  0.1186339E+00
        -11   -1    0    0    0    0  0.00000000000E+00  0.00000000000E+00  0.45593999997E+02  0.45594000000E+02  0.51100000000E-03 0.  1.
         11   -1    0    0    0    0 -0.00000000000E+00 -0.00000000000E+00 -0.45593999997E+02  0.45594000000E+02  0.51100000000E-03 0. -1.
    9900012    2    1    2    0    0 -0.81320633308E+00 -0.59347827338E+00  0.61601969069E+00  0.90007745256E+02  0.90000006693E+02 0.  0.
         12    1    1    2    0    0  0.81320633308E+00  0.59347827338E+00 -0.61601969069E+00  0.11802547439E+01  0.00000000000E+00 0. -1.
         11    1    3    3    0    0 -0.12351976883E+02  0.29083968023E+02 -0.22164592932E+02  0.38596861387E+02  0.51100000000E-03 0. -1.
        -11    1    3    3    0    0 -0.39147193964E+01  0.57246985402E+01  0.64558560469E+01  0.94749817355E+01  0.51100000000E-03 0.  1.
        -12    1    3    3    0    0  0.15453489946E+02 -0.35402144836E+02  0.16324756575E+02  0.41935902134E+02  0.00000000000E+00 0.  1.
</event>
<event>
 7    1  0.2404951E-015  0.9000795E+02  0.7816164E-02  0.1186339E+00
        -11   -1    0    0    0    0  0.00000000000E+00  0.00000000000E+00  0.45593999997E+02  0.45594000000E+02  0.51100000000E-03 0. -1.
         11   -1    0    0    0    0 -0.00000000000E+00 -0.00000000000E+00 -0.45593999997E+02  0.45594000000E+02  0.51100000000E-03 0.  1.
    9900012    2    1    2    0    0 -0.14794912151E+00  0.10074622749E+01 -0.59636852086E+00  0.90007947209E+02  0.90000211311E+02 0.  0.
         12    1    1    2    0    0  0.14794912151E+00 -0.10074622749E+01  0.59636852086E+00  0.11800527915E+01  0.00000000000E+00 0. -1.
         11    1    3    3    0    0 -0.31235802291E+01 -0.36736666039E+01 -0.86165922398E+01  0.98741198015E+01  0.51100000000E-03 0. -1.
        -11    1    3    3    0    0  0.30698603653E+02 -0.10365883225E+02 -0.19886758552E+02  0.38017613908E+02  0.51100000000E-03 0.  1.
         12    1    3    3    0    0 -0.27722972546E+02  0.15047012104E+02  0.27906982271E+02  0.42116213499E+02  0.00000000000E+00 0. -1.
</event>
<event>
 7    1  0.2404951E-015  0.9000774E+02  0.7816164E-02  0.1186339E+00
        -11   -1    0    0    0    0  0.00000000000E+00  0.00000000000E+00  0.45593999997E+02  0.45594000000E+02  0.51100000000E-03 0.  1.
         11   -1    0    0    0    0 -0.00000000000E+00 -0.00000000000E+00 -0.45593999997E+02  0.45594000000E+02  0.51100000000E-03 0. -1.
    9900012    2    1    2    0    0  0.56855563452E-01  0.11624677601E+01  0.19611464689E+00  0.90007735283E+02  0.89999996588E+02 0.  0.
         12    1    1    2    0    0 -0.56855563452E-01 -0.11624677601E+01 -0.19611464689E+00  0.11802647174E+01  0.00000000000E+00 0. -1.
         11    1    3    3    0    0 -0.10590160027E+02 -0.10258983004E+02  0.11352068395E+02  0.18608269097E+02  0.51100000000E-03 0. -1.
        -11    1    3    3    0    0 -0.15519848356E+02  0.26042760658E+02  0.12918147121E+02  0.32954052877E+02  0.51100000000E-03 0.  1.
         12    1    3    3    0    0  0.26166863947E+02 -0.14621309894E+02 -0.24074100870E+02  0.38445413309E+02  0.00000000000E+00 0. -1.
</event>
<event>
 7    1  0.2404951E-015  0.9000770E+02  0.7816164E-02  0.1186339E+00
        -11   -1    0    0    0    0  0.00000000000E+00  0.00000000000E+00  0.45593999997E+02  0.45594000000E+02  0.51100000000E-03 0.  1.
         11   -1    0    0    0    0 -0.00000000000E+00 -0.00000000000E+00 -0.45593999997E+02  0.45594000000E+02  0.51100000000E-03 0. -1.
    9900012    2    1    2    0    0 -0.45161667769E+00  0.75927048117E+00 -0.78271924442E+00  0.90007703977E+02  0.89999964869E+02 0.  0.
         12    1    1    2    0    0  0.45161667769E+00 -0.75927048117E+00  0.78271924442E+00  0.11802960233E+01  0.00000000000E+00 0. -1.
         11    1    3    3    0    0  0.14392539657E+02  0.33089177266E+02 -0.20670946415E+02  0.41585176155E+02  0.51100000000E-03 0. -1.
        -11    1    3    3    0    0 -0.79372684354E-01 -0.67003453459E+01 -0.60907442437E+01  0.90552798676E+01  0.51100000000E-03 0.  1.
        -12    1    3    3    0    0 -0.14764783650E+02 -0.25629561439E+02  0.25978971414E+02  0.39367247954E+02  0.00000000000E+00 0.  1.
</event>
<event>
 7    1  0.2404951E-015  0.9000809E+02  0.7816164E-02  0.1186338E+00
        -11   -1    0    0    0    0  0.00000000000E+00  0.00000000000E+00  0.45593999997E+02  0.45594000000E+02  0.51100000000E-03 0.  1.
         11   -1    0    0    0    0 -0.00000000000E+00 -0.00000000000E+00 -0.45593999997E+02  0.45594000000E+02  0.51100000000E-03 0. -1.
    9900012    2    1    2    0    0  0.60740900699E+00 -0.82600770188E+00 -0.58391101743E+00  0.90008090469E+02  0.90000356462E+02 0.  0.
         12    1    1    2    0    0 -0.60740900699E+00  0.82600770188E+00  0.58391101743E+00  0.11799095311E+01  0.00000000000E+00 0. -1.
         11    1    3    3    0    0 -0.21670643706E+02  0.28316612187E+02 -0.74316685611E+01  0.36423577834E+02  0.51100000000E-03 0. -1.
        -11    1    3    3    0    0 -0.10206454851E+01  0.86215231928E+01 -0.29440692046E-01  0.86817766837E+01  0.51100000000E-03 0.  1.
        -12    1    3    3    0    0  0.23298698198E+02 -0.37764143081E+02  0.68771982357E+01  0.44902735952E+02  0.00000000000E+00 0.  1.
</event>
<event>
 7    1  0.2404951E-015  0.9000800E+02  0.7816164E-02  0.1186339E+00
        -11   -1    0    0    0    0  0.00000000000E+00  0.00000000000E+00  0.45593999997E+02  0.45594000000E+02  0.51100000000E-03 0.  1.
         11   -1    0    0    0    0 -0.00000000000E+00 -0.00000000000E+00 -0.45593999997E+02  0.45594000000E+02  0.51100000000E-03 0. -1.
    9900012    2    1    2    0    0 -0.10923124449E+01  0.44626262006E+00 -0.10239955238E-01  0.90007999297E+02  0.90000264087E+02 0.  0.
         12    1    1    2    0    0  0.10923124449E+01 -0.44626262006E+00  0.10239955238E-01  0.11800007034E+01  0.00000000000E+00 0. -1.
         11    1    3    3    0    0  0.15577032579E+02 -0.10114423342E+02 -0.22968098486E+02  0.29537756378E+02  0.51100000000E-03 0. -1.
        -11    1    3    3    0    0 -0.47171057394E+01 -0.14924160136E+02 -0.88622435515E+01  0.17986689616E+02  0.51100000000E-03 0.  1.
        -12    1    3    3    0    0 -0.11952239285E+02  0.25484846099E+02  0.31820102083E+02  0.42483553302E+02  0.00000000000E+00 0.  1.
</event>
<event>
 7    1  0.2404951E-015  0.9000778E+02  0.7816164E-02  0.1186339E+00
        -11   -1    0    0    0    0  0.00000000000E+00  0.00000000000E+00  0.45593999997E+02  0.45594000000E+02  0.51100000000E-03 0. -1.
         11   -1    0    0    0    0 -0.00000000000E+00 -0.00000000000E+00 -0.45593999997E+02  0.45594000000E+02  0.51100000000E-03 0.  1.
    9900012    2    1    2    0    0  0.48552040791E-01 -0.99061917161E+00  0.63972302971E+00  0.90007775785E+02  0.90000037625E+02 0.  0.
         12    1    1    2    0    0 -0.48552040791E-01  0.99061917161E+00 -0.63972302971E+00  0.11802242154E+01  0.00000000000E+00 0. -1.
         11    1    3    3    0    0  0.38132891068E+02 -0.46295870879E+00 -0.36616534580E+01  0.38311087406E+02  0.51100000000E-03 0. -1.
        -11    1    3    3    0    0  0.33411809348E+01 -0.17629313988E+01  0.92180592142E+01  0.99621299477E+01  0.51100000000E-03 0.  1.
        -12    1    3    3    0    0 -0.41425519962E+02  0.12352709359E+01 -0.49166827265E+01  0.41734558431E+02  0.00000000000E+00 0.  1.
</event>
<event>
 7    1  0.2404951E-015  0.9000756E+02  0.7816164E-02  0.1186339E+00
        -11   -1    0    0    0    0  0.00000000000E+00  0.00000000000E+00  0.45593999997E+02  0.45594000000E+02  0.51100000000E-03 0.  1.
         11   -1    0    0    0    0 -0.00000000000E+00 -0.00000000000E+00 -0.45593999997E+02  0.45594000000E+02  0.51100000000E-03 0. -1.
    9900012    2    1    2    0    0  0.10087366010E+00 -0.50660885993E+00  0.10614196032E+01  0.90007559571E+02  0.89999818557E+02 0.  0.
         12    1    1    2    0    0 -0.10087366010E+00  0.50660885993E+00 -0.10614196032E+01  0.11804404290E+01  0.00000000000E+00 0. -1.
         11    1    3    3    0    0  0.14340744400E+02  0.87797609921E+01 -0.23755029817E+02  0.29103996201E+02  0.51100000000E-03 0. -1.
        -11    1    3    3    0    0  0.53843467523E+01  0.91124192353E+01 -0.11551971456E+02  0.15667655187E+02  0.51100000000E-03 0.  1.
        -12    1    3    3    0    0 -0.19624217492E+02 -0.18398789087E+02  0.36368420877E+02  0.45235908183E+02  0.00000000000E+00 0.  1.
</event>
<event>
 7    1  0.2404951E-015  0.9000781E+02  0.7816164E-02  0.1186339E+00
        -11   -1    0    0    0    0  0.00000000000E+00  0.00000000000E+00  0.45593999997E+02  0.45594000000E+02  0.51100000000E-03 0.  1.
         11   -1    0    0    0    0 -0.00000000000E+00 -0.00000000000E+00 -0.45593999997E+02  0.45594000000E+02  0.51100000000E-03 0. -1.
    9900012    2    1    2    0    0  0.61282328272E+00  0.61011738055E+00  0.80315506810E+00  0.90007807788E+02  0.90000070051E+02 0.  0.
         12    1    1    2    0    0 -0.61282328272E+00 -0.61011738055E+00 -0.80315506810E+00  0.11801922120E+01  0.00000000000E+00 0. -1.
         11    1    3    3    0    0 -0.20050322239E+02  0.29609411379E+02  0.85737965925E+01  0.36772852111E+02  0.51100000000E-03 0. -1.
        -11    1    3    3    0    0 -0.74795206276E+01  0.37559189760E+01 -0.54507656172E+01  0.99880429639E+01  0.51100000000E-03 0.  1.
        -12    1    3    3    0    0  0.28142666149E+02 -0.32755212975E+02 -0.23198759072E+01  0.43246912713E+02  0.00000000000E+00 0.  1.
</event>
<event>
 7    1  0.2404951E-015  0.9000773E+02  0.7816164E-02  0.1186339E+00
        -11   -1    0    0    0    0  0.00000000000E+00  0.00000000000E+00  0.45593999997E+02  0.45594000000E+02  0.51100000000E-03 0. -1.
         11   -1    0    0    0    0 -0.00000000000E+00 -0.00000000000E+00 -0.45593999997E+02  0.45594000000E+02  0.51100000000E-03 0.  1.
    9900012    2    1    2    0    0  0.26154922194E+00 -0.11465044697E+01  0.10074870611E+00  0.90007732744E+02  0.89999994016E+02 0.  0.
         12    1    1    2    0    0 -0.26154922194E+00  0.11465044697E+01 -0.10074870611E+00  0.11802672563E+01  0.00000000000E+00 0. -1.
         11    1    3    3    0    0 -0.19997203542E+02 -0.27856251350E+02  0.22700238765E+02  0.41123712491E+02  0.51100000000E-03 0. -1.
        -11    1    3    3    0    0 -0.44144181426E+01  0.57551448219E+01  0.27621763714E+01  0.77613399634E+01  0.51100000000E-03 0.  1.
        -12    1    3    3    0    0  0.24673170907E+02  0.20954602059E+02 -0.25361666431E+02  0.41122680289E+02  0.00000000000E+00 0.  1.
</event>
<event>
 7    1  0.2404951E-015  0.9000775E+02  0.7816164E-02  0.1186339E+00
        -11   -1    0    0    0    0  0.00000000000E+00  0.00000000000E+00  0.45593999997E+02  0.45594000000E+02  0.51100000000E-03 0.  1.
         11   -1    0    0    0    0 -0.00000000000E+00 -0.00000000000E+00 -0.45593999997E+02  0.45594000000E+02  0.51100000000E-03 0. -1.
    9900012    2    1    2    0    0 -0.90002182568E+00  0.20153987721E-02  0.76351706375E+00  0.90007745089E+02  0.90000006524E+02 0.  0.
         12    1    1    2    0    0  0.90002182568E+00 -0.20153987721E-02 -0.76351706375E+00  0.11802549111E+01  0.00000000000E+00 0. -1.
         11    1    3    3    0    0 -0.93564501245E+01  0.14830417396E+02 -0.36215263566E+02  0.40237168818E+02  0.51100000000E-03 0. -1.
        -11    1    3    3    0    0  0.38371830498E+01 -0.62311690519E+01 -0.35142880572E+01  0.81179838828E+01  0.51100000000E-03 0.  1.
        -12    1    3    3    0    0  0.46192452490E+01 -0.85972329449E+01  0.40493068687E+02  0.41652592388E+02  0.00000000000E+00 0.  1.
</event>
<event>
 7    1  0.2404951E-015  0.9000774E+02  0.7816164E-02  0.1186339E+00
        -11   -1    0    0    0    0  0.00000000000E+00  0.00000000000E+00  0.45593999997E+02  0.45594000000E+02  0.51100000000E-03 0.  1.
         11   -1    0    0    0    0 -0.00000000000E+00 -0.00000000000E+00 -0.45593999997E+02  0.45594000000E+02  0.51100000000E-03 0. -1.
    9900012    2    1    2    0    0  0.63807280351E+00 -0.89072575115E+00 -0.43873098327E+00  0.90007739799E+02  0.90000001164E+02 0.  0.
         12    1    1    2    0    0 -0.63807280351E+00  0.89072575115E+00  0.43873098327E+00  0.11802602010E+01  0.00000000000E+00 0. -1.
         11    1    3    3    0    0  0.72653081351E+01 -0.47662785886E+01  0.11553349875E+00  0.86899632987E+01  0.51100000000E-03 0. -1.
        -11    1    3    3    0    0  0.30526614532E+02 -0.15282579214E+02  0.14219587905E+02  0.36981456200E+02  0.51100000000E-03 0.  1.
         12    1    3    3    0    0 -0.37153849864E+02  0.19158132052E+02 -0.14773852387E+02  0.44336320300E+02  0.00000000000E+00 0. -1.
</event>
<event>
 7    1  0.2404951E-015  0.9000763E+02  0.7816164E-02  0.1186339E+00
        -11   -1    0    0    0    0  0.00000000000E+00  0.00000000000E+00  0.45593999997E+02  0.45594000000E+02  0.51100000000E-03 0.  1.
         11   -1    0    0    0    0 -0.00000000000E+00 -0.00000000000E+00 -0.45593999997E+02  0.45594000000E+02  0.51100000000E-03 0. -1.
    9900012    2    1    2    0    0  0.10028830464E+01  0.26449687633E+00  0.56351680628E+00  0.90007625401E+02  0.89999885256E+02 0.  0.
         12    1    1    2    0    0 -0.10028830464E+01 -0.26449687633E+00 -0.56351680628E+00  0.11803745987E+01  0.00000000000E+00 0. -1.
         11    1    3    3    0    0 -0.80081763283E+01  0.39436781352E+01  0.33684274621E+01  0.95409532631E+01  0.51100000000E-03 0. -1.
        -11    1    3    3    0    0  0.21125001142E+02  0.10861845158E+02  0.32590872921E+02  0.40328778205E+02  0.51100000000E-03 0.  1.
         12    1    3    3    0    0 -0.12113941767E+02 -0.14541026417E+02 -0.35395783577E+02  0.40137893933E+02  0.00000000000E+00 0. -1.
</event>
<event>
 7    1  0.2404951E-015  0.9000764E+02  0.7816164E-02  0.1186339E+00
        -11   -1    0    0    0    0  0.00000000000E+00  0.00000000000E+00  0.45593999997E+02  0.45594000000E+02  0.51100000000E-03 0. -1.
         11   -1    0    0    0    0 -0.00000000000E+00 -0.00000000000E+00 -0.45593999997E+02  0.45594000000E+02  0.51100000000E-03 0.  1.
    9900012    2    1    2    0    0  0.85026915429E+00  0.80229318217E+00  0.16316767221E+00  0.90007637482E+02  0.89999897497E+02 0.  0.
         12    1    1    2    0    0 -0.85026915429E+00 -0.80229318217E+00 -0.16316767221E+00  0.11803625181E+01  0.00000000000E+00 0. -1.
         11    1    3    3    0    0  0.31689888108E+02  0.17919420865E+01  0.23359242731E+02  0.39409570994E+02  0.51100000000E-03 0. -1.
        -11    1    3    3    0    0  0.32327248162E+01 -0.89663879056E+01 -0.21761303878E+01  0.97766131936E+01  0.51100000000E-03 0.  1.
        -12    1    3    3    0    0 -0.34072343770E+02  0.79767390013E+01 -0.21019944671E+02  0.40821453294E+02  0.00000000000E+00 0.  1.
</event>
<event>
 7    1  0.2404951E-015  0.9000783E+02  0.7816164E-02  0.1186339E+00
        -11   -1    0    0    0    0  0.00000000000E+00  0.00000000000E+00  0.45593999997E+02  0.45594000000E+02  0.51100000000E-03 0. -1.
         11   -1    0    0    0    0 -0.00000000000E+00 -0.00000000000E+00 -0.45593999997E+02  0.45594000000E+02  0.51100000000E-03 0.  1.
    9900012    2    1    2    0    0  0.75778974619E+00  0.68775127551E+00  0.58784427549E+00  0.90007827128E+02  0.90000089646E+02 0.  0.
         12    1    1    2    0    0 -0.75778974619E+00 -0.68775127551E+00 -0.58784427549E+00  0.11801728723E+01  0.00000000000E+00 0. -1.
         11    1    3    3    0    0  0.83320384719E+01  0.37153709209E+01  0.11690511087E+01  0.91974739431E+01  0.51100000000E-03 0. -1.
        -11    1    3    3    0    0  0.13706246999E+02 -0.14345990581E+01 -0.36508635196E+02  0.39023066581E+02  0.51100000000E-03 0.  1.
         12    1    3    3    0    0 -0.21280495725E+02 -0.15930205873E+01  0.35927428363E+02  0.41787286603E+02  0.00000000000E+00 0. -1.
</event>
<event>
 7    1  0.2404951E-015  0.9000781E+02  0.7816164E-02  0.1186339E+00
        -11   -1    0    0    0    0  0.00000000000E+00  0.00000000000E+00  0.45593999997E+02  0.45594000000E+02  0.51100000000E-03 0.  1.
         11   -1    0    0    0    0 -0.00000000000E+00 -0.00000000000E+00 -0.45593999997E+02  0.45594000000E+02  0.51100000000E-03 0. -1.
    9900012    2    1    2    0    0  0.48960734583E+00 -0.43044601803E+00  0.98379539010E+00  0.90007808280E+02  0.90000070549E+02 0.  0.
         12    1    1    2    0    0 -0.48960734583E+00  0.43044601803E+00 -0.98379539010E+00  0.11801917205E+01  0.00000000000E+00 0. -1.
         11    1    3    3    0    0  0.35576590266E+01  0.34122580365E+01 -0.79572508513E+01  0.93604638790E+01  0.51100000000E-03 0. -1.
        -11    1    3    3    0    0 -0.12360923961E+02  0.36595088603E+02  0.31717633839E+01  0.38756328957E+02  0.51100000000E-03 0.  1.
         12    1    3    3    0    0  0.92928722805E+01 -0.40437792657E+02  0.57692828575E+01  0.41891015444E+02  0.00000000000E+00 0. -1.
</event>
<event>
 7    1  0.2404951E-015  0.9000794E+02  0.7816164E-02  0.1186339E+00
        -11   -1    0    0    0    0  0.00000000000E+00  0.00000000000E+00  0.45593999997E+02  0.45594000000E+02  0.51100000000E-03 0. -1.
         11   -1    0    0    0    0 -0.00000000000E+00 -0.00000000000E+00 -0.45593999997E+02  0.45594000000E+02  0.51100000000E-03 0.  1.
    9900012    2    1    2    0    0  0.97639615123E+00  0.55183164642E+00  0.36699502664E+00  0.90007935188E+02  0.90000199133E+02 0.  0.
         12    1    1    2    0    0 -0.97639615123E+00 -0.55183164642E+00 -0.36699502664E+00  0.11800648117E+01  0.00000000000E+00 0. -1.
         11    1    3    3    0    0  0.76777383923E+01  0.84564006461E+01 -0.52626488831E+01  0.12575923514E+02  0.51100000000E-03 0. -1.
        -11    1    3    3    0    0  0.35012819412E+02 -0.25637625941E+01  0.96967241418E+00  0.35119946849E+02  0.51100000000E-03 0.  1.
         12    1    3    3    0    0 -0.41714161653E+02 -0.53408064056E+01  0.46599714955E+01  0.42312064826E+02  0.00000000000E+00 0. -1.
</event>
<event>
 7    1  0.2404951E-015  0.9000770E+02  0.7816164E-02  0.1186339E+00
        -11   -1    0    0    0    0  0.00000000000E+00  0.00000000000E+00  0.45593999997E+02  0.45594000000E+02  0.51100000000E-03 0.  1.
         11   -1    0    0    0    0 -0.00000000000E+00 -0.00000000000E+00 -0.45593999997E+02  0.45594000000E+02  0.51100000000E-03 0. -1.
    9900012    2    1    2    0    0 -0.73599332383E+00  0.89805490009E+00  0.21196940749E+00  0.90007695037E+02  0.89999955811E+02 0.  0.
         12    1    1    2    0    0  0.73599332383E+00 -0.89805490009E+00 -0.21196940749E+00  0.11803049631E+01  0.00000000000E+00 0. -1.
         11    1    3    3    0    0 -0.25527217409E+01  0.35426559114E+01  0.85923283353E+01  0.96382003338E+01  0.51100000000E-03 0. -1.
        -11    1    3    3    0    0 -0.17214817850E+02  0.33752045605E+02  0.22131666003E+01  0.37953242849E+02  0.51100000000E-03 0.  1.
         12    1    3    3    0    0  0.19031546267E+02 -0.36396646616E+02 -0.10593525528E+02  0.42416251854E+02  0.00000000000E+00 0. -1.
</event>
<event>
 7    1  0.2638654E-015  0.9000773E+02  0.7816164E-02  0.1186339E+00
        -11   -1    0    0    0    0  0.00000000000E+00  0.00000000000E+00  0.45593999997E+02  0.45594000000E+02  0.51100000000E-03 0.  1.
         11   -1    0    0    0    0 -0.00000000000E+00 -0.00000000000E+00 -0.45593999997E+02  0.45594000000E+02  0.51100000000E-03 0. -1.
    9900012    2    1    2    0    0 -0.33423197892E+00 -0.11088863459E+01  0.22737137266E+00  0.90007729825E+02  0.89999991059E+02 0.  0.
         12    1    1    2    0    0  0.33423197892E+00  0.11088863459E+01 -0.22737137266E+00  0.11802701745E+01  0.00000000000E+00 0. -1.
         11    1    3    3    0    0 -0.22001846968E+02 -0.21219992357E+02 -0.25175703172E+02  0.39600320404E+02  0.51100000000E-03 0. -1.
        -11    1    3    3    0    0  0.95670958254E+00  0.60402646895E+01 -0.71049619091E+01  0.93744639705E+01  0.51100000000E-03 0.  1.
        -12    1    3    3    0    0  0.20710905407E+02  0.14070841322E+02  0.32508036454E+02  0.41032945451E+02  0.00000000000E+00 0.  1.
</event>
<event>
 7    1  0.2404951E-015  0.9000774E+02  0.7816164E-02  0.1186339E+00
        -11   -1    0    0    0    0  0.00000000000E+00  0.00000000000E+00  0.45593999997E+02  0.45594000000E+02  0.51100000000E-03 0. -1.
         11   -1    0    0    0    0 -0.00000000000E+00 -0.00000000000E+00 -0.45593999997E+02  0.45594000000E+02  0.51100000000E-03 0.  1.
    9900012    2    1    2    0    0 -0.56186608448E+00 -0.57471401317E+00 -0.86431080412E+00  0.90007736106E+02  0.89999997422E+02 0.  0.
         12    1    1    2    0    0  0.56186608448E+00  0.57471401317E+00  0.86431080412E+00  0.11802638942E+01  0.00000000000E+00 0. -1.
         11    1    3    3    0    0 -0.98977854004E+01 -0.26746988644E+00  0.43937878312E+00  0.99111427166E+01  0.51100000000E-03 0. -1.
        -11    1    3    3    0    0 -0.87581264338E+01  0.24930126782E+02 -0.28466117388E+02  0.38839874348E+02  0.51100000000E-03 0.  1.
         12    1    3    3    0    0  0.18094045750E+02 -0.25237370909E+02  0.27162427800E+02  0.41256719041E+02  0.00000000000E+00 0. -1.
</event>
<event>
 7    1  0.2404951E-015  0.9000791E+02  0.7816164E-02  0.1186339E+00
        -11   -1    0    0    0    0  0.00000000000E+00  0.00000000000E+00  0.45593999997E+02  0.45594000000E+02  0.51100000000E-03 0.  1.
         11   -1    0    0    0    0 -0.00000000000E+00 -0.00000000000E+00 -0.45593999997E+02  0.45594000000E+02  0.51100000000E-03 0. -1.
    9900012    2    1    2    0    0  0.74081532748E+00 -0.47954585342E+00 -0.78347566428E+00  0.90007912846E+02  0.90000176495E+02 0.  0.
         12    1    1    2    0    0 -0.74081532748E+00  0.47954585342E+00  0.78347566428E+00  0.11800871542E+01  0.00000000000E+00 0. -1.
         11    1    3    3    0    0 -0.10183420207E+02  0.36111346827E+01 -0.50820278634E+01  0.11940240713E+02  0.51100000000E-03 0. -1.
        -11    1    3    3    0    0  0.33021611058E+02  0.24508756469E+02 -0.28655581339E+01  0.41222777250E+02  0.51100000000E-03 0.  1.
         12    1    3    3    0    0 -0.22097375523E+02 -0.28599437006E+02  0.71641103330E+01  0.36844894883E+02  0.00000000000E+00 0. -1.
</event>
<event>
 7    1  0.2404951E-015  0.9000766E+02  0.7816164E-02  0.1186339E+00
        -11   -1    0    0    0    0  0.00000000000E+00  0.00000000000E+00  0.45593999997E+02  0.45594000000E+02  0.51100000000E-03 0. -1.
         11   -1    0    0    0    0 -0.00000000000E+00 -0.00000000000E+00 -0.45593999997E+02  0.45594000000E+02  0.51100000000E-03 0.  1.
    9900012    2    1    2    0    0  0.65404216540E+00  0.16941925198E-01 -0.98241520101E+00  0.90007661993E+02  0.89999922332E+02 0.  0.
         12    1    1    2    0    0 -0.65404216540E+00 -0.16941925198E-01  0.98241520101E+00  0.11803380067E+01  0.00000000000E+00 0. -1.
         11    1    3    3    0    0 -0.18586058437E+02  0.15921569557E+02 -0.28688471678E+02  0.37708969130E+02  0.51100000000E-03 0. -1.
        -11    1    3    3    0    0 -0.46127275970E-01  0.96894125425E+01 -0.36429441613E+00  0.96963680741E+01  0.51100000000E-03 0.  1.
        -12    1    3    3    0    0  0.19286227878E+02 -0.25594040174E+02  0.28070350893E+02  0.42602324789E+02  0.00000000000E+00 0.  1.
</event>
<event>
 7    1  0.2404951E-015  0.9000733E+02  0.7816164E-02  0.1186340E+00
        -11   -1    0    0    0    0  0.00000000000E+00  0.00000000000E+00  0.45593999997E+02  0.45594000000E+02  0.51100000000E-03 0.  1.
         11   -1    0    0    0    0 -0.00000000000E+00 -0.00000000000E+00 -0.45593999997E+02  0.45594000000E+02  0.51100000000E-03 0. -1.
    9900012    2    1    2    0    0  0.26653625283E+00  0.29043194524E+00  0.11129163380E+01  0.90007332788E+02  0.89999588780E+02 0.  0.
         12    1    1    2    0    0 -0.26653625283E+00 -0.29043194524E+00 -0.11129163380E+01  0.11806672115E+01  0.00000000000E+00 0. -1.
         11    1    3    3    0    0  0.45061930351E+01  0.72085304194E+00 -0.34983928276E+02  0.35280315229E+02  0.51100000000E-03 0. -1.
        -11    1    3    3    0    0 -0.67137298786E+01 -0.14534164052E+02  0.12543254294E+00  0.16010366240E+02  0.51100000000E-03 0.  1.
        -12    1    3    3    0    0  0.24740730963E+01  0.14103742955E+02  0.35971412071E+02  0.38716651319E+02  0.00000000000E+00 0.  1.
</event>
<event>
 7    1  0.2404951E-015  0.9000806E+02  0.7816164E-02  0.1186338E+00
        -11   -1    0    0    0    0  0.00000000000E+00  0.00000000000E+00  0.45593999997E+02  0.45594000000E+02  0.51100000000E-03 0. -1.
         11   -1    0    0    0    0 -0.00000000000E+00 -0.00000000000E+00 -0.45593999997E+02  0.45594000000E+02  0.51100000000E-03 0.  1.
    9900012    2    1    2    0    0  0.12354455498E+00  0.77271035944E+00 -0.88312521228E+00  0.90008061571E+02  0.90000327183E+02 0.  0.
         12    1    1    2    0    0 -0.12354455498E+00 -0.77271035944E+00  0.88312521228E+00  0.11799384294E+01  0.00000000000E+00 0. -1.
         11    1    3    3    0    0  0.18410001304E+01 -0.32473348379E+01 -0.96779663373E+01  0.10372921369E+02  0.51100000000E-03 0. -1.
        -11    1    3    3    0    0 -0.89834669557E+01 -0.44965971718E+01 -0.33972561166E+02  0.35426783330E+02  0.51100000000E-03 0.  1.
         12    1    3    3    0    0  0.72660113803E+01  0.85166423692E+01  0.42767402291E+02  0.44208356872E+02  0.00000000000E+00 0. -1.
</event>
<event>
 7    1  0.2404951E-015  0.9000751E+02  0.7816164E-02  0.1186340E+00
        -11   -1    0    0    0    0  0.00000000000E+00  0.00000000000E+00  0.45593999997E+02  0.45594000000E+02  0.51100000000E-03 0. -1.
         11   -1    0    0    0    0 -0.00000000000E+00 -0.00000000000E+00 -0.45593999997E+02  0.45594000000E+02  0.51100000000E-03 0.  1.
    9900012    2    1    2    0    0 -0.23123355808E+00 -0.68890982125E+00 -0.93032060647E+00  0.90007507674E+02  0.89999765975E+02 0.  0.
         12    1    1    2    0    0  0.23123355808E+00  0.68890982125E+00  0.93032060647E+00  0.11804923257E+01  0.00000000000E+00 0. -1.
         11    1    3    3    0    0  0.98040409280E+01  0.29801986915E+02  0.23149600654E+02  0.38989506964E+02  0.51100000000E-03 0. -1.
        -11    1    3    3    0    0  0.93684630867E+01 -0.66917771835E+00 -0.53899424282E+01  0.10829006375E+02  0.51100000000E-03 0.  1.
        -12    1    3    3    0    0 -0.19403737573E+02 -0.29821719018E+02 -0.18689978832E+02  0.40188994336E+02  0.00000000000E+00 0.  1.
</event>
<event>
 7    1  0.2404951E-015  0.9000787E+02  0.7816164E-02  0.1186339E+00
        -11   -1    0    0    0    0  0.00000000000E+00  0.00000000000E+00  0.45593999997E+02  0.45594000000E+02  0.51100000000E-03 0.  1.
         11   -1    0    0    0    0 -0.00000000000E+00 -0.00000000000E+00 -0.45593999997E+02  0.45594000000E+02  0.51100000000E-03 0. -1.
    9900012    2    1    2    0    0 -0.52350915521E+00 -0.47177794679E-01  0.10566113236E+01  0.90007866504E+02  0.90000129541E+02 0.  0.
         12    1    1    2    0    0  0.52350915521E+00  0.47177794679E-01 -0.10566113236E+01  0.11801334963E+01  0.00000000000E+00 0. -1.
         11    1    3    3    0    0 -0.11654334426E+02  0.77957953110E+01 -0.33688960027E+02  0.36490326984E+02  0.51100000000E-03 0. -1.
        -11    1    3    3    0    0  0.13151794546E+01 -0.10239200318E+02 -0.57251693870E+01  0.11804595923E+02  0.51100000000E-03 0.  1.
        -12    1    3    3    0    0  0.98156458164E+01  0.23962272120E+01  0.40470740737E+02  0.41712943596E+02  0.00000000000E+00 0.  1.
</event>
<event>
 7    1  0.2437768E-015  0.9000798E+02  0.7816164E-02  0.1186339E+00
        -11   -1    0    0    0    0  0.00000000000E+00  0.00000000000E+00  0.45593999997E+02  0.45594000000E+02  0.51100000000E-03 0. -1.
         11   -1    0    0    0    0 -0.00000000000E+00 -0.00000000000E+00 -0.45593999997E+02  0.45594000000E+02  0.51100000000E-03 0.  1.
    9900012    2    1    2    0    0 -0.23837134099E+00  0.89484623802E+00 -0.73135232936E+00  0.90007980121E+02  0.90000244658E+02 0.  0.
         12    1    1    2    0    0  0.23837134099E+00 -0.89484623802E+00  0.73135232936E+00  0.11800198793E+01  0.00000000000E+00 0. -1.
         11    1    3    3    0    0 -0.12540380121E+02 -0.37414597945E+01  0.32504403759E+02  0.35039918935E+02  0.51100000000E-03 0. -1.
        -11    1    3    3    0    0 -0.21109618779E+01  0.30824587957E+01  0.93040198238E+01  0.10026090834E+02  0.51100000000E-03 0.  1.
        -12    1    3    3    0    0  0.14412970658E+02  0.15538472368E+01 -0.42539775912E+02  0.44941970351E+02  0.00000000000E+00 0.  1.
</event>
<event>
 7    1  0.2404951E-015  0.9000772E+02  0.7816164E-02  0.1186339E+00
        -11   -1    0    0    0    0  0.00000000000E+00  0.00000000000E+00  0.45593999997E+02  0.45594000000E+02  0.51100000000E-03 0.  1.
         11   -1    0    0    0    0 -0.00000000000E+00 -0.00000000000E+00 -0.45593999997E+02  0.45594000000E+02  0.51100000000E-03 0. -1.
    9900012    2    1    2    0    0 -0.11000856571E+01  0.27132991277E+00 -0.33053120097E+00  0.90007720690E+02  0.89999981803E+02 0.  0.
         12    1    1    2    0    0  0.11000856571E+01 -0.27132991277E+00  0.33053120097E+00  0.11802793099E+01  0.00000000000E+00 0. -1.
         11    1    3    3    0    0 -0.29200072021E+02  0.32902731406E+02 -0.22605619605E+01  0.44049336892E+02  0.51100000000E-03 0. -1.
        -11    1    3    3    0    0  0.47661284730E+01 -0.15657043248E+01 -0.43022313190E+01  0.66088278263E+01  0.51100000000E-03 0.  1.
        -12    1    3    3    0    0  0.23333857890E+02 -0.31065697168E+02  0.62322620785E+01  0.39349555972E+02  0.00000000000E+00 0.  1.
</event>
<event>
 7    1  0.2404951E-015  0.9000755E+02  0.7816164E-02  0.1186339E+00
        -11   -1    0    0    0    0  0.00000000000E+00  0.00000000000E+00  0.45593999997E+02  0.45594000000E+02  0.51100000000E-03 0.  1.
         11   -1    0    0    0    0 -0.00000000000E+00 -0.00000000000E+00 -0.45593999997E+02  0.45594000000E+02  0.51100000000E-03 0. -1.
    9900012    2    1    2    0    0  0.50555109601E+00  0.47278830003E+00  0.95621883194E+00  0.90007548755E+02  0.89999807598E+02 0.  0.
         12    1    1    2    0    0 -0.50555109601E+00 -0.47278830003E+00 -0.95621883194E+00  0.11804512450E+01  0.00000000000E+00 0. -1.
         11    1    3    3    0    0  0.17611709446E+01 -0.79407176302E+01 -0.43983414280E+01  0.92467360272E+01  0.51100000000E-03 0. -1.
        -11    1    3    3    0    0  0.21506692947E+02 -0.28755483848E+02  0.90136156392E+01  0.37022438601E+02  0.51100000000E-03 0.  1.
         12    1    3    3    0    0 -0.22762312795E+02  0.37168989779E+02 -0.36590553792E+01  0.43738374126E+02  0.00000000000E+00 0. -1.
</event>
<event>
 7    1  0.2404951E-015  0.9000779E+02  0.7816164E-02  0.1186339E+00
        -11   -1    0    0    0    0  0.00000000000E+00  0.00000000000E+00  0.45593999997E+02  0.45594000000E+02  0.51100000000E-03 0.  1.
         11   -1    0    0    0    0 -0.00000000000E+00 -0.00000000000E+00 -0.45593999997E+02  0.45594000000E+02  0.51100000000E-03 0. -1.
    9900012    2    1    2    0    0 -0.54882141478E+00 -0.96362907333E+00  0.40387379085E+00  0.90007788165E+02  0.90000050169E+02 0.  0.
         12    1    1    2    0    0  0.54882141478E+00  0.96362907333E+00 -0.40387379085E+00  0.11802118349E+01  0.00000000000E+00 0. -1.
         11    1    3    3    0    0  0.68525184256E+01  0.31783260481E+01  0.26188360218E+01  0.79948150454E+01  0.51100000000E-03 0. -1.
        -11    1    3    3    0    0  0.34397151215E+02  0.13010641165E+02  0.42722133031E-01  0.36775570977E+02  0.51100000000E-03 0.  1.
         12    1    3    3    0    0 -0.41798491056E+02 -0.17152596286E+02 -0.22576843639E+01  0.45237402142E+02  0.00000000000E+00 0. -1.
</event>
<event>
 7    1  0.2404951E-015  0.9000771E+02  0.7816164E-02  0.1186339E+00
        -11   -1    0    0    0    0  0.00000000000E+00  0.00000000000E+00  0.45593999997E+02  0.45594000000E+02  0.51100000000E-03 0. -1.
         11   -1    0    0    0    0 -0.00000000000E+00 -0.00000000000E+00 -0.45593999997E+02  0.45594000000E+02  0.51100000000E-03 0.  1.
    9900012    2    1    2    0    0  0.87106629390E+00  0.76604497427E+00 -0.21797045199E+00  0.90007706600E+02  0.89999967528E+02 0.  0.
         12    1    1    2    0    0 -0.87106629390E+00 -0.76604497427E+00  0.21797045199E+00  0.11802933995E+01  0.00000000000E+00 0. -1.
         11    1    3    3    0    0 -0.30994847550E+02 -0.45677435826E+00  0.12367461723E+02  0.33374291412E+02  0.51100000000E-03 0. -1.
        -11    1    3    3    0    0 -0.11018087979E+02 -0.17584624838E+01  0.18020810769E+01  0.11302121459E+02  0.51100000000E-03 0.  1.
        -12    1    3    3    0    0  0.42884001823E+02  0.29812818164E+01 -0.14387513252E+02  0.45331293730E+02  0.00000000000E+00 0.  1.
</event>
<event>
 7    1  0.2404951E-015  0.9000772E+02  0.7816164E-02  0.1186339E+00
        -11   -1    0    0    0    0  0.00000000000E+00  0.00000000000E+00  0.45593999997E+02  0.45594000000E+02  0.51100000000E-03 0.  1.
         11   -1    0    0    0    0 -0.00000000000E+00 -0.00000000000E+00 -0.45593999997E+02  0.45594000000E+02  0.51100000000E-03 0. -1.
    9900012    2    1    2    0    0 -0.39049064965E+00 -0.79382169051E+00 -0.78130030040E+00  0.90007717837E+02  0.89999978913E+02 0.  0.
         12    1    1    2    0    0  0.39049064965E+00  0.79382169051E+00  0.78130030040E+00  0.11802821625E+01  0.00000000000E+00 0. -1.
         11    1    3    3    0    0  0.96317928413E+00 -0.51597480180E+01 -0.12024495434E+02  0.13120183102E+02  0.51100000000E-03 0. -1.
        -11    1    3    3    0    0 -0.23936319513E+02 -0.27547369873E+02  0.97039833589E+01  0.37762048038E+02  0.51100000000E-03 0.  1.
         12    1    3    3    0    0  0.22582649579E+02  0.31913296200E+02  0.15392117744E+01  0.39125486697E+02  0.00000000000E+00 0. -1.
</event>
<event>
 7    1  0.2404951E-015  0.9000776E+02  0.7816164E-02  0.1186339E+00
        -11   -1    0    0    0    0  0.00000000000E+00  0.00000000000E+00  0.45593999997E+02  0.45594000000E+02  0.51100000000E-03 0. -1.
         11   -1    0    0    0    0 -0.00000000000E+00 -0.00000000000E+00 -0.45593999997E+02  0.45594000000E+02  0.51100000000E-03 0.  1.
    9900012    2    1    2    0    0  0.64895967459E+00 -0.77518641948E+00 -0.60901493933E+00  0.90007761956E+02  0.90000023614E+02 0.  0.
         12    1    1    2    0    0 -0.64895967459E+00  0.77518641948E+00  0.60901493933E+00  0.11802380440E+01  0.00000000000E+00 0. -1.
         11    1    3    3    0    0  0.30826753515E+01 -0.92403869602E+01 -0.13788252623E+02  0.16882048132E+02  0.51100000000E-03 0. -1.
        -11    1    3    3    0    0  0.83277609596E+01 -0.23961770926E+02 -0.14442467494E+02  0.29190802252E+02  0.51100000000E-03 0.  1.
         12    1    3    3    0    0 -0.10761476636E+02  0.32426971467E+02  0.27621705178E+02  0.43934911572E+02  0.00000000000E+00 0. -1.
</event>
<event>
 7    1  0.2404951E-015  0.9000789E+02  0.7816164E-02  0.1186339E+00
        -11   -1    0    0    0    0  0.00000000000E+00  0.00000000000E+00  0.45593999997E+02  0.45594000000E+02  0.51100000000E-03 0.  1.
         11   -1    0    0    0    0 -0.00000000000E+00 -0.00000000000E+00 -0.45593999997E+02  0.45594000000E+02  0.51100000000E-03 0. -1.
    9900012    2    1    2    0    0  0.50279877893E+00 -0.10513320854E+01 -0.18588529727E+00  0.90007890213E+02  0.90000153564E+02 0.  0.
         12    1    1    2    0    0 -0.50279877893E+00  0.10513320854E+01  0.18588529727E+00  0.11801097871E+01  0.00000000000E+00 0. -1.
         11    1    3    3    0    0  0.36703409754E+01  0.18995124861E+01 -0.85275075249E+01  0.94761772571E+01  0.51100000000E-03 0. -1.
        -11    1    3    3    0    0  0.12957838732E+02  0.32176494053E+02  0.20151138727E+02  0.40116090866E+02  0.51100000000E-03 0.  1.
         12    1    3    3    0    0 -0.16125380928E+02 -0.35127338625E+02 -0.11809516499E+02  0.40415622089E+02  0.00000000000E+00 0. -1.
</event>
<event>
 7    1  0.2404951E-015  0.9000769E+02  0.7816164E-02  0.1186339E+00
        -11   -1    0    0    0    0  0.00000000000E+00  0.00000000000E+00  0.45593999997E+02  0.45594000000E+02  0.51100000000E-03 0. -1.
         11   -1    0    0    0    0 -0.00000000000E+00 -0.00000000000E+00 -0.45593999997E+02  0.45594000000E+02  0.51100000000E-03 0.  1.
    9900012    2    1    2    0    0  0.80584030654E-01 -0.95212147685E+00 -0.69290083250E+00  0.90007686204E+02  0.89999946862E+02 0.  0.
         12    1    1    2    0    0 -0.80584030654E-01  0.95212147685E+00  0.69290083250E+00  0.11803137957E+01  0.00000000000E+00 0. -1.
         11    1    3    3    0    0 -0.45704997177E+01 -0.53796291689E+01 -0.67681041435E+01  0.97794228676E+01  0.51100000000E-03 0. -1.
        -11    1    3    3    0    0  0.46627323222E+01  0.36511600788E+01 -0.36836511614E+02  0.37309524666E+02  0.51100000000E-03 0.  1.
         12    1    3    3    0    0 -0.11648573841E-01  0.77634761318E+00  0.42911714925E+02  0.42918738671E+02  0.00000000000E+00 0. -1.
</event>
<event>
 7    1  0.2404951E-015  0.9000775E+02  0.7816164E-02  0.1186339E+00
        -11   -1    0    0    0    0  0.00000000000E+00  0.00000000000E+00  0.45593999997E+02  0.45594000000E+02  0.51100000000E-03 0.  1.
         11   -1    0    0    0    0 -0.00000000000E+00 -0.00000000000E+00 -0.45593999997E+02  0.45594000000E+02  0.51100000000E-03 0. -1.
    9900012    2    1    2    0    0 -0.94149535462E+00 -0.62833350900E+00  0.33434093326E+00  0.90007745637E+02  0.90000007080E+02 0.  0.
         12    1    1    2    0    0  0.94149535462E+00  0.62833350900E+00 -0.33434093326E+00  0.11802543628E+01  0.00000000000E+00 0. -1.
         11    1    3    3    0    0  0.10450859868E+02  0.21316482029E+02 -0.25935909751E+02  0.35160834645E+02  0.51100000000E-03 0. -1.
        -11    1    3    3    0    0 -0.22682611483E+01 -0.11670554955E+02 -0.10331584887E+02  0.15750825633E+02  0.51100000000E-03 0.  1.
        -12    1    3    3    0    0 -0.91240940745E+01 -0.10274260583E+02  0.36601835571E+02  0.39096085359E+02  0.00000000000E+00 0.  1.
</event>
<event>
 7    1  0.2404951E-015  0.9000779E+02  0.7816164E-02  0.1186339E+00
        -11   -1    0    0    0    0  0.00000000000E+00  0.00000000000E+00  0.45593999997E+02  0.45594000000E+02  0.51100000000E-03 0. -1.
         11   -1    0    0    0    0 -0.00000000000E+00 -0.00000000000E+00 -0.45593999997E+02  0.45594000000E+02  0.51100000000E-03 0.  1.
    9900012    2    1    2    0    0 -0.10304215391E+01  0.45483867276E+00  0.35248245082E+00  0.90007792118E+02  0.90000054174E+02 0.  0.
         12    1    1    2    0    0  0.10304215391E+01 -0.45483867276E+00 -0.35248245082E+00  0.11802078819E+01  0.00000000000E+00 0. -1.
         11    1    3    3    0    0  0.84735343685E+01  0.32223487744E+02  0.17420649377E+02  0.37598310761E+02  0.51100000000E-03 0. -1.
        -11    1    3    3    0    0 -0.97605058332E+01  0.40459366611E+01  0.34724989263E+01  0.11121840074E+02  0.51100000000E-03 0.  1.
        -12    1    3    3    0    0  0.25654992554E+00 -0.35814585732E+02 -0.20540665853E+02  0.41287641283E+02  0.00000000000E+00 0.  1.
</event>
<event>
 7    1  0.2404951E-015  0.9000800E+02  0.7816164E-02  0.1186339E+00
        -11   -1    0    0    0    0  0.00000000000E+00  0.00000000000E+00  0.45593999997E+02  0.45594000000E+02  0.51100000000E-03 0.  1.
         11   -1    0    0    0    0 -0.00000000000E+00 -0.00000000000E+00 -0.45593999997E+02  0.45594000000E+02  0.51100000000E-03 0. -1.
    9900012    2    1    2    0    0 -0.18939413342E+00  0.39486395963E+00  0.10957243988E+01  0.90008000151E+02  0.90000264953E+02 0.  0.
         12    1    1    2    0    0  0.18939413342E+00 -0.39486395963E+00 -0.10957243988E+01  0.11799998485E+01  0.00000000000E+00 0. -1.
         11    1    3    3    0    0 -0.29431855413E+01 -0.69885979890E+01  0.12956411987E+02  0.15012376722E+02  0.51100000000E-03 0. -1.
        -11    1    3    3    0    0 -0.66129390229E+01 -0.16672139425E+02  0.24524318915E+02  0.30383110671E+02  0.51100000000E-03 0.  1.
         12    1    3    3    0    0  0.93667304309E+01  0.24055601374E+02 -0.36385006503E+02  0.44612512759E+02  0.00000000000E+00 0. -1.
</event>
<event>
 7    1  0.2404951E-015  0.9000771E+02  0.7816164E-02  0.1186339E+00
        -11   -1    0    0    0    0  0.00000000000E+00  0.00000000000E+00  0.45593999997E+02  0.45594000000E+02  0.51100000000E-03 0.  1.
         11   -1    0    0    0    0 -0.00000000000E+00 -0.00000000000E+00 -0.45593999997E+02  0.45594000000E+02  0.51100000000E-03 0. -1.
    9900012    2    1    2    0    0  0.56199799850E+00 -0.81716229753E+00 -0.63990609018E+00  0.90007713689E+02  0.89999974710E+02 0.  0.
         12    1    1    2    0    0 -0.56199799850E+00  0.81716229753E+00  0.63990609018E+00  0.11802863106E+01  0.00000000000E+00 0. -1.
         11    1    3    3    0    0  0.13382468403E+01  0.20098468756E+02 -0.32326228625E+02  0.38088376289E+02  0.51100000000E-03 0. -1.
        -11    1    3    3    0    0  0.92126817313E+01 -0.23185080373E+01 -0.41188564606E+01  0.10354417560E+02  0.51100000000E-03 0.  1.
        -12    1    3    3    0    0 -0.99889305732E+01 -0.18597123017E+02  0.35805178995E+02  0.41564919841E+02  0.00000000000E+00 0.  1.
</event>
<event>
 7    1  0.2404951E-015  0.9000773E+02  0.7816164E-02  0.1186339E+00
        -11   -1    0    0    0    0  0.00000000000E+00  0.00000000000E+00  0.45593999997E+02  0.45594000000E+02  0.51100000000E-03 0.  1.
         11   -1    0    0    0    0 -0.00000000000E+00 -0.00000000000E+00 -0.45593999997E+02  0.45594000000E+02  0.51100000000E-03 0. -1.
    9900012    2    1    2    0    0 -0.90773637097E+00  0.42545180202E+00  0.62293741093E+00  0.90007726484E+02  0.89999987673E+02 0.  0.
         12    1    1    2    0    0  0.90773637097E+00 -0.42545180202E+00 -0.62293741093E+00  0.11802735162E+01  0.00000000000E+00 0. -1.
         11    1    3    3    0    0 -0.75379411214E+01  0.49210782233E+00  0.66195734521E+01  0.10043977270E+02  0.51100000000E-03 0. -1.
        -11    1    3    3    0    0  0.22847787499E+02  0.16061540859E+02  0.27636246537E+02  0.39290668247E+02  0.51100000000E-03 0.  1.
         12    1    3    3    0    0 -0.16217582749E+02 -0.16128196879E+02 -0.33632882578E+02  0.40673080967E+02  0.00000000000E+00 0. -1.
</event>
<event>
 7    1  0.2404951E-015  0.9000760E+02  0.7816164E-02  0.1186339E+00
        -11   -1    0    0    0    0  0.00000000000E+00  0.00000000000E+00  0.45593999997E+02  0.45594000000E+02  0.51100000000E-03 0.  1.
         11   -1    0    0    0    0 -0.00000000000E+00 -0.00000000000E+00 -0.45593999997E+02  0.45594000000E+02  0.51100000000E-03 0. -1.
    9900012    2    1    2    0    0  0.44029710215E+00  0.68548434805E+00  0.85416324568E+00  0.90007599568E+02  0.89999859082E+02 0.  0.
         12    1    1    2    0    0 -0.44029710215E+00 -0.68548434805E+00 -0.85416324568E+00  0.11804004320E+01  0.00000000000E+00 0. -1.
         11    1    3    3    0    0  0.11338242961E+02 -0.11311417898E+02 -0.11288535492E+01  0.16055473799E+02  0.51100000000E-03 0. -1.
        -11    1    3    3    0    0  0.39812867443E+01 -0.29369390733E+02 -0.26059031938E+01  0.29752352644E+02  0.51100000000E-03 0.  1.
         12    1    3    3    0    0 -0.14879232603E+02  0.41366292978E+02  0.45889199887E+01  0.44199773125E+02  0.00000000000E+00 0. -1.
</event>
<event>
 7    1  0.2404951E-015  0.9000762E+02  0.7816164E-02  0.1186339E+00
        -11   -1    0    0    0    0  0.00000000000E+00  0.00000000000E+00  0.45593999997E+02  0.45594000000E+02  0.51100000000E-03 0. -1.
         11   -1    0    0    0    0 -0.00000000000E+00 -0.00000000000E+00 -0.45593999997E+02  0.45594000000E+02  0.51100000000E-03 0.  1.
    9900012    2    1    2    0    0  0.10190425671E+01  0.28115951907E+00 -0.52517175388E+00  0.90007617096E+02  0.89999876842E+02 0.  0.
         12    1    1    2    0    0 -0.10190425671E+01 -0.28115951907E+00  0.52517175388E+00  0.11803829039E+01  0.00000000000E+00 0. -1.
         11    1    3    3    0    0 -0.34106513280E+02  0.73078928962E+01  0.12146582756E+02  0.36935064906E+02  0.51100000000E-03 0. -1.
        -11    1    3    3    0    0 -0.36099996110E+01  0.62800714111E+01  0.46446574870E+01  0.86048961384E+01  0.51100000000E-03 0.  1.
        -12    1    3    3    0    0  0.38735555458E+02 -0.13306804788E+02 -0.17316411997E+02  0.44467656052E+02  0.00000000000E+00 0.  1.
</event>
<event>
 7    1  0.2404951E-015  0.9000788E+02  0.7816164E-02  0.1186339E+00
        -11   -1    0    0    0    0  0.00000000000E+00  0.00000000000E+00  0.45593999997E+02  0.45594000000E+02  0.51100000000E-03 0.  1.
         11   -1    0    0    0    0 -0.00000000000E+00 -0.00000000000E+00 -0.45593999997E+02  0.45594000000E+02  0.51100000000E-03 0. -1.
    9900012    2    1    2    0    0 -0.97492488650E+00 -0.51444489226E+00  0.42136885834E+00  0.90007879753E+02  0.90000142966E+02 0.  0.
         12    1    1    2    0    0  0.97492488650E+00  0.51444489226E+00 -0.42136885834E+00  0.11801202465E+01  0.00000000000E+00 0. -1.
         11    1    3    3    0    0  0.43594348858E+01  0.35550046929E+01  0.55194465095E+01  0.78808007792E+01  0.51100000000E-03 0. -1.
        -11    1    3    3    0    0  0.12427119081E+01 -0.14452692584E+02  0.36221477671E+02  0.39018202172E+02  0.51100000000E-03 0.  1.
         12    1    3    3    0    0 -0.65770716804E+01  0.10383242999E+02 -0.41319555323E+02  0.43108876802E+02  0.00000000000E+00 0. -1.
</event>
<event>
 7    1  0.2404951E-015  0.9000778E+02  0.7816164E-02  0.1186339E+00
        -11   -1    0    0    0    0  0.00000000000E+00  0.00000000000E+00  0.45593999997E+02  0.45594000000E+02  0.51100000000E-03 0. -1.
         11   -1    0    0    0    0 -0.00000000000E+00 -0.00000000000E+00 -0.45593999997E+02  0.45594000000E+02  0.51100000000E-03 0.  1.
    9900012    2    1    2    0    0  0.31014998097E+00  0.10697953066E+01 -0.39021876921E+00  0.90007777268E+02  0.90000039128E+02 0.  0.
         12    1    1    2    0    0 -0.31014998097E+00 -0.10697953066E+01  0.39021876921E+00  0.11802227318E+01  0.00000000000E+00 0. -1.
         11    1    3    3    0    0  0.38693851800E+02 -0.13184067008E+02  0.12101920876E+02  0.42632033486E+02  0.51100000000E-03 0. -1.
        -11    1    3    3    0    0 -0.87732146696E+01 -0.18232544853E+01  0.40582668518E+01  0.98368227928E+01  0.51100000000E-03 0.  1.
        -12    1    3    3    0    0 -0.29610487149E+02  0.16077116800E+02 -0.16550406497E+02  0.37538920989E+02  0.00000000000E+00 0.  1.
</event>
<event>
 7    1  0.2404951E-015  0.9000766E+02  0.7816164E-02  0.1186339E+00
        -11   -1    0    0    0    0  0.00000000000E+00  0.00000000000E+00  0.45593999997E+02  0.45594000000E+02  0.51100000000E-03 0. -1.
         11   -1    0    0    0    0 -0.00000000000E+00 -0.00000000000E+00 -0.45593999997E+02  0.45594000000E+02  0.51100000000E-03 0.  1.
    9900012    2    1    2    0    0 -0.29401050477E+00 -0.44102867183E+00 -0.10546294094E+01  0.90007664600E+02  0.89999924972E+02 0.  0.
         12    1    1    2    0    0  0.29401050477E+00  0.44102867183E+00  0.10546294094E+01  0.11803354004E+01  0.00000000000E+00 0. -1.
         11    1    3    3    0    0 -0.16952381199E+01 -0.41741204030E+01 -0.55238324689E+01  0.71281020495E+01  0.51100000000E-03 0. -1.
        -11    1    3    3    0    0 -0.16723727245E+02 -0.28128789759E+02 -0.20418881578E+02  0.38572562677E+02  0.51100000000E-03 0.  1.
         12    1    3    3    0    0  0.18124954860E+02  0.31861881491E+02  0.24888084638E+02  0.44306999873E+02  0.00000000000E+00 0. -1.
</event>
<event>
 7    1  0.2404951E-015  0.9000775E+02  0.7816164E-02  0.1186339E+00
        -11   -1    0    0    0    0  0.00000000000E+00  0.00000000000E+00  0.45593999997E+02  0.45594000000E+02  0.51100000000E-03 0.  1.
         11   -1    0    0    0    0 -0.00000000000E+00 -0.00000000000E+00 -0.45593999997E+02  0.45594000000E+02  0.51100000000E-03 0. -1.
    9900012    2    1    2    0    0  0.76897892256E+00  0.89054049517E+00  0.92711711118E-01  0.90007751544E+02  0.90000013064E+02 0.  0.
         12    1    1    2    0    0 -0.76897892256E+00 -0.89054049517E+00 -0.92711711118E-01  0.11802484562E+01  0.00000000000E+00 0. -1.
         11    1    3    3    0    0 -0.20372418243E+02  0.11951861754E+02 -0.33902337529E+02  0.41318892950E+02  0.51100000000E-03 0. -1.
        -11    1    3    3    0    0  0.37780677190E+01 -0.75953657722E+01 -0.18741121594E+01  0.86876736558E+01  0.51100000000E-03 0.  1.
        -12    1    3    3    0    0  0.17363329446E+02 -0.34659554866E+01  0.35869161400E+02  0.40001184938E+02  0.00000000000E+00 0.  1.
</event>
<event>
 7    1  0.3954794E-015  0.9000775E+02  0.7816164E-02  0.1186339E+00
        -11   -1    0    0    0    0  0.00000000000E+00  0.00000000000E+00  0.45593999997E+02  0.45594000000E+02  0.51100000000E-03 0.  1.
         11   -1    0    0    0    0 -0.00000000000E+00 -0.00000000000E+00 -0.45593999997E+02  0.45594000000E+02  0.51100000000E-03 0. -1.
    9900012    2    1    2    0    0 -0.99480180009E+00 -0.50485258632E+00  0.38534625378E+00  0.90007746429E+02  0.90000007882E+02 0.  0.
         12    1    1    2    0    0  0.99480180009E+00  0.50485258632E+00 -0.38534625378E+00  0.11802535705E+01  0.00000000000E+00 0. -1.
         11    1    3    3    0    0 -0.26018977835E+02 -0.14163604811E+02 -0.29491343625E+02  0.41801127472E+02  0.51100000000E-03 0. -1.
        -11    1    3    3    0    0 -0.47052288822E+01  0.26411439977E+01  0.81387193277E+01  0.97649154121E+01  0.51100000000E-03 0.  1.
        -12    1    3    3    0    0  0.29729404917E+02  0.11017608227E+02  0.21737970551E+02  0.38441703545E+02  0.00000000000E+00 0.  1.
</event>
<event>
 7    1  0.2404951E-015  0.9000769E+02  0.7816164E-02  0.1186339E+00
        -11   -1    0    0    0    0  0.00000000000E+00  0.00000000000E+00  0.45593999997E+02  0.45594000000E+02  0.51100000000E-03 0.  1.
         11   -1    0    0    0    0 -0.00000000000E+00 -0.00000000000E+00 -0.45593999997E+02  0.45594000000E+02  0.51100000000E-03 0. -1.
    9900012    2    1    2    0    0  0.48385058869E+00  0.66892636461E+00  0.84354033905E+00  0.90007688949E+02  0.89999949643E+02 0.  0.
         12    1    1    2    0    0 -0.48385058869E+00 -0.66892636461E+00 -0.84354033905E+00  0.11803110510E+01  0.00000000000E+00 0. -1.
         11    1    3    3    0    0 -0.80662301277E+01 -0.97539271915E+00 -0.36075110972E+02  0.36978765411E+02  0.51100000000E-03 0. -1.
        -11    1    3    3    0    0 -0.83396205611E+01 -0.56280637272E+01 -0.17485511554E+01  0.10211846250E+02  0.51100000000E-03 0.  1.
        -12    1    3    3    0    0  0.16889701278E+02  0.72723828109E+01  0.38667202466E+02  0.42817077289E+02  0.00000000000E+00 0.  1.
</event>
<event>
 7    1  0.2404951E-015  0.9000769E+02  0.7816164E-02  0.1186339E+00
        -11   -1    0    0    0    0  0.00000000000E+00  0.00000000000E+00  0.45593999997E+02  0.45594000000E+02  0.51100000000E-03 0.  1.
         11   -1    0    0    0    0 -0.00000000000E+00 -0.00000000000E+00 -0.45593999997E+02  0.45594000000E+02  0.51100000000E-03 0. -1.
    9900012    2    1    2    0    0  0.69705853486E+00  0.89476245719E+00 -0.32654245651E+00  0.90007694772E+02  0.89999955543E+02 0.  0.
         12    1    1    2    0    0 -0.69705853486E+00 -0.89476245719E+00  0.32654245651E+00  0.11803052282E+01  0.00000000000E+00 0. -1.
         11    1    3    3    0    0  0.70668311926E+01  0.69651969575E+01  0.30496003772E+01  0.10380468895E+02  0.51100000000E-03 0. -1.
        -11    1    3    3    0    0  0.30223539844E+02  0.16467426135E+02  0.76495976840E+01  0.35258400832E+02  0.51100000000E-03 0.  1.
         12    1    3    3    0    0 -0.36593312502E+02 -0.22537860635E+02 -0.11025740518E+02  0.44368825045E+02  0.00000000000E+00 0. -1.
</event>
<event>
 7    1  0.2404951E-015  0.9000777E+02  0.7816164E-02  0.1186339E+00
        -11   -1    0    0    0    0  0.00000000000E+00  0.00000000000E+00  0.45593999997E+02  0.45594000000E+02  0.51100000000E-03 0. -1.
         11   -1    0    0    0    0 -0.00000000000E+00 -0.00000000000E+00 -0.45593999997E+02  0.45594000000E+02  0.51100000000E-03 0.  1.
    9900012    2    1    2    0    0 -0.85579136237E+00 -0.22207098145E-01 -0.81244284652E+00  0.90007773162E+02  0.90000034967E+02 0.  0.
         12    1    1    2    0    0  0.85579136237E+00  0.22207098145E-01  0.81244284652E+00  0.11802268384E+01  0.00000000000E+00 0. -1.
         11    1    3    3    0    0 -0.27256598041E+02  0.38919321945E+01  0.41225172206E+01  0.27839978834E+02  0.51100000000E-03 0. -1.
        -11    1    3    3    0    0 -0.13748895134E+02 -0.14953231677E+02 -0.90282954585E+00  0.20333380349E+02  0.51100000000E-03 0.  1.
        -12    1    3    3    0    0  0.40149701813E+02  0.11039092384E+02 -0.40321305213E+01  0.41834413978E+02  0.00000000000E+00 0.  1.
</event>
<event>
 7    1  0.2404951E-015  0.9000772E+02  0.7816164E-02  0.1186339E+00
        -11   -1    0    0    0    0  0.00000000000E+00  0.00000000000E+00  0.45593999997E+02  0.45594000000E+02  0.51100000000E-03 0.  1.
         11   -1    0    0    0    0 -0.00000000000E+00 -0.00000000000E+00 -0.45593999997E+02  0.45594000000E+02  0.51100000000E-03 0. -1.
    9900012    2    1    2    0    0  0.98412949691E+00 -0.64935040470E+00  0.53882854176E-01  0.90007716061E+02  0.89999977113E+02 0.  0.
         12    1    1    2    0    0 -0.98412949691E+00  0.64935040470E+00 -0.53882854176E-01  0.11802839390E+01  0.00000000000E+00 0. -1.
         11    1    3    3    0    0  0.22839136310E+02 -0.26882915777E+02 -0.18364362647E+02  0.39768921581E+02  0.51100000000E-03 0. -1.
        -11    1    3    3    0    0  0.68110536918E+01 -0.80448579514E+00  0.54306174177E+01  0.87481001130E+01  0.51100000000E-03 0.  1.
        -12    1    3    3    0    0 -0.28666060505E+02  0.27038051168E+02  0.12987628083E+02  0.41490694367E+02  0.00000000000E+00 0.  1.
</event>
<event>
 7    1  0.2404951E-015  0.9000774E+02  0.7816164E-02  0.1186339E+00
        -11   -1    0    0    0    0  0.00000000000E+00  0.00000000000E+00  0.45593999997E+02  0.45594000000E+02  0.51100000000E-03 0.  1.
         11   -1    0    0    0    0 -0.00000000000E+00 -0.00000000000E+00 -0.45593999997E+02  0.45594000000E+02  0.51100000000E-03 0. -1.
    9900012    2    1    2    0    0 -0.20179585142E+00 -0.11406947716E+01  0.22607048398E+00  0.90007739863E+02  0.90000001229E+02 0.  0.
         12    1    1    2    0    0  0.20179585142E+00  0.11406947716E+01 -0.22607048398E+00  0.11802601372E+01  0.00000000000E+00 0. -1.
         11    1    3    3    0    0 -0.10900013013E+02  0.11367511575E+02 -0.38960365318E+02  0.42023096853E+02  0.51100000000E-03 0. -1.
        -11    1    3    3    0    0 -0.16531455183E+01 -0.78554710304E+01  0.16500091774E+01  0.81953551333E+01  0.51100000000E-03 0.  1.
        -12    1    3    3    0    0  0.12351362680E+02 -0.46527353165E+01  0.37536426625E+02  0.39789287877E+02  0.00000000000E+00 0.  1.
</event>
<event>
 7    1  0.2404951E-015  0.9000769E+02  0.7816164E-02  0.1186339E+00
        -11   -1    0    0    0    0  0.00000000000E+00  0.00000000000E+00  0.45593999997E+02  0.45594000000E+02  0.51100000000E-03 0.  1.
         11   -1    0    0    0    0 -0.00000000000E+00 -0.00000000000E+00 -0.45593999997E+02  0.45594000000E+02  0.51100000000E-03 0. -1.
    9900012    2    1    2    0    0  0.80827762134E+00  0.60427599042E-01 -0.85800041514E+00  0.90007691176E+02  0.89999951899E+02 0.  0.
         12    1    1    2    0    0 -0.80827762134E+00 -0.60427599042E-01  0.85800041514E+00  0.11803088241E+01  0.00000000000E+00 0. -1.
         11    1    3    3    0    0 -0.45670576599E+01  0.24163961838E+02 -0.34583183246E+02  0.42435264003E+02  0.51100000000E-03 0. -1.
        -11    1    3    3    0    0  0.21197119504E+01 -0.89799355217E+01 -0.12668134466E+01  0.93132828420E+01  0.51100000000E-03 0.  1.
        -12    1    3    3    0    0  0.32556233309E+01 -0.15123598717E+02  0.34991996277E+02  0.38259144330E+02  0.00000000000E+00 0.  1.
</event>
<event>
 7    1  0.2404951E-015  0.9000775E+02  0.7816164E-02  0.1186339E+00
        -11   -1    0    0    0    0  0.00000000000E+00  0.00000000000E+00  0.45593999997E+02  0.45594000000E+02  0.51100000000E-03 0.  1.
         11   -1    0    0    0    0 -0.00000000000E+00 -0.00000000000E+00 -0.45593999997E+02  0.45594000000E+02  0.51100000000E-03 0. -1.
    9900012    2    1    2    0    0 -0.50686677220E+00 -0.10149647895E+01  0.32547315204E+00  0.90007745696E+02  0.90000007140E+02 0.  0.
         12    1    1    2    0    0  0.50686677220E+00  0.10149647895E+01 -0.32547315204E+00  0.11802543037E+01  0.00000000000E+00 0. -1.
         11    1    3    3    0    0 -0.10431816318E+02  0.32232986102E+02 -0.16226096524E+02  0.37564270170E+02  0.51100000000E-03 0. -1.
        -11    1    3    3    0    0  0.75387726057E+01  0.60260378154E+01 -0.26299859735E+00  0.96548118923E+01  0.51100000000E-03 0.  1.
        -12    1    3    3    0    0  0.23861769397E+01 -0.39273988707E+02  0.16814568273E+02  0.42788663634E+02  0.00000000000E+00 0.  1.
</event>
<event>
 7    1  0.2404951E-015  0.9000771E+02  0.7816164E-02  0.1186339E+00
        -11   -1    0    0    0    0  0.00000000000E+00  0.00000000000E+00  0.45593999997E+02  0.45594000000E+02  0.51100000000E-03 0.  1.
         11   -1    0    0    0    0 -0.00000000000E+00 -0.00000000000E+00 -0.45593999997E+02  0.45594000000E+02  0.51100000000E-03 0. -1.
    9900012    2    1    2    0    0 -0.20461410725E+00 -0.10782982058E+01 -0.43415855522E+00  0.90007708678E+02  0.89999969633E+02 0.  0.
         12    1    1    2    0    0  0.20461410725E+00  0.10782982058E+01  0.43415855522E+00  0.11802913219E+01  0.00000000000E+00 0. -1.
         11    1    3    3    0    0  0.12968144130E+02  0.34841746546E+02 -0.73845380476E+01  0.37903185446E+02  0.51100000000E-03 0. -1.
        -11    1    3    3    0    0 -0.41842704345E+01  0.58481593894E+01  0.60068277221E+01  0.93696887279E+01  0.51100000000E-03 0.  1.
        -12    1    3    3    0    0 -0.89884878027E+01 -0.41768204141E+02  0.94355177025E+00  0.42734834504E+02  0.00000000000E+00 0.  1.
</event>
<event>
 7    1  0.2404951E-015  0.9000786E+02  0.7816164E-02  0.1186339E+00
        -11   -1    0    0    0    0  0.00000000000E+00  0.00000000000E+00  0.45593999997E+02  0.45594000000E+02  0.51100000000E-03 0. -1.
         11   -1    0    0    0    0 -0.00000000000E+00 -0.00000000000E+00 -0.45593999997E+02  0.45594000000E+02  0.51100000000E-03 0.  1.
    9900012    2    1    2    0    0 -0.83093840072E+00 -0.41707201022E+00 -0.72685846220E+00  0.90007859792E+02  0.90000122741E+02 0.  0.
         12    1    1    2    0    0  0.83093840072E+00  0.41707201022E+00  0.72685846220E+00  0.11801402084E+01  0.00000000000E+00 0. -1.
         11    1    3    3    0    0 -0.98113388554E+01  0.14275564089E+01  0.83148822289E+01  0.12939766388E+02  0.51100000000E-03 0. -1.
        -11    1    3    3    0    0  0.16973088038E+02 -0.36430620304E+02  0.91401589385E+00  0.40200886042E+02  0.51100000000E-03 0.  1.
         12    1    3    3    0    0 -0.79926875834E+01  0.34585991885E+02 -0.99557565850E+01  0.36867207361E+02  0.00000000000E+00 0. -1.
</event>
<event>
 7    1  0.2404951E-015  0.9000773E+02  0.7816164E-02  0.1186339E+00
        -11   -1    0    0    0    0  0.00000000000E+00  0.00000000000E+00  0.45593999997E+02  0.45594000000E+02  0.51100000000E-03 0.  1.
         11   -1    0    0    0    0 -0.00000000000E+00 -0.00000000000E+00 -0.45593999997E+02  0.45594000000E+02  0.51100000000E-03 0. -1.
    9900012    2    1    2    0    0 -0.90367473326E+00 -0.24741606165E+00  0.71777381774E+00  0.90007728004E+02  0.89999989214E+02 0.  0.
         12    1    1    2    0    0  0.90367473326E+00  0.24741606165E+00 -0.71777381774E+00  0.11802719960E+01  0.00000000000E+00 0. -1.
         11    1    3    3    0    0  0.37719807134E+01 -0.10019769873E+01  0.85724265516E+01  0.94190388909E+01  0.51100000000E-03 0. -1.
        -11    1    3    3    0    0  0.15308692521E+02  0.36298559725E+02 -0.50235495574E+01  0.39713694807E+02  0.51100000000E-03 0.  1.
         12    1    3    3    0    0 -0.19984347968E+02 -0.35543998799E+02 -0.28311031765E+01  0.40874994306E+02  0.00000000000E+00 0. -1.
</event>
<event>
 7    1  0.2404951E-015  0.9000699E+02  0.7816164E-02  0.1186341E+00
        -11   -1    0    0    0    0  0.00000000000E+00  0.00000000000E+00  0.45593999997E+02  0.45594000000E+02  0.51100000000E-03 0.  1.
         11   -1    0    0    0    0 -0.00000000000E+00 -0.00000000000E+00 -0.45593999997E+02  0.45594000000E+02  0.51100000000E-03 0. -1.
    9900012    2    1    2    0    0  0.60941154575E+00  0.80699717616E+00 -0.61004279044E+00  0.90006992345E+02  0.89999243841E+02 0.  0.
         12    1    1    2    0    0 -0.60941154575E+00 -0.80699717616E+00  0.61004279044E+00  0.11810076548E+01  0.00000000000E+00 0. -1.
         11    1    3    3    0    0 -0.60058232925E+01 -0.15075779976E+01  0.51933144378E+01  0.80816594800E+01  0.51100000000E-03 0. -1.
        -11    1    3    3    0    0  0.11289025946E+02 -0.30346849436E+02 -0.27463029622E+02  0.42456935520E+02  0.51100000000E-03 0.  1.
         12    1    3    3    0    0 -0.46737911074E+01  0.32661424609E+02  0.21659672393E+02  0.39468397345E+02  0.00000000000E+00 0. -1.
</event>
<event>
 7    1  0.2404951E-015  0.9000805E+02  0.7816164E-02  0.1186338E+00
        -11   -1    0    0    0    0  0.00000000000E+00  0.00000000000E+00  0.45593999997E+02  0.45594000000E+02  0.51100000000E-03 0.  1.
         11   -1    0    0    0    0 -0.00000000000E+00 -0.00000000000E+00 -0.45593999997E+02  0.45594000000E+02  0.51100000000E-03 0. -1.
    9900012    2    1    2    0    0 -0.36660542752E+00  0.38101927180E+00  0.10548491249E+01  0.90008050043E+02  0.90000315503E+02 0.  0.
         12    1    1    2    0    0  0.36660542752E+00 -0.38101927180E+00 -0.10548491249E+01  0.11799499571E+01  0.00000000000E+00 0. -1.
         11    1    3    3    0    0 -0.10066156238E+02 -0.33522348053E+02 -0.21858399797E+02  0.41265784402E+02  0.51100000000E-03 0. -1.
        -11    1    3    3    0    0 -0.62673718784E+01  0.83971204633E+01  0.13747868186E+02  0.17285701093E+02  0.51100000000E-03 0.  1.
        -12    1    3    3    0    0  0.15966922689E+02  0.25506246862E+02  0.91653807351E+01  0.31456564548E+02  0.00000000000E+00 0.  1.
</event>
<event>
 7    1  0.2404951E-015  0.9000776E+02  0.7816164E-02  0.1186339E+00
        -11   -1    0    0    0    0  0.00000000000E+00  0.00000000000E+00  0.45593999997E+02  0.45594000000E+02  0.51100000000E-03 0.  1.
         11   -1    0    0    0    0 -0.00000000000E+00 -0.00000000000E+00 -0.45593999997E+02  0.45594000000E+02  0.51100000000E-03 0. -1.
    9900012    2    1    2    0    0  0.81293427632E+00 -0.85536798711E+00  0.21195977397E-01  0.90007760278E+02  0.90000021914E+02 0.  0.
         12    1    1    2    0    0 -0.81293427632E+00  0.85536798711E+00 -0.21195977397E-01  0.11802397216E+01  0.00000000000E+00 0. -1.
         11    1    3    3    0    0  0.36801416458E+02  0.83871163344E+01 -0.11140126256E+01  0.37761475052E+02  0.51100000000E-03 0. -1.
        -11    1    3    3    0    0  0.70644171266E+01 -0.45733362321E+01  0.29103271076E+01  0.89045717340E+01  0.51100000000E-03 0.  1.
        -12    1    3    3    0    0 -0.43052899308E+02 -0.46691480894E+01 -0.17751185045E+01  0.43341713492E+02  0.00000000000E+00 0.  1.
</event>
<event>
 7    1  0.2404951E-015  0.9000774E+02  0.7816164E-02  0.1186339E+00
        -11   -1    0    0    0    0  0.00000000000E+00  0.00000000000E+00  0.45593999997E+02  0.45594000000E+02  0.51100000000E-03 0.  1.
         11   -1    0    0    0    0 -0.00000000000E+00 -0.00000000000E+00 -0.45593999997E+02  0.45594000000E+02  0.51100000000E-03 0. -1.
    9900012    2    1    2    0    0 -0.31722314419E+00 -0.42497655116E+00  0.10544121777E+01  0.90007737049E+02  0.89999998378E+02 0.  0.
         12    1    1    2    0    0  0.31722314419E+00  0.42497655116E+00 -0.10544121777E+01  0.11802629507E+01  0.00000000000E+00 0. -1.
         11    1    3    3    0    0 -0.73231042628E+01  0.44223234607E+01  0.20895823263E+01  0.88063133827E+01  0.51100000000E-03 0. -1.
        -11    1    3    3    0    0 -0.14491542962E+02 -0.36561616382E+02  0.11353160793E+02  0.40934714732E+02  0.51100000000E-03 0.  1.
         12    1    3    3    0    0  0.21497424081E+02  0.31714316370E+02 -0.12388330942E+02  0.40266708935E+02  0.00000000000E+00 0. -1.
</event>
<event>
 7    1  0.2404951E-015  0.9000773E+02  0.7816164E-02  0.1186339E+00
        -11   -1    0    0    0    0  0.00000000000E+00  0.00000000000E+00  0.45593999997E+02  0.45594000000E+02  0.51100000000E-03 0.  1.
         11   -1    0    0    0    0 -0.00000000000E+00 -0.00000000000E+00 -0.45593999997E+02  0.45594000000E+02  0.51100000000E-03 0. -1.
    9900012    2    1    2    0    0  0.86274590697E+00 -0.13842509216E+00  0.79343688957E+00  0.90007731343E+02  0.89999992596E+02 0.  0.
         12    1    1    2    0    0 -0.86274590697E+00  0.13842509216E+00 -0.79343688957E+00  0.11802686575E+01  0.00000000000E+00 0. -1.
         11    1    3    3    0    0  0.35707409314E+01  0.42893828518E+01  0.73648683662E+01  0.92406862495E+01  0.51100000000E-03 0. -1.
        -11    1    3    3    0    0  0.12086755087E+02  0.29854734974E+02  0.17190124503E+02  0.36508837692E+02  0.51100000000E-03 0.  1.
         12    1    3    3    0    0 -0.14794750112E+02 -0.34282542918E+02 -0.23761555980E+02  0.44258207401E+02  0.00000000000E+00 0. -1.
</event>
<event>
 7    1  0.2404951E-015  0.9000696E+02  0.7816164E-02  0.1186341E+00
        -11   -1    0    0    0    0  0.00000000000E+00  0.00000000000E+00  0.45593999997E+02  0.45594000000E+02  0.51100000000E-03 0. -1.
         11   -1    0    0    0    0 -0.00000000000E+00 -0.00000000000E+00 -0.45593999997E+02  0.45594000000E+02  0.51100000000E-03 0.  1.
    9900012    2    1    2    0    0  0.87120360661E+00 -0.18099237907E+00 -0.77660157041E+00  0.90006956409E+02  0.89999207430E+02 0.  0.
         12    1    1    2    0    0 -0.87120360661E+00  0.18099237907E+00  0.77660157041E+00  0.11810435913E+01  0.00000000000E+00 0. -1.
         11    1    3    3    0    0  0.27392611320E+02 -0.21640660704E+02 -0.24945860721E+01  0.34998518691E+02  0.51100000000E-03 0. -1.
        -11    1    3    3    0    0  0.19918757875E+01 -0.80591112384E+01  0.10147548203E+02  0.13110666570E+02  0.51100000000E-03 0.  1.
        -12    1    3    3    0    0 -0.28513283501E+02  0.29518779564E+02 -0.84295637017E+01  0.41897771148E+02  0.00000000000E+00 0.  1.
</event>
<event>
 7    1  0.2404951E-015  0.9000773E+02  0.7816164E-02  0.1186339E+00
        -11   -1    0    0    0    0  0.00000000000E+00  0.00000000000E+00  0.45593999997E+02  0.45594000000E+02  0.51100000000E-03 0. -1.
         11   -1    0    0    0    0 -0.00000000000E+00 -0.00000000000E+00 -0.45593999997E+02  0.45594000000E+02  0.51100000000E-03 0.  1.
    9900012    2    1    2    0    0 -0.11140308122E+01  0.16444210650E+00 -0.35346691720E+00  0.90007726846E+02  0.89999988040E+02 0.  0.
         12    1    1    2    0    0  0.11140308122E+01 -0.16444210650E+00  0.35346691720E+00  0.11802731542E+01  0.00000000000E+00 0. -1.
         11    1    3    3    0    0 -0.20028776640E+02 -0.29153749053E+02 -0.87347715010E+01  0.36433353002E+02  0.51100000000E-03 0. -1.
        -11    1    3    3    0    0 -0.27952697088E+01 -0.86732487536E+01  0.22856650184E+01  0.93948412187E+01  0.51100000000E-03 0.  1.
        -12    1    3    3    0    0  0.21710015537E+02  0.37991439913E+02  0.60956395653E+01  0.44179532625E+02  0.00000000000E+00 0.  1.
</event>
<event>
 7    1  0.2404951E-015  0.9000745E+02  0.7816164E-02  0.1186340E+00
        -11   -1    0    0    0    0  0.00000000000E+00  0.00000000000E+00  0.45593999997E+02  0.45594000000E+02  0.51100000000E-03 0. -1.
         11   -1    0    0    0    0 -0.00000000000E+00 -0.00000000000E+00 -0.45593999997E+02  0.45594000000E+02  0.51100000000E-03 0.  1.
    9900012    2    1    2    0    0  0.79461134048E+00  0.67319404969E+00  0.55595899165E+00  0.90007454443E+02  0.89999712042E+02 0.  0.
         12    1    1    2    0    0 -0.79461134048E+00 -0.67319404969E+00 -0.55595899165E+00  0.11805455567E+01  0.00000000000E+00 0. -1.
         11    1    3    3    0    0 -0.12801480802E+02  0.86916694052E+01  0.40003317622E+01  0.15982042493E+02  0.51100000000E-03 0. -1.
        -11    1    3    3    0    0 -0.25032768926E+02 -0.19827395003E+02  0.61201402793E+01  0.32514938567E+02  0.51100000000E-03 0.  1.
         12    1    3    3    0    0  0.38628861068E+02  0.11808919647E+02 -0.95645130498E+01  0.41510473384E+02  0.00000000000E+00 0. -1.
</event>
<event>
 7    1  0.2404951E-015  0.9000757E+02  0.7816164E-02  0.1186339E+00
        -11   -1    0    0    0    0  0.00000000000E+00  0.00000000000E+00  0.45593999997E+02  0.45594000000E+02  0.51100000000E-03 0.  1.
         11   -1    0    0    0    0 -0.00000000000E+00 -0.00000000000E+00 -0.45593999997E+02  0.45594000000E+02  0.51100000000E-03 0. -1.
    9900012    2    1    2    0    0 -0.10172362419E+01 -0.41437828966E+00  0.43236778040E+00  0.90007567521E+02  0.89999826613E+02 0.  0.
         12    1    1    2    0    0  0.10172362419E+01  0.41437828966E+00 -0.43236778040E+00  0.11804324785E+01  0.00000000000E+00 0. -1.
         11    1    3    3    0    0  0.40910802032E+01  0.10860540845E+01 -0.79462858708E+01  0.90033277240E+01  0.51100000000E-03 0. -1.
        -11    1    3    3    0    0 -0.35146848281E+02 -0.24330108043E+02  0.24983164970E+01  0.42819349447E+02  0.51100000000E-03 0.  1.
         12    1    3    3    0    0  0.30038531836E+02  0.22829675669E+02  0.58803371542E+01  0.38184890350E+02  0.00000000000E+00 0. -1.
</event>
<event>
 7    1  0.2404951E-015  0.9000771E+02  0.7816164E-02  0.1186339E+00
        -11   -1    0    0    0    0  0.00000000000E+00  0.00000000000E+00  0.45593999997E+02  0.45594000000E+02  0.51100000000E-03 0.  1.
         11   -1    0    0    0    0 -0.00000000000E+00 -0.00000000000E+00 -0.45593999997E+02  0.45594000000E+02  0.51100000000E-03 0. -1.
    9900012    2    1    2    0    0  0.10427379943E+01  0.30760188011E+00  0.45952054333E+00  0.90007711658E+02  0.89999972651E+02 0.  0.
         12    1    1    2    0    0 -0.10427379943E+01 -0.30760188011E+00 -0.45952054333E+00  0.11802883424E+01  0.00000000000E+00 0. -1.
         11    1    3    3    0    0  0.24845375212E+02 -0.13328821501E+02 -0.23845243358E+02  0.36926220807E+02  0.51100000000E-03 0. -1.
        -11    1    3    3    0    0  0.83816905656E+01 -0.51159584658E+01  0.66570585077E+01  0.11863481614E+02  0.51100000000E-03 0.  1.
        -12    1    3    3    0    0 -0.32184327784E+02  0.18752381847E+02  0.17647705393E+02  0.41218009237E+02  0.00000000000E+00 0.  1.
</event>
<event>
 7    1  0.2404951E-015  0.9000799E+02  0.7816164E-02  0.1186339E+00
        -11   -1    0    0    0    0  0.00000000000E+00  0.00000000000E+00  0.45593999997E+02  0.45594000000E+02  0.51100000000E-03 0. -1.
         11   -1    0    0    0    0 -0.00000000000E+00 -0.00000000000E+00 -0.45593999997E+02  0.45594000000E+02  0.51100000000E-03 0.  1.
    9900012    2    1    2    0    0  0.25617823343E+00 -0.63675515565E+00 -0.95986345255E+00  0.90007990567E+02  0.90000255242E+02 0.  0.
         12    1    1    2    0    0 -0.25617823343E+00  0.63675515565E+00  0.95986345255E+00  0.11800094335E+01  0.00000000000E+00 0. -1.
         11    1    3    3    0    0  0.38078533204E+00 -0.37479645883E+01 -0.94302527581E+01  0.10154895537E+02  0.51100000000E-03 0. -1.
        -11    1    3    3    0    0 -0.67404742761E+01  0.21318390165E+02 -0.29624902976E+02  0.37115261407E+02  0.51100000000E-03 0.  1.
         12    1    3    3    0    0  0.66158671775E+01 -0.18207180733E+02  0.38095292282E+02  0.42737833623E+02  0.00000000000E+00 0. -1.
</event>
<event>
 7    1  0.2404951E-015  0.9000771E+02  0.7816164E-02  0.1186339E+00
        -11   -1    0    0    0    0  0.00000000000E+00  0.00000000000E+00  0.45593999997E+02  0.45594000000E+02  0.51100000000E-03 0. -1.
         11   -1    0    0    0    0 -0.00000000000E+00 -0.00000000000E+00 -0.45593999997E+02  0.45594000000E+02  0.51100000000E-03 0.  1.
    9900012    2    1    2    0    0  0.37364169753E+00  0.87566316618E+00  0.69762962054E+00  0.90007711397E+02  0.89999972388E+02 0.  0.
         12    1    1    2    0    0 -0.37364169753E+00 -0.87566316618E+00 -0.69762962054E+00  0.11802886029E+01  0.00000000000E+00 0. -1.
         11    1    3    3    0    0 -0.35582568033E+01  0.74953790521E+01  0.65179609314E+01  0.10551100112E+02  0.51100000000E-03 0. -1.
        -11    1    3    3    0    0  0.19082666567E+02  0.31598208605E+02  0.41715268550E+01  0.37148305304E+02  0.51100000000E-03 0.  1.
         12    1    3    3    0    0 -0.15150768067E+02 -0.38217924491E+02 -0.99918581658E+01  0.42308305981E+02  0.00000000000E+00 0. -1.
</event>
<event>
 7    1  0.2404951E-015  0.9000770E+02  0.7816164E-02  0.1186339E+00
        -11   -1    0    0    0    0  0.00000000000E+00  0.00000000000E+00  0.45593999997E+02  0.45594000000E+02  0.51100000000E-03 0.  1.
         11   -1    0    0    0    0 -0.00000000000E+00 -0.00000000000E+00 -0.45593999997E+02  0.45594000000E+02  0.51100000000E-03 0. -1.
    9900012    2    1    2    0    0 -0.53883414258E+00  0.90145633382E+00  0.53864764027E+00  0.90007700447E+02  0.89999961293E+02 0.  0.
         12    1    1    2    0    0  0.53883414258E+00 -0.90145633382E+00 -0.53864764027E+00  0.11802995532E+01  0.00000000000E+00 0. -1.
         11    1    3    3    0    0 -0.16864931786E+02 -0.34188834192E+02  0.46040968390E+01  0.38399218945E+02  0.51100000000E-03 0. -1.
        -11    1    3    3    0    0  0.76410972900E+01 -0.58074798946E+01  0.39860815051E-01  0.95976444853E+01  0.51100000000E-03 0.  1.
        -12    1    3    3    0    0  0.86850003538E+01  0.40897770421E+02 -0.41053100138E+01  0.42010837017E+02  0.00000000000E+00 0.  1.
</event>
<event>
 7    1  0.2404951E-015  0.9000767E+02  0.7816164E-02  0.1186339E+00
        -11   -1    0    0    0    0  0.00000000000E+00  0.00000000000E+00  0.45593999997E+02  0.45594000000E+02  0.51100000000E-03 0.  1.
         11   -1    0    0    0    0 -0.00000000000E+00 -0.00000000000E+00 -0.45593999997E+02  0.45594000000E+02  0.51100000000E-03 0. -1.
    9900012    2    1    2    0    0  0.13102910515E+00 -0.39884662632E+00  0.11031488042E+01  0.90007667614E+02  0.89999928026E+02 0.  0.
         12    1    1    2    0    0 -0.13102910515E+00  0.39884662632E+00 -0.11031488042E+01  0.11803323862E+01  0.00000000000E+00 0. -1.
         11    1    3    3    0    0 -0.34829793224E+02  0.12804065960E+02 -0.16167775666E+02  0.40477840498E+02  0.51100000000E-03 0. -1.
        -11    1    3    3    0    0  0.84225562960E+01  0.64483250736E+01 -0.26904859645E+01  0.10943448533E+02  0.51100000000E-03 0.  1.
        -12    1    3    3    0    0  0.26538266033E+02 -0.19651237659E+02  0.19961410435E+02  0.38586378583E+02  0.00000000000E+00 0.  1.
</event>
<event>
 7    1  0.2404951E-015  0.9000803E+02  0.7816164E-02  0.1186338E+00
        -11   -1    0    0    0    0  0.00000000000E+00  0.00000000000E+00  0.45593999997E+02  0.45594000000E+02  0.51100000000E-03 0.  1.
         11   -1    0    0    0    0 -0.00000000000E+00 -0.00000000000E+00 -0.45593999997E+02  0.45594000000E+02  0.51100000000E-03 0. -1.
    9900012    2    1    2    0    0  0.25526276710E+00  0.10449337988E+01 -0.48505219142E+00  0.90008033326E+02  0.90000298565E+02 0.  0.
         12    1    1    2    0    0 -0.25526276710E+00 -0.10449337988E+01  0.48505219142E+00  0.11799666743E+01  0.00000000000E+00 0. -1.
         11    1    3    3    0    0  0.35537877658E+02 -0.14388911492E+02 -0.11704312721E+02  0.40087060991E+02  0.51100000000E-03 0. -1.
        -11    1    3    3    0    0  0.32913657532E+01  0.50949158340E+01  0.77408925722E+01  0.98342602138E+01  0.51100000000E-03 0.  1.
        -12    1    3    3    0    0 -0.38573980644E+02  0.10338929457E+02  0.34783679577E+01  0.40086712121E+02  0.00000000000E+00 0.  1.
</event>
<event>
 7    1  0.2404951E-015  0.9000777E+02  0.7816164E-02  0.1186339E+00
        -11   -1    0    0    0    0  0.00000000000E+00  0.00000000000E+00  0.45593999997E+02  0.45594000000E+02  0.51100000000E-03 0.  1.
         11   -1    0    0    0    0 -0.00000000000E+00 -0.00000000000E+00 -0.45593999997E+02  0.45594000000E+02  0.51100000000E-03 0. -1.
    9900012    2    1    2    0    0 -0.10563819641E+01  0.48720535227E+00  0.19907057282E+00  0.90007770784E+02  0.90000032558E+02 0.  0.
         12    1    1    2    0    0  0.10563819641E+01 -0.48720535227E+00 -0.19907057282E+00  0.11802292160E+01  0.00000000000E+00 0. -1.
         11    1    3    3    0    0  0.24211984126E+02 -0.26811732608E+02  0.24252220080E+02  0.43511600291E+02  0.51100000000E-03 0. -1.
        -11    1    3    3    0    0 -0.60486769711E+00  0.88576448826E+01 -0.39328380125E+01  0.97103528716E+01  0.51100000000E-03 0.  1.
        -12    1    3    3    0    0 -0.24663498393E+02  0.18441293078E+02 -0.20120311495E+02  0.36785817621E+02  0.00000000000E+00 0.  1.
</event>
<event>
 7    1  0.2404951E-015  0.9000773E+02  0.7816164E-02  0.1186339E+00
        -11   -1    0    0    0    0  0.00000000000E+00  0.00000000000E+00  0.45593999997E+02  0.45594000000E+02  0.51100000000E-03 0.  1.
         11   -1    0    0    0    0 -0.00000000000E+00 -0.00000000000E+00 -0.45593999997E+02  0.45594000000E+02  0.51100000000E-03 0. -1.
    9900012    2    1    2    0    0 -0.10057428980E+01  0.61623018448E+00  0.42286781584E-01  0.90007726053E+02  0.89999987237E+02 0.  0.
         12    1    1    2    0    0  0.10057428980E+01 -0.61623018448E+00 -0.42286781584E-01  0.11802739466E+01  0.00000000000E+00 0. -1.
         11    1    3    3    0    0 -0.86342286991E+01 -0.58905691737E+01 -0.46486602405E+01  0.11439351062E+02  0.51100000000E-03 0. -1.
        -11    1    3    3    0    0  0.23655081536E+02 -0.22233530141E+02  0.24038897963E+02  0.40395066042E+02  0.51100000000E-03 0.  1.
         12    1    3    3    0    0 -0.16026595735E+02  0.28740329499E+02 -0.19347950941E+02  0.38173308950E+02  0.00000000000E+00 0. -1.
</event>
<event>
 7    1  0.2404951E-015  0.9000773E+02  0.7816164E-02  0.1186339E+00
        -11   -1    0    0    0    0  0.00000000000E+00  0.00000000000E+00  0.45593999997E+02  0.45594000000E+02  0.51100000000E-03 0. -1.
         11   -1    0    0    0    0 -0.00000000000E+00 -0.00000000000E+00 -0.45593999997E+02  0.45594000000E+02  0.51100000000E-03 0.  1.
    9900012    2    1    2    0    0  0.10975032893E+01 -0.10488524689E+00  0.42134642594E+00  0.90007725796E+02  0.89999986977E+02 0.  0.
         12    1    1    2    0    0 -0.10975032893E+01  0.10488524689E+00 -0.42134642594E+00  0.11802742036E+01  0.00000000000E+00 0. -1.
         11    1    3    3    0    0 -0.57284411018E+01  0.40582132893E+00  0.90549184367E+01  0.10722465974E+02  0.51100000000E-03 0. -1.
        -11    1    3    3    0    0 -0.26543006907E+02 -0.78120371999E+01 -0.28539445720E+02  0.39749957272E+02  0.51100000000E-03 0.  1.
         12    1    3    3    0    0  0.33368951298E+02  0.73013306241E+01  0.19905873710E+02  0.39535302550E+02  0.00000000000E+00 0. -1.
</event>
<event>
 7    1  0.2404951E-015  0.9000769E+02  0.7816164E-02  0.1186339E+00
        -11   -1    0    0    0    0  0.00000000000E+00  0.00000000000E+00  0.45593999997E+02  0.45594000000E+02  0.51100000000E-03 0.  1.
         11   -1    0    0    0    0 -0.00000000000E+00 -0.00000000000E+00 -0.45593999997E+02  0.45594000000E+02  0.51100000000E-03 0. -1.
    9900012    2    1    2    0    0 -0.51836530456E+00 -0.68225131496E+00 -0.81176101705E+00  0.90007692669E+02  0.89999953413E+02 0.  0.
         12    1    1    2    0    0  0.51836530456E+00  0.68225131496E+00  0.81176101705E+00  0.11803073305E+01  0.00000000000E+00 0. -1.
         11    1    3    3    0    0  0.11161607191E-02 -0.64707604276E+01 -0.73289380165E+01  0.97767108205E+01  0.51100000000E-03 0. -1.
        -11    1    3    3    0    0 -0.35650464126E+02 -0.11705648374E+02 -0.80357868758E+01  0.38373840924E+02  0.51100000000E-03 0.  1.
         12    1    3    3    0    0  0.35130982661E+02  0.17494157487E+02  0.14552963875E+02  0.41857140925E+02  0.00000000000E+00 0. -1.
</event>
<event>
 7    1  0.2404951E-015  0.9000762E+02  0.7816164E-02  0.1186339E+00
        -11   -1    0    0    0    0  0.00000000000E+00  0.00000000000E+00  0.45593999997E+02  0.45594000000E+02  0.51100000000E-03 0. -1.
         11   -1    0    0    0    0 -0.00000000000E+00 -0.00000000000E+00 -0.45593999997E+02  0.45594000000E+02  0.51100000000E-03 0.  1.
    9900012    2    1    2    0    0 -0.40006793055E+00  0.94750054037E+00 -0.57920700532E+00  0.90007621934E+02  0.89999881744E+02 0.  0.
         12    1    1    2    0    0  0.40006793055E+00 -0.94750054037E+00  0.57920700532E+00  0.11803780657E+01  0.00000000000E+00 0. -1.
         11    1    3    3    0    0  0.14186400123E+01 -0.21721336986E+01  0.73163985106E+01  0.77627567085E+01  0.51100000000E-03 0. -1.
        -11    1    3    3    0    0  0.30936335004E+02 -0.34726713209E+00 -0.29584934222E+02  0.42807075946E+02  0.51100000000E-03 0.  1.
         12    1    3    3    0    0 -0.32755042946E+02  0.34669013711E+01  0.21689328706E+02  0.39437789279E+02  0.00000000000E+00 0. -1.
</event>
<event>
 7    1  0.2404951E-015  0.9000777E+02  0.7816164E-02  0.1186339E+00
        -11   -1    0    0    0    0  0.00000000000E+00  0.00000000000E+00  0.45593999997E+02  0.45594000000E+02  0.51100000000E-03 0.  1.
         11   -1    0    0    0    0 -0.00000000000E+00 -0.00000000000E+00 -0.45593999997E+02  0.45594000000E+02  0.51100000000E-03 0. -1.
    9900012    2    1    2    0    0 -0.10654374540E+01 -0.40541114545E+00  0.30564438924E+00  0.90007773895E+02  0.90000035711E+02 0.  0.
         12    1    1    2    0    0  0.10654374540E+01  0.40541114545E+00 -0.30564438924E+00  0.11802261045E+01  0.00000000000E+00 0. -1.
         11    1    3    3    0    0  0.61266810391E+01 -0.41293123641E+02 -0.59694406499E+01  0.42169805578E+02  0.51100000000E-03 0. -1.
        -11    1    3    3    0    0 -0.66754953112E+00 -0.29141288787E+01 -0.52022754733E+00  0.30345356251E+01  0.51100000000E-03 0.  1.
         12    1    3    3    0    0 -0.65245689620E+01  0.43801841374E+02  0.67953125865E+01  0.44803432692E+02  0.00000000000E+00 0. -1.
</event>
<event>
 7    1  0.2404951E-015  0.9000782E+02  0.7816164E-02  0.1186339E+00
        -11   -1    0    0    0    0  0.00000000000E+00  0.00000000000E+00  0.45593999997E+02  0.45594000000E+02  0.51100000000E-03 0. -1.
         11   -1    0    0    0    0 -0.00000000000E+00 -0.00000000000E+00 -0.45593999997E+02  0.45594000000E+02  0.51100000000E-03 0.  1.
    9900012    2    1    2    0    0  0.26721946283E-01 -0.10514297946E+01 -0.53535184780E+00  0.90007821930E+02  0.90000084380E+02 0.  0.
         12    1    1    2    0    0 -0.26721946283E-01  0.10514297946E+01  0.53535184780E+00  0.11801780697E+01  0.00000000000E+00 0. -1.
         11    1    3    3    0    0 -0.23067725097E+02  0.17987501918E+02  0.17151889649E+02  0.33909548584E+02  0.51100000000E-03 0. -1.
        -11    1    3    3    0    0 -0.74914187079E+01  0.35628897038E+01  0.69183213030E+01  0.10801791852E+02  0.51100000000E-03 0.  1.
        -12    1    3    3    0    0  0.30585865751E+02 -0.22601821416E+02 -0.24605562800E+02  0.45296481494E+02  0.00000000000E+00 0.  1.
</event>
<event>
 7    1  0.2404951E-015  0.9000649E+02  0.7816164E-02  0.1186342E+00
        -11   -1    0    0    0    0  0.00000000000E+00  0.00000000000E+00  0.45593999997E+02  0.45594000000E+02  0.51100000000E-03 0. -1.
         11   -1    0    0    0    0 -0.00000000000E+00 -0.00000000000E+00 -0.45593999997E+02  0.45594000000E+02  0.51100000000E-03 0.  1.
    9900012    2    1    2    0    0  0.69627977210E+00 -0.84783419758E+00 -0.43855459129E+00  0.90006493133E+02  0.89998738033E+02 0.  0.
         12    1    1    2    0    0 -0.69627977210E+00  0.84783419758E+00  0.43855459129E+00  0.11815068672E+01  0.00000000000E+00 0. -1.
         11    1    3    3    0    0 -0.70751556259E+01  0.53929259588E+01 -0.49649728700E+01  0.10187857154E+02  0.51100000000E-03 0. -1.
        -11    1    3    3    0    0  0.12894026454E+02  0.11071050829E+02 -0.33589025728E+02  0.37643681200E+02  0.51100000000E-03 0.  1.
         12    1    3    3    0    0 -0.51225910558E+01 -0.17311810986E+02  0.38115444007E+02  0.42174954779E+02  0.00000000000E+00 0. -1.
</event>
<event>
 7    1  0.2404951E-015  0.9000766E+02  0.7816164E-02  0.1186339E+00
        -11   -1    0    0    0    0  0.00000000000E+00  0.00000000000E+00  0.45593999997E+02  0.45594000000E+02  0.51100000000E-03 0. -1.
         11   -1    0    0    0    0 -0.00000000000E+00 -0.00000000000E+00 -0.45593999997E+02  0.45594000000E+02  0.51100000000E-03 0.  1.
    9900012    2    1    2    0    0  0.29790160164E+00  0.11050081571E+01  0.28880925445E+00  0.90007661414E+02  0.89999921745E+02 0.  0.
         12    1    1    2    0    0 -0.29790160164E+00 -0.11050081571E+01 -0.28880925445E+00  0.11803385857E+01  0.00000000000E+00 0. -1.
         11    1    3    3    0    0 -0.34845892855E+02 -0.50912101281E+01  0.18827338319E+02  0.39932760209E+02  0.51100000000E-03 0. -1.
        -11    1    3    3    0    0  0.33313680563E+01  0.42019623068E+00  0.77226638806E+01  0.84210519338E+01  0.51100000000E-03 0.  1.
        -12    1    3    3    0    0  0.31812426400E+02  0.57760220545E+01 -0.26261192946E+02  0.41653849272E+02  0.00000000000E+00 0.  1.
</event>
<event>
 7    1  0.2404951E-015  0.9000685E+02  0.7816164E-02  0.1186341E+00
        -11   -1    0    0    0    0  0.00000000000E+00  0.00000000000E+00  0.45593999997E+02  0.45594000000E+02  0.51100000000E-03 0.  1.
         11   -1    0    0    0    0 -0.00000000000E+00 -0.00000000000E+00 -0.45593999997E+02  0.45594000000E+02  0.51100000000E-03 0. -1.
    9900012    2    1    2    0    0 -0.65937319211E+00 -0.43065788032E+00  0.88027126485E+00  0.90006849410E+02  0.89999099018E+02 0.  0.
         12    1    1    2    0    0  0.65937319211E+00  0.43065788032E+00 -0.88027126485E+00  0.11811505899E+01  0.00000000000E+00 0. -1.
         11    1    3    3    0    0  0.12308877267E+01  0.40710170269E+01  0.92062193454E+01  0.10141140918E+02  0.51100000000E-03 0. -1.
        -11    1    3    3    0    0  0.61221375411E+01 -0.24832848004E+02  0.27717564867E+02  0.37714908332E+02  0.51100000000E-03 0.  1.
         12    1    3    3    0    0 -0.80123984598E+01  0.20331173097E+02 -0.36043512947E+02  0.42150800160E+02  0.00000000000E+00 0. -1.
</event>
<event>
 7    1  0.2404951E-015  0.9000787E+02  0.7816164E-02  0.1186339E+00
        -11   -1    0    0    0    0  0.00000000000E+00  0.00000000000E+00  0.45593999997E+02  0.45594000000E+02  0.51100000000E-03 0.  1.
         11   -1    0    0    0    0 -0.00000000000E+00 -0.00000000000E+00 -0.45593999997E+02  0.45594000000E+02  0.51100000000E-03 0. -1.
    9900012    2    1    2    0    0  0.35574302614E+00 -0.89771848096E+00 -0.67841931899E+00  0.90007871048E+02  0.90000134145E+02 0.  0.
         12    1    1    2    0    0 -0.35574302614E+00  0.89771848096E+00  0.67841931899E+00  0.11801289523E+01  0.00000000000E+00 0. -1.
         11    1    3    3    0    0 -0.19970363347E+02  0.86979789420E-01 -0.31327531205E+02  0.37151543566E+02  0.51100000000E-03 0. -1.
        -11    1    3    3    0    0  0.15051346953E+02  0.57194322204E+01 -0.44745887062E+01  0.16711579649E+02  0.51100000000E-03 0.  1.
        -12    1    3    3    0    0  0.52747594205E+01 -0.67041304907E+01  0.35123700592E+02  0.36144747832E+02  0.00000000000E+00 0.  1.
</event>
<event>
 7    1  0.2404951E-015  0.9000742E+02  0.7816164E-02  0.1186340E+00
        -11   -1    0    0    0    0  0.00000000000E+00  0.00000000000E+00  0.45593999997E+02  0.45594000000E+02  0.51100000000E-03 0. -1.
         11   -1    0    0    0    0 -0.00000000000E+00 -0.00000000000E+00 -0.45593999997E+02  0.45594000000E+02  0.51100000000E-03 0.  1.
    9900012    2    1    2    0    0  0.10211908266E+01  0.49446499377E+00 -0.32626392787E+00  0.90007417735E+02  0.89999674848E+02 0.  0.
         12    1    1    2    0    0 -0.10211908266E+01 -0.49446499377E+00  0.32626392787E+00  0.11805822653E+01  0.00000000000E+00 0. -1.
         11    1    3    3    0    0 -0.34091160980E+02  0.19652840463E+02  0.11494037051E+02  0.40994564070E+02  0.51100000000E-03 0. -1.
        -11    1    3    3    0    0 -0.13835776090E+01 -0.93855923700E+01 -0.46158804565E+01  0.10550354676E+02  0.51100000000E-03 0.  1.
        -12    1    3    3    0    0  0.36495929416E+02 -0.97727830993E+01 -0.72044205227E+01  0.38462498989E+02  0.00000000000E+00 0.  1.
</event>
<event>
 7    1  0.2404951E-015  0.9000874E+02  0.7816164E-02  0.1186337E+00
        -11   -1    0    0    0    0  0.00000000000E+00  0.00000000000E+00  0.45593999997E+02  0.45594000000E+02  0.51100000000E-03 0.  1.
         11   -1    0    0    0    0 -0.00000000000E+00 -0.00000000000E+00 -0.45593999997E+02  0.45594000000E+02  0.51100000000E-03 0. -1.
    9900012    2    1    2    0    0 -0.10303725358E+01 -0.31963790289E+00  0.47625626337E+00  0.90008739223E+02  0.90001013775E+02 0.  0.
         12    1    1    2    0    0  0.10303725358E+01  0.31963790289E+00 -0.47625626337E+00  0.11792607769E+01  0.00000000000E+00 0. -1.
         11    1    3    3    0    0 -0.53281154581E+01  0.59463660493E+01  0.89615081867E+01  0.12002362799E+02  0.51100000000E-03 0. -1.
        -11    1    3    3    0    0  0.19125416828E+02 -0.31853189454E+02  0.15174903392E+02  0.40133339512E+02  0.51100000000E-03 0.  1.
         12    1    3    3    0    0 -0.14827673905E+02  0.25587185501E+02 -0.23660155316E+02  0.37873036911E+02  0.00000000000E+00 0. -1.
</event>
<event>
 7    1  0.2404951E-015  0.9000775E+02  0.7816164E-02  0.1186339E+00
        -11   -1    0    0    0    0  0.00000000000E+00  0.00000000000E+00  0.45593999997E+02  0.45594000000E+02  0.51100000000E-03 0.  1.
         11   -1    0    0    0    0 -0.00000000000E+00 -0.00000000000E+00 -0.45593999997E+02  0.45594000000E+02  0.51100000000E-03 0. -1.
    9900012    2    1    2    0    0  0.11610219949E+01 -0.77369140572E-01 -0.19758215605E+00  0.90007747161E+02  0.90000008623E+02 0.  0.
         12    1    1    2    0    0 -0.11610219949E+01  0.77369140572E-01  0.19758215605E+00  0.11802528394E+01  0.00000000000E+00 0. -1.
         11    1    3    3    0    0  0.10604027868E+02  0.86227085713E+00  0.56592495812E+01  0.12050561154E+02  0.51100000000E-03 0. -1.
        -11    1    3    3    0    0 -0.35341823165E+02  0.23230002296E+02 -0.23230201342E+01  0.42356509465E+02  0.51100000000E-03 0.  1.
         12    1    3    3    0    0  0.25898817292E+02 -0.24169642294E+02 -0.35338116031E+01  0.35600676541E+02  0.00000000000E+00 0. -1.
</event>
<event>
 7    1  0.2404951E-015  0.9000775E+02  0.7816164E-02  0.1186339E+00
        -11   -1    0    0    0    0  0.00000000000E+00  0.00000000000E+00  0.45593999997E+02  0.45594000000E+02  0.51100000000E-03 0. -1.
         11   -1    0    0    0    0 -0.00000000000E+00 -0.00000000000E+00 -0.45593999997E+02  0.45594000000E+02  0.51100000000E-03 0.  1.
    9900012    2    1    2    0    0 -0.29373624337E+00 -0.91661455967E+00 -0.68302216956E+00  0.90007753197E+02  0.90000014739E+02 0.  0.
         12    1    1    2    0    0  0.29373624337E+00  0.91661455967E+00  0.68302216956E+00  0.11802468029E+01  0.00000000000E+00 0. -1.
         11    1    3    3    0    0 -0.14562434894E+02 -0.10320041383E+02  0.20770144529E+01  0.17968910748E+02  0.51100000000E-03 0. -1.
        -11    1    3    3    0    0 -0.61909371388E+01  0.27761468116E+02  0.21278778576E+02  0.35522010537E+02  0.51100000000E-03 0.  1.
         12    1    3    3    0    0  0.20459635789E+02 -0.18358041293E+02 -0.24038815198E+02  0.36516831912E+02  0.00000000000E+00 0. -1.
</event>
<event>
 7    1  0.2404951E-015  0.9000775E+02  0.7816164E-02  0.1186339E+00
        -11   -1    0    0    0    0  0.00000000000E+00  0.00000000000E+00  0.45593999997E+02  0.45594000000E+02  0.51100000000E-03 0. -1.
         11   -1    0    0    0    0 -0.00000000000E+00 -0.00000000000E+00 -0.45593999997E+02  0.45594000000E+02  0.51100000000E-03 0.  1.
    9900012    2    1    2    0    0  0.85761195034E+00 -0.62973463517E+00 -0.51080975437E+00  0.90007749784E+02  0.90000011281E+02 0.  0.
         12    1    1    2    0    0 -0.85761195034E+00  0.62973463517E+00  0.51080975437E+00  0.11802502164E+01  0.00000000000E+00 0. -1.
         11    1    3    3    0    0  0.57805999944E+01 -0.39931293794E+02 -0.43335730864E+01  0.40579593594E+02  0.51100000000E-03 0. -1.
        -11    1    3    3    0    0  0.75855001724E+01 -0.44327502172E+00  0.10304508735E+01  0.76679941885E+01  0.51100000000E-03 0.  1.
        -12    1    3    3    0    0 -0.12508488216E+02  0.39744834180E+02  0.27923124586E+01  0.41760162001E+02  0.00000000000E+00 0.  1.
</event>
<event>
 7    1  0.2404951E-015  0.9000800E+02  0.7816164E-02  0.1186339E+00
        -11   -1    0    0    0    0  0.00000000000E+00  0.00000000000E+00  0.45593999997E+02  0.45594000000E+02  0.51100000000E-03 0. -1.
         11   -1    0    0    0    0 -0.00000000000E+00 -0.00000000000E+00 -0.45593999997E+02  0.45594000000E+02  0.51100000000E-03 0.  1.
    9900012    2    1    2    0    0  0.31849280424E+00  0.11344882940E+01 -0.62477509117E-01  0.90007997968E+02  0.90000262741E+02 0.  0.
         12    1    1    2    0    0 -0.31849280424E+00 -0.11344882940E+01  0.62477509117E-01  0.11800020317E+01  0.00000000000E+00 0. -1.
         11    1    3    3    0    0  0.75215090320E+01  0.47583394113E+01  0.15939376648E+02  0.18255920143E+02  0.51100000000E-03 0. -1.
        -11    1    3    3    0    0  0.28464816243E+02  0.80352625373E+01  0.29296706088E+01  0.29721947748E+02  0.51100000000E-03 0.  1.
         12    1    3    3    0    0 -0.35667832471E+02 -0.11659113655E+02 -0.18931524766E+02  0.42030130078E+02  0.00000000000E+00 0. -1.
</event>
<event>
 7    1  0.2404951E-015  0.9000776E+02  0.7816164E-02  0.1186339E+00
        -11   -1    0    0    0    0  0.00000000000E+00  0.00000000000E+00  0.45593999997E+02  0.45594000000E+02  0.51100000000E-03 0.  1.
         11   -1    0    0    0    0 -0.00000000000E+00 -0.00000000000E+00 -0.45593999997E+02  0.45594000000E+02  0.51100000000E-03 0. -1.
    9900012    2    1    2    0    0 -0.95430560047E+00 -0.41020305054E+00  0.56036515107E+00  0.90007756456E+02  0.90000018041E+02 0.  0.
         12    1    1    2    0    0  0.95430560047E+00  0.41020305054E+00 -0.56036515107E+00  0.11802435445E+01  0.00000000000E+00 0. -1.
         11    1    3    3    0    0 -0.19109354018E+02 -0.30371694767E+02 -0.67748029633E+01  0.36517190602E+02  0.51100000000E-03 0. -1.
        -11    1    3    3    0    0 -0.55396235656E+01 -0.62443577455E+01 -0.32279213697E+01  0.89497994130E+01  0.51100000000E-03 0.  1.
        -12    1    3    3    0    0  0.23694671983E+02  0.36205849462E+02  0.10563089484E+02  0.44540766441E+02  0.00000000000E+00 0.  1.
</event>
<event>
 7    1  0.2404951E-015  0.9000769E+02  0.7816164E-02  0.1186339E+00
        -11   -1    0    0    0    0  0.00000000000E+00  0.00000000000E+00  0.45593999997E+02  0.45594000000E+02  0.51100000000E-03 0.  1.
         11   -1    0    0    0    0 -0.00000000000E+00 -0.00000000000E+00 -0.45593999997E+02  0.45594000000E+02  0.51100000000E-03 0. -1.
    9900012    2    1    2    0    0  0.59752557331E+00  0.96384902015E+00  0.32723230602E+00  0.90007693800E+02  0.89999954558E+02 0.  0.
         12    1    1    2    0    0 -0.59752557331E+00 -0.96384902015E+00 -0.32723230602E+00  0.11803062003E+01  0.00000000000E+00 0. -1.
         11    1    3    3    0    0 -0.35365546594E+01 -0.45707662077E+01 -0.72054531189E+01  0.92367568710E+01  0.51100000000E-03 0. -1.
        -11    1    3    3    0    0  0.54724343023E+01 -0.23434389259E+02 -0.26674354482E+02  0.35925469022E+02  0.51100000000E-03 0.  1.
         12    1    3    3    0    0 -0.13383540696E+01  0.28969004487E+02  0.34207039907E+02  0.44845467907E+02  0.00000000000E+00 0. -1.
</event>
<event>
 7    1  0.2404951E-015  0.9000778E+02  0.7816164E-02  0.1186339E+00
        -11   -1    0    0    0    0  0.00000000000E+00  0.00000000000E+00  0.45593999997E+02  0.45594000000E+02  0.51100000000E-03 0.  1.
         11   -1    0    0    0    0 -0.00000000000E+00 -0.00000000000E+00 -0.45593999997E+02  0.45594000000E+02  0.51100000000E-03 0. -1.
    9900012    2    1    2    0    0 -0.74773883585E+00 -0.30137082354E+00  0.86196244944E+00  0.90007780951E+02  0.90000042859E+02 0.  0.
         12    1    1    2    0    0  0.74773883585E+00  0.30137082354E+00 -0.86196244944E+00  0.11802190492E+01  0.00000000000E+00 0. -1.
         11    1    3    3    0    0 -0.88135574830E+01 -0.63263853051E+01  0.23431263421E+01  0.11099197622E+02  0.51100000000E-03 0. -1.
        -11    1    3    3    0    0 -0.19301942408E+02  0.28609213193E+02  0.17470497639E+02  0.38681653898E+02  0.51100000000E-03 0.  1.
         12    1    3    3    0    0  0.27367761056E+02 -0.22584198712E+02 -0.18951661531E+02  0.40226929431E+02  0.00000000000E+00 0. -1.
</event>
<event>
 7    1  0.2404951E-015  0.9000790E+02  0.7816164E-02  0.1186339E+00
        -11   -1    0    0    0    0  0.00000000000E+00  0.00000000000E+00  0.45593999997E+02  0.45594000000E+02  0.51100000000E-03 0.  1.
         11   -1    0    0    0    0 -0.00000000000E+00 -0.00000000000E+00 -0.45593999997E+02  0.45594000000E+02  0.51100000000E-03 0. -1.
    9900012    2    1    2    0    0  0.32658798128E+00  0.11323580794E+01 -0.61086323510E-01  0.90007904212E+02  0.90000167748E+02 0.  0.
         12    1    1    2    0    0 -0.32658798128E+00 -0.11323580794E+01  0.61086323510E-01  0.11800957879E+01  0.00000000000E+00 0. -1.
         11    1    3    3    0    0  0.26166779127E+01  0.47171573290E+01  0.10636314198E+02  0.11926011762E+02  0.51100000000E-03 0. -1.
        -11    1    3    3    0    0  0.47683751799E+01  0.36337481405E+02 -0.26115235145E+01  0.36741938055E+02  0.51100000000E-03 0.  1.
         12    1    3    3    0    0 -0.70584651113E+01 -0.39922280655E+02 -0.80858770074E+01  0.41339954395E+02  0.00000000000E+00 0. -1.
</event>
<event>
 7    1  0.2404951E-015  0.9000777E+02  0.7816164E-02  0.1186339E+00
        -11   -1    0    0    0    0  0.00000000000E+00  0.00000000000E+00  0.45593999997E+02  0.45594000000E+02  0.51100000000E-03 0. -1.
         11   -1    0    0    0    0 -0.00000000000E+00 -0.00000000000E+00 -0.45593999997E+02  0.45594000000E+02  0.51100000000E-03 0.  1.
    9900012    2    1    2    0    0  0.54457833046E+00 -0.10364353909E+01 -0.14891276015E+00  0.90007771680E+02  0.90000033466E+02 0.  0.
         12    1    1    2    0    0 -0.54457833046E+00  0.10364353909E+01  0.14891276015E+00  0.11802283201E+01  0.00000000000E+00 0. -1.
         11    1    3    3    0    0  0.98018502622E+01  0.35474754310E+01  0.38073629465E+01  0.11097606200E+02  0.51100000000E-03 0. -1.
        -11    1    3    3    0    0  0.31689393930E+01 -0.26348254404E+02  0.27814943727E+02  0.38444034411E+02  0.51100000000E-03 0.  1.
         12    1    3    3    0    0 -0.12426211325E+02  0.21764343582E+02 -0.31771219433E+02  0.40466131069E+02  0.00000000000E+00 0. -1.
</event>
<event>
 7    1  0.2404951E-015  0.9000781E+02  0.7816164E-02  0.1186339E+00
        -11   -1    0    0    0    0  0.00000000000E+00  0.00000000000E+00  0.45593999997E+02  0.45594000000E+02  0.51100000000E-03 0. -1.
         11   -1    0    0    0    0 -0.00000000000E+00 -0.00000000000E+00 -0.45593999997E+02  0.45594000000E+02  0.51100000000E-03 0.  1.
    9900012    2    1    2    0    0 -0.52475459575E+00 -0.83063757620E+00 -0.65386079979E+00  0.90007805052E+02  0.90000067279E+02 0.  0.
         12    1    1    2    0    0  0.52475459575E+00  0.83063757620E+00  0.65386079979E+00  0.11801949476E+01  0.00000000000E+00 0. -1.
         11    1    3    3    0    0 -0.47151538976E+01 -0.56522694280E+01  0.61217674785E+01  0.95737590991E+01  0.51100000000E-03 0. -1.
        -11    1    3    3    0    0 -0.32288839355E+02 -0.17316158486E+02 -0.89198465579E+01  0.37709178650E+02  0.51100000000E-03 0.  1.
         12    1    3    3    0    0  0.36479238657E+02  0.22137790338E+02  0.21442182796E+01  0.42724867303E+02  0.00000000000E+00 0. -1.
</event>
<event>
 7    1  0.2581023E-015  0.9000766E+02  0.7816164E-02  0.1186339E+00
        -11   -1    0    0    0    0  0.00000000000E+00  0.00000000000E+00  0.45593999997E+02  0.45594000000E+02  0.51100000000E-03 0.  1.
         11   -1    0    0    0    0 -0.00000000000E+00 -0.00000000000E+00 -0.45593999997E+02  0.45594000000E+02  0.51100000000E-03 0. -1.
    9900012    2    1    2    0    0  0.10188897323E+01 -0.59587735387E+00  0.18294787888E-02  0.90007657061E+02  0.89999917334E+02 0.  0.
         12    1    1    2    0    0 -0.10188897323E+01  0.59587735387E+00 -0.18294787888E-02  0.11803429394E+01  0.00000000000E+00 0. -1.
         11    1    3    3    0    0  0.33610233463E+02 -0.20622449998E+02 -0.46674925605E+01  0.39707917655E+02  0.51100000000E-03 0. -1.
        -11    1    3    3    0    0  0.27942411507E+01  0.35076577298E+01 -0.80620391844E+01  0.92253955161E+01  0.51100000000E-03 0.  1.
        -12    1    3    3    0    0 -0.35385584882E+02  0.16518914915E+02  0.12731361224E+02  0.41074343890E+02  0.00000000000E+00 0.  1.
</event>
<event>
 7    1  0.2404951E-015  0.9000776E+02  0.7816164E-02  0.1186339E+00
        -11   -1    0    0    0    0  0.00000000000E+00  0.00000000000E+00  0.45593999997E+02  0.45594000000E+02  0.51100000000E-03 0. -1.
         11   -1    0    0    0    0 -0.00000000000E+00 -0.00000000000E+00 -0.45593999997E+02  0.45594000000E+02  0.51100000000E-03 0.  1.
    9900012    2    1    2    0    0  0.77541449194E+00  0.16007599998E+00 -0.87526116489E+00  0.90007756776E+02  0.90000018366E+02 0.  0.
         12    1    1    2    0    0 -0.77541449194E+00 -0.16007599998E+00  0.87526116489E+00  0.11802432236E+01  0.00000000000E+00 0. -1.
         11    1    3    3    0    0 -0.16830248771E+02  0.17842959777E+02  0.24323928989E+02  0.34543914211E+02  0.51100000000E-03 0. -1.
        -11    1    3    3    0    0 -0.11337923055E+02 -0.89093392246E+01  0.22821319793E+01  0.14599073643E+02  0.51100000000E-03 0.  1.
        -12    1    3    3    0    0  0.28943586317E+02 -0.87735445521E+01 -0.27481322133E+02  0.40864768922E+02  0.00000000000E+00 0.  1.
</event>
<event>
 7    1  0.2404951E-015  0.9000780E+02  0.7816164E-02  0.1186339E+00
        -11   -1    0    0    0    0  0.00000000000E+00  0.00000000000E+00  0.45593999997E+02  0.45594000000E+02  0.51100000000E-03 0.  1.
         11   -1    0    0    0    0 -0.00000000000E+00 -0.00000000000E+00 -0.45593999997E+02  0.45594000000E+02  0.51100000000E-03 0. -1.
    9900012    2    1    2    0    0  0.21284273137E+00  0.23632142495E+00  0.11365432070E+01  0.90007796498E+02  0.90000058612E+02 0.  0.
         12    1    1    2    0    0 -0.21284273137E+00 -0.23632142495E+00 -0.11365432070E+01  0.11802035018E+01  0.00000000000E+00 0. -1.
         11    1    3    3    0    0  0.86129985157E+00 -0.98284051210E+01  0.30583203189E+01  0.10329216238E+02  0.51100000000E-03 0. -1.
        -11    1    3    3    0    0  0.14597808246E+02 -0.25150522311E+02  0.20178896982E+02  0.35395376277E+02  0.51100000000E-03 0.  1.
         12    1    3    3    0    0 -0.15246265367E+02  0.35215248857E+02 -0.22100674093E+02  0.44283203984E+02  0.00000000000E+00 0. -1.
</event>
<event>
 7    1  0.2404951E-015  0.9000767E+02  0.7816164E-02  0.1186339E+00
        -11   -1    0    0    0    0  0.00000000000E+00  0.00000000000E+00  0.45593999997E+02  0.45594000000E+02  0.51100000000E-03 0.  1.
         11   -1    0    0    0    0 -0.00000000000E+00 -0.00000000000E+00 -0.45593999997E+02  0.45594000000E+02  0.51100000000E-03 0. -1.
    9900012    2    1    2    0    0  0.10729128354E+01 -0.48715793000E+00 -0.68708579142E-01  0.90007667136E+02  0.89999927542E+02 0.  0.
         12    1    1    2    0    0 -0.10729128354E+01  0.48715793000E+00  0.68708579142E-01  0.11803328641E+01  0.00000000000E+00 0. -1.
         11    1    3    3    0    0 -0.75258750689E+01  0.34693002727E+02 -0.38658454067E+01  0.35709774498E+02  0.51100000000E-03 0. -1.
        -11    1    3    3    0    0 -0.58614199772E+01  0.67339930230E+00 -0.11337857241E+02  0.12781107849E+02  0.51100000000E-03 0.  1.
        -12    1    3    3    0    0  0.14460207881E+02 -0.35853559959E+02  0.15134994069E+02  0.41516784788E+02  0.00000000000E+00 0.  1.
</event>
<event>
 7    1  0.2404951E-015  0.9000768E+02  0.7816164E-02  0.1186339E+00
        -11   -1    0    0    0    0  0.00000000000E+00  0.00000000000E+00  0.45593999997E+02  0.45594000000E+02  0.51100000000E-03 0.  1.
         11   -1    0    0    0    0 -0.00000000000E+00 -0.00000000000E+00 -0.45593999997E+02  0.45594000000E+02  0.51100000000E-03 0. -1.
    9900012    2    1    2    0    0 -0.20523562355E-01 -0.11790490657E+01 -0.50815228193E-01  0.90007677966E+02  0.89999938515E+02 0.  0.
         12    1    1    2    0    0  0.20523562355E-01  0.11790490657E+01  0.50815228193E-01  0.11803220338E+01  0.00000000000E+00 0. -1.
         11    1    3    3    0    0  0.48608329334E+01  0.75050922253E+01  0.45361990744E+01  0.10026525242E+02  0.51100000000E-03 0. -1.
        -11    1    3    3    0    0 -0.36168456544E+02  0.35008237339E+01  0.16944794141E+02  0.40094127554E+02  0.51100000000E-03 0.  1.
         12    1    3    3    0    0  0.31287100048E+02 -0.12184965025E+02 -0.21531808444E+02  0.39887025170E+02  0.00000000000E+00 0. -1.
</event>
<event>
 7    1  0.2404951E-015  0.9000757E+02  0.7816164E-02  0.1186339E+00
        -11   -1    0    0    0    0  0.00000000000E+00  0.00000000000E+00  0.45593999997E+02  0.45594000000E+02  0.51100000000E-03 0. -1.
         11   -1    0    0    0    0 -0.00000000000E+00 -0.00000000000E+00 -0.45593999997E+02  0.45594000000E+02  0.51100000000E-03 0.  1.
    9900012    2    1    2    0    0  0.86311212707E+00 -0.73217859327E+00  0.33521930673E+00  0.90007567867E+02  0.89999826963E+02 0.  0.
         12    1    1    2    0    0 -0.86311212707E+00  0.73217859327E+00 -0.33521930673E+00  0.11804321327E+01  0.00000000000E+00 0. -1.
         11    1    3    3    0    0  0.20947909376E+02 -0.29702663785E+02 -0.43549759990E+01  0.36606405988E+02  0.51100000000E-03 0. -1.
        -11    1    3    3    0    0  0.10517581648E+02 -0.14081378697E+00  0.37069340703E+01  0.11152610130E+02  0.51100000000E-03 0.  1.
        -12    1    3    3    0    0 -0.30602378897E+02  0.29111298978E+02  0.98326123535E+00  0.42248551750E+02  0.00000000000E+00 0.  1.
</event>
<event>
 7    1  0.2404951E-015  0.9000773E+02  0.7816164E-02  0.1186339E+00
        -11   -1    0    0    0    0  0.00000000000E+00  0.00000000000E+00  0.45593999997E+02  0.45594000000E+02  0.51100000000E-03 0.  1.
         11   -1    0    0    0    0 -0.00000000000E+00 -0.00000000000E+00 -0.45593999997E+02  0.45594000000E+02  0.51100000000E-03 0. -1.
    9900012    2    1    2    0    0  0.25438254930E-01  0.58448962706E+00  0.10250635282E+01  0.90007732884E+02  0.89999994158E+02 0.  0.
         12    1    1    2    0    0 -0.25438254930E-01 -0.58448962706E+00 -0.10250635282E+01  0.11802671163E+01  0.00000000000E+00 0. -1.
         11    1    3    3    0    0 -0.21632001961E+02 -0.20996741425E+02 -0.19387803567E+02  0.35842622486E+02  0.51100000000E-03 0. -1.
        -11    1    3    3    0    0 -0.63338766717E+00  0.20267275262E+01 -0.10862123468E+02  0.11067724739E+02  0.51100000000E-03 0.  1.
        -12    1    3    3    0    0  0.22290827883E+02  0.19554503526E+02  0.31274990563E+02  0.43097385658E+02  0.00000000000E+00 0.  1.
</event>
<event>
 7    1  0.2404951E-015  0.9000771E+02  0.7816164E-02  0.1186339E+00
        -11   -1    0    0    0    0  0.00000000000E+00  0.00000000000E+00  0.45593999997E+02  0.45594000000E+02  0.51100000000E-03 0.  1.
         11   -1    0    0    0    0 -0.00000000000E+00 -0.00000000000E+00 -0.45593999997E+02  0.45594000000E+02  0.51100000000E-03 0. -1.
    9900012    2    1    2    0    0 -0.29364705869E+00  0.17164175273E+00  0.11302189911E+01  0.90007710013E+02  0.89999970985E+02 0.  0.
         12    1    1    2    0    0  0.29364705869E+00 -0.17164175273E+00 -0.11302189911E+01  0.11802899874E+01  0.00000000000E+00 0. -1.
         11    1    3    3    0    0 -0.17341797653E+02  0.24337220872E+02 -0.29610669249E+02  0.42069347502E+02  0.51100000000E-03 0. -1.
        -11    1    3    3    0    0  0.73869234240E+01  0.29823490672E+01  0.68782599122E+01  0.10524804194E+02  0.51100000000E-03 0.  1.
        -12    1    3    3    0    0  0.96612271699E+01 -0.27147928186E+02  0.23862628328E+02  0.37413558317E+02  0.00000000000E+00 0.  1.
</event>
<event>
 7    1  0.2404951E-015  0.9000769E+02  0.7816164E-02  0.1186339E+00
        -11   -1    0    0    0    0  0.00000000000E+00  0.00000000000E+00  0.45593999997E+02  0.45594000000E+02  0.51100000000E-03 0.  1.
         11   -1    0    0    0    0 -0.00000000000E+00 -0.00000000000E+00 -0.45593999997E+02  0.45594000000E+02  0.51100000000E-03 0. -1.
    9900012    2    1    2    0    0 -0.10295651253E+01  0.60730155175E-01  0.57397264701E+00  0.90007687711E+02  0.89999948389E+02 0.  0.
         12    1    1    2    0    0  0.10295651253E+01 -0.60730155175E-01 -0.57397264701E+00  0.11803122885E+01  0.00000000000E+00 0. -1.
         11    1    3    3    0    0  0.14923883350E+01 -0.10325151981E+02  0.52735789221E+00  0.10445769143E+02  0.51100000000E-03 0. -1.
        -11    1    3    3    0    0  0.24208383795E+02 -0.17720126506E+02  0.19888094335E+02  0.35994236010E+02  0.51100000000E-03 0.  1.
         12    1    3    3    0    0 -0.26730337256E+02  0.28106008642E+02 -0.19841479581E+02  0.43567682559E+02  0.00000000000E+00 0. -1.
</event>
<event>
 7    1  0.2404951E-015  0.9000773E+02  0.7816164E-02  0.1186339E+00
        -11   -1    0    0    0    0  0.00000000000E+00  0.00000000000E+00  0.45593999997E+02  0.45594000000E+02  0.51100000000E-03 0. -1.
         11   -1    0    0    0    0 -0.00000000000E+00 -0.00000000000E+00 -0.45593999997E+02  0.45594000000E+02  0.51100000000E-03 0.  1.
    9900012    2    1    2    0    0  0.29201353355E-01 -0.18556489623E+00 -0.11652221381E+01  0.90007733216E+02  0.89999994495E+02 0.  0.
         12    1    1    2    0    0 -0.29201353355E-01  0.18556489623E+00  0.11652221381E+01  0.11802667837E+01  0.00000000000E+00 0. -1.
         11    1    3    3    0    0  0.10753684733E+02  0.37071400318E+02 -0.45289730157E+01  0.38864406000E+02  0.51100000000E-03 0. -1.
        -11    1    3    3    0    0 -0.37811828687E+01  0.15574043364E+01 -0.89457167939E+01  0.98360917732E+01  0.51100000000E-03 0.  1.
        -12    1    3    3    0    0 -0.69433005115E+01 -0.38814369551E+02  0.12309467671E+02  0.41307235443E+02  0.00000000000E+00 0.  1.
</event>
<event>
 7    1  0.2404951E-015  0.9000771E+02  0.7816164E-02  0.1186339E+00
        -11   -1    0    0    0    0  0.00000000000E+00  0.00000000000E+00  0.45593999997E+02  0.45594000000E+02  0.51100000000E-03 0. -1.
         11   -1    0    0    0    0 -0.00000000000E+00 -0.00000000000E+00 -0.45593999997E+02  0.45594000000E+02  0.51100000000E-03 0.  1.
    9900012    2    1    2    0    0  0.73307450873E+00  0.79963227019E+00 -0.46506033066E+00  0.90007707191E+02  0.89999968126E+02 0.  0.
         12    1    1    2    0    0 -0.73307450873E+00 -0.79963227019E+00  0.46506033066E+00  0.11802928086E+01  0.00000000000E+00 0. -1.
         11    1    3    3    0    0 -0.45898596296E+01  0.45612768684E+01 -0.73147513215E+01  0.97661479226E+01  0.51100000000E-03 0. -1.
        -11    1    3    3    0    0 -0.27027416032E+02 -0.27512053554E+02 -0.37047711567E+01  0.38744285227E+02  0.51100000000E-03 0.  1.
         12    1    3    3    0    0  0.32350350170E+02  0.23750408956E+02  0.10554462148E+02  0.41497274042E+02  0.00000000000E+00 0. -1.
</event>
<event>
 7    1  0.2404951E-015  0.9000825E+02  0.7816164E-02  0.1186338E+00
        -11   -1    0    0    0    0  0.00000000000E+00  0.00000000000E+00  0.45593999997E+02  0.45594000000E+02  0.51100000000E-03 0. -1.
         11   -1    0    0    0    0 -0.00000000000E+00 -0.00000000000E+00 -0.45593999997E+02  0.45594000000E+02  0.51100000000E-03 0.  1.
    9900012    2    1    2    0    0  0.10623409557E+01  0.50275080801E+00 -0.10239976138E+00  0.90008249013E+02  0.90000517098E+02 0.  0.
         12    1    1    2    0    0 -0.10623409557E+01 -0.50275080801E+00  0.10239976138E+00  0.11797509874E+01  0.00000000000E+00 0. -1.
         11    1    3    3    0    0  0.18994310831E+01  0.29739737804E+01  0.74831981278E+01  0.82734885609E+01  0.51100000000E-03 0. -1.
        -11    1    3    3    0    0 -0.23518036282E+01  0.36795242789E+02 -0.18076019760E+02  0.41062919561E+02  0.51100000000E-03 0.  1.
         12    1    3    3    0    0  0.15147135008E+01 -0.39266465762E+02  0.10490421871E+02  0.40671840891E+02  0.00000000000E+00 0. -1.
</event>
<event>
 7    1  0.2404951E-015  0.9000824E+02  0.7816164E-02  0.1186338E+00
        -11   -1    0    0    0    0  0.00000000000E+00  0.00000000000E+00  0.45593999997E+02  0.45594000000E+02  0.51100000000E-03 0.  1.
         11   -1    0    0    0    0 -0.00000000000E+00 -0.00000000000E+00 -0.45593999997E+02  0.45594000000E+02  0.51100000000E-03 0. -1.
    9900012    2    1    2    0    0  0.40481482537E+00 -0.48108415873E+00  0.99826218742E+00  0.90008235445E+02  0.90000503351E+02 0.  0.
         12    1    1    2    0    0 -0.40481482537E+00  0.48108415873E+00 -0.99826218742E+00  0.11797645551E+01  0.00000000000E+00 0. -1.
         11    1    3    3    0    0  0.80782411988E+01  0.88558528163E+00  0.54928236276E+01  0.98088405951E+01  0.51100000000E-03 0. -1.
        -11    1    3    3    0    0 -0.14050522601E+02 -0.92498338260E+01  0.35316072154E+02  0.39117790886E+02  0.51100000000E-03 0.  1.
         12    1    3    3    0    0  0.63770962272E+01  0.78831643856E+01 -0.39810633594E+02  0.41081603963E+02  0.00000000000E+00 0. -1.
</event>
<event>
 7    1  0.2404951E-015  0.9000771E+02  0.7816164E-02  0.1186339E+00
        -11   -1    0    0    0    0  0.00000000000E+00  0.00000000000E+00  0.45593999997E+02  0.45594000000E+02  0.51100000000E-03 0. -1.
         11   -1    0    0    0    0 -0.00000000000E+00 -0.00000000000E+00 -0.45593999997E+02  0.45594000000E+02  0.51100000000E-03 0.  1.
    9900012    2    1    2    0    0 -0.43629363836E+00  0.49179100624E+00 -0.98023748711E+00  0.90007713567E+02  0.89999974586E+02 0.  0.
         12    1    1    2    0    0  0.43629363836E+00 -0.49179100624E+00  0.98023748711E+00  0.11802864330E+01  0.00000000000E+00 0. -1.
         11    1    3    3    0    0 -0.19802906780E+02 -0.19047950741E+02  0.20983619020E+02  0.34572992520E+02  0.51100000000E-03 0. -1.
        -11    1    3    3    0    0 -0.61870938822E+01 -0.62936378580E+01  0.50394193231E+01  0.10162959981E+02  0.51100000000E-03 0.  1.
        -12    1    3    3    0    0  0.25553707024E+02  0.25833379605E+02 -0.27003275830E+02  0.45271761066E+02  0.00000000000E+00 0.  1.
</event>
<event>
 7    1  0.2404951E-015  0.9000771E+02  0.7816164E-02  0.1186339E+00
        -11   -1    0    0    0    0  0.00000000000E+00  0.00000000000E+00  0.45593999997E+02  0.45594000000E+02  0.51100000000E-03 0.  1.
         11   -1    0    0    0    0 -0.00000000000E+00 -0.00000000000E+00 -0.45593999997E+02  0.45594000000E+02  0.51100000000E-03 0. -1.
    9900012    2    1    2    0    0  0.10805725606E+01 -0.19848587106E+00  0.43132937524E+00  0.90007712438E+02  0.89999973442E+02 0.  0.
         12    1    1    2    0    0 -0.10805725606E+01  0.19848587106E+00 -0.43132937524E+00  0.11802875623E+01  0.00000000000E+00 0. -1.
         11    1    3    3    0    0  0.67542063509E+01  0.71884950446E+01  0.87179036553E+00  0.99022110228E+01  0.51100000000E-03 0. -1.
        -11    1    3    3    0    0  0.23757116232E+02  0.11067652075E+02 -0.26046254694E+02  0.36949978051E+02  0.51100000000E-03 0.  1.
         12    1    3    3    0    0 -0.29430750022E+02 -0.18454632990E+02  0.25605793704E+02  0.43155523364E+02  0.00000000000E+00 0. -1.
</event>
<event>
 7    1  0.2404951E-015  0.9000769E+02  0.7816164E-02  0.1186339E+00
        -11   -1    0    0    0    0  0.00000000000E+00  0.00000000000E+00  0.45593999997E+02  0.45594000000E+02  0.51100000000E-03 0.  1.
         11   -1    0    0    0    0 -0.00000000000E+00 -0.00000000000E+00 -0.45593999997E+02  0.45594000000E+02  0.51100000000E-03 0. -1.
    9900012    2    1    2    0    0  0.11382474653E+01  0.26256505103E+00 -0.16904727276E+00  0.90007692973E+02  0.89999953720E+02 0.  0.
         12    1    1    2    0    0 -0.11382474653E+01 -0.26256505103E+00  0.16904727276E+00  0.11803070273E+01  0.00000000000E+00 0. -1.
         11    1    3    3    0    0  0.63869878630E+01 -0.21878083936E+01  0.53760352282E+01  0.86302882087E+01  0.51100000000E-03 0. -1.
        -11    1    3    3    0    0 -0.41003574763E+01  0.25671825126E+02  0.29500501117E+02  0.39320924495E+02  0.51100000000E-03 0.  1.
         12    1    3    3    0    0 -0.11483829214E+01 -0.23221451681E+02 -0.35045583618E+02  0.42056480269E+02  0.00000000000E+00 0. -1.
</event>
<event>
 7    1  0.2404951E-015  0.9000772E+02  0.7816164E-02  0.1186339E+00
        -11   -1    0    0    0    0  0.00000000000E+00  0.00000000000E+00  0.45593999997E+02  0.45594000000E+02  0.51100000000E-03 0. -1.
         11   -1    0    0    0    0 -0.00000000000E+00 -0.00000000000E+00 -0.45593999997E+02  0.45594000000E+02  0.51100000000E-03 0.  1.
    9900012    2    1    2    0    0 -0.43223331897E+00 -0.10815138391E+01 -0.19119412513E+00  0.90007723329E+02  0.89999984477E+02 0.  0.
         12    1    1    2    0    0  0.43223331897E+00  0.10815138391E+01  0.19119412513E+00  0.11802766708E+01  0.00000000000E+00 0. -1.
         11    1    3    3    0    0 -0.25545963117E+02 -0.12431009423E+02  0.20784308069E+02  0.35201046703E+02  0.51100000000E-03 0. -1.
        -11    1    3    3    0    0  0.21984563348E+01 -0.74838237231E+01  0.94916799630E+01  0.12285471768E+02  0.51100000000E-03 0.  1.
        -12    1    3    3    0    0  0.22915273463E+02  0.18833319307E+02 -0.30467182157E+02  0.42521204858E+02  0.00000000000E+00 0.  1.
</event>
<event>
 7    1  0.2404951E-015  0.9000808E+02  0.7816164E-02  0.1186338E+00
        -11   -1    0    0    0    0  0.00000000000E+00  0.00000000000E+00  0.45593999997E+02  0.45594000000E+02  0.51100000000E-03 0.  1.
         11   -1    0    0    0    0 -0.00000000000E+00 -0.00000000000E+00 -0.45593999997E+02  0.45594000000E+02  0.51100000000E-03 0. -1.
    9900012    2    1    2    0    0  0.54611382100E+00  0.83593940315E+00  0.62863700773E+00  0.90008076495E+02  0.90000342304E+02 0.  0.
         12    1    1    2    0    0 -0.54611382100E+00 -0.83593940315E+00 -0.62863700773E+00  0.11799235054E+01  0.00000000000E+00 0. -1.
         11    1    3    3    0    0 -0.55989750496E+01 -0.39963236219E+01 -0.71386021939E+01  0.99135647292E+01  0.51100000000E-03 0. -1.
        -11    1    3    3    0    0  0.38428091906E+02 -0.15619081940E+02  0.49426129557E+01  0.41774434661E+02  0.51100000000E-03 0.  1.
         12    1    3    3    0    0 -0.32283003035E+02  0.20451344965E+02  0.28246262459E+01  0.38320077104E+02  0.00000000000E+00 0. -1.
</event>
<event>
 7    1  0.2404951E-015  0.9000783E+02  0.7816164E-02  0.1186339E+00
        -11   -1    0    0    0    0  0.00000000000E+00  0.00000000000E+00  0.45593999997E+02  0.45594000000E+02  0.51100000000E-03 0.  1.
         11   -1    0    0    0    0 -0.00000000000E+00 -0.00000000000E+00 -0.45593999997E+02  0.45594000000E+02  0.51100000000E-03 0. -1.
    9900012    2    1    2    0    0  0.10887542437E+01 -0.30479481963E+00 -0.33840415551E+00  0.90007829225E+02  0.90000091771E+02 0.  0.
         12    1    1    2    0    0 -0.10887542437E+01  0.30479481963E+00  0.33840415551E+00  0.11801707748E+01  0.00000000000E+00 0. -1.
         11    1    3    3    0    0  0.25241402093E+02 -0.16299345681E+02 -0.11740842036E+02  0.32259020773E+02  0.51100000000E-03 0. -1.
        -11    1    3    3    0    0  0.13006394552E+02  0.63756487365E+01 -0.59062911610E+01  0.15642872869E+02  0.51100000000E-03 0.  1.
        -12    1    3    3    0    0 -0.37159042401E+02  0.96189021252E+01  0.17308729042E+02  0.42105935583E+02  0.00000000000E+00 0.  1.
</event>
<event>
 7    1  0.2404951E-015  0.9000777E+02  0.7816164E-02  0.1186339E+00
        -11   -1    0    0    0    0  0.00000000000E+00  0.00000000000E+00  0.45593999997E+02  0.45594000000E+02  0.51100000000E-03 0. -1.
         11   -1    0    0    0    0 -0.00000000000E+00 -0.00000000000E+00 -0.45593999997E+02  0.45594000000E+02  0.51100000000E-03 0.  1.
    9900012    2    1    2    0    0 -0.11418354989E+01 -0.97549725853E-01 -0.28219315366E+00  0.90007772381E+02  0.90000034177E+02 0.  0.
         12    1    1    2    0    0  0.11418354989E+01  0.97549725853E-01  0.28219315366E+00  0.11802276185E+01  0.00000000000E+00 0. -1.
         11    1    3    3    0    0  0.34116059802E+02 -0.85163542804E+01  0.12568659675E+02  0.37341733127E+02  0.51100000000E-03 0. -1.
        -11    1    3    3    0    0  0.47364722201E+01 -0.80198523560E+00  0.58442902299E+01  0.75652546529E+01  0.51100000000E-03 0.  1.
        -12    1    3    3    0    0 -0.39994367521E+02  0.92207897901E+01 -0.18695143058E+02  0.45100784602E+02  0.00000000000E+00 0.  1.
</event>
<event>
 7    1  0.2404951E-015  0.9000773E+02  0.7816164E-02  0.1186339E+00
        -11   -1    0    0    0    0  0.00000000000E+00  0.00000000000E+00  0.45593999997E+02  0.45594000000E+02  0.51100000000E-03 0. -1.
         11   -1    0    0    0    0 -0.00000000000E+00 -0.00000000000E+00 -0.45593999997E+02  0.45594000000E+02  0.51100000000E-03 0.  1.
    9900012    2    1    2    0    0  0.35729844106E+00 -0.87117674920E+00 -0.71163927288E+00  0.90007728184E+02  0.89999989396E+02 0.  0.
         12    1    1    2    0    0 -0.35729844106E+00  0.87117674920E+00  0.71163927288E+00  0.11802718157E+01  0.00000000000E+00 0. -1.
         11    1    3    3    0    0  0.99958442406E+01 -0.35390999597E+02 -0.73514055995E+01  0.37503105460E+02  0.51100000000E-03 0. -1.
        -11    1    3    3    0    0  0.85716849574E+01 -0.37719521302E+01 -0.10084256220E+01  0.94190407356E+01  0.51100000000E-03 0.  1.
        -12    1    3    3    0    0 -0.18210230757E+02  0.38291774978E+02  0.76481919486E+01  0.43085581989E+02  0.00000000000E+00 0.  1.
</event>
<event>
 7    1  0.2404951E-015  0.9000770E+02  0.7816164E-02  0.1186339E+00
        -11   -1    0    0    0    0  0.00000000000E+00  0.00000000000E+00  0.45593999997E+02  0.45594000000E+02  0.51100000000E-03 0. -1.
         11   -1    0    0    0    0 -0.00000000000E+00 -0.00000000000E+00 -0.45593999997E+02  0.45594000000E+02  0.51100000000E-03 0.  1.
    9900012    2    1    2    0    0  0.46125205825E+00 -0.15481679467E-02 -0.10864354878E+01  0.90007704305E+02  0.89999965202E+02 0.  0.
         12    1    1    2    0    0 -0.46125205825E+00  0.15481679467E-02  0.10864354878E+01  0.11802956948E+01  0.00000000000E+00 0. -1.
         11    1    3    3    0    0  0.14082258859E+01 -0.89706209899E+01 -0.34690384191E+01  0.97205642276E+01  0.51100000000E-03 0. -1.
        -11    1    3    3    0    0 -0.89109680322E+01 -0.33312064484E+02 -0.92793276875E+01  0.35710011398E+02  0.51100000000E-03 0.  1.
         12    1    3    3    0    0  0.79639942045E+01  0.42281137306E+02  0.11661930619E+02  0.44577128680E+02  0.00000000000E+00 0. -1.
</event>
<event>
 7    1  0.2404951E-015  0.9000773E+02  0.7816164E-02  0.1186339E+00
        -11   -1    0    0    0    0  0.00000000000E+00  0.00000000000E+00  0.45593999997E+02  0.45594000000E+02  0.51100000000E-03 0.  1.
         11   -1    0    0    0    0 -0.00000000000E+00 -0.00000000000E+00 -0.45593999997E+02  0.45594000000E+02  0.51100000000E-03 0. -1.
    9900012    2    1    2    0    0 -0.31381869098E+00 -0.20695494538E+00  0.11188085429E+01  0.90007726694E+02  0.89999987887E+02 0.  0.
         12    1    1    2    0    0  0.31381869098E+00  0.20695494538E+00 -0.11188085429E+01  0.11802733056E+01  0.00000000000E+00 0. -1.
         11    1    3    3    0    0  0.85988402071E+01 -0.68504175329E+01  0.43053949562E+00  0.11002437812E+02  0.51100000000E-03 0. -1.
        -11    1    3    3    0    0  0.63659531958E+01 -0.92943908778E+01  0.35799058185E+02  0.37529769905E+02  0.51100000000E-03 0.  1.
         12    1    3    3    0    0 -0.15278612094E+02  0.15937853465E+02 -0.35110789138E+02  0.41475518978E+02  0.00000000000E+00 0. -1.
</event>
<event>
 7    1  0.2404951E-015  0.9000750E+02  0.7816164E-02  0.1186340E+00
        -11   -1    0    0    0    0  0.00000000000E+00  0.00000000000E+00  0.45593999997E+02  0.45594000000E+02  0.51100000000E-03 0. -1.
         11   -1    0    0    0    0 -0.00000000000E+00 -0.00000000000E+00 -0.45593999997E+02  0.45594000000E+02  0.51100000000E-03 0.  1.
    9900012    2    1    2    0    0 -0.81399636502E+00 -0.57846516829E-01 -0.85301740451E+00  0.90007502226E+02  0.89999760455E+02 0.  0.
         12    1    1    2    0    0  0.81399636502E+00  0.57846516829E-01  0.85301740451E+00  0.11804977739E+01  0.00000000000E+00 0. -1.
         11    1    3    3    0    0  0.12465280086E+02 -0.78275001208E+01 -0.52723294910E+01  0.15634910435E+02  0.51100000000E-03 0. -1.
        -11    1    3    3    0    0 -0.76649034379E+01 -0.32082394863E+02 -0.40880249143E+01  0.33237670688E+02  0.51100000000E-03 0.  1.
         12    1    3    3    0    0 -0.56143730135E+01  0.39852048467E+02  0.85073370008E+01  0.41134921103E+02  0.00000000000E+00 0. -1.
</event>
<event>
 7    1  0.2404951E-015  0.9000773E+02  0.7816164E-02  0.1186339E+00
        -11   -1    0    0    0    0  0.00000000000E+00  0.00000000000E+00  0.45593999997E+02  0.45594000000E+02  0.51100000000E-03 0. -1.
         11   -1    0    0    0    0 -0.00000000000E+00 -0.00000000000E+00 -0.45593999997E+02  0.45594000000E+02  0.51100000000E-03 0.  1.
    9900012    2    1    2    0    0  0.65554374253E+00 -0.87448364833E+00 -0.44562760325E+00  0.90007727485E+02  0.89999988688E+02 0.  0.
         12    1    1    2    0    0 -0.65554374253E+00  0.87448364833E+00  0.44562760325E+00  0.11802725153E+01  0.00000000000E+00 0. -1.
         11    1    3    3    0    0  0.50813150816E+00 -0.38120796694E+01 -0.79454816775E+01  0.88272775183E+01  0.51100000000E-03 0. -1.
        -11    1    3    3    0    0 -0.16478566936E+02  0.32360756792E+02 -0.16340892259E+02  0.39821935017E+02  0.51100000000E-03 0.  1.
         12    1    3    3    0    0  0.16625979170E+02 -0.29423160770E+02  0.23840746334E+02  0.41358514950E+02  0.00000000000E+00 0. -1.
</event>
<event>
 7    1  0.2404951E-015  0.9000781E+02  0.7816164E-02  0.1186339E+00
        -11   -1    0    0    0    0  0.00000000000E+00  0.00000000000E+00  0.45593999997E+02  0.45594000000E+02  0.51100000000E-03 0. -1.
         11   -1    0    0    0    0 -0.00000000000E+00 -0.00000000000E+00 -0.45593999997E+02  0.45594000000E+02  0.51100000000E-03 0.  1.
    9900012    2    1    2    0    0  0.12161522602E+00  0.49278305523E+00 -0.10654650970E+01  0.90007813034E+02  0.90000075366E+02 0.  0.
         12    1    1    2    0    0 -0.12161522602E+00 -0.49278305523E+00  0.10654650970E+01  0.11801869664E+01  0.00000000000E+00 0. -1.
         11    1    3    3    0    0  0.45275254528E+01  0.35997795878E+02  0.16759950210E+02  0.39965431639E+02  0.51100000000E-03 0. -1.
        -11    1    3    3    0    0 -0.85783291417E+01 -0.21319505800E+01  0.42540101201E+01  0.98096659730E+01  0.51100000000E-03 0.  1.
        -12    1    3    3    0    0  0.41724189150E+01 -0.33373062242E+02 -0.22079425427E+02  0.40232715422E+02  0.00000000000E+00 0.  1.
</event>
<event>
 7    1  0.2404951E-015  0.9000772E+02  0.7816164E-02  0.1186339E+00
        -11   -1    0    0    0    0  0.00000000000E+00  0.00000000000E+00  0.45593999997E+02  0.45594000000E+02  0.51100000000E-03 0. -1.
         11   -1    0    0    0    0 -0.00000000000E+00 -0.00000000000E+00 -0.45593999997E+02  0.45594000000E+02  0.51100000000E-03 0.  1.
    9900012    2    1    2    0    0  0.83455164689E+00 -0.61019559231E+00 -0.56942592340E+00  0.90007719951E+02  0.89999981054E+02 0.  0.
         12    1    1    2    0    0 -0.83455164689E+00  0.61019559231E+00  0.56942592340E+00  0.11802800492E+01  0.00000000000E+00 0. -1.
         11    1    3    3    0    0 -0.89652011970E+01 -0.30124821655E+02  0.13638752788E+02  0.34262155363E+02  0.51100000000E-03 0. -1.
        -11    1    3    3    0    0 -0.76062795176E+01 -0.76383170130E+01  0.30992465318E+01  0.11216269621E+02  0.51100000000E-03 0.  1.
        -12    1    3    3    0    0  0.17406032361E+02  0.37152943075E+02 -0.17307425243E+02  0.44529294967E+02  0.00000000000E+00 0.  1.
</event>
<event>
 7    1  0.2404951E-015  0.9000772E+02  0.7816164E-02  0.1186339E+00
        -11   -1    0    0    0    0  0.00000000000E+00  0.00000000000E+00  0.45593999997E+02  0.45594000000E+02  0.51100000000E-03 0. -1.
         11   -1    0    0    0    0 -0.00000000000E+00 -0.00000000000E+00 -0.45593999997E+02  0.45594000000E+02  0.51100000000E-03 0.  1.
    9900012    2    1    2    0    0  0.86777537345E-01  0.50923540737E-01 -0.11759869031E+01  0.90007716668E+02  0.89999977728E+02 0.  0.
         12    1    1    2    0    0 -0.86777537345E-01 -0.50923540737E-01  0.11759869031E+01  0.11802833322E+01  0.00000000000E+00 0. -1.
         11    1    3    3    0    0 -0.48654925731E+01  0.90221774945E+01 -0.37410710672E+01  0.10911843003E+02  0.51100000000E-03 0. -1.
        -11    1    3    3    0    0  0.20964128656E+02  0.14682460379E+02 -0.27539813906E+02  0.37596684473E+02  0.51100000000E-03 0.  1.
         12    1    3    3    0    0 -0.16011858546E+02 -0.23653714333E+02  0.30104898070E+02  0.41499189193E+02  0.00000000000E+00 0. -1.
</event>
<event>
 7    1  0.2404951E-015  0.9000786E+02  0.7816164E-02  0.1186339E+00
        -11   -1    0    0    0    0  0.00000000000E+00  0.00000000000E+00  0.45593999997E+02  0.45594000000E+02  0.51100000000E-03 0. -1.
         11   -1    0    0    0    0 -0.00000000000E+00 -0.00000000000E+00 -0.45593999997E+02  0.45594000000E+02  0.51100000000E-03 0.  1.
    9900012    2    1    2    0    0 -0.27571180583E+00  0.37018361527E+00 -0.10861333388E+01  0.90007856560E+02  0.90000119467E+02 0.  0.
         12    1    1    2    0    0  0.27571180583E+00 -0.37018361527E+00  0.10861333388E+01  0.11801434399E+01  0.00000000000E+00 0. -1.
         11    1    3    3    0    0  0.17970192674E+02 -0.28603727052E+02  0.12253090025E+02  0.35933817518E+02  0.51100000000E-03 0. -1.
        -11    1    3    3    0    0  0.10410169009E+02 -0.10402873633E+01  0.75762168541E-01  0.10462292137E+02  0.51100000000E-03 0.  1.
        -12    1    3    3    0    0 -0.28656073490E+02  0.30014198030E+02 -0.13414985532E+02  0.43611746905E+02  0.00000000000E+00 0.  1.
</event>
<event>
 7    1  0.2404951E-015  0.9000768E+02  0.7816164E-02  0.1186339E+00
        -11   -1    0    0    0    0  0.00000000000E+00  0.00000000000E+00  0.45593999997E+02  0.45594000000E+02  0.51100000000E-03 0.  1.
         11   -1    0    0    0    0 -0.00000000000E+00 -0.00000000000E+00 -0.45593999997E+02  0.45594000000E+02  0.51100000000E-03 0. -1.
    9900012    2    1    2    0    0  0.10761844642E+01  0.11098483569E+00 -0.47188521392E+00  0.90007675346E+02  0.89999935860E+02 0.  0.
         12    1    1    2    0    0 -0.10761844642E+01 -0.11098483569E+00  0.47188521392E+00  0.11803246544E+01  0.00000000000E+00 0. -1.
         11    1    3    3    0    0 -0.45579898835E+01 -0.55306999912E+01 -0.16538875753E+02  0.18024936216E+02  0.51100000000E-03 0. -1.
        -11    1    3    3    0    0 -0.15781734732E+02  0.25304413039E+02 -0.11456887553E+02  0.31947405889E+02  0.51100000000E-03 0.  1.
         12    1    3    3    0    0  0.21415909080E+02 -0.19662728212E+02  0.27523878091E+02  0.40035333240E+02  0.00000000000E+00 0. -1.
</event>
<event>
 7    1  0.2404951E-015  0.9000772E+02  0.7816164E-02  0.1186339E+00
        -11   -1    0    0    0    0  0.00000000000E+00  0.00000000000E+00  0.45593999997E+02  0.45594000000E+02  0.51100000000E-03 0. -1.
         11   -1    0    0    0    0 -0.00000000000E+00 -0.00000000000E+00 -0.45593999997E+02  0.45594000000E+02  0.51100000000E-03 0.  1.
    9900012    2    1    2    0    0  0.44652157361E+00  0.11667783182E-02 -0.10925549821E+01  0.90007720683E+02  0.89999981796E+02 0.  0.
         12    1    1    2    0    0 -0.44652157361E+00 -0.11667783182E-02  0.10925549821E+01  0.11802793169E+01  0.00000000000E+00 0. -1.
         11    1    3    3    0    0 -0.30226784229E+02 -0.14994082987E+02  0.14472439246E+02  0.36714200352E+02  0.51100000000E-03 0. -1.
        -11    1    3    3    0    0  0.30072161709E+01 -0.97397561895E+01  0.44576807194E+01  0.11125516500E+02  0.51100000000E-03 0.  1.
        -12    1    3    3    0    0  0.27666089632E+02  0.24735005955E+02 -0.20022674947E+02  0.42168003832E+02  0.00000000000E+00 0.  1.
</event>
<event>
 7    1  0.2404951E-015  0.9000775E+02  0.7816164E-02  0.1186339E+00
        -11   -1    0    0    0    0  0.00000000000E+00  0.00000000000E+00  0.45593999997E+02  0.45594000000E+02  0.51100000000E-03 0.  1.
         11   -1    0    0    0    0 -0.00000000000E+00 -0.00000000000E+00 -0.45593999997E+02  0.45594000000E+02  0.51100000000E-03 0. -1.
    9900012    2    1    2    0    0 -0.22938739691E+00  0.11325883592E+01 -0.24003726268E+00  0.90007748816E+02  0.90000010301E+02 0.  0.
         12    1    1    2    0    0  0.22938739691E+00 -0.11325883592E+01  0.24003726268E+00  0.11802511837E+01  0.00000000000E+00 0. -1.
         11    1    3    3    0    0  0.16658302491E+02 -0.17523725862E+01 -0.35065541536E+02  0.38860803581E+02  0.51100000000E-03 0. -1.
        -11    1    3    3    0    0  0.17174172001E+01 -0.20947959327E+00 -0.59629871483E+01  0.62089145212E+01  0.51100000000E-03 0.  1.
        -12    1    3    3    0    0 -0.18605107088E+02  0.30944405387E+01  0.40788491421E+02  0.44938030714E+02  0.00000000000E+00 0.  1.
</event>
<event>
 7    1  0.2404951E-015  0.9000774E+02  0.7816164E-02  0.1186339E+00
        -11   -1    0    0    0    0  0.00000000000E+00  0.00000000000E+00  0.45593999997E+02  0.45594000000E+02  0.51100000000E-03 0.  1.
         11   -1    0    0    0    0 -0.00000000000E+00 -0.00000000000E+00 -0.45593999997E+02  0.45594000000E+02  0.51100000000E-03 0. -1.
    9900012    2    1    2    0    0  0.32428415501E+00  0.74919921869E+00  0.85238806482E+00  0.90007735159E+02  0.89999996463E+02 0.  0.
         12    1    1    2    0    0 -0.32428415501E+00 -0.74919921869E+00 -0.85238806482E+00  0.11802648413E+01  0.00000000000E+00 0. -1.
         11    1    3    3    0    0 -0.39471290301E+02  0.97604242097E+01 -0.26442754694E+01  0.40746052960E+02  0.51100000000E-03 0. -1.
        -11    1    3    3    0    0 -0.70586572164E-01 -0.88572782951E+01  0.31275824567E+01  0.93935155052E+01  0.51100000000E-03 0.  1.
        -12    1    3    3    0    0  0.39866161028E+02 -0.15394669585E+00  0.36908107757E+00  0.39868166694E+02  0.00000000000E+00 0.  1.
</event>
<event>
 7    1  0.2404951E-015  0.9000778E+02  0.7816164E-02  0.1186339E+00
        -11   -1    0    0    0    0  0.00000000000E+00  0.00000000000E+00  0.45593999997E+02  0.45594000000E+02  0.51100000000E-03 0. -1.
         11   -1    0    0    0    0 -0.00000000000E+00 -0.00000000000E+00 -0.45593999997E+02  0.45594000000E+02  0.51100000000E-03 0.  1.
    9900012    2    1    2    0    0 -0.13121201702E+00 -0.87152062637E+00 -0.78494831129E+00  0.90007784491E+02  0.90000046447E+02 0.  0.
         12    1    1    2    0    0  0.13121201702E+00  0.87152062637E+00  0.78494831129E+00  0.11802155087E+01  0.00000000000E+00 0. -1.
         11    1    3    3    0    0 -0.33101364927E+01  0.32675591825E+02  0.24421728694E+02  0.40927645148E+02  0.51100000000E-03 0. -1.
        -11    1    3    3    0    0 -0.43888682348E+01  0.10508556300E+01 -0.91332704037E+01  0.10187398611E+02  0.51100000000E-03 0.  1.
        -12    1    3    3    0    0  0.75677927105E+01 -0.34597968081E+02 -0.16073406602E+02  0.38892740732E+02  0.00000000000E+00 0.  1.
</event>
<event>
 7    1  0.2404951E-015  0.9000772E+02  0.7816164E-02  0.1186339E+00
        -11   -1    0    0    0    0  0.00000000000E+00  0.00000000000E+00  0.45593999997E+02  0.45594000000E+02  0.51100000000E-03 0.  1.
         11   -1    0    0    0    0 -0.00000000000E+00 -0.00000000000E+00 -0.45593999997E+02  0.45594000000E+02  0.51100000000E-03 0. -1.
    9900012    2    1    2    0    0  0.10775680468E+01  0.32007425203E+00  0.35980527490E+00  0.90007720263E+02  0.89999981370E+02 0.  0.
         12    1    1    2    0    0 -0.10775680468E+01 -0.32007425203E+00 -0.35980527490E+00  0.11802797373E+01  0.00000000000E+00 0. -1.
         11    1    3    3    0    0  0.66968813440E+01 -0.89648768300E+01 -0.35529661895E+02  0.37250155851E+02  0.51100000000E-03 0. -1.
        -11    1    3    3    0    0  0.39553062710E+01 -0.96777533402E+01 -0.66816117401E+00  0.10476153733E+02  0.51100000000E-03 0.  1.
        -12    1    3    3    0    0 -0.95746195682E+01  0.18962704422E+02  0.36557628344E+02  0.42281410679E+02  0.00000000000E+00 0.  1.
</event>
<event>
 7    1  0.2404951E-015  0.9000698E+02  0.7816164E-02  0.1186341E+00
        -11   -1    0    0    0    0  0.00000000000E+00  0.00000000000E+00  0.45593999997E+02  0.45594000000E+02  0.51100000000E-03 0.  1.
         11   -1    0    0    0    0 -0.00000000000E+00 -0.00000000000E+00 -0.45593999997E+02  0.45594000000E+02  0.51100000000E-03 0. -1.
    9900012    2    1    2    0    0  0.25756894773E+00 -0.34907587054E+00  0.10984628565E+01  0.90006976557E+02  0.89999227844E+02 0.  0.
         12    1    1    2    0    0 -0.25756894773E+00  0.34907587054E+00 -0.10984628565E+01  0.11810234432E+01  0.00000000000E+00 0. -1.
         11    1    3    3    0    0  0.80617404446E+01 -0.34349260063E+02 -0.13679632087E+02  0.37841718515E+02  0.51100000000E-03 0. -1.
        -11    1    3    3    0    0  0.25241982802E+01 -0.38153530374E+01 -0.61994318458E+01  0.77046382932E+01  0.51100000000E-03 0.  1.
        -12    1    3    3    0    0 -0.10328369777E+02  0.37815537230E+02  0.20977526789E+02  0.44460619749E+02  0.00000000000E+00 0.  1.
</event>
<event>
 7    1  0.2404951E-015  0.9000775E+02  0.7816164E-02  0.1186339E+00
        -11   -1    0    0    0    0  0.00000000000E+00  0.00000000000E+00  0.45593999997E+02  0.45594000000E+02  0.51100000000E-03 0.  1.
         11   -1    0    0    0    0 -0.00000000000E+00 -0.00000000000E+00 -0.45593999997E+02  0.45594000000E+02  0.51100000000E-03 0. -1.
    9900012    2    1    2    0    0 -0.13798422697E+00  0.14472480587E+00  0.11631868898E+01  0.90007750595E+02  0.90000012103E+02 0.  0.
         12    1    1    2    0    0  0.13798422697E+00 -0.14472480587E+00 -0.11631868898E+01  0.11802494046E+01  0.00000000000E+00 0. -1.
         11    1    3    3    0    0  0.28210155367E+02  0.82548943739E+01 -0.27171995007E+02  0.40028408161E+02  0.51100000000E-03 0. -1.
        -11    1    3    3    0    0  0.50280010665E+01  0.25462772602E+01  0.68884527847E+01  0.89002867728E+01  0.51100000000E-03 0.  1.
        -12    1    3    3    0    0 -0.33376140661E+02 -0.10656446828E+02  0.21446729113E+02  0.41079055661E+02  0.00000000000E+00 0.  1.
</event>
<event>
 7    1  0.2404951E-015  0.9000776E+02  0.7816164E-02  0.1186339E+00
        -11   -1    0    0    0    0  0.00000000000E+00  0.00000000000E+00  0.45593999997E+02  0.45594000000E+02  0.51100000000E-03 0. -1.
         11   -1    0    0    0    0 -0.00000000000E+00 -0.00000000000E+00 -0.45593999997E+02  0.45594000000E+02  0.51100000000E-03 0.  1.
    9900012    2    1    2    0    0  0.25140790529E+00  0.95735731348E+00 -0.64282166903E+00  0.90007763304E+02  0.90000024980E+02 0.  0.
         12    1    1    2    0    0 -0.25140790529E+00 -0.95735731348E+00  0.64282166903E+00  0.11802366961E+01  0.00000000000E+00 0. -1.
         11    1    3    3    0    0  0.67392178776E+01 -0.90729282911E+00 -0.96644550696E+01  0.11817018657E+02  0.51100000000E-03 0. -1.
        -11    1    3    3    0    0 -0.24893204116E+02 -0.69502781676E+01 -0.26631122235E+02  0.37110573285E+02  0.51100000000E-03 0.  1.
         12    1    3    3    0    0  0.18405394144E+02  0.88149283101E+01  0.35652755636E+02  0.41080171362E+02  0.00000000000E+00 0. -1.
</event>
<event>
 7    1  0.2404951E-015  0.9000775E+02  0.7816164E-02  0.1186339E+00
        -11   -1    0    0    0    0  0.00000000000E+00  0.00000000000E+00  0.45593999997E+02  0.45594000000E+02  0.51100000000E-03 0. -1.
         11   -1    0    0    0    0 -0.00000000000E+00 -0.00000000000E+00 -0.45593999997E+02  0.45594000000E+02  0.51100000000E-03 0.  1.
    9900012    2    1    2    0    0  0.33794954587E-01  0.21842562313E+00 -0.11593696462E+01  0.90007750099E+02  0.90000011601E+02 0.  0.
         12    1    1    2    0    0 -0.33794954587E-01 -0.21842562313E+00  0.11593696462E+01  0.11802499007E+01  0.00000000000E+00 0. -1.
         11    1    3    3    0    0 -0.99419014736E+01 -0.13268860006E+01  0.38621822957E+02  0.39902972823E+02  0.51100000000E-03 0. -1.
        -11    1    3    3    0    0 -0.70493107481E+01 -0.48739764128E+01 -0.30192209042E+01  0.90864802441E+01  0.51100000000E-03 0.  1.
        -12    1    3    3    0    0  0.17025007176E+02  0.64192880366E+01 -0.36761971699E+02  0.41018297032E+02  0.00000000000E+00 0.  1.
</event>
<event>
 7    1  0.2404951E-015  0.9000768E+02  0.7816164E-02  0.1186339E+00
        -11   -1    0    0    0    0  0.00000000000E+00  0.00000000000E+00  0.45593999997E+02  0.45594000000E+02  0.51100000000E-03 0.  1.
         11   -1    0    0    0    0 -0.00000000000E+00 -0.00000000000E+00 -0.45593999997E+02  0.45594000000E+02  0.51100000000E-03 0. -1.
    9900012    2    1    2    0    0 -0.94694722943E+00  0.67930093798E+00 -0.18704756480E+00  0.90007684105E+02  0.89999944736E+02 0.  0.
         12    1    1    2    0    0  0.94694722943E+00 -0.67930093798E+00  0.18704756480E+00  0.11803158947E+01  0.00000000000E+00 0. -1.
         11    1    3    3    0    0  0.24404512676E+02 -0.14632438557E+02  0.25258922654E+02  0.38048675023E+02  0.51100000000E-03 0. -1.
        -11    1    3    3    0    0 -0.90511716042E+01  0.89568539871E+01  0.74118198193E+01  0.14733771209E+02  0.51100000000E-03 0.  1.
        -12    1    3    3    0    0 -0.16300288301E+02  0.63548855081E+01 -0.32857790038E+02  0.37225237873E+02  0.00000000000E+00 0.  1.
</event>
<event>
 7    1  0.2404951E-015  0.9000774E+02  0.7816164E-02  0.1186339E+00
        -11   -1    0    0    0    0  0.00000000000E+00  0.00000000000E+00  0.45593999997E+02  0.45594000000E+02  0.51100000000E-03 0. -1.
         11   -1    0    0    0    0 -0.00000000000E+00 -0.00000000000E+00 -0.45593999997E+02  0.45594000000E+02  0.51100000000E-03 0.  1.
    9900012    2    1    2    0    0 -0.11800510336E+01  0.72775395166E-02  0.21042142595E-01  0.90007738937E+02  0.90000000291E+02 0.  0.
         12    1    1    2    0    0  0.11800510336E+01 -0.72775395166E-02 -0.21042142595E-01  0.11802610627E+01  0.00000000000E+00 0. -1.
         11    1    3    3    0    0  0.19302197562E+01  0.73638238455E+01 -0.51405092376E+01  0.91856673910E+01  0.51100000000E-03 0. -1.
        -11    1    3    3    0    0  0.18087197901E+02  0.31591874072E+01 -0.31925767000E+02  0.36829088935E+02  0.51100000000E-03 0.  1.
         12    1    3    3    0    0 -0.21197468690E+02 -0.10515733713E+02  0.37087318380E+02  0.43992982611E+02  0.00000000000E+00 0. -1.
</event>
<event>
 7    1  0.2404951E-015  0.9000774E+02  0.7816164E-02  0.1186339E+00
        -11   -1    0    0    0    0  0.00000000000E+00  0.00000000000E+00  0.45593999997E+02  0.45594000000E+02  0.51100000000E-03 0.  1.
         11   -1    0    0    0    0 -0.00000000000E+00 -0.00000000000E+00 -0.45593999997E+02  0.45594000000E+02  0.51100000000E-03 0. -1.
    9900012    2    1    2    0    0  0.55701799167E+00  0.97643615034E+00  0.35961884961E+00  0.90007736336E+02  0.89999997656E+02 0.  0.
         12    1    1    2    0    0 -0.55701799167E+00 -0.97643615034E+00 -0.35961884961E+00  0.11802636636E+01  0.00000000000E+00 0. -1.
         11    1    3    3    0    0 -0.42501442218E+00 -0.22792867741E+02 -0.29515340971E+02  0.37294112270E+02  0.51100000000E-03 0. -1.
        -11    1    3    3    0    0 -0.13514727617E+01  0.46986608581E+01 -0.84954236521E+01  0.98018424684E+01  0.51100000000E-03 0.  1.
        -12    1    3    3    0    0  0.23335051756E+01  0.19070643033E+02  0.38370383473E+02  0.42911781598E+02  0.00000000000E+00 0.  1.
</event>
<event>
 7    1  0.2404951E-015  0.9000775E+02  0.7816164E-02  0.1186339E+00
        -11   -1    0    0    0    0  0.00000000000E+00  0.00000000000E+00  0.45593999997E+02  0.45594000000E+02  0.51100000000E-03 0. -1.
         11   -1    0    0    0    0 -0.00000000000E+00 -0.00000000000E+00 -0.45593999997E+02  0.45594000000E+02  0.51100000000E-03 0.  1.
    9900012    2    1    2    0    0 -0.95379055628E+00 -0.45469174642E+00 -0.52585060735E+00  0.90007754318E+02  0.90000015875E+02 0.  0.
         12    1    1    2    0    0  0.95379055628E+00  0.45469174642E+00  0.52585060735E+00  0.11802456824E+01  0.00000000000E+00 0. -1.
         11    1    3    3    0    0  0.60281208741E+00 -0.53122024578E+01 -0.74228583729E+01  0.91477704415E+01  0.51100000000E-03 0. -1.
        -11    1    3    3    0    0 -0.59968357523E+01 -0.92088356100E+01 -0.34872200199E+02  0.36562754810E+02  0.51100000000E-03 0.  1.
         12    1    3    3    0    0  0.44402331086E+01  0.14066346321E+02  0.41769207965E+02  0.44297229066E+02  0.00000000000E+00 0. -1.
</event>
<event>
 7    1  0.2404951E-015  0.9000779E+02  0.7816164E-02  0.1186339E+00
        -11   -1    0    0    0    0  0.00000000000E+00  0.00000000000E+00  0.45593999997E+02  0.45594000000E+02  0.51100000000E-03 0.  1.
         11   -1    0    0    0    0 -0.00000000000E+00 -0.00000000000E+00 -0.45593999997E+02  0.45594000000E+02  0.51100000000E-03 0. -1.
    9900012    2    1    2    0    0 -0.16889796245E+00 -0.39826547129E+00  0.10980645814E+01  0.90007793352E+02  0.90000055424E+02 0.  0.
         12    1    1    2    0    0  0.16889796245E+00  0.39826547129E+00 -0.10980645814E+01  0.11802066481E+01  0.00000000000E+00 0. -1.
         11    1    3    3    0    0  0.68568437727E+00 -0.36393938981E+02 -0.39337668307E+01  0.36612340534E+02  0.51100000000E-03 0. -1.
        -11    1    3    3    0    0  0.71274189542E+01 -0.66278170304E+01 -0.60660576249E-01  0.97330231431E+01  0.51100000000E-03 0.  1.
        -12    1    3    3    0    0 -0.79820012940E+01  0.42623490540E+02  0.50924919883E+01  0.43662429675E+02  0.00000000000E+00 0.  1.
</event>
<event>
 7    1  0.2404951E-015  0.9000775E+02  0.7816164E-02  0.1186339E+00
        -11   -1    0    0    0    0  0.00000000000E+00  0.00000000000E+00  0.45593999997E+02  0.45594000000E+02  0.51100000000E-03 0.  1.
         11   -1    0    0    0    0 -0.00000000000E+00 -0.00000000000E+00 -0.45593999997E+02  0.45594000000E+02  0.51100000000E-03 0. -1.
    9900012    2    1    2    0    0  0.46873311939E+00  0.96819260149E+00  0.48566700401E+00  0.90007754225E+02  0.90000015781E+02 0.  0.
         12    1    1    2    0    0 -0.46873311939E+00 -0.96819260149E+00 -0.48566700401E+00  0.11802457751E+01  0.00000000000E+00 0. -1.
         11    1    3    3    0    0 -0.95932237080E+01  0.11146414370E+01 -0.17665161372E+02  0.20132816325E+02  0.51100000000E-03 0. -1.
        -11    1    3    3    0    0  0.92858780438E+01  0.25211676186E+02 -0.12878354315E+02  0.29794431649E+02  0.51100000000E-03 0.  1.
         12    1    3    3    0    0  0.77607878352E+00 -0.25358125021E+02  0.31029182691E+02  0.40080506251E+02  0.00000000000E+00 0. -1.
</event>
<event>
 7    1  0.2404951E-015  0.9000769E+02  0.7816164E-02  0.1186339E+00
        -11   -1    0    0    0    0  0.00000000000E+00  0.00000000000E+00  0.45593999997E+02  0.45594000000E+02  0.51100000000E-03 0.  1.
         11   -1    0    0    0    0 -0.00000000000E+00 -0.00000000000E+00 -0.45593999997E+02  0.45594000000E+02  0.51100000000E-03 0. -1.
    9900012    2    1    2    0    0 -0.11455034193E+01 -0.11637019673E+00  0.25965381821E+00  0.90007686393E+02  0.89999947053E+02 0.  0.
         12    1    1    2    0    0  0.11455034193E+01  0.11637019673E+00 -0.25965381821E+00  0.11803136073E+01  0.00000000000E+00 0. -1.
         11    1    3    3    0    0  0.25428511217E+01 -0.70923563135E+01 -0.46002955509E+01  0.88278156598E+01  0.51100000000E-03 0. -1.
        -11    1    3    3    0    0 -0.33988415555E+02  0.26741938071E+02 -0.53815235712E+01  0.43581010084E+02  0.51100000000E-03 0.  1.
         12    1    3    3    0    0  0.30300061014E+02 -0.19765951954E+02  0.10241472940E+02  0.37598860649E+02  0.00000000000E+00 0. -1.
</event>
<event>
 7    1  0.2404951E-015  0.9000750E+02  0.7816164E-02  0.1186340E+00
        -11   -1    0    0    0    0  0.00000000000E+00  0.00000000000E+00  0.45593999997E+02  0.45594000000E+02  0.51100000000E-03 0.  1.
         11   -1    0    0    0    0 -0.00000000000E+00 -0.00000000000E+00 -0.45593999997E+02  0.45594000000E+02  0.51100000000E-03 0. -1.
    9900012    2    1    2    0    0 -0.45412605757E+00 -0.45348404531E+00  0.99080727098E+00  0.90007501248E+02  0.89999759464E+02 0.  0.
         12    1    1    2    0    0  0.45412605757E+00  0.45348404531E+00 -0.99080727098E+00  0.11804987521E+01  0.00000000000E+00 0. -1.
         11    1    3    3    0    0 -0.19883491937E+01 -0.11996609140E+02 -0.37050592272E+02  0.38995109326E+02  0.51100000000E-03 0. -1.
        -11    1    3    3    0    0 -0.81699064193E+01 -0.70048919653E+01  0.49262231261E+01  0.11835689963E+02  0.51100000000E-03 0.  1.
        -12    1    3    3    0    0  0.97041295554E+01  0.18548017060E+02  0.33115176417E+02  0.39176701959E+02  0.00000000000E+00 0.  1.
</event>
<event>
 7    1  0.2404951E-015  0.9000772E+02  0.7816164E-02  0.1186339E+00
        -11   -1    0    0    0    0  0.00000000000E+00  0.00000000000E+00  0.45593999997E+02  0.45594000000E+02  0.51100000000E-03 0.  1.
         11   -1    0    0    0    0 -0.00000000000E+00 -0.00000000000E+00 -0.45593999997E+02  0.45594000000E+02  0.51100000000E-03 0. -1.
    9900012    2    1    2    0    0  0.97690452791E+00  0.20965799170E+00  0.62830895961E+00  0.90007715679E+02  0.89999976726E+02 0.  0.
         12    1    1    2    0    0 -0.97690452791E+00 -0.20965799170E+00 -0.62830895961E+00  0.11802843212E+01  0.00000000000E+00 0. -1.
         11    1    3    3    0    0 -0.51485780626E+01  0.23827939668E+02 -0.31475235769E+02  0.39811669544E+02  0.51100000000E-03 0. -1.
        -11    1    3    3    0    0  0.99286995851E+00  0.72347598185E+01  0.56801403353E+01  0.92515693197E+01  0.51100000000E-03 0.  1.
        -12    1    3    3    0    0  0.51326126320E+01 -0.30853041495E+02  0.26423404393E+02  0.40944476815E+02  0.00000000000E+00 0.  1.
</event>
<event>
 7    1  0.2404951E-015  0.9000766E+02  0.7816164E-02  0.1186339E+00
        -11   -1    0    0    0    0  0.00000000000E+00  0.00000000000E+00  0.45593999997E+02  0.45594000000E+02  0.51100000000E-03 0. -1.
         11   -1    0    0    0    0 -0.00000000000E+00 -0.00000000000E+00 -0.45593999997E+02  0.45594000000E+02  0.51100000000E-03 0.  1.
    9900012    2    1    2    0    0  0.77037248926E+00  0.89409920961E+00 -0.18068115192E-01  0.90007655294E+02  0.89999915544E+02 0.  0.
         12    1    1    2    0    0 -0.77037248926E+00 -0.89409920961E+00  0.18068115192E-01  0.11803447063E+01  0.00000000000E+00 0. -1.
         11    1    3    3    0    0 -0.62335722774E+01 -0.16205971262E+02  0.34462269908E+02  0.38589363500E+02  0.51100000000E-03 0. -1.
        -11    1    3    3    0    0 -0.70780310689E+01  0.41222208085E+01  0.34812020982E+01  0.88999998043E+01  0.51100000000E-03 0.  1.
        -12    1    3    3    0    0  0.14081975836E+02  0.12977849663E+02 -0.37961540121E+02  0.42518291989E+02  0.00000000000E+00 0.  1.
</event>
<event>
 7    1  0.2404951E-015  0.9000767E+02  0.7816164E-02  0.1186339E+00
        -11   -1    0    0    0    0  0.00000000000E+00  0.00000000000E+00  0.45593999997E+02  0.45594000000E+02  0.51100000000E-03 0.  1.
         11   -1    0    0    0    0 -0.00000000000E+00 -0.00000000000E+00 -0.45593999997E+02  0.45594000000E+02  0.51100000000E-03 0. -1.
    9900012    2    1    2    0    0 -0.10672803023E+01 -0.37807674062E+00  0.33339013750E+00  0.90007670279E+02  0.89999930727E+02 0.  0.
         12    1    1    2    0    0  0.10672803023E+01  0.37807674062E+00 -0.33339013750E+00  0.11803297206E+01  0.00000000000E+00 0. -1.
         11    1    3    3    0    0 -0.76978714229E+01 -0.61603614423E+01 -0.33356498863E+02  0.34783089199E+02  0.51100000000E-03 0. -1.
        -11    1    3    3    0    0 -0.38165571381E+01 -0.32612970866E+00 -0.95677325001E+01  0.10306016419E+02  0.51100000000E-03 0.  1.
        -12    1    3    3    0    0  0.10447148259E+02  0.61084144104E+01  0.43257621501E+02  0.44918564662E+02  0.00000000000E+00 0.  1.
</event>
<event>
 7    1  0.2404951E-015  0.9000785E+02  0.7816164E-02  0.1186339E+00
        -11   -1    0    0    0    0  0.00000000000E+00  0.00000000000E+00  0.45593999997E+02  0.45594000000E+02  0.51100000000E-03 0. -1.
         11   -1    0    0    0    0 -0.00000000000E+00 -0.00000000000E+00 -0.45593999997E+02  0.45594000000E+02  0.51100000000E-03 0.  1.
    9900012    2    1    2    0    0 -0.49874156510E+00  0.66653164275E+00  0.83651404795E+00  0.90007846056E+02  0.90000108824E+02 0.  0.
         12    1    1    2    0    0  0.49874156510E+00 -0.66653164275E+00 -0.83651404795E+00  0.11801539442E+01  0.00000000000E+00 0. -1.
         11    1    3    3    0    0 -0.46370289841E+01 -0.32170105395E+01 -0.71312165732E+01  0.90942533880E+01  0.51100000000E-03 0. -1.
        -11    1    3    3    0    0  0.17783047538E+02  0.42624779271E+01 -0.33001989848E+02  0.37729787065E+02  0.51100000000E-03 0.  1.
         12    1    3    3    0    0 -0.13644760119E+02 -0.37893574493E+00  0.40969720469E+02  0.43183805602E+02  0.00000000000E+00 0. -1.
</event>
<event>
 7    1  0.2404951E-015  0.9000771E+02  0.7816164E-02  0.1186339E+00
        -11   -1    0    0    0    0  0.00000000000E+00  0.00000000000E+00  0.45593999997E+02  0.45594000000E+02  0.51100000000E-03 0.  1.
         11   -1    0    0    0    0 -0.00000000000E+00 -0.00000000000E+00 -0.45593999997E+02  0.45594000000E+02  0.51100000000E-03 0. -1.
    9900012    2    1    2    0    0 -0.34612258152E+00  0.76391788640E+00  0.83048628515E+00  0.90007712387E+02  0.89999973391E+02 0.  0.
         12    1    1    2    0    0  0.34612258152E+00 -0.76391788640E+00 -0.83048628515E+00  0.11802876126E+01  0.00000000000E+00 0. -1.
         11    1    3    3    0    0  0.35628558535E+00  0.28056787938E+02 -0.25133281396E+02  0.37669511848E+02  0.51100000000E-03 0. -1.
        -11    1    3    3    0    0 -0.42021718318E+01 -0.28711742198E+01 -0.85280305949E+01  0.99312232677E+01  0.51100000000E-03 0.  1.
        -12    1    3    3    0    0  0.34997636649E+01 -0.24421695832E+02  0.34491798276E+02  0.42406977272E+02  0.00000000000E+00 0.  1.
</event>
<event>
 7    1  0.2404951E-015  0.9000772E+02  0.7816164E-02  0.1186339E+00
        -11   -1    0    0    0    0  0.00000000000E+00  0.00000000000E+00  0.45593999997E+02  0.45594000000E+02  0.51100000000E-03 0.  1.
         11   -1    0    0    0    0 -0.00000000000E+00 -0.00000000000E+00 -0.45593999997E+02  0.45594000000E+02  0.51100000000E-03 0. -1.
    9900012    2    1    2    0    0 -0.52571073626E+00  0.42417785285E+00  0.96785957856E+00  0.90007724273E+02  0.89999985433E+02 0.  0.
         12    1    1    2    0    0  0.52571073626E+00 -0.42417785285E+00 -0.96785957856E+00  0.11802757275E+01  0.00000000000E+00 0. -1.
         11    1    3    3    0    0  0.54400511301E+01 -0.13607505029E+01 -0.43972688755E+01  0.71261330365E+01  0.51100000000E-03 0. -1.
        -11    1    3    3    0    0  0.22331525333E+02  0.31127260985E+02 -0.95377792094E+01  0.39478761792E+02  0.51100000000E-03 0.  1.
         12    1    3    3    0    0 -0.28297287199E+02 -0.29342332629E+02  0.14902907663E+02  0.43402829444E+02  0.00000000000E+00 0. -1.
</event>
<event>
 7    1  0.2404951E-015  0.9000788E+02  0.7816164E-02  0.1186339E+00
        -11   -1    0    0    0    0  0.00000000000E+00  0.00000000000E+00  0.45593999997E+02  0.45594000000E+02  0.51100000000E-03 0.  1.
         11   -1    0    0    0    0 -0.00000000000E+00 -0.00000000000E+00 -0.45593999997E+02  0.45594000000E+02  0.51100000000E-03 0. -1.
    9900012    2    1    2    0    0  0.76251308615E+00 -0.57513519360E+00  0.69315702239E+00  0.90007884177E+02  0.90000147448E+02 0.  0.
         12    1    1    2    0    0 -0.76251308615E+00  0.57513519360E+00 -0.69315702239E+00  0.11801158228E+01  0.00000000000E+00 0. -1.
         11    1    3    3    0    0 -0.17105561945E+02  0.33231742818E+02 -0.15904805391E+02  0.40619106526E+02  0.51100000000E-03 0. -1.
        -11    1    3    3    0    0 -0.22176231909E+01  0.16991408450E+01  0.69204027809E+01  0.74630360537E+01  0.51100000000E-03 0.  1.
        -12    1    3    3    0    0  0.20085698222E+02 -0.35506018856E+02  0.96775596328E+01  0.41925741598E+02  0.00000000000E+00 0.  1.
</event>
<event>
 7    1  0.2404951E-015  0.9000776E+02  0.7816164E-02  0.1186339E+00
        -11   -1    0    0    0    0  0.00000000000E+00  0.00000000000E+00  0.45593999997E+02  0.45594000000E+02  0.51100000000E-03 0.  1.
         11   -1    0    0    0    0 -0.00000000000E+00 -0.00000000000E+00 -0.45593999997E+02  0.45594000000E+02  0.51100000000E-03 0. -1.
    9900012    2    1    2    0    0  0.60693459033E+00 -0.64020069638E-01  0.10101972074E+01  0.90007759955E+02  0.90000021586E+02 0.  0.
         12    1    1    2    0    0 -0.60693459033E+00  0.64020069638E-01 -0.10101972074E+01  0.11802400451E+01  0.00000000000E+00 0. -1.
         11    1    3    3    0    0 -0.66081782864E+01  0.12079855738E+02  0.25075959067E+01  0.13995676919E+02  0.51100000000E-03 0. -1.
        -11    1    3    3    0    0  0.20825931860E+02  0.53177605789E+01  0.30371316264E+02  0.37207725908E+02  0.51100000000E-03 0.  1.
         12    1    3    3    0    0 -0.13610818983E+02 -0.17461636387E+02 -0.31868714963E+02  0.38804357128E+02  0.00000000000E+00 0. -1.
</event>
<event>
 7    1  0.2404951E-015  0.9000768E+02  0.7816164E-02  0.1186339E+00
        -11   -1    0    0    0    0  0.00000000000E+00  0.00000000000E+00  0.45593999997E+02  0.45594000000E+02  0.51100000000E-03 0.  1.
         11   -1    0    0    0    0 -0.00000000000E+00 -0.00000000000E+00 -0.45593999997E+02  0.45594000000E+02  0.51100000000E-03 0. -1.
    9900012    2    1    2    0    0  0.99717815204E+00 -0.55721036871E+00 -0.29717577702E+00  0.90007677542E+02  0.89999938086E+02 0.  0.
         12    1    1    2    0    0 -0.99717815204E+00  0.55721036871E+00  0.29717577702E+00  0.11803224578E+01  0.00000000000E+00 0. -1.
         11    1    3    3    0    0 -0.82222291537E+01 -0.48719767569E+01  0.15172635375E+01  0.96769467643E+01  0.51100000000E-03 0. -1.
        -11    1    3    3    0    0  0.37589546130E+02 -0.18286391079E+02  0.84224958495E+01  0.42641581977E+02  0.51100000000E-03 0.  1.
         12    1    3    3    0    0 -0.28370138824E+02  0.22601157468E+02 -0.10236935164E+02  0.37689148801E+02  0.00000000000E+00 0. -1.
</event>
<event>
 7    1  0.2404951E-015  0.9000779E+02  0.7816164E-02  0.1186339E+00
        -11   -1    0    0    0    0  0.00000000000E+00  0.00000000000E+00  0.45593999997E+02  0.45594000000E+02  0.51100000000E-03 0.  1.
         11   -1    0    0    0    0 -0.00000000000E+00 -0.00000000000E+00 -0.45593999997E+02  0.45594000000E+02  0.51100000000E-03 0. -1.
    9900012    2    1    2    0    0 -0.24798560652E+00  0.10379844950E+01  0.50397534569E+00  0.90007788230E+02  0.90000050235E+02 0.  0.
         12    1    1    2    0    0  0.24798560652E+00 -0.10379844950E+01 -0.50397534569E+00  0.11802117700E+01  0.00000000000E+00 0. -1.
         11    1    3    3    0    0  0.76373273642E+01  0.73584716973E+01  0.26842491946E+01  0.10939884322E+02  0.51100000000E-03 0. -1.
        -11    1    3    3    0    0 -0.46545984261E+01  0.35563411014E+02 -0.77426874390E+01  0.36692924365E+02  0.51100000000E-03 0.  1.
         12    1    3    3    0    0 -0.32307145446E+01 -0.41883898216E+02  0.55624135901E+01  0.42374979542E+02  0.00000000000E+00 0. -1.
</event>
<event>
 7    1  0.2404951E-015  0.9000771E+02  0.7816164E-02  0.1186339E+00
        -11   -1    0    0    0    0  0.00000000000E+00  0.00000000000E+00  0.45593999997E+02  0.45594000000E+02  0.51100000000E-03 0.  1.
         11   -1    0    0    0    0 -0.00000000000E+00 -0.00000000000E+00 -0.45593999997E+02  0.45594000000E+02  0.51100000000E-03 0. -1.
    9900012    2    1    2    0    0  0.11435830733E+01  0.28487004837E+00 -0.64467424466E-01  0.90007707986E+02  0.89999968931E+02 0.  0.
         12    1    1    2    0    0 -0.11435830733E+01 -0.28487004837E+00  0.64467424466E-01  0.11802920143E+01  0.00000000000E+00 0. -1.
         11    1    3    3    0    0 -0.30690576630E+02 -0.18592494507E+02 -0.16332720846E+02  0.39425247194E+02  0.51100000000E-03 0. -1.
        -11    1    3    3    0    0 -0.38862116730E+01  0.63759066020E+01 -0.30815544186E+01  0.80777969807E+01  0.51100000000E-03 0.  1.
        -12    1    3    3    0    0  0.35720371376E+02  0.12501457953E+02  0.19349807840E+02  0.42504663811E+02  0.00000000000E+00 0.  1.
</event>
<event>
 7    1  0.2404951E-015  0.9000772E+02  0.7816164E-02  0.1186339E+00
        -11   -1    0    0    0    0  0.00000000000E+00  0.00000000000E+00  0.45593999997E+02  0.45594000000E+02  0.51100000000E-03 0.  1.
         11   -1    0    0    0    0 -0.00000000000E+00 -0.00000000000E+00 -0.45593999997E+02  0.45594000000E+02  0.51100000000E-03 0. -1.
    9900012    2    1    2    0    0  0.81320928498E+00 -0.77425409810E+00  0.36369458775E+00  0.90007723548E+02  0.89999984699E+02 0.  0.
         12    1    1    2    0    0 -0.81320928498E+00  0.77425409810E+00 -0.36369458775E+00  0.11802764518E+01  0.00000000000E+00 0. -1.
         11    1    3    3    0    0  0.30613534132E+02 -0.18206269714E+02 -0.21515978107E+02  0.41612426547E+02  0.51100000000E-03 0. -1.
        -11    1    3    3    0    0  0.41303693306E+01  0.36006187293E+01  0.68976071351E+01  0.88091651416E+01  0.51100000000E-03 0.  1.
        -12    1    3    3    0    0 -0.33930694178E+02  0.13831396886E+02  0.14982065559E+02  0.39586131860E+02  0.00000000000E+00 0.  1.
</event>
<event>
 7    1  0.2404951E-015  0.9000763E+02  0.7816164E-02  0.1186339E+00
        -11   -1    0    0    0    0  0.00000000000E+00  0.00000000000E+00  0.45593999997E+02  0.45594000000E+02  0.51100000000E-03 0.  1.
         11   -1    0    0    0    0 -0.00000000000E+00 -0.00000000000E+00 -0.45593999997E+02  0.45594000000E+02  0.51100000000E-03 0. -1.
    9900012    2    1    2    0    0 -0.95268873735E+00  0.29435951852E+00  0.63166579453E+00  0.90007633518E+02  0.89999893480E+02 0.  0.
         12    1    1    2    0    0  0.95268873735E+00 -0.29435951852E+00 -0.63166579453E+00  0.11803664822E+01  0.00000000000E+00 0. -1.
         11    1    3    3    0    0 -0.86382262787E+01  0.54114849399E-01 -0.79545776185E+01  0.11742963298E+02  0.51100000000E-03 0. -1.
        -11    1    3    3    0    0 -0.34110378161E+02  0.74921625602E+00  0.12376791537E+02  0.36294134406E+02  0.51100000000E-03 0.  1.
         12    1    3    3    0    0  0.41795915702E+02 -0.50897158690E+00 -0.37905481242E+01  0.41970535814E+02  0.00000000000E+00 0. -1.
</event>
<event>
 7    1  0.2404951E-015  0.9000768E+02  0.7816164E-02  0.1186339E+00
        -11   -1    0    0    0    0  0.00000000000E+00  0.00000000000E+00  0.45593999997E+02  0.45594000000E+02  0.51100000000E-03 0. -1.
         11   -1    0    0    0    0 -0.00000000000E+00 -0.00000000000E+00 -0.45593999997E+02  0.45594000000E+02  0.51100000000E-03 0.  1.
    9900012    2    1    2    0    0 -0.46035221596E-01 -0.36593657744E+00 -0.11212124517E+01  0.90007683863E+02  0.89999944490E+02 0.  0.
         12    1    1    2    0    0  0.46035221596E-01  0.36593657744E+00  0.11212124517E+01  0.11803161366E+01  0.00000000000E+00 0. -1.
         11    1    3    3    0    0 -0.26185310265E+02 -0.18694036585E+02  0.18220962236E+02  0.36974869068E+02  0.51100000000E-03 0. -1.
        -11    1    3    3    0    0  0.39750379395E+01 -0.79788422731E+01  0.56136924391E+01  0.10534533388E+02  0.51100000000E-03 0.  1.
        -12    1    3    3    0    0  0.22164237104E+02  0.26306942280E+02 -0.24955867127E+02  0.42498281408E+02  0.00000000000E+00 0.  1.
</event>
<event>
 7    1  0.2404951E-015  0.9000797E+02  0.7816164E-02  0.1186339E+00
        -11   -1    0    0    0    0  0.00000000000E+00  0.00000000000E+00  0.45593999997E+02  0.45594000000E+02  0.51100000000E-03 0. -1.
         11   -1    0    0    0    0 -0.00000000000E+00 -0.00000000000E+00 -0.45593999997E+02  0.45594000000E+02  0.51100000000E-03 0.  1.
    9900012    2    1    2    0    0 -0.36340820115E+00 -0.44965915245E-01 -0.11217750871E+01  0.90007971695E+02  0.90000236121E+02 0.  0.
         12    1    1    2    0    0  0.36340820115E+00  0.44965915245E-01  0.11217750871E+01  0.11800283048E+01  0.00000000000E+00 0. -1.
         11    1    3    3    0    0 -0.98044957418E+01  0.27791365135E+01  0.95642524126E+01  0.13975931489E+02  0.51100000000E-03 0. -1.
        -11    1    3    3    0    0 -0.77742219974E+00  0.30560844696E+02 -0.23793526006E+02  0.38738888651E+02  0.51100000000E-03 0.  1.
         12    1    3    3    0    0  0.10218509740E+02 -0.33384947125E+02  0.13107498506E+02  0.37293151556E+02  0.00000000000E+00 0. -1.
</event>
<event>
 7    1  0.2404951E-015  0.9000754E+02  0.7816164E-02  0.1186339E+00
        -11   -1    0    0    0    0  0.00000000000E+00  0.00000000000E+00  0.45593999997E+02  0.45594000000E+02  0.51100000000E-03 0. -1.
         11   -1    0    0    0    0 -0.00000000000E+00 -0.00000000000E+00 -0.45593999997E+02  0.45594000000E+02  0.51100000000E-03 0.  1.
    9900012    2    1    2    0    0  0.16723947434E+00 -0.64543040924E+00 -0.97413603126E+00  0.90007538030E+02  0.89999796732E+02 0.  0.
         12    1    1    2    0    0 -0.16723947434E+00  0.64543040924E+00  0.97413603126E+00  0.11804619699E+01  0.00000000000E+00 0. -1.
         11    1    3    3    0    0 -0.18696778450E+01 -0.39964784244E+01 -0.93024358774E+01  0.10295768478E+02  0.51100000000E-03 0. -1.
        -11    1    3    3    0    0  0.27737032459E+01 -0.27546458301E+02 -0.22785738409E+02  0.35856528969E+02  0.51100000000E-03 0.  1.
         12    1    3    3    0    0 -0.73678592656E+00  0.30897506316E+02  0.31114038255E+02  0.43855240583E+02  0.00000000000E+00 0. -1.
</event>
<event>
 7    1  0.2404951E-015  0.9000775E+02  0.7816164E-02  0.1186339E+00
        -11   -1    0    0    0    0  0.00000000000E+00  0.00000000000E+00  0.45593999997E+02  0.45594000000E+02  0.51100000000E-03 0.  1.
         11   -1    0    0    0    0 -0.00000000000E+00 -0.00000000000E+00 -0.45593999997E+02  0.45594000000E+02  0.51100000000E-03 0. -1.
    9900012    2    1    2    0    0 -0.37384860521E-02  0.96275637045E+00  0.68270063552E+00  0.90007748348E+02  0.90000009826E+02 0.  0.
         12    1    1    2    0    0  0.37384860521E-02 -0.96275637045E+00 -0.68270063552E+00  0.11802516523E+01  0.00000000000E+00 0. -1.
         11    1    3    3    0    0 -0.34990092066E+01 -0.88878025620E+01 -0.25493047063E+01  0.98861041142E+01  0.51100000000E-03 0. -1.
        -11    1    3    3    0    0 -0.16988784459E+02  0.31445990025E+02 -0.21250059886E+02  0.41581656189E+02  0.51100000000E-03 0.  1.
         12    1    3    3    0    0  0.20484055180E+02 -0.21595431092E+02  0.24482065227E+02  0.38539988044E+02  0.00000000000E+00 0. -1.
</event>
<event>
 7    1  0.2404951E-015  0.9000784E+02  0.7816164E-02  0.1186339E+00
        -11   -1    0    0    0    0  0.00000000000E+00  0.00000000000E+00  0.45593999997E+02  0.45594000000E+02  0.51100000000E-03 0. -1.
         11   -1    0    0    0    0 -0.00000000000E+00 -0.00000000000E+00 -0.45593999997E+02  0.45594000000E+02  0.51100000000E-03 0.  1.
    9900012    2    1    2    0    0  0.54468306904E+00 -0.10295819325E+01 -0.18986173870E+00  0.90007844891E+02  0.90000107643E+02 0.  0.
         12    1    1    2    0    0 -0.54468306904E+00  0.10295819325E+01  0.18986173870E+00  0.11801551090E+01  0.00000000000E+00 0. -1.
         11    1    3    3    0    0 -0.68007833676E+01  0.32214048532E+01  0.16326996720E+01  0.77002475364E+01  0.51100000000E-03 0. -1.
        -11    1    3    3    0    0 -0.21441124276E+02 -0.31430024393E+00 -0.33213519587E+02  0.39534269672E+02  0.51100000000E-03 0.  1.
         12    1    3    3    0    0  0.28786590713E+02 -0.39366865418E+01  0.31390958176E+02  0.42773327683E+02  0.00000000000E+00 0. -1.
</event>
<event>
 7    1  0.2404951E-015  0.9000764E+02  0.7816164E-02  0.1186339E+00
        -11   -1    0    0    0    0  0.00000000000E+00  0.00000000000E+00  0.45593999997E+02  0.45594000000E+02  0.51100000000E-03 0.  1.
         11   -1    0    0    0    0 -0.00000000000E+00 -0.00000000000E+00 -0.45593999997E+02  0.45594000000E+02  0.51100000000E-03 0. -1.
    9900012    2    1    2    0    0  0.78897471823E+00 -0.87792588338E+00 -0.27939305438E-02  0.90007642949E+02  0.89999903035E+02 0.  0.
         12    1    1    2    0    0 -0.78897471823E+00  0.87792588338E+00  0.27939305438E-02  0.11803570514E+01  0.00000000000E+00 0. -1.
         11    1    3    3    0    0  0.17148484119E+02  0.12107670548E+02 -0.36661698697E+02  0.42246258359E+02  0.51100000000E-03 0. -1.
        -11    1    3    3    0    0 -0.45133046808E+01  0.62707295001E+01  0.66823333698E+01  0.10214966820E+02  0.51100000000E-03 0.  1.
        -12    1    3    3    0    0 -0.11846204720E+02 -0.19256325931E+02  0.29976571397E+02  0.37546417770E+02  0.00000000000E+00 0.  1.
</event>
<event>
 7    1  0.2404951E-015  0.9000774E+02  0.7816164E-02  0.1186339E+00
        -11   -1    0    0    0    0  0.00000000000E+00  0.00000000000E+00  0.45593999997E+02  0.45594000000E+02  0.51100000000E-03 0.  1.
         11   -1    0    0    0    0 -0.00000000000E+00 -0.00000000000E+00 -0.45593999997E+02  0.45594000000E+02  0.51100000000E-03 0. -1.
    9900012    2    1    2    0    0  0.14153685773E+00 -0.11349465155E+01 -0.29135664254E+00  0.90007735213E+02  0.89999996517E+02 0.  0.
         12    1    1    2    0    0 -0.14153685773E+00  0.11349465155E+01  0.29135664254E+00  0.11802647873E+01  0.00000000000E+00 0. -1.
         11    1    3    3    0    0  0.23641229956E+02  0.17811429684E+02  0.23426049658E+02  0.37748305711E+02  0.51100000000E-03 0. -1.
        -11    1    3    3    0    0 -0.42695411085E+01 -0.22363246863E+01  0.93483792965E+01  0.10517714824E+02  0.51100000000E-03 0.  1.
        -12    1    3    3    0    0 -0.19230151990E+02 -0.16710051513E+02 -0.33065785597E+02  0.41741714678E+02  0.00000000000E+00 0.  1.
</event>
<event>
 7    1  0.2404951E-015  0.9000779E+02  0.7816164E-02  0.1186339E+00
        -11   -1    0    0    0    0  0.00000000000E+00  0.00000000000E+00  0.45593999997E+02  0.45594000000E+02  0.51100000000E-03 0.  1.
         11   -1    0    0    0    0 -0.00000000000E+00 -0.00000000000E+00 -0.45593999997E+02  0.45594000000E+02  0.51100000000E-03 0. -1.
    9900012    2    1    2    0    0 -0.40802348298E+00 -0.63167408351E+00  0.90962091562E+00  0.90007785816E+02  0.90000047789E+02 0.  0.
         12    1    1    2    0    0  0.40802348298E+00  0.63167408351E+00 -0.90962091562E+00  0.11802141842E+01  0.00000000000E+00 0. -1.
         11    1    3    3    0    0 -0.13279581171E+02 -0.16321275180E+02  0.17558561850E+01  0.21114315778E+02  0.51100000000E-03 0.  1.
        -11    1    3    3    0    0 -0.19007074235E+02 -0.39430664353E+01 -0.19107590756E+02  0.27238147306E+02  0.51100000000E-03 0. -1.
        -12    1    3    3    0    0  0.31878631923E+02  0.19632667532E+02  0.18261355486E+02  0.41655322732E+02  0.00000000000E+00 0.  1.
</event>
<event>
 7    1  0.2404951E-015  0.9000771E+02  0.7816164E-02  0.1186339E+00
        -11   -1    0    0    0    0  0.00000000000E+00  0.00000000000E+00  0.45593999997E+02  0.45594000000E+02  0.51100000000E-03 0.  1.
         11   -1    0    0    0    0 -0.00000000000E+00 -0.00000000000E+00 -0.45593999997E+02  0.45594000000E+02  0.51100000000E-03 0. -1.
    9900012    2    1    2    0    0  0.12940801579E+00  0.90012944404E+00  0.75239945859E+00  0.90007710037E+02  0.89999971010E+02 0.  0.
         12    1    1    2    0    0 -0.12940801579E+00 -0.90012944404E+00 -0.75239945859E+00  0.11802899626E+01  0.00000000000E+00 0. -1.
         11    1    3    3    0    0  0.27748844510E+02  0.20690983349E+02 -0.98309926004E+01  0.35982823393E+02  0.51100000000E-03 0. -1.
        -11    1    3    3    0    0  0.66618470734E+01  0.38214381839E+01 -0.54502120151E+01  0.94174522825E+01  0.51100000000E-03 0.  1.
        -12    1    3    3    0    0 -0.34281283567E+02 -0.23612292089E+02  0.16033604074E+02  0.44607434362E+02  0.00000000000E+00 0.  1.
</event>
<event>
 7    1  0.2404951E-015  0.9000774E+02  0.7816164E-02  0.1186339E+00
        -11   -1    0    0    0    0  0.00000000000E+00  0.00000000000E+00  0.45593999997E+02  0.45594000000E+02  0.51100000000E-03 0.  1.
         11   -1    0    0    0    0 -0.00000000000E+00 -0.00000000000E+00 -0.45593999997E+02  0.45594000000E+02  0.51100000000E-03 0. -1.
    9900012    2    1    2    0    0  0.77346185211E+00  0.77679820939E+00 -0.43743049070E+00  0.90007744041E+02  0.90000005462E+02 0.  0.
         12    1    1    2    0    0 -0.77346185211E+00 -0.77679820939E+00  0.43743049070E+00  0.11802559591E+01  0.00000000000E+00 0. -1.
         11    1    3    3    0    0 -0.47792788669E+01 -0.68462008703E+01 -0.41454759155E+01  0.93218530171E+01  0.51100000000E-03 0. -1.
        -11    1    3    3    0    0 -0.22579415487E+02 -0.67624400465E+01  0.30993849003E+02  0.38938146790E+02  0.51100000000E-03 0.  1.
         12    1    3    3    0    0  0.28132156206E+02  0.14385439126E+02 -0.27285803579E+02  0.41747744234E+02  0.00000000000E+00 0. -1.
</event>
<event>
 7    1  0.2404951E-015  0.9000791E+02  0.7816164E-02  0.1186339E+00
        -11   -1    0    0    0    0  0.00000000000E+00  0.00000000000E+00  0.45593999997E+02  0.45594000000E+02  0.51100000000E-03 0.  1.
         11   -1    0    0    0    0 -0.00000000000E+00 -0.00000000000E+00 -0.45593999997E+02  0.45594000000E+02  0.51100000000E-03 0. -1.
    9900012    2    1    2    0    0 -0.26959372908E+00 -0.62148198218E+00  0.96627987305E+00  0.90007907874E+02  0.90000171458E+02 0.  0.
         12    1    1    2    0    0  0.26959372908E+00  0.62148198218E+00 -0.96627987305E+00  0.11800921261E+01  0.00000000000E+00 0. -1.
         11    1    3    3    0    0  0.72917776036E+01  0.36647391277E+01 -0.28414830393E+02  0.29563540384E+02  0.51100000000E-03 0. -1.
        -11    1    3    3    0    0 -0.66514960093E+00 -0.18970139266E+02 -0.72991367102E+01  0.20336814026E+02  0.51100000000E-03 0.  1.
        -12    1    3    3    0    0 -0.68962217317E+01  0.14683918156E+02  0.36680246977E+02  0.40107553464E+02  0.00000000000E+00 0.  1.
</event>
<event>
 7    1  0.2404951E-015  0.9000773E+02  0.7816164E-02  0.1186339E+00
        -11   -1    0    0    0    0  0.00000000000E+00  0.00000000000E+00  0.45593999997E+02  0.45594000000E+02  0.51100000000E-03 0.  1.
         11   -1    0    0    0    0 -0.00000000000E+00 -0.00000000000E+00 -0.45593999997E+02  0.45594000000E+02  0.51100000000E-03 0. -1.
    9900012    2    1    2    0    0  0.21858130399E+00  0.65225183162E+00  0.95907246806E+00  0.90007732981E+02  0.89999994256E+02 0.  0.
         12    1    1    2    0    0 -0.21858130399E+00 -0.65225183162E+00 -0.95907246806E+00  0.11802670195E+01  0.00000000000E+00 0. -1.
         11    1    3    3    0    0  0.35453602136E+01 -0.31208468437E+02 -0.19482829249E+02  0.36961043235E+02  0.51100000000E-03 0. -1.
        -11    1    3    3    0    0 -0.47025936906E+01 -0.62787221495E+01  0.11379286816E+02  0.13821176070E+02  0.51100000000E-03 0.  1.
        -12    1    3    3    0    0  0.13758147809E+01  0.38139442418E+02  0.90626149010E+01  0.39225513675E+02  0.00000000000E+00 0.  1.
</event>
<event>
 7    1  0.2404951E-015  0.9000772E+02  0.7816164E-02  0.1186339E+00
        -11   -1    0    0    0    0  0.00000000000E+00  0.00000000000E+00  0.45593999997E+02  0.45594000000E+02  0.51100000000E-03 0. -1.
         11   -1    0    0    0    0 -0.00000000000E+00 -0.00000000000E+00 -0.45593999997E+02  0.45594000000E+02  0.51100000000E-03 0.  1.
    9900012    2    1    2    0    0 -0.94894044845E+00  0.70138140494E+00  0.25445871970E-01  0.90007715567E+02  0.89999976613E+02 0.  0.
         12    1    1    2    0    0  0.94894044845E+00 -0.70138140494E+00 -0.25445871970E-01  0.11802844328E+01  0.00000000000E+00 0. -1.
         11    1    3    3    0    0  0.37113314145E+02  0.13304825213E+02  0.20345225173E+01  0.39478547883E+02  0.51100000000E-03 0. -1.
        -11    1    3    3    0    0 -0.60214531415E-01 -0.52477973955E+00 -0.98718187977E+01  0.98859408353E+01  0.51100000000E-03 0.  1.
        -12    1    3    3    0    0 -0.38002040062E+02 -0.12078664069E+02  0.78627421523E+01  0.40643226849E+02  0.00000000000E+00 0.  1.
</event>
<event>
 7    1  0.2404951E-015  0.9000752E+02  0.7816164E-02  0.1186339E+00
        -11   -1    0    0    0    0  0.00000000000E+00  0.00000000000E+00  0.45593999997E+02  0.45594000000E+02  0.51100000000E-03 0.  1.
         11   -1    0    0    0    0 -0.00000000000E+00 -0.00000000000E+00 -0.45593999997E+02  0.45594000000E+02  0.51100000000E-03 0. -1.
    9900012    2    1    2    0    0  0.10963966178E+01  0.42319650580E+00 -0.11116893056E+00  0.90007517320E+02  0.89999775749E+02 0.  0.
         12    1    1    2    0    0 -0.10963966178E+01 -0.42319650580E+00  0.11116893056E+00  0.11804826798E+01  0.00000000000E+00 0. -1.
         11    1    3    3    0    0 -0.31871702466E+02 -0.12009479961E+01  0.68675811965E+01  0.32625317867E+02  0.51100000000E-03 0. -1.
        -11    1    3    3    0    0 -0.50571769277E+01  0.64729812315E+01  0.12051900572E+02  0.14585020814E+02  0.51100000000E-03 0.  1.
        -12    1    3    3    0    0  0.38025276012E+02 -0.48488367296E+01 -0.19030650699E+02  0.42797178639E+02  0.00000000000E+00 0.  1.
</event>
<event>
 7    1  0.2404951E-015  0.9000708E+02  0.7816164E-02  0.1186340E+00
        -11   -1    0    0    0    0  0.00000000000E+00  0.00000000000E+00  0.45593999997E+02  0.45594000000E+02  0.51100000000E-03 0.  1.
         11   -1    0    0    0    0 -0.00000000000E+00 -0.00000000000E+00 -0.45593999997E+02  0.45594000000E+02  0.51100000000E-03 0. -1.
    9900012    2    1    2    0    0 -0.34299813107E+00 -0.11024198013E+01  0.24816707643E+00  0.90007083392E+02  0.89999336091E+02 0.  0.
         12    1    1    2    0    0  0.34299813107E+00  0.11024198013E+01 -0.24816707643E+00  0.11809166076E+01  0.00000000000E+00 0. -1.
         11    1    3    3    0    0  0.37031315898E+01 -0.31773361764E+01 -0.81376085903E+01  0.94883782903E+01  0.51100000000E-03 0. -1.
        -11    1    3    3    0    0  0.23044592487E+02  0.96453029894E+01  0.34191835690E+02  0.42345799565E+02  0.51100000000E-03 0.  1.
         12    1    3    3    0    0 -0.27090722208E+02 -0.75703866144E+01 -0.25806060024E+02  0.38172905537E+02  0.00000000000E+00 0. -1.
</event>
<event>
 7    1  0.2621196E-015  0.9000751E+02  0.7816164E-02  0.1186340E+00
        -11   -1    0    0    0    0  0.00000000000E+00  0.00000000000E+00  0.45593999997E+02  0.45594000000E+02  0.51100000000E-03 0. -1.
         11   -1    0    0    0    0 -0.00000000000E+00 -0.00000000000E+00 -0.45593999997E+02  0.45594000000E+02  0.51100000000E-03 0.  1.
    9900012    2    1    2    0    0 -0.99132248614E+00  0.52854084724E+00 -0.36261834066E+00  0.90007505290E+02  0.89999763560E+02 0.  0.
         12    1    1    2    0    0  0.99132248614E+00 -0.52854084724E+00  0.36261834066E+00  0.11804947097E+01  0.00000000000E+00 0. -1.
         11    1    3    3    0    0 -0.39394380619E+02 -0.13022207878E+02  0.41320763434E+01  0.41696153031E+02  0.51100000000E-03 0. -1.
        -11    1    3    3    0    0  0.15396901857E+00  0.86249875602E+01 -0.45362604111E+01  0.97463724355E+01  0.51100000000E-03 0.  1.
        -12    1    3    3    0    0  0.38249089114E+02  0.49257611650E+01  0.41565727091E-01  0.38564979824E+02  0.00000000000E+00 0.  1.
</event>
<event>
 7    1  0.2404951E-015  0.9000756E+02  0.7816164E-02  0.1186339E+00
        -11   -1    0    0    0    0  0.00000000000E+00  0.00000000000E+00  0.45593999997E+02  0.45594000000E+02  0.51100000000E-03 0. -1.
         11   -1    0    0    0    0 -0.00000000000E+00 -0.00000000000E+00 -0.45593999997E+02  0.45594000000E+02  0.51100000000E-03 0.  1.
    9900012    2    1    2    0    0  0.28946849476E+00 -0.95124029229E+00 -0.63622919110E+00  0.90007560384E+02  0.89999819381E+02 0.  0.
         12    1    1    2    0    0 -0.28946849476E+00  0.95124029229E+00  0.63622919110E+00  0.11804396159E+01  0.00000000000E+00 0. -1.
         11    1    3    3    0    0  0.44000612224E+01 -0.80011399720E+01 -0.19790911150E+01  0.93432104501E+01  0.51100000000E-03 0. -1.
        -11    1    3    3    0    0 -0.27320283644E+02  0.20011833230E+02  0.27308015761E+02  0.43504012374E+02  0.51100000000E-03 0.  1.
         12    1    3    3    0    0  0.23209690917E+02 -0.12961933550E+02 -0.25965153837E+02  0.37160337560E+02  0.00000000000E+00 0. -1.
</event>
<event>
 7    1  0.2404951E-015  0.9000771E+02  0.7816164E-02  0.1186339E+00
        -11   -1    0    0    0    0  0.00000000000E+00  0.00000000000E+00  0.45593999997E+02  0.45594000000E+02  0.51100000000E-03 0.  1.
         11   -1    0    0    0    0 -0.00000000000E+00 -0.00000000000E+00 -0.45593999997E+02  0.45594000000E+02  0.51100000000E-03 0. -1.
    9900012    2    1    2    0    0  0.23777538087E+00 -0.54846869266E+00  0.10177133094E+01  0.90007705368E+02  0.89999966279E+02 0.  0.
         12    1    1    2    0    0 -0.23777538087E+00  0.54846869266E+00 -0.10177133094E+01  0.11802946322E+01  0.00000000000E+00 0. -1.
         11    1    3    3    0    0 -0.11859909434E+02  0.46508663600E+01 -0.58556768454E+00  0.12752682049E+02  0.51100000000E-03 0. -1.
        -11    1    3    3    0    0  0.13076456848E+02  0.29756685073E+02  0.19569889762E+02  0.37939881600E+02  0.51100000000E-03 0.  1.
         12    1    3    3    0    0 -0.97877203396E+00 -0.34956020126E+02 -0.17966608768E+02  0.39315141719E+02  0.00000000000E+00 0. -1.
</event>
<event>
 7    1  0.2404951E-015  0.9000778E+02  0.7816164E-02  0.1186339E+00
        -11   -1    0    0    0    0  0.00000000000E+00  0.00000000000E+00  0.45593999997E+02  0.45594000000E+02  0.51100000000E-03 0. -1.
         11   -1    0    0    0    0 -0.00000000000E+00 -0.00000000000E+00 -0.45593999997E+02  0.45594000000E+02  0.51100000000E-03 0.  1.
    9900012    2    1    2    0    0  0.15956514659E+00 -0.95651939907E+00  0.67270507648E+00  0.90007778615E+02  0.90000040493E+02 0.  0.
         12    1    1    2    0    0 -0.15956514659E+00  0.95651939907E+00 -0.67270507648E+00  0.11802213846E+01  0.00000000000E+00 0. -1.
         11    1    3    3    0    0  0.42628683096E+02  0.10506423508E+02 -0.66478545022E+00  0.43909355466E+02  0.51100000000E-03 0. -1.
        -11    1    3    3    0    0 -0.82438500702E+01 -0.42920606246E+01  0.56316794023E+01  0.10867320808E+02  0.51100000000E-03 0.  1.
        -12    1    3    3    0    0 -0.34225267879E+02 -0.71708822828E+01 -0.42941888756E+01  0.35231102342E+02  0.00000000000E+00 0.  1.
</event>
<event>
 7    1  0.2404951E-015  0.9000776E+02  0.7816164E-02  0.1186339E+00
        -11   -1    0    0    0    0  0.00000000000E+00  0.00000000000E+00  0.45593999997E+02  0.45594000000E+02  0.51100000000E-03 0.  1.
         11   -1    0    0    0    0 -0.00000000000E+00 -0.00000000000E+00 -0.45593999997E+02  0.45594000000E+02  0.51100000000E-03 0. -1.
    9900012    2    1    2    0    0 -0.85392907348E+00  0.65688998541E+00 -0.48194888949E+00  0.90007756785E+02  0.90000018374E+02 0.  0.
         12    1    1    2    0    0  0.85392907348E+00 -0.65688998541E+00  0.48194888949E+00  0.11802432154E+01  0.00000000000E+00 0. -1.
         11    1    3    3    0    0 -0.65515947804E+01 -0.32036233882E+01  0.30524768003E+01  0.79059605272E+01  0.51100000000E-03 0. -1.
        -11    1    3    3    0    0 -0.27859526124E+02 -0.13106083834E+02 -0.24230905527E+02  0.39179834255E+02  0.51100000000E-03 0.  1.
         12    1    3    3    0    0  0.33557191831E+02  0.16966597208E+02  0.20696479838E+02  0.42921962002E+02  0.00000000000E+00 0. -1.
</event>
<event>
 7    1  0.2404951E-015  0.9000774E+02  0.7816164E-02  0.1186339E+00
        -11   -1    0    0    0    0  0.00000000000E+00  0.00000000000E+00  0.45593999997E+02  0.45594000000E+02  0.51100000000E-03 0.  1.
         11   -1    0    0    0    0 -0.00000000000E+00 -0.00000000000E+00 -0.45593999997E+02  0.45594000000E+02  0.51100000000E-03 0. -1.
    9900012    2    1    2    0    0  0.99296047426E+00 -0.50228500664E+00  0.39339456128E+00  0.90007737312E+02  0.89999998645E+02 0.  0.
         12    1    1    2    0    0 -0.99296047426E+00  0.50228500664E+00 -0.39339456128E+00  0.11802626878E+01  0.00000000000E+00 0. -1.
         11    1    3    3    0    0 -0.41058382225E+01  0.78645079675E+01  0.33036805379E+00  0.88779241038E+01  0.51100000000E-03 0. -1.
        -11    1    3    3    0    0  0.34935381135E+02 -0.11801568884E+02  0.22893725566E+02  0.43403692858E+02  0.51100000000E-03 0.  1.
         12    1    3    3    0    0 -0.29836582438E+02  0.34347759101E+01 -0.22830699059E+02  0.37726120350E+02  0.00000000000E+00 0. -1.
</event>
<event>
 7    1  0.2404951E-015  0.9000815E+02  0.7816164E-02  0.1186338E+00
        -11   -1    0    0    0    0  0.00000000000E+00  0.00000000000E+00  0.45593999997E+02  0.45594000000E+02  0.51100000000E-03 0.  1.
         11   -1    0    0    0    0 -0.00000000000E+00 -0.00000000000E+00 -0.45593999997E+02  0.45594000000E+02  0.51100000000E-03 0. -1.
    9900012    2    1    2    0    0  0.11691173094E+01  0.15646012241E+00  0.27242300324E-01  0.90008145265E+02  0.90000411981E+02 0.  0.
         12    1    1    2    0    0 -0.11691173094E+01 -0.15646012241E+00 -0.27242300324E-01  0.11798547351E+01  0.00000000000E+00 0. -1.
         11    1    3    3    0    0  0.59469896140E+01 -0.69700988333E+01 -0.53506413247E+00  0.91779767433E+01  0.51100000000E-03 0. -1.
        -11    1    3    3    0    0  0.10569596798E+02  0.27702757392E+02  0.29721159040E+02  0.41982215741E+02  0.51100000000E-03 0.  1.
         12    1    3    3    0    0 -0.15347469102E+02 -0.20576198436E+02 -0.29158852607E+02  0.38847952781E+02  0.00000000000E+00 0. -1.
</event>
<event>
 7    1  0.2404951E-015  0.9000770E+02  0.7816164E-02  0.1186339E+00
        -11   -1    0    0    0    0  0.00000000000E+00  0.00000000000E+00  0.45593999997E+02  0.45594000000E+02  0.51100000000E-03 0.  1.
         11   -1    0    0    0    0 -0.00000000000E+00 -0.00000000000E+00 -0.45593999997E+02  0.45594000000E+02  0.51100000000E-03 0. -1.
    9900012    2    1    2    0    0  0.61288055292E+00 -0.10050111240E+01 -0.86187768956E-01  0.90007704163E+02  0.89999965058E+02 0.  0.
         12    1    1    2    0    0 -0.61288055292E+00  0.10050111240E+01  0.86187768956E-01  0.11802958371E+01  0.00000000000E+00 0. -1.
         11    1    3    3    0    0 -0.14206312629E+02  0.29368647544E+02 -0.20737427430E+02  0.38657181400E+02  0.51100000000E-03 0. -1.
        -11    1    3    3    0    0 -0.74519078538E+01  0.19686404801E+01  0.41718838572E+01  0.87641936982E+01  0.51100000000E-03 0.  1.
        -12    1    3    3    0    0  0.22271101036E+02 -0.32342299148E+02  0.16479355804E+02  0.42586329065E+02  0.00000000000E+00 0.  1.
</event>
<event>
 7    1  0.2546797E-015  0.9000775E+02  0.7816164E-02  0.1186339E+00
        -11   -1    0    0    0    0  0.00000000000E+00  0.00000000000E+00  0.45593999997E+02  0.45594000000E+02  0.51100000000E-03 0.  1.
         11   -1    0    0    0    0 -0.00000000000E+00 -0.00000000000E+00 -0.45593999997E+02  0.45594000000E+02  0.51100000000E-03 0. -1.
    9900012    2    1    2    0    0  0.80102647458E+00  0.65696320862E+00  0.56545525842E+00  0.90007752687E+02  0.90000014223E+02 0.  0.
         12    1    1    2    0    0 -0.80102647458E+00 -0.65696320862E+00 -0.56545525842E+00  0.11802473130E+01  0.00000000000E+00 0. -1.
         11    1    3    3    0    0  0.28805030761E+01 -0.36844188564E+02 -0.13534073969E+02  0.39356863281E+02  0.51100000000E-03 0. -1.
        -11    1    3    3    0    0  0.67343646990E+01  0.25700101993E+01 -0.60166452815E+01  0.93891768025E+01  0.51100000000E-03 0.  1.
        -12    1    3    3    0    0 -0.88138413005E+01  0.34931141573E+02  0.20116174509E+02  0.41261712603E+02  0.00000000000E+00 0.  1.
</event>
<event>
 7    1  0.2404951E-015  0.9000769E+02  0.7816164E-02  0.1186339E+00
        -11   -1    0    0    0    0  0.00000000000E+00  0.00000000000E+00  0.45593999997E+02  0.45594000000E+02  0.51100000000E-03 0. -1.
         11   -1    0    0    0    0 -0.00000000000E+00 -0.00000000000E+00 -0.45593999997E+02  0.45594000000E+02  0.51100000000E-03 0.  1.
    9900012    2    1    2    0    0  0.10453300138E+01  0.53860388672E+00 -0.10165031280E+00  0.90007685732E+02  0.89999946384E+02 0.  0.
         12    1    1    2    0    0 -0.10453300138E+01 -0.53860388672E+00  0.10165031280E+00  0.11803142678E+01  0.00000000000E+00 0. -1.
         11    1    3    3    0    0 -0.55163604619E+01  0.38119141437E+02  0.22278216175E+02  0.44495146846E+02  0.51100000000E-03 0. -1.
        -11    1    3    3    0    0 -0.25776084352E+01 -0.69908176418E+01 -0.23031759364E+01  0.77987317047E+01  0.51100000000E-03 0.  1.
        -12    1    3    3    0    0  0.91392989109E+01 -0.30589719908E+02 -0.20076690551E+02  0.37713807182E+02  0.00000000000E+00 0.  1.
</event>
<event>
 7    1  0.2404951E-015  0.9000773E+02  0.7816164E-02  0.1186339E+00
        -11   -1    0    0    0    0  0.00000000000E+00  0.00000000000E+00  0.45593999997E+02  0.45594000000E+02  0.51100000000E-03 0.  1.
         11   -1    0    0    0    0 -0.00000000000E+00 -0.00000000000E+00 -0.45593999997E+02  0.45594000000E+02  0.51100000000E-03 0. -1.
    9900012    2    1    2    0    0  0.10202258205E+01 -0.55737585687E+00  0.20373822560E+00  0.90007729762E+02  0.89999990995E+02 0.  0.
         12    1    1    2    0    0 -0.10202258205E+01  0.55737585687E+00 -0.20373822560E+00  0.11802702382E+01  0.00000000000E+00 0. -1.
         11    1    3    3    0    0 -0.33569233782E+02 -0.17712420383E+02 -0.13687132859E+02  0.40347997456E+02  0.51100000000E-03 0. -1.
        -11    1    3    3    0    0  0.50799451120E+01  0.66477557740E+00 -0.79179013878E+01  0.94308499913E+01  0.51100000000E-03 0.  1.
        -12    1    3    3    0    0  0.29509514491E+02  0.16490268949E+02  0.21808772472E+02  0.40228882314E+02  0.00000000000E+00 0.  1.
</event>
<event>
 7    1  0.2404951E-015  0.9000720E+02  0.7816164E-02  0.1186340E+00
        -11   -1    0    0    0    0  0.00000000000E+00  0.00000000000E+00  0.45593999997E+02  0.45594000000E+02  0.51100000000E-03 0. -1.
         11   -1    0    0    0    0 -0.00000000000E+00 -0.00000000000E+00 -0.45593999997E+02  0.45594000000E+02  0.51100000000E-03 0.  1.
    9900012    2    1    2    0    0  0.27594201294E-01  0.11166711935E+01 -0.38283971189E+00  0.90007202710E+02  0.89999456984E+02 0.  0.
         12    1    1    2    0    0 -0.27594201294E-01 -0.11166711935E+01  0.38283971189E+00  0.11807972897E+01  0.00000000000E+00 0. -1.
         11    1    3    3    0    0  0.53994625688E+01  0.12433272916E+02 -0.10438874096E+01  0.13595226097E+02  0.51100000000E-03 0. -1.
        -11    1    3    3    0    0 -0.73667738114E+01 -0.18322115047E+02  0.35606210813E+02  0.40715740260E+02  0.51100000000E-03 0.  1.
         12    1    3    3    0    0  0.19949054439E+01  0.70055133247E+01 -0.34945163115E+02  0.35696236354E+02  0.00000000000E+00 0. -1.
</event>
<event>
 7    1  0.2404951E-015  0.9000776E+02  0.7816164E-02  0.1186339E+00
        -11   -1    0    0    0    0  0.00000000000E+00  0.00000000000E+00  0.45593999997E+02  0.45594000000E+02  0.51100000000E-03 0. -1.
         11   -1    0    0    0    0 -0.00000000000E+00 -0.00000000000E+00 -0.45593999997E+02  0.45594000000E+02  0.51100000000E-03 0.  1.
    9900012    2    1    2    0    0 -0.76361867112E+00  0.58089909803E+00 -0.68732806182E+00  0.90007755491E+02  0.90000017063E+02 0.  0.
         12    1    1    2    0    0  0.76361867112E+00 -0.58089909803E+00  0.68732806182E+00  0.11802445092E+01  0.00000000000E+00 0. -1.
         11    1    3    3    0    0 -0.48316475967E+01 -0.10450976852E+01 -0.10917747689E+02  0.11984751250E+02  0.51100000000E-03 0. -1.
        -11    1    3    3    0    0 -0.34599411660E+02 -0.67864641641E+01 -0.50196586891E+01  0.35614215655E+02  0.51100000000E-03 0.  1.
         12    1    3    3    0    0  0.38667440586E+02  0.84124609473E+01  0.15250078316E+02  0.42408788586E+02  0.00000000000E+00 0. -1.
</event>
<event>
 7    1  0.2404951E-015  0.9000775E+02  0.7816164E-02  0.1186339E+00
        -11   -1    0    0    0    0  0.00000000000E+00  0.00000000000E+00  0.45593999997E+02  0.45594000000E+02  0.51100000000E-03 0. -1.
         11   -1    0    0    0    0 -0.00000000000E+00 -0.00000000000E+00 -0.45593999997E+02  0.45594000000E+02  0.51100000000E-03 0.  1.
    9900012    2    1    2    0    0 -0.96996407260E+00  0.36631972190E+00 -0.56389516138E+00  0.90007746555E+02  0.90000008010E+02 0.  0.
         12    1    1    2    0    0  0.96996407260E+00 -0.36631972190E+00  0.56389516138E+00  0.11802534447E+01  0.00000000000E+00 0. -1.
         11    1    3    3    0    0  0.83063802095E+01  0.24005094940E+02 -0.17125503439E+02  0.30635329336E+02  0.51100000000E-03 0. -1.
        -11    1    3    3    0    0  0.32333879037E+01  0.81037222421E+01 -0.12027807005E+02  0.14859113471E+02  0.51100000000E-03 0.  1.
        -12    1    3    3    0    0 -0.12509732186E+02 -0.31742497460E+02  0.28589415283E+02  0.44513303748E+02  0.00000000000E+00 0.  1.
</event>
<event>
 7    1  0.2404951E-015  0.9000793E+02  0.7816164E-02  0.1186339E+00
        -11   -1    0    0    0    0  0.00000000000E+00  0.00000000000E+00  0.45593999997E+02  0.45594000000E+02  0.51100000000E-03 0. -1.
         11   -1    0    0    0    0 -0.00000000000E+00 -0.00000000000E+00 -0.45593999997E+02  0.45594000000E+02  0.51100000000E-03 0.  1.
    9900012    2    1    2    0    0 -0.68664770058E+00 -0.71193772746E+00  0.64359530987E+00  0.90007934190E+02  0.90000198121E+02 0.  0.
         12    1    1    2    0    0  0.68664770058E+00  0.71193772746E+00 -0.64359530987E+00  0.11800658098E+01  0.00000000000E+00 0. -1.
         11    1    3    3    0    0  0.25706172377E+01  0.39803756261E+02 -0.18061378555E+01  0.39927549633E+02  0.51100000000E-03 0. -1.
        -11    1    3    3    0    0  0.80024166802E+01 -0.11000064664E+02  0.10841056348E+02  0.17394499083E+02  0.51100000000E-03 0.  1.
        -12    1    3    3    0    0 -0.11259681618E+02 -0.29515629324E+02 -0.83913231824E+01  0.32685885475E+02  0.00000000000E+00 0.  1.
</event>
<event>
 7    1  0.2404951E-015  0.9000778E+02  0.7816164E-02  0.1186339E+00
        -11   -1    0    0    0    0  0.00000000000E+00  0.00000000000E+00  0.45593999997E+02  0.45594000000E+02  0.51100000000E-03 0. -1.
         11   -1    0    0    0    0 -0.00000000000E+00 -0.00000000000E+00 -0.45593999997E+02  0.45594000000E+02  0.51100000000E-03 0.  1.
    9900012    2    1    2    0    0  0.37517289640E+00  0.21697456328E+00 -0.10977661752E+01  0.90007778310E+02  0.90000040183E+02 0.  0.
         12    1    1    2    0    0 -0.37517289640E+00 -0.21697456328E+00  0.10977661752E+01  0.11802216905E+01  0.00000000000E+00 0. -1.
         11    1    3    3    0    0  0.18542348719E+02 -0.14234807858E+02  0.22004685246E+02  0.32103810113E+02  0.51100000000E-03 0. -1.
        -11    1    3    3    0    0  0.11699607802E+02  0.64697673023E+01 -0.23442791775E+02  0.26987093177E+02  0.51100000000E-03 0.  1.
         12    1    3    3    0    0 -0.29866783624E+02  0.79820151189E+01  0.34034035450E+00  0.30916875020E+02  0.00000000000E+00 0. -1.
</event>
<event>
 7    1  0.2404951E-015  0.9000754E+02  0.7816164E-02  0.1186339E+00
        -11   -1    0    0    0    0  0.00000000000E+00  0.00000000000E+00  0.45593999997E+02  0.45594000000E+02  0.51100000000E-03 0. -1.
         11   -1    0    0    0    0 -0.00000000000E+00 -0.00000000000E+00 -0.45593999997E+02  0.45594000000E+02  0.51100000000E-03 0.  1.
    9900012    2    1    2    0    0  0.78032024434E+00 -0.67114369781E+00  0.57805142057E+00  0.90007543736E+02  0.89999802513E+02 0.  0.
         12    1    1    2    0    0 -0.78032024434E+00  0.67114369781E+00 -0.57805142057E+00  0.11804562642E+01  0.00000000000E+00 0. -1.
         11    1    3    3    0    0 -0.32383513349E+01  0.40308106249E+01  0.37940981498E+01  0.64132312210E+01  0.51100000000E-03 0. -1.
        -11    1    3    3    0    0  0.98957473046E+00  0.29321496971E+02  0.25575421671E+02  0.38920838078E+02  0.51100000000E-03 0.  1.
         12    1    3    3    0    0  0.30290968488E+01 -0.34023451294E+02 -0.28791468400E+02  0.44673474437E+02  0.00000000000E+00 0. -1.
</event>
<event>
 7    1  0.2404951E-015  0.9000776E+02  0.7816164E-02  0.1186339E+00
        -11   -1    0    0    0    0  0.00000000000E+00  0.00000000000E+00  0.45593999997E+02  0.45594000000E+02  0.51100000000E-03 0.  1.
         11   -1    0    0    0    0 -0.00000000000E+00 -0.00000000000E+00 -0.45593999997E+02  0.45594000000E+02  0.51100000000E-03 0. -1.
    9900012    2    1    2    0    0 -0.65142999843E-01 -0.10470733918E+01  0.54070714251E+00  0.90007758282E+02  0.90000019892E+02 0.  0.
         12    1    1    2    0    0  0.65142999843E-01  0.10470733918E+01 -0.54070714251E+00  0.11802417177E+01  0.00000000000E+00 0. -1.
         11    1    3    3    0    0 -0.35512554807E+02  0.14213905465E+02 -0.11075634343E+02  0.39822686171E+02  0.51100000000E-03 0. -1.
        -11    1    3    3    0    0  0.98049688853E+00 -0.41411876258E+01 -0.79528499288E+01  0.90199019591E+01  0.51100000000E-03 0.  1.
        -12    1    3    3    0    0  0.34466914919E+02 -0.11119791231E+02  0.19569191415E+02  0.41165170152E+02  0.00000000000E+00 0.  1.
</event>
<event>
 7    1  0.2404951E-015  0.9000748E+02  0.7816164E-02  0.1186340E+00
        -11   -1    0    0    0    0  0.00000000000E+00  0.00000000000E+00  0.45593999997E+02  0.45594000000E+02  0.51100000000E-03 0.  1.
         11   -1    0    0    0    0 -0.00000000000E+00 -0.00000000000E+00 -0.45593999997E+02  0.45594000000E+02  0.51100000000E-03 0. -1.
    9900012    2    1    2    0    0 -0.25380805981E+00  0.68304103646E+00  0.92880030873E+00  0.90007477403E+02  0.89999735304E+02 0.  0.
         12    1    1    2    0    0  0.25380805981E+00 -0.68304103646E+00 -0.92880030873E+00  0.11805225971E+01  0.00000000000E+00 0. -1.
         11    1    3    3    0    0 -0.90916838644E+01  0.35671288753E+01  0.16505940547E+01  0.99049273040E+01  0.51100000000E-03 0. -1.
        -11    1    3    3    0    0  0.59796205489E+01  0.16481244935E+02  0.35125953680E+02  0.39258373867E+02  0.51100000000E-03 0.  1.
         12    1    3    3    0    0  0.28582552556E+01 -0.19365332774E+02 -0.35847747426E+02  0.40844176232E+02  0.00000000000E+00 0. -1.
</event>
<event>
 7    1  0.2404951E-015  0.9000778E+02  0.7816164E-02  0.1186339E+00
        -11   -1    0    0    0    0  0.00000000000E+00  0.00000000000E+00  0.45593999997E+02  0.45594000000E+02  0.51100000000E-03 0. -1.
         11   -1    0    0    0    0 -0.00000000000E+00 -0.00000000000E+00 -0.45593999997E+02  0.45594000000E+02  0.51100000000E-03 0.  1.
    9900012    2    1    2    0    0  0.45366411967E+00  0.10437604383E+01  0.31251625825E+00  0.90007782479E+02  0.90000044407E+02 0.  0.
         12    1    1    2    0    0 -0.45366411967E+00 -0.10437604383E+01 -0.31251625825E+00  0.11802175214E+01  0.00000000000E+00 0. -1.
         11    1    3    3    0    0  0.21826138182E+01  0.78751638319E+01  0.69048096899E+01  0.10698523523E+02  0.51100000000E-03 0. -1.
        -11    1    3    3    0    0  0.16572376285E+02  0.30942868761E+02 -0.11758150215E+02  0.37018358683E+02  0.51100000000E-03 0.  1.
         12    1    3    3    0    0 -0.18301325983E+02 -0.37774272154E+02  0.51658567836E+01  0.42290900272E+02  0.00000000000E+00 0. -1.
</event>
<event>
 7    1  0.2404951E-015  0.9000773E+02  0.7816164E-02  0.1186339E+00
        -11   -1    0    0    0    0  0.00000000000E+00  0.00000000000E+00  0.45593999997E+02  0.45594000000E+02  0.51100000000E-03 0. -1.
         11   -1    0    0    0    0 -0.00000000000E+00 -0.00000000000E+00 -0.45593999997E+02  0.45594000000E+02  0.51100000000E-03 0.  1.
    9900012    2    1    2    0    0 -0.71217986716E+00  0.22402013343E+00 -0.91414391243E+00  0.90007727033E+02  0.89999988230E+02 0.  0.
         12    1    1    2    0    0  0.71217986716E+00 -0.22402013343E+00  0.91414391243E+00  0.11802729667E+01  0.00000000000E+00 0. -1.
         11    1    3    3    0    0 -0.49491110782E+01  0.63073896742E+00 -0.84832792077E+01  0.98416237728E+01  0.51100000000E-03 0. -1.
        -11    1    3    3    0    0 -0.21877318632E+02 -0.30828905359E+02 -0.50394905233E+01  0.38137054700E+02  0.51100000000E-03 0.  1.
         12    1    3    3    0    0  0.26114249843E+02  0.30422186525E+02  0.12608625819E+02  0.42029048560E+02  0.00000000000E+00 0. -1.
</event>
<event>
 7    1  0.2404951E-015  0.9000786E+02  0.7816164E-02  0.1186339E+00
        -11   -1    0    0    0    0  0.00000000000E+00  0.00000000000E+00  0.45593999997E+02  0.45594000000E+02  0.51100000000E-03 0.  1.
         11   -1    0    0    0    0 -0.00000000000E+00 -0.00000000000E+00 -0.45593999997E+02  0.45594000000E+02  0.51100000000E-03 0. -1.
    9900012    2    1    2    0    0  0.23113227600E+00  0.11543127210E+01 -0.82833396377E-01  0.90007863839E+02  0.90000126842E+02 0.  0.
         12    1    1    2    0    0 -0.23113227600E+00 -0.11543127210E+01  0.82833396377E-01  0.11801361609E+01  0.00000000000E+00 0. -1.
         11    1    3    3    0    0  0.14870110913E+01  0.52097496329E+01  0.75264594487E+01  0.92736338788E+01  0.51100000000E-03 0. -1.
        -11    1    3    3    0    0 -0.29766621272E+02 -0.27100187359E+02 -0.15672558341E+02  0.43198390966E+02  0.51100000000E-03 0.  1.
         12    1    3    3    0    0  0.28510742456E+02  0.23044750447E+02  0.80632654956E+01  0.37535838995E+02  0.00000000000E+00 0. -1.
</event>
<event>
 7    1  0.2404951E-015  0.9000778E+02  0.7816164E-02  0.1186339E+00
        -11   -1    0    0    0    0  0.00000000000E+00  0.00000000000E+00  0.45593999997E+02  0.45594000000E+02  0.51100000000E-03 0. -1.
         11   -1    0    0    0    0 -0.00000000000E+00 -0.00000000000E+00 -0.45593999997E+02  0.45594000000E+02  0.51100000000E-03 0.  1.
    9900012    2    1    2    0    0  0.73351161732E+00 -0.70258078963E+00 -0.60104469319E+00  0.90007782316E+02  0.90000044242E+02 0.  0.
         12    1    1    2    0    0 -0.73351161732E+00  0.70258078963E+00  0.60104469319E+00  0.11802176841E+01  0.00000000000E+00 0. -1.
         11    1    3    3    0    0  0.39725135343E+01 -0.71962030335E+01 -0.89156198779E+01  0.12126602160E+02  0.51100000000E-03 0. -1.
        -11    1    3    3    0    0 -0.37001680484E+02 -0.10941460278E+02  0.99485339071E+01  0.39847374303E+02  0.51100000000E-03 0.  1.
         12    1    3    3    0    0  0.33762678567E+02  0.17435082522E+02 -0.16339587224E+01  0.38033805853E+02  0.00000000000E+00 0. -1.
</event>
<event>
 7    1  0.2404951E-015  0.9000795E+02  0.7816164E-02  0.1186339E+00
        -11   -1    0    0    0    0  0.00000000000E+00  0.00000000000E+00  0.45593999997E+02  0.45594000000E+02  0.51100000000E-03 0.  1.
         11   -1    0    0    0    0 -0.00000000000E+00 -0.00000000000E+00 -0.45593999997E+02  0.45594000000E+02  0.51100000000E-03 0. -1.
    9900012    2    1    2    0    0 -0.53596368860E+00  0.13527217248E+00  0.10425731708E+01  0.90007951504E+02  0.90000215664E+02 0.  0.
         12    1    1    2    0    0  0.53596368860E+00 -0.13527217248E+00 -0.10425731708E+01  0.11800484959E+01  0.00000000000E+00 0. -1.
         11    1    3    3    0    0 -0.62082400243E+00 -0.32178144361E+02  0.83161617243E+00  0.32194875100E+02  0.51100000000E-03 0. -1.
        -11    1    3    3    0    0 -0.39355609283E+01 -0.12353437396E+02  0.74122073232E-02  0.12965188411E+02  0.51100000000E-03 0.  1.
        -12    1    3    3    0    0  0.40204212421E+01  0.44666853930E+02  0.20354479103E+00  0.44847887993E+02  0.00000000000E+00 0.  1.
</event>
<event>
 7    1  0.2404951E-015  0.9000772E+02  0.7816164E-02  0.1186339E+00
        -11   -1    0    0    0    0  0.00000000000E+00  0.00000000000E+00  0.45593999997E+02  0.45594000000E+02  0.51100000000E-03 0.  1.
         11   -1    0    0    0    0 -0.00000000000E+00 -0.00000000000E+00 -0.45593999997E+02  0.45594000000E+02  0.51100000000E-03 0. -1.
    9900012    2    1    2    0    0  0.22001865756E+00  0.11517900950E+01  0.13430184333E+00  0.90007717992E+02  0.89999979070E+02 0.  0.
         12    1    1    2    0    0 -0.22001865756E+00 -0.11517900950E+01 -0.13430184333E+00  0.11802820077E+01  0.00000000000E+00 0. -1.
         11    1    3    3    0    0 -0.45542719011E+01  0.55556053927E+01  0.60479361819E+01  0.93906163882E+01  0.51100000000E-03 0. -1.
        -11    1    3    3    0    0  0.33859636663E+01 -0.10119453130E+02  0.36381914368E+02  0.37914532503E+02  0.51100000000E-03 0.  1.
         12    1    3    3    0    0  0.13883268923E+01  0.57156378318E+01 -0.42295548707E+02  0.42702569101E+02  0.00000000000E+00 0. -1.
</event>
<event>
 7    1  0.2404951E-015  0.9000762E+02  0.7816164E-02  0.1186339E+00
        -11   -1    0    0    0    0  0.00000000000E+00  0.00000000000E+00  0.45593999997E+02  0.45594000000E+02  0.51100000000E-03 0.  1.
         11   -1    0    0    0    0 -0.00000000000E+00 -0.00000000000E+00 -0.45593999997E+02  0.45594000000E+02  0.51100000000E-03 0. -1.
    9900012    2    1    2    0    0  0.71468566907E+00  0.14302403859E+00  0.92847698289E+00  0.90007618287E+02  0.89999878048E+02 0.  0.
         12    1    1    2    0    0 -0.71468566907E+00 -0.14302403859E+00 -0.92847698289E+00  0.11803817132E+01  0.00000000000E+00 0. -1.
         11    1    3    3    0    0 -0.25339625131E+01 -0.10529788369E+02  0.74655042133E+00  0.10856092616E+02  0.51100000000E-03 0. -1.
        -11    1    3    3    0    0 -0.35043505126E+02 -0.82000297194E+01  0.43778233477E+01  0.36255386861E+02  0.51100000000E-03 0.  1.
         12    1    3    3    0    0  0.38292153308E+02  0.18872842127E+02 -0.41958967862E+01  0.42896138809E+02  0.00000000000E+00 0. -1.
</event>
<event>
 7    1  0.2404951E-015  0.9000773E+02  0.7816164E-02  0.1186339E+00
        -11   -1    0    0    0    0  0.00000000000E+00  0.00000000000E+00  0.45593999997E+02  0.45594000000E+02  0.51100000000E-03 0.  1.
         11   -1    0    0    0    0 -0.00000000000E+00 -0.00000000000E+00 -0.45593999997E+02  0.45594000000E+02  0.51100000000E-03 0. -1.
    9900012    2    1    2    0    0  0.14857861633E+00 -0.55951683657E+00  0.10285443844E+01  0.90007729588E+02  0.89999990818E+02 0.  0.
         12    1    1    2    0    0 -0.14857861633E+00  0.55951683657E+00 -0.10285443844E+01  0.11802704124E+01  0.00000000000E+00 0. -1.
         11    1    3    3    0    0  0.13707800654E+01 -0.94501787068E+01 -0.37697577913E+02  0.38888202534E+02  0.51100000000E-03 0. -1.
        -11    1    3    3    0    0  0.98711596285E+01  0.68054685227E+01  0.13374289521E+01  0.12064116656E+02  0.51100000000E-03 0.  1.
        -12    1    3    3    0    0 -0.11093361078E+02  0.20851933475E+01  0.37388693345E+02  0.39055410398E+02  0.00000000000E+00 0.  1.
</event>
<event>
 7    1  0.2404951E-015  0.9000778E+02  0.7816164E-02  0.1186339E+00
        -11   -1    0    0    0    0  0.00000000000E+00  0.00000000000E+00  0.45593999997E+02  0.45594000000E+02  0.51100000000E-03 0. -1.
         11   -1    0    0    0    0 -0.00000000000E+00 -0.00000000000E+00 -0.45593999997E+02  0.45594000000E+02  0.51100000000E-03 0.  1.
    9900012    2    1    2    0    0 -0.14631629232E+00 -0.64494560912E+00 -0.97752718526E+00  0.90007778540E+02  0.90000040417E+02 0.  0.
         12    1    1    2    0    0  0.14631629232E+00  0.64494560912E+00  0.97752718526E+00  0.11802214597E+01  0.00000000000E+00 0. -1.
         11    1    3    3    0    0 -0.72595954426E+01  0.31871976659E+01  0.29715498849E+01  0.84669985196E+01  0.51100000000E-03 0. -1.
        -11    1    3    3    0    0 -0.28114347113E+02 -0.16788722469E+01  0.23618532214E+02  0.36756906696E+02  0.51100000000E-03 0.  1.
         12    1    3    3    0    0  0.35227626264E+02 -0.21532710281E+01 -0.27567609285E+02  0.44783873325E+02  0.00000000000E+00 0. -1.
</event>
<event>
 7    1  0.2404951E-015  0.9000773E+02  0.7816164E-02  0.1186339E+00
        -11   -1    0    0    0    0  0.00000000000E+00  0.00000000000E+00  0.45593999997E+02  0.45594000000E+02  0.51100000000E-03 0.  1.
         11   -1    0    0    0    0 -0.00000000000E+00 -0.00000000000E+00 -0.45593999997E+02  0.45594000000E+02  0.51100000000E-03 0. -1.
    9900012    2    1    2    0    0  0.14069769243E+00  0.10811860730E+01 -0.45196398289E+00  0.90007732824E+02  0.89999994097E+02 0.  0.
         12    1    1    2    0    0 -0.14069769243E+00 -0.10811860730E+01  0.45196398289E+00  0.11802671761E+01  0.00000000000E+00 0. -1.
         11    1    3    3    0    0  0.18091830769E+02 -0.74919863215E+01 -0.32366718565E+02  0.37829203938E+02  0.51100000000E-03 0. -1.
        -11    1    3    3    0    0  0.37842023922E+01  0.11763294277E+02 -0.12262043636E+01  0.12417683254E+02  0.51100000000E-03 0.  1.
        -12    1    3    3    0    0 -0.21735335469E+02 -0.31901218823E+01  0.33140958946E+02  0.39760845633E+02  0.00000000000E+00 0.  1.
</event>
<event>
 7    1  0.2404951E-015  0.9000787E+02  0.7816164E-02  0.1186339E+00
        -11   -1    0    0    0    0  0.00000000000E+00  0.00000000000E+00  0.45593999997E+02  0.45594000000E+02  0.51100000000E-03 0.  1.
         11   -1    0    0    0    0 -0.00000000000E+00 -0.00000000000E+00 -0.45593999997E+02  0.45594000000E+02  0.51100000000E-03 0. -1.
    9900012    2    1    2    0    0 -0.28204028411E+00  0.86030985215E+00  0.75698620551E+00  0.90007869550E+02  0.90000132628E+02 0.  0.
         12    1    1    2    0    0  0.28204028411E+00 -0.86030985215E+00 -0.75698620551E+00  0.11801304499E+01  0.00000000000E+00 0. -1.
         11    1    3    3    0    0  0.17981444395E+02  0.27081495753E+02  0.14870861690E+02  0.35747479385E+02  0.51100000000E-03 0. -1.
        -11    1    3    3    0    0 -0.80756209160E+01  0.33452332452E+01  0.11072308099E+02  0.14106815571E+02  0.51100000000E-03 0.  1.
        -12    1    3    3    0    0 -0.10187863763E+02 -0.29566419146E+02 -0.25186183583E+02  0.40153574594E+02  0.00000000000E+00 0.  1.
</event>
<event>
 7    1  0.2404951E-015  0.9000780E+02  0.7816164E-02  0.1186339E+00
        -11   -1    0    0    0    0  0.00000000000E+00  0.00000000000E+00  0.45593999997E+02  0.45594000000E+02  0.51100000000E-03 0.  1.
         11   -1    0    0    0    0 -0.00000000000E+00 -0.00000000000E+00 -0.45593999997E+02  0.45594000000E+02  0.51100000000E-03 0. -1.
    9900012    2    1    2    0    0 -0.43122569106E+00  0.61702978696E+00  0.90895665872E+00  0.90007795119E+02  0.90000057214E+02 0.  0.
         12    1    1    2    0    0  0.43122569106E+00 -0.61702978696E+00 -0.90895665872E+00  0.11802048814E+01  0.00000000000E+00 0. -1.
         11    1    3    3    0    0  0.15744548007E+01  0.64190674135E+01 -0.11421597966E+02  0.13196068912E+02  0.51100000000E-03 0. -1.
        -11    1    3    3    0    0  0.32411722256E+02 -0.23204046050E+01 -0.11868988525E+02  0.34594463517E+02  0.51100000000E-03 0.  1.
         12    1    3    3    0    0 -0.34417402748E+02 -0.34816330215E+01  0.24199543149E+02  0.42217262690E+02  0.00000000000E+00 0. -1.
</event>
<event>
 7    1  0.2404951E-015  0.9000768E+02  0.7816164E-02  0.1186339E+00
        -11   -1    0    0    0    0  0.00000000000E+00  0.00000000000E+00  0.45593999997E+02  0.45594000000E+02  0.51100000000E-03 0.  1.
         11   -1    0    0    0    0 -0.00000000000E+00 -0.00000000000E+00 -0.45593999997E+02  0.45594000000E+02  0.51100000000E-03 0. -1.
    9900012    2    1    2    0    0 -0.53384788644E-01  0.11777484276E+01 -0.56591452417E-01  0.90007684836E+02  0.89999945476E+02 0.  0.
         12    1    1    2    0    0  0.53384788644E-01 -0.11777484276E+01  0.56591452417E-01  0.11803151642E+01  0.00000000000E+00 0. -1.
         11    1    3    3    0    0 -0.89426100734E+01 -0.28074185199E+00 -0.39117078218E+01  0.97647605837E+01  0.51100000000E-03 0. -1.
        -11    1    3    3    0    0 -0.24057355838E+02  0.27544574973E+02  0.96471332958E+01  0.37822310367E+02  0.51100000000E-03 0.  1.
         12    1    3    3    0    0  0.32946581123E+02 -0.26086084694E+02 -0.57920169264E+01  0.42420613885E+02  0.00000000000E+00 0. -1.
</event>
<event>
 7    1  0.2404951E-015  0.9000784E+02  0.7816164E-02  0.1186339E+00
        -11   -1    0    0    0    0  0.00000000000E+00  0.00000000000E+00  0.45593999997E+02  0.45594000000E+02  0.51100000000E-03 0.  1.
         11   -1    0    0    0    0 -0.00000000000E+00 -0.00000000000E+00 -0.45593999997E+02  0.45594000000E+02  0.51100000000E-03 0. -1.
    9900012    2    1    2    0    0  0.63048451257E+00  0.44436718982E+00  0.89319259374E+00  0.90007844955E+02  0.90000107709E+02 0.  0.
         12    1    1    2    0    0 -0.63048451257E+00 -0.44436718982E+00 -0.89319259374E+00  0.11801550447E+01  0.00000000000E+00 0. -1.
         11    1    3    3    0    0 -0.42528171367E+01  0.73541580369E+01  0.32856725160E+01  0.91085530230E+01  0.51100000000E-03 0. -1.
        -11    1    3    3    0    0  0.26358642558E+02  0.15005722027E+02  0.25353169847E+02  0.39531417286E+02  0.51100000000E-03 0.  1.
         12    1    3    3    0    0 -0.21475340909E+02 -0.21915512874E+02 -0.27745649769E+02  0.41367874647E+02  0.00000000000E+00 0. -1.
</event>
<event>
 7    1  0.2404951E-015  0.9000770E+02  0.7816164E-02  0.1186339E+00
        -11   -1    0    0    0    0  0.00000000000E+00  0.00000000000E+00  0.45593999997E+02  0.45594000000E+02  0.51100000000E-03 0.  1.
         11   -1    0    0    0    0 -0.00000000000E+00 -0.00000000000E+00 -0.45593999997E+02  0.45594000000E+02  0.51100000000E-03 0. -1.
    9900012    2    1    2    0    0 -0.70625202781E+00 -0.57593179840E+00 -0.75008259428E+00  0.90007697809E+02  0.89999958620E+02 0.  0.
         12    1    1    2    0    0  0.70625202781E+00  0.57593179840E+00  0.75008259428E+00  0.11803021907E+01  0.00000000000E+00 0. -1.
         11    1    3    3    0    0 -0.43600703018E+01 -0.69554309734E+01 -0.23611530196E+01  0.85418544184E+01  0.51100000000E-03 0. -1.
        -11    1    3    3    0    0  0.38771418930E+02 -0.98197000596E+01 -0.97325907972E+01  0.41162759370E+02  0.51100000000E-03 0.  1.
         12    1    3    3    0    0 -0.35117600656E+02  0.16199199235E+02  0.11343661223E+02  0.40303084021E+02  0.00000000000E+00 0. -1.
</event>
<event>
 7    1  0.2404951E-015  0.9000813E+02  0.7816164E-02  0.1186338E+00
        -11   -1    0    0    0    0  0.00000000000E+00  0.00000000000E+00  0.45593999997E+02  0.45594000000E+02  0.51100000000E-03 0. -1.
         11   -1    0    0    0    0 -0.00000000000E+00 -0.00000000000E+00 -0.45593999997E+02  0.45594000000E+02  0.51100000000E-03 0.  1.
    9900012    2    1    2    0    0 -0.11102870738E+01  0.25051528188E-01  0.39839625827E+00  0.90008133675E+02  0.90000400239E+02 0.  0.
         12    1    1    2    0    0  0.11102870738E+01 -0.25051528188E-01 -0.39839625827E+00  0.11798663246E+01  0.00000000000E+00 0. -1.
         11    1    3    3    0    0 -0.10229576179E+02 -0.20336101130E+02 -0.27978944182E+02  0.36069690264E+02  0.51100000000E-03 0. -1.
        -11    1    3    3    0    0  0.75742175178E+01 -0.74237237295E+01 -0.39193675993E+01  0.11306718695E+02  0.51100000000E-03 0.  1.
        -12    1    3    3    0    0  0.15450715870E+01  0.27784876388E+02  0.32296708039E+02  0.42631724716E+02  0.00000000000E+00 0.  1.
</event>
<event>
 7    1  0.2404951E-015  0.9000779E+02  0.7816164E-02  0.1186339E+00
        -11   -1    0    0    0    0  0.00000000000E+00  0.00000000000E+00  0.45593999997E+02  0.45594000000E+02  0.51100000000E-03 0.  1.
         11   -1    0    0    0    0 -0.00000000000E+00 -0.00000000000E+00 -0.45593999997E+02  0.45594000000E+02  0.51100000000E-03 0. -1.
    9900012    2    1    2    0    0 -0.84369954283E+00  0.80879587609E+00 -0.16405855173E+00  0.90007790317E+02  0.90000052349E+02 0.  0.
         12    1    1    2    0    0  0.84369954283E+00 -0.80879587609E+00  0.16405855173E+00  0.11802096831E+01  0.00000000000E+00 0. -1.
         11    1    3    3    0    0  0.50413644481E+01 -0.22804915965E+01  0.89417211832E+01  0.10515244904E+02  0.51100000000E-03 0. -1.
        -11    1    3    3    0    0 -0.16255027563E+02 -0.26146346374E+02  0.20196629179E+02  0.36820662409E+02  0.51100000000E-03 0.  1.
         12    1    3    3    0    0  0.10369963572E+02  0.29235633846E+02 -0.29302408914E+02  0.42671883003E+02  0.00000000000E+00 0. -1.
</event>
<event>
 7    1  0.2404951E-015  0.9000770E+02  0.7816164E-02  0.1186339E+00
        -11   -1    0    0    0    0  0.00000000000E+00  0.00000000000E+00  0.45593999997E+02  0.45594000000E+02  0.51100000000E-03 0. -1.
         11   -1    0    0    0    0 -0.00000000000E+00 -0.00000000000E+00 -0.45593999997E+02  0.45594000000E+02  0.51100000000E-03 0.  1.
    9900012    2    1    2    0    0 -0.58050064650E+00  0.89560615139E+00  0.50399934874E+00  0.90007700579E+02  0.89999961427E+02 0.  0.
         12    1    1    2    0    0  0.58050064650E+00 -0.89560615139E+00 -0.50399934874E+00  0.11802994207E+01  0.00000000000E+00 0. -1.
         11    1    3    3    0    0  0.81325961126E+01 -0.47546147477E+01  0.45138712149E+01  0.10446076514E+02  0.51100000000E-03 0. -1.
        -11    1    3    3    0    0 -0.12362030400E+01  0.42104702658E+02 -0.43487602781E+01  0.42346734232E+02  0.51100000000E-03 0.  1.
         12    1    3    3    0    0 -0.74768937190E+01 -0.36454481759E+02  0.33888841193E+00  0.37214889834E+02  0.00000000000E+00 0. -1.
</event>
<event>
 7    1  0.2404951E-015  0.9000773E+02  0.7816164E-02  0.1186339E+00
        -11   -1    0    0    0    0  0.00000000000E+00  0.00000000000E+00  0.45593999997E+02  0.45594000000E+02  0.51100000000E-03 0. -1.
         11   -1    0    0    0    0 -0.00000000000E+00 -0.00000000000E+00 -0.45593999997E+02  0.45594000000E+02  0.51100000000E-03 0.  1.
    9900012    2    1    2    0    0 -0.61636750792E+00 -0.10065464785E+01 -0.79720827475E-03  0.90007726577E+02  0.89999987768E+02 0.  0.
         12    1    1    2    0    0  0.61636750792E+00  0.10065464785E+01  0.79720827475E-03  0.11802734233E+01  0.00000000000E+00 0. -1.
         11    1    3    3    0    0  0.65529283430E+01 -0.67316446563E+01 -0.12860745112E+01  0.94820829757E+01  0.51100000000E-03 0. -1.
        -11    1    3    3    0    0  0.27228830882E+02 -0.17387022751E+02 -0.15476876524E+02  0.35822499892E+02  0.51100000000E-03 0.  1.
         12    1    3    3    0    0 -0.34398126733E+02  0.23112120929E+02  0.16762153827E+02  0.44703143709E+02  0.00000000000E+00 0. -1.
</event>
<event>
 7    1  0.2404951E-015  0.9000769E+02  0.7816164E-02  0.1186339E+00
        -11   -1    0    0    0    0  0.00000000000E+00  0.00000000000E+00  0.45593999997E+02  0.45594000000E+02  0.51100000000E-03 0.  1.
         11   -1    0    0    0    0 -0.00000000000E+00 -0.00000000000E+00 -0.45593999997E+02  0.45594000000E+02  0.51100000000E-03 0. -1.
    9900012    2    1    2    0    0 -0.17898184680E+00 -0.66173086563E+00 -0.96083979493E+00  0.90007688451E+02  0.89999949139E+02 0.  0.
         12    1    1    2    0    0  0.17898184680E+00  0.66173086563E+00  0.96083979493E+00  0.11803115485E+01  0.00000000000E+00 0. -1.
         11    1    3    3    0    0 -0.39829630916E+00 -0.96136295654E+01  0.30887267459E+01  0.10105481015E+02  0.51100000000E-03 0. -1.
        -11    1    3    3    0    0  0.38422004720E+02 -0.35940760139E+01  0.43186351914E+01  0.38830637894E+02  0.51100000000E-03 0.  1.
         12    1    3    3    0    0 -0.38202690258E+02  0.12545974714E+02 -0.83682017322E+01  0.41071569542E+02  0.00000000000E+00 0. -1.
</event>
<event>
 7    1  0.2404951E-015  0.9000778E+02  0.7816164E-02  0.1186339E+00
        -11   -1    0    0    0    0  0.00000000000E+00  0.00000000000E+00  0.45593999997E+02  0.45594000000E+02  0.51100000000E-03 0.  1.
         11   -1    0    0    0    0 -0.00000000000E+00 -0.00000000000E+00 -0.45593999997E+02  0.45594000000E+02  0.51100000000E-03 0. -1.
    9900012    2    1    2    0    0  0.71012419089E-01  0.94083301965E+00  0.70901830450E+00  0.90007781168E+02  0.90000043080E+02 0.  0.
         12    1    1    2    0    0 -0.71012419089E-01 -0.94083301965E+00 -0.70901830450E+00  0.11802188317E+01  0.00000000000E+00 0. -1.
         11    1    3    3    0    0  0.21950111223E-01  0.22583856166E+01  0.27521105411E+02  0.27613620384E+02  0.51100000000E-03 0. -1.
        -11    1    3    3    0    0 -0.12437067301E+02 -0.17001842895E+02  0.77442887931E+01  0.22443647521E+02  0.51100000000E-03 0.  1.
         12    1    3    3    0    0  0.12486129609E+02  0.15684290298E+02 -0.34556375899E+02  0.39950513264E+02  0.00000000000E+00 0. -1.
</event>
<event>
 7    1  0.2404951E-015  0.9000735E+02  0.7816164E-02  0.1186340E+00
        -11   -1    0    0    0    0  0.00000000000E+00  0.00000000000E+00  0.45593999997E+02  0.45594000000E+02  0.51100000000E-03 0.  1.
         11   -1    0    0    0    0 -0.00000000000E+00 -0.00000000000E+00 -0.45593999997E+02  0.45594000000E+02  0.51100000000E-03 0. -1.
    9900012    2    1    2    0    0  0.10299669604E+00  0.10322176905E+01  0.56378015078E+00  0.90007351984E+02  0.89999608229E+02 0.  0.
         12    1    1    2    0    0 -0.10299669604E+00 -0.10322176905E+01 -0.56378015078E+00  0.11806480163E+01  0.00000000000E+00 0. -1.
         11    1    3    3    0    0  0.45416743618E+01  0.86585609921E+01  0.26312906081E+01  0.10125274070E+02  0.51100000000E-03 0. -1.
        -11    1    3    3    0    0  0.10049802105E+02  0.33506323304E+02 -0.79621342768E+01  0.35875727257E+02  0.51100000000E-03 0.  1.
         12    1    3    3    0    0 -0.14488479771E+02 -0.41132666606E+02  0.58946238195E+01  0.44006350657E+02  0.00000000000E+00 0. -1.
</event>
<event>
 7    1  0.2404951E-015  0.9000787E+02  0.7816164E-02  0.1186339E+00
        -11   -1    0    0    0    0  0.00000000000E+00  0.00000000000E+00  0.45593999997E+02  0.45594000000E+02  0.51100000000E-03 0.  1.
         11   -1    0    0    0    0 -0.00000000000E+00 -0.00000000000E+00 -0.45593999997E+02  0.45594000000E+02  0.51100000000E-03 0. -1.
    9900012    2    1    2    0    0  0.81287846795E+00 -0.31969703639E+00  0.79356214812E+00  0.90007865058E+02  0.90000128077E+02 0.  0.
         12    1    1    2    0    0 -0.81287846795E+00  0.31969703639E+00 -0.79356214812E+00  0.11801349421E+01  0.00000000000E+00 0. -1.
         11    1    3    3    0    0 -0.19036706263E+02  0.58228394823E+01  0.60448505024E+01  0.20804851906E+02  0.51100000000E-03 0. -1.
        -11    1    3    3    0    0 -0.17274124263E+02 -0.17803349674E+02  0.10870303198E+02  0.27083539661E+02  0.51100000000E-03 0.  1.
         12    1    3    3    0    0  0.37123708994E+02  0.11660813156E+02 -0.16121591552E+02  0.42119473491E+02  0.00000000000E+00 0. -1.
</event>
<event>
 7    1  0.2404951E-015  0.9000773E+02  0.7816164E-02  0.1186339E+00
        -11   -1    0    0    0    0  0.00000000000E+00  0.00000000000E+00  0.45593999997E+02  0.45594000000E+02  0.51100000000E-03 0.  1.
         11   -1    0    0    0    0 -0.00000000000E+00 -0.00000000000E+00 -0.45593999997E+02  0.45594000000E+02  0.51100000000E-03 0. -1.
    9900012    2    1    2    0    0 -0.10870954891E+00 -0.49687556655E+00  0.10650518264E+01  0.90007729485E+02  0.89999990715E+02 0.  0.
         12    1    1    2    0    0  0.10870954891E+00  0.49687556655E+00 -0.10650518264E+01  0.11802705146E+01  0.00000000000E+00 0. -1.
         11    1    3    3    0    0 -0.14819532097E+02  0.26528535758E+02 -0.14912441574E+02  0.33849116015E+02  0.51100000000E-03 0. -1.
        -11    1    3    3    0    0 -0.14490479081E+01  0.92818231238E+01 -0.56008290928E+01  0.10937150777E+02  0.51100000000E-03 0.  1.
        -12    1    3    3    0    0  0.16159870456E+02 -0.36307234449E+02  0.21578322493E+02  0.45221462693E+02  0.00000000000E+00 0.  1.
</event>
<event>
 7    1  0.2404951E-015  0.9000771E+02  0.7816164E-02  0.1186339E+00
        -11   -1    0    0    0    0  0.00000000000E+00  0.00000000000E+00  0.45593999997E+02  0.45594000000E+02  0.51100000000E-03 0.  1.
         11   -1    0    0    0    0 -0.00000000000E+00 -0.00000000000E+00 -0.45593999997E+02  0.45594000000E+02  0.51100000000E-03 0. -1.
    9900012    2    1    2    0    0 -0.57917154826E+00 -0.17878738387E+00  0.10127542806E+01  0.90007713660E+02  0.89999974681E+02 0.  0.
         12    1    1    2    0    0  0.57917154826E+00  0.17878738387E+00 -0.10127542806E+01  0.11802863398E+01  0.00000000000E+00 0. -1.
         11    1    3    3    0    0  0.28756187590E+02 -0.15805754348E+02 -0.13561967254E+02  0.35505874884E+02  0.51100000000E-03 0. -1.
        -11    1    3    3    0    0  0.61679289513E+01  0.12282535056E+01 -0.78896424618E+01  0.10089519942E+02  0.51100000000E-03 0.  1.
        -12    1    3    3    0    0 -0.35503288090E+02  0.14398713458E+02  0.22464363996E+02  0.44412318834E+02  0.00000000000E+00 0.  1.
</event>
<event>
 7    1  0.2404951E-015  0.9000768E+02  0.7816164E-02  0.1186339E+00
        -11   -1    0    0    0    0  0.00000000000E+00  0.00000000000E+00  0.45593999997E+02  0.45594000000E+02  0.51100000000E-03 0.  1.
         11   -1    0    0    0    0 -0.00000000000E+00 -0.00000000000E+00 -0.45593999997E+02  0.45594000000E+02  0.51100000000E-03 0. -1.
    9900012    2    1    2    0    0  0.63416265288E+00 -0.99256477798E+00 -0.76276894564E-01  0.90007675776E+02  0.89999936296E+02 0.  0.
         12    1    1    2    0    0 -0.63416265288E+00  0.99256477798E+00  0.76276894564E-01  0.11803242239E+01  0.00000000000E+00 0. -1.
         11    1    3    3    0    0 -0.10670561531E+02 -0.38536117318E+02 -0.54280304596E+01  0.40352902452E+02  0.51100000000E-03 0. -1.
        -11    1    3    3    0    0  0.69597785136E+01  0.19042918356E+01  0.11155362648E+02  0.13285592212E+02  0.51100000000E-03 0.  1.
        -12    1    3    3    0    0  0.43449456708E+01  0.35639260704E+02 -0.58036090826E+01  0.36369181113E+02  0.00000000000E+00 0.  1.
</event>
<event>
 7    1  0.2404951E-015  0.9000762E+02  0.7816164E-02  0.1186339E+00
        -11   -1    0    0    0    0  0.00000000000E+00  0.00000000000E+00  0.45593999997E+02  0.45594000000E+02  0.51100000000E-03 0.  1.
         11   -1    0    0    0    0 -0.00000000000E+00 -0.00000000000E+00 -0.45593999997E+02  0.45594000000E+02  0.51100000000E-03 0. -1.
    9900012    2    1    2    0    0 -0.93849886062E+00 -0.12371945320E+00  0.70513372299E+00  0.90007618629E+02  0.89999878394E+02 0.  0.
         12    1    1    2    0    0  0.93849886062E+00  0.12371945320E+00 -0.70513372299E+00  0.11803813713E+01  0.00000000000E+00 0. -1.
         11    1    3    3    0    0 -0.16559502747E+02 -0.47987566299E+01 -0.33109295514E+02  0.37329219736E+02  0.51100000000E-03 0. -1.
        -11    1    3    3    0    0  0.15019717918E+01 -0.11603368957E+02 -0.99141388452E+00  0.11742103396E+02  0.51100000000E-03 0.  1.
        -12    1    3    3    0    0  0.14119032095E+02  0.16278406134E+02  0.34805843122E+02  0.40936295496E+02  0.00000000000E+00 0.  1.
</event>
<event>
 7    1  0.2404951E-015  0.9000789E+02  0.7816164E-02  0.1186339E+00
        -11   -1    0    0    0    0  0.00000000000E+00  0.00000000000E+00  0.45593999997E+02  0.45594000000E+02  0.51100000000E-03 0. -1.
         11   -1    0    0    0    0 -0.00000000000E+00 -0.00000000000E+00 -0.45593999997E+02  0.45594000000E+02  0.51100000000E-03 0.  1.
    9900012    2    1    2    0    0  0.24502804735E+00 -0.97347948771E+00 -0.62044806676E+00  0.90007891166E+02  0.90000154529E+02 0.  0.
         12    1    1    2    0    0 -0.24502804735E+00  0.97347948771E+00  0.62044806676E+00  0.11801088342E+01  0.00000000000E+00 0. -1.
         11    1    3    3    0    0  0.72712575335E+01 -0.48370890617E+01 -0.44301832327E+01  0.97926064174E+01  0.51100000000E-03 0. -1.
        -11    1    3    3    0    0 -0.17208761495E+02  0.39482979259E+02  0.26227447801E+01  0.43150039558E+02  0.51100000000E-03 0.  1.
         12    1    3    3    0    0  0.10182532009E+02 -0.35619369685E+02  0.11869903858E+01  0.37065245191E+02  0.00000000000E+00 0. -1.
</event>
<event>
 7    1  0.2404951E-015  0.9000767E+02  0.7816164E-02  0.1186339E+00
        -11   -1    0    0    0    0  0.00000000000E+00  0.00000000000E+00  0.45593999997E+02  0.45594000000E+02  0.51100000000E-03 0.  1.
         11   -1    0    0    0    0 -0.00000000000E+00 -0.00000000000E+00 -0.45593999997E+02  0.45594000000E+02  0.51100000000E-03 0. -1.
    9900012    2    1    2    0    0 -0.74018568613E+00 -0.19852596094E+00  0.89771142386E+00  0.90007672415E+02  0.89999932891E+02 0.  0.
         12    1    1    2    0    0  0.74018568613E+00  0.19852596094E+00 -0.89771142386E+00  0.11803275849E+01  0.00000000000E+00 0. -1.
         11    1    3    3    0    0  0.28820004670E+02 -0.52261359034E+01  0.83637649684E+01  0.30460757219E+02  0.51100000000E-03 0. -1.
        -11    1    3    3    0    0  0.12271311755E+02  0.13828002770E+01  0.80956301837E+01  0.14766057603E+02  0.51100000000E-03 0.  1.
         12    1    3    3    0    0 -0.41831502111E+02  0.36448096654E+01 -0.15561683728E+02  0.44780857593E+02  0.00000000000E+00 0. -1.
</event>
<event>
 7    1  0.2404951E-015  0.9000770E+02  0.7816164E-02  0.1186339E+00
        -11   -1    0    0    0    0  0.00000000000E+00  0.00000000000E+00  0.45593999997E+02  0.45594000000E+02  0.51100000000E-03 0. -1.
         11   -1    0    0    0    0 -0.00000000000E+00 -0.00000000000E+00 -0.45593999997E+02  0.45594000000E+02  0.51100000000E-03 0.  1.
    9900012    2    1    2    0    0 -0.31455214031E+00  0.16214560769E+00 -0.11259938367E+01  0.90007704966E+02  0.89999965872E+02 0.  0.
         12    1    1    2    0    0  0.31455214031E+00 -0.16214560769E+00  0.11259938367E+01  0.11802950340E+01  0.00000000000E+00 0. -1.
         11    1    3    3    0    0 -0.30428533691E+02  0.10160238021E+02 -0.10409950393E+02  0.33726742604E+02  0.51100000000E-03 0. -1.
        -11    1    3    3    0    0 -0.12764055237E+01 -0.14326905708E+02 -0.11474184159E+02  0.18399628817E+02  0.51100000000E-03 0.  1.
        -12    1    3    3    0    0  0.31390387074E+02  0.43288132942E+01  0.20758140715E+02  0.37881333545E+02  0.00000000000E+00 0.  1.
</event>
<event>
 7    1  0.2404951E-015  0.9000780E+02  0.7816164E-02  0.1186339E+00
        -11   -1    0    0    0    0  0.00000000000E+00  0.00000000000E+00  0.45593999997E+02  0.45594000000E+02  0.51100000000E-03 0.  1.
         11   -1    0    0    0    0 -0.00000000000E+00 -0.00000000000E+00 -0.45593999997E+02  0.45594000000E+02  0.51100000000E-03 0. -1.
    9900012    2    1    2    0    0  0.35848521210E+00 -0.34886752515E+00 -0.10689437580E+01  0.90007804696E+02  0.90000066918E+02 0.  0.
         12    1    1    2    0    0 -0.35848521210E+00  0.34886752515E+00  0.10689437580E+01  0.11801953038E+01  0.00000000000E+00 0. -1.
         11    1    3    3    0    0 -0.78352820336E+01  0.87975752146E+01 -0.20558029187E+01  0.11958900455E+02  0.51100000000E-03 0. -1.
        -11    1    3    3    0    0 -0.18464301897E+02 -0.54946591858E+01  0.31775816006E+02  0.37159443042E+02  0.51100000000E-03 0.  1.
         12    1    3    3    0    0  0.26658069143E+02 -0.36517835539E+01 -0.30788956845E+02  0.40889461199E+02  0.00000000000E+00 0. -1.
</event>
<event>
 7    1  0.2404951E-015  0.9000730E+02  0.7816164E-02  0.1186340E+00
        -11   -1    0    0    0    0  0.00000000000E+00  0.00000000000E+00  0.45593999997E+02  0.45594000000E+02  0.51100000000E-03 0.  1.
         11   -1    0    0    0    0 -0.00000000000E+00 -0.00000000000E+00 -0.45593999997E+02  0.45594000000E+02  0.51100000000E-03 0. -1.
    9900012    2    1    2    0    0 -0.53195351554E+00  0.22341722012E+00  0.10301237170E+01  0.90007303312E+02  0.89999558915E+02 0.  0.
         12    1    1    2    0    0  0.53195351554E+00 -0.22341722012E+00 -0.10301237170E+01  0.11806966880E+01  0.00000000000E+00 0. -1.
         11    1    3    3    0    0  0.25479953900E+01  0.85316158174E+01  0.41333011666E+01  0.98165639486E+01  0.51100000000E-03 0. -1.
        -11    1    3    3    0    0 -0.62121021937E+01  0.25590043074E+02  0.24800684190E+02  0.36173394294E+02  0.51100000000E-03 0.  1.
         12    1    3    3    0    0  0.31321532882E+01 -0.33898241671E+02 -0.27903861639E+02  0.44017345070E+02  0.00000000000E+00 0. -1.
</event>
<event>
 7    1  0.2404951E-015  0.9000776E+02  0.7816164E-02  0.1186339E+00
        -11   -1    0    0    0    0  0.00000000000E+00  0.00000000000E+00  0.45593999997E+02  0.45594000000E+02  0.51100000000E-03 0.  1.
         11   -1    0    0    0    0 -0.00000000000E+00 -0.00000000000E+00 -0.45593999997E+02  0.45594000000E+02  0.51100000000E-03 0. -1.
    9900012    2    1    2    0    0 -0.20193928690E+00 -0.10506369619E+01  0.49834697717E+00  0.90007759681E+02  0.90000021309E+02 0.  0.
         12    1    1    2    0    0  0.20193928690E+00  0.10506369619E+01 -0.49834697717E+00  0.11802403191E+01  0.00000000000E+00 0. -1.
         11    1    3    3    0    0  0.33338801142E+01 -0.72068498877E+01 -0.22571064721E+01  0.82551784843E+01  0.51100000000E-03 0. -1.
        -11    1    3    3    0    0 -0.30684463505E+02 -0.21821045669E+02  0.15529038100E+02  0.40728925338E+02  0.51100000000E-03 0.  1.
         12    1    3    3    0    0  0.27148644103E+02  0.27977258595E+02 -0.12773584651E+02  0.41023655858E+02  0.00000000000E+00 0. -1.
</event>
<event>
 7    1  0.2404951E-015  0.9000799E+02  0.7816164E-02  0.1186339E+00
        -11   -1    0    0    0    0  0.00000000000E+00  0.00000000000E+00  0.45593999997E+02  0.45594000000E+02  0.51100000000E-03 0. -1.
         11   -1    0    0    0    0 -0.00000000000E+00 -0.00000000000E+00 -0.45593999997E+02  0.45594000000E+02  0.51100000000E-03 0.  1.
    9900012    2    1    2    0    0  0.76258214347E-01 -0.10903108683E+01  0.44478817142E+00  0.90007987448E+02  0.90000252082E+02 0.  0.
         12    1    1    2    0    0 -0.76258214347E-01  0.10903108683E+01 -0.44478817142E+00  0.11800125517E+01  0.00000000000E+00 0. -1.
         11    1    3    3    0    0  0.34310808172E+02 -0.33382571955E+01  0.16798478144E+02  0.38347938494E+02  0.51100000000E-03 0. -1.
        -11    1    3    3    0    0  0.64127235675E+01  0.30388426781E+01  0.15073112325E+01  0.72546244416E+01  0.51100000000E-03 0.  1.
        -12    1    3    3    0    0 -0.40647273525E+02 -0.79089635086E+00 -0.17861001205E+02  0.44405424513E+02  0.00000000000E+00 0.  1.
</event>
<event>
 7    1  0.2404951E-015  0.9000785E+02  0.7816164E-02  0.1186339E+00
        -11   -1    0    0    0    0  0.00000000000E+00  0.00000000000E+00  0.45593999997E+02  0.45594000000E+02  0.51100000000E-03 0.  1.
         11   -1    0    0    0    0 -0.00000000000E+00 -0.00000000000E+00 -0.45593999997E+02  0.45594000000E+02  0.51100000000E-03 0. -1.
    9900012    2    1    2    0    0  0.79299809351E+00  0.80288601403E+00  0.34536046505E+00  0.90007853493E+02  0.90000116359E+02 0.  0.
         12    1    1    2    0    0 -0.79299809351E+00 -0.80288601403E+00 -0.34536046505E+00  0.11801465073E+01  0.00000000000E+00 0. -1.
         11    1    3    3    0    0 -0.25076753679E+02 -0.11479826143E+02 -0.25906032500E+02  0.37838505566E+02  0.51100000000E-03 0. -1.
        -11    1    3    3    0    0  0.27629787644E+01 -0.60056892990E+01 -0.56817463682E+01  0.87169144577E+01  0.51100000000E-03 0.  1.
        -12    1    3    3    0    0  0.23106773008E+02  0.18288401456E+02  0.31933139333E+02  0.43452433469E+02  0.00000000000E+00 0.  1.
</event>
<event>
 7    1  0.2404951E-015  0.9000788E+02  0.7816164E-02  0.1186339E+00
        -11   -1    0    0    0    0  0.00000000000E+00  0.00000000000E+00  0.45593999997E+02  0.45594000000E+02  0.51100000000E-03 0.  1.
         11   -1    0    0    0    0 -0.00000000000E+00 -0.00000000000E+00 -0.45593999997E+02  0.45594000000E+02  0.51100000000E-03 0. -1.
    9900012    2    1    2    0    0 -0.11058605943E+01 -0.38314216185E+00  0.15154709677E+00  0.90007876238E+02  0.90000139405E+02 0.  0.
         12    1    1    2    0    0  0.11058605943E+01  0.38314216185E+00 -0.15154709677E+00  0.11801237616E+01  0.00000000000E+00 0. -1.
         11    1    3    3    0    0 -0.68722919325E+01 -0.37720135380E+02  0.61347711957E+01  0.38828757737E+02  0.51100000000E-03 0. -1.
        -11    1    3    3    0    0  0.85683350198E+00 -0.65751733987E+01 -0.11506423724E+01  0.67298623317E+01  0.51100000000E-03 0.  1.
        -12    1    3    3    0    0  0.49095978363E+01  0.43912166617E+02 -0.48325817266E+01  0.44449256170E+02  0.00000000000E+00 0.  1.
</event>
<event>
 7    1  0.2815613E-015  0.9000776E+02  0.7816164E-02  0.1186339E+00
        -11   -1    0    0    0    0  0.00000000000E+00  0.00000000000E+00  0.45593999997E+02  0.45594000000E+02  0.51100000000E-03 0. -1.
         11   -1    0    0    0    0 -0.00000000000E+00 -0.00000000000E+00 -0.45593999997E+02  0.45594000000E+02  0.51100000000E-03 0.  1.
    9900012    2    1    2    0    0  0.10556497756E+01 -0.51942666722E+00 -0.93563795524E-01  0.90007764983E+02  0.90000026681E+02 0.  0.
         12    1    1    2    0    0 -0.10556497756E+01  0.51942666722E+00  0.93563795524E-01  0.11802350169E+01  0.00000000000E+00 0. -1.
         11    1    3    3    0    0 -0.72174694188E+01 -0.19121418451E+02  0.36533515352E+02  0.41861894995E+02  0.51100000000E-03 0. -1.
        -11    1    3    3    0    0 -0.35031211518E+01 -0.41984867235E+01 -0.81228522151E+01  0.97918270482E+01  0.51100000000E-03 0.  1.
        -12    1    3    3    0    0  0.11776240346E+02  0.22800478507E+02 -0.28504226932E+02  0.38354042940E+02  0.00000000000E+00 0.  1.
</event>
<event>
 7    1  0.2404951E-015  0.9000771E+02  0.7816164E-02  0.1186339E+00
        -11   -1    0    0    0    0  0.00000000000E+00  0.00000000000E+00  0.45593999997E+02  0.45594000000E+02  0.51100000000E-03 0. -1.
         11   -1    0    0    0    0 -0.00000000000E+00 -0.00000000000E+00 -0.45593999997E+02  0.45594000000E+02  0.51100000000E-03 0.  1.
    9900012    2    1    2    0    0 -0.66081970708E+00  0.17125967312E+00 -0.96284551251E+00  0.90007710187E+02  0.89999971162E+02 0.  0.
         12    1    1    2    0    0  0.66081970708E+00 -0.17125967312E+00  0.96284551251E+00  0.11802898127E+01  0.00000000000E+00 0. -1.
         11    1    3    3    0    0 -0.53187010526E+01 -0.65004089198E+01 -0.85095610335E+00  0.84420390642E+01  0.51100000000E-03 0. -1.
        -11    1    3    3    0    0 -0.29656048698E+02 -0.18599267125E+02  0.12423254070E+02  0.37145002408E+02  0.51100000000E-03 0.  1.
         12    1    3    3    0    0  0.34313930043E+02  0.25270935718E+02 -0.12535143479E+02  0.44420668715E+02  0.00000000000E+00 0. -1.
</event>
<event>
 7    1  0.2404951E-015  0.9000770E+02  0.7816164E-02  0.1186339E+00
        -11   -1    0    0    0    0  0.00000000000E+00  0.00000000000E+00  0.45593999997E+02  0.45594000000E+02  0.51100000000E-03 0.  1.
         11   -1    0    0    0    0 -0.00000000000E+00 -0.00000000000E+00 -0.45593999997E+02  0.45594000000E+02  0.51100000000E-03 0. -1.
    9900012    2    1    2    0    0 -0.17310495866E+00 -0.10958699892E+00  0.11623811397E+01  0.90007701499E+02  0.89999962359E+02 0.  0.
         12    1    1    2    0    0  0.17310495866E+00  0.10958699892E+00 -0.11623811397E+01  0.11802985008E+01  0.00000000000E+00 0. -1.
         11    1    3    3    0    0  0.26730222894E+02 -0.13160881738E+02 -0.23187230434E+02  0.37753957138E+02  0.51100000000E-03 0. -1.
        -11    1    3    3    0    0  0.71525243131E+01 -0.37818423687E+01  0.27028430310E+01  0.85303163167E+01  0.51100000000E-03 0.  1.
        -12    1    3    3    0    0 -0.34055852166E+02  0.16833137108E+02  0.21646768543E+02  0.43723428045E+02  0.00000000000E+00 0.  1.
</event>
<event>
 7    1  0.2404951E-015  0.9000748E+02  0.7816164E-02  0.1186340E+00
        -11   -1    0    0    0    0  0.00000000000E+00  0.00000000000E+00  0.45593999997E+02  0.45594000000E+02  0.51100000000E-03 0. -1.
         11   -1    0    0    0    0 -0.00000000000E+00 -0.00000000000E+00 -0.45593999997E+02  0.45594000000E+02  0.51100000000E-03 0.  1.
    9900012    2    1    2    0    0 -0.40152772324E+00  0.24306191005E+00 -0.10832002432E+01  0.90007480465E+02  0.89999738407E+02 0.  0.
         12    1    1    2    0    0  0.40152772324E+00 -0.24306191005E+00  0.10832002432E+01  0.11805195346E+01  0.00000000000E+00 0. -1.
         11    1    3    3    0    0  0.68944163011E+01  0.61540031761E+01 -0.28590518532E+01  0.96736192289E+01  0.51100000000E-03 0. -1.
        -11    1    3    3    0    0  0.25314709892E+02 -0.19306796925E+02 -0.21203207536E+02  0.38251313108E+02  0.51100000000E-03 0.  1.
         12    1    3    3    0    0 -0.32610653917E+02  0.13395855659E+02  0.22979059146E+02  0.42082548128E+02  0.00000000000E+00 0. -1.
</event>
<event>
 7    1  0.2404951E-015  0.9000807E+02  0.7816164E-02  0.1186338E+00
        -11   -1    0    0    0    0  0.00000000000E+00  0.00000000000E+00  0.45593999997E+02  0.45594000000E+02  0.51100000000E-03 0.  1.
         11   -1    0    0    0    0 -0.00000000000E+00 -0.00000000000E+00 -0.45593999997E+02  0.45594000000E+02  0.51100000000E-03 0. -1.
    9900012    2    1    2    0    0 -0.42519732233E+00  0.87602071546E+00  0.66635536828E+00  0.90008070115E+02  0.90000335840E+02 0.  0.
         12    1    1    2    0    0  0.42519732233E+00 -0.87602071546E+00 -0.66635536828E+00  0.11799298851E+01  0.00000000000E+00 0. -1.
         11    1    3    3    0    0 -0.10317702521E+02  0.62779348914E+01 -0.78091312108E+01  0.14382280151E+02  0.51100000000E-03 0. -1.
        -11    1    3    3    0    0 -0.84911897715E+01 -0.37022553787E+02 -0.40866233854E+00  0.37986007922E+02  0.51100000000E-03 0.  1.
         12    1    3    3    0    0  0.18383694971E+02  0.31620639611E+02  0.88841489177E+01  0.37639782042E+02  0.00000000000E+00 0. -1.
</event>
<event>
 7    1  0.2404951E-015  0.9000781E+02  0.7816164E-02  0.1186339E+00
        -11   -1    0    0    0    0  0.00000000000E+00  0.00000000000E+00  0.45593999997E+02  0.45594000000E+02  0.51100000000E-03 0. -1.
         11   -1    0    0    0    0 -0.00000000000E+00 -0.00000000000E+00 -0.45593999997E+02  0.45594000000E+02  0.51100000000E-03 0.  1.
    9900012    2    1    2    0    0  0.19982816208E-01  0.10180518073E+01 -0.59666992558E+00  0.90007811966E+02  0.90000074284E+02 0.  0.
         12    1    1    2    0    0 -0.19982816208E-01 -0.10180518073E+01  0.59666992558E+00  0.11801880339E+01  0.00000000000E+00 0. -1.
         11    1    3    3    0    0 -0.32503938143E+02 -0.14825759642E+02 -0.35754620825E+01  0.35903942306E+02  0.51100000000E-03 0. -1.
        -11    1    3    3    0    0  0.58330358209E+01  0.21578984471E+02 -0.92478385891E+01  0.24190894909E+02  0.51100000000E-03 0.  1.
        -12    1    3    3    0    0  0.26690885138E+02 -0.57351730217E+01  0.12226630746E+02  0.29912974751E+02  0.00000000000E+00 0.  1.
</event>
<event>
 7    1  0.2404951E-015  0.9000770E+02  0.7816164E-02  0.1186339E+00
        -11   -1    0    0    0    0  0.00000000000E+00  0.00000000000E+00  0.45593999997E+02  0.45594000000E+02  0.51100000000E-03 0.  1.
         11   -1    0    0    0    0 -0.00000000000E+00 -0.00000000000E+00 -0.45593999997E+02  0.45594000000E+02  0.51100000000E-03 0. -1.
    9900012    2    1    2    0    0 -0.70872435862E-01 -0.24373070118E-01  0.11779142618E+01  0.90007703869E+02  0.89999964760E+02 0.  0.
         12    1    1    2    0    0  0.70872435862E-01  0.24373070118E-01 -0.11779142618E+01  0.11802961310E+01  0.00000000000E+00 0. -1.
         11    1    3    3    0    0  0.11262946149E+02  0.34583439028E+02 -0.16612280891E+02  0.39985448449E+02  0.51100000000E-03 0. -1.
        -11    1    3    3    0    0  0.91520247499E+01 -0.50291362623E+01  0.15896179205E+01  0.10563079757E+02  0.51100000000E-03 0.  1.
        -12    1    3    3    0    0 -0.20485843335E+02 -0.29578675836E+02  0.16200577233E+02  0.39459175663E+02  0.00000000000E+00 0.  1.
</event>
<event>
 7    1  0.2404951E-015  0.9000766E+02  0.7816164E-02  0.1186339E+00
        -11   -1    0    0    0    0  0.00000000000E+00  0.00000000000E+00  0.45593999997E+02  0.45594000000E+02  0.51100000000E-03 0. -1.
         11   -1    0    0    0    0 -0.00000000000E+00 -0.00000000000E+00 -0.45593999997E+02  0.45594000000E+02  0.51100000000E-03 0.  1.
    9900012    2    1    2    0    0  0.24335994084E+00  0.39209458821E+00 -0.10863905292E+01  0.90007658266E+02  0.89999918555E+02 0.  0.
         12    1    1    2    0    0 -0.24335994084E+00 -0.39209458821E+00  0.10863905292E+01  0.11803417339E+01  0.00000000000E+00 0. -1.
         11    1    3    3    0    0 -0.59011567923E+01  0.50538422308E+01 -0.60061898707E+01  0.98203507985E+01  0.51100000000E-03 0. -1.
        -11    1    3    3    0    0  0.19736557674E+02  0.17196853530E+02 -0.28044850575E+02  0.38363747525E+02  0.51100000000E-03 0.  1.
         12    1    3    3    0    0 -0.13592040941E+02 -0.21858601173E+02  0.32964649916E+02  0.41823559943E+02  0.00000000000E+00 0. -1.
</event>
<event>
 7    1  0.2404951E-015  0.9000769E+02  0.7816164E-02  0.1186339E+00
        -11   -1    0    0    0    0  0.00000000000E+00  0.00000000000E+00  0.45593999997E+02  0.45594000000E+02  0.51100000000E-03 0.  1.
         11   -1    0    0    0    0 -0.00000000000E+00 -0.00000000000E+00 -0.45593999997E+02  0.45594000000E+02  0.51100000000E-03 0. -1.
    9900012    2    1    2    0    0 -0.25590366072E+00  0.63092088908E+00  0.96414833518E+00  0.90007690776E+02  0.89999951494E+02 0.  0.
         12    1    1    2    0    0  0.25590366072E+00 -0.63092088908E+00 -0.96414833518E+00  0.11803092239E+01  0.00000000000E+00 0. -1.
         11    1    3    3    0    0  0.47867088350E+01  0.34364680292E+02  0.98970357181E+01  0.36080398408E+02  0.51100000000E-03 0. -1.
        -11    1    3    3    0    0  0.52486326230E+00  0.56666487671E+01  0.87061731440E+01  0.10401146128E+02  0.51100000000E-03 0.  1.
        -12    1    3    3    0    0 -0.55674757580E+01 -0.39400408170E+02 -0.17639060527E+02  0.43526146240E+02  0.00000000000E+00 0.  1.
</event>
<event>
 7    1  0.2404951E-015  0.9000774E+02  0.7816164E-02  0.1186339E+00
        -11   -1    0    0    0    0  0.00000000000E+00  0.00000000000E+00  0.45593999997E+02  0.45594000000E+02  0.51100000000E-03 0.  1.
         11   -1    0    0    0    0 -0.00000000000E+00 -0.00000000000E+00 -0.45593999997E+02  0.45594000000E+02  0.51100000000E-03 0. -1.
    9900012    2    1    2    0    0  0.35834893351E+00 -0.52402569444E+00  0.99498244246E+00  0.90007742847E+02  0.90000004253E+02 0.  0.
         12    1    1    2    0    0 -0.35834893351E+00  0.52402569444E+00 -0.99498244246E+00  0.11802571531E+01  0.00000000000E+00 0. -1.
         11    1    3    3    0    0  0.36575353217E+02 -0.78758723593E+01  0.18751170753E+02  0.41849638388E+02  0.51100000000E-03 0. -1.
        -11    1    3    3    0    0 -0.42977386195E+01  0.69667895340E+01  0.44071869036E+01  0.92967741888E+01  0.51100000000E-03 0.  1.
        -12    1    3    3    0    0 -0.31919265664E+02  0.38505713090E+00 -0.22163375214E+02  0.38861330270E+02  0.00000000000E+00 0.  1.
</event>
<event>
 7    1  0.2404951E-015  0.9000776E+02  0.7816164E-02  0.1186339E+00
        -11   -1    0    0    0    0  0.00000000000E+00  0.00000000000E+00  0.45593999997E+02  0.45594000000E+02  0.51100000000E-03 0.  1.
         11   -1    0    0    0    0 -0.00000000000E+00 -0.00000000000E+00 -0.45593999997E+02  0.45594000000E+02  0.51100000000E-03 0. -1.
    9900012    2    1    2    0    0  0.10393475608E+01  0.47709923607E+00  0.29171746770E+00  0.90007760145E+02  0.90000021779E+02 0.  0.
         12    1    1    2    0    0 -0.10393475608E+01 -0.47709923607E+00 -0.29171746770E+00  0.11802398545E+01  0.00000000000E+00 0. -1.
         11    1    3    3    0    0 -0.94109030923E+01  0.48155492173E+00 -0.16508651536E+00  0.94246615841E+01  0.51100000000E-03 0. -1.
        -11    1    3    3    0    0 -0.33653953566E+02 -0.29933694463E+01 -0.98475077755E+01  0.35192644983E+02  0.51100000000E-03 0.  1.
         12    1    3    3    0    0  0.44104204219E+02  0.29889137606E+01  0.10304311759E+02  0.45390453578E+02  0.00000000000E+00 0. -1.
</event>
<event>
 7    1  0.2404951E-015  0.9000770E+02  0.7816164E-02  0.1186339E+00
        -11   -1    0    0    0    0  0.00000000000E+00  0.00000000000E+00  0.45593999997E+02  0.45594000000E+02  0.51100000000E-03 0.  1.
         11   -1    0    0    0    0 -0.00000000000E+00 -0.00000000000E+00 -0.45593999997E+02  0.45594000000E+02  0.51100000000E-03 0. -1.
    9900012    2    1    2    0    0  0.91857504125E-01  0.52708093054E+00  0.10520772391E+01  0.90007695537E+02  0.89999956318E+02 0.  0.
         12    1    1    2    0    0 -0.91857504125E-01 -0.52708093054E+00 -0.10520772391E+01  0.11803044630E+01  0.00000000000E+00 0. -1.
         11    1    3    3    0    0 -0.37877952611E+02  0.77536949574E+01 -0.40229534763E+01  0.38872139566E+02  0.51100000000E-03 0. -1.
        -11    1    3    3    0    0  0.58354459580E+01  0.96437393457E+01  0.92783140279E+01  0.14599357847E+02  0.51100000000E-03 0.  1.
        -12    1    3    3    0    0  0.32134364157E+02 -0.16870353373E+02 -0.42032833125E+01  0.36536198123E+02  0.00000000000E+00 0.  1.
</event>
<event>
 7    1  0.2404951E-015  0.9000835E+02  0.7816164E-02  0.1186338E+00
        -11   -1    0    0    0    0  0.00000000000E+00  0.00000000000E+00  0.45593999997E+02  0.45594000000E+02  0.51100000000E-03 0.  1.
         11   -1    0    0    0    0 -0.00000000000E+00 -0.00000000000E+00 -0.45593999997E+02  0.45594000000E+02  0.51100000000E-03 0. -1.
    9900012    2    1    2    0    0  0.10911258312E+01  0.41986277071E+00  0.15726763715E+00  0.90008350291E+02  0.90000619713E+02 0.  0.
         12    1    1    2    0    0 -0.10911258312E+01 -0.41986277071E+00 -0.15726763715E+00  0.11796497088E+01  0.00000000000E+00 0. -1.
         11    1    3    3    0    0  0.37101209248E+01  0.34696833204E+02 -0.12444858914E+01  0.34916815105E+02  0.51100000000E-03 0. -1.
        -11    1    3    3    0    0  0.44932562671E+01  0.78224966849E+01  0.77914499378E+01  0.11920046085E+02  0.51100000000E-03 0.  1.
        -12    1    3    3    0    0 -0.71122513607E+01 -0.42099467118E+02 -0.63896964093E+01  0.43171489102E+02  0.00000000000E+00 0.  1.
</event>
<event>
 7    1  0.2404951E-015  0.9000779E+02  0.7816164E-02  0.1186339E+00
        -11   -1    0    0    0    0  0.00000000000E+00  0.00000000000E+00  0.45593999997E+02  0.45594000000E+02  0.51100000000E-03 0.  1.
         11   -1    0    0    0    0 -0.00000000000E+00 -0.00000000000E+00 -0.45593999997E+02  0.45594000000E+02  0.51100000000E-03 0. -1.
    9900012    2    1    2    0    0 -0.24807890458E+00  0.26494983521E+00  0.11230153916E+01  0.90007785982E+02  0.90000047957E+02 0.  0.
         12    1    1    2    0    0  0.24807890458E+00 -0.26494983521E+00 -0.11230153916E+01  0.11802140179E+01  0.00000000000E+00 0. -1.
         11    1    3    3    0    0 -0.27793925740E+00  0.37825901543E+02  0.11440336620E+02  0.39519076153E+02  0.51100000000E-03 0. -1.
        -11    1    3    3    0    0 -0.13419323060E+01  0.31407552642E+01 -0.91285274235E+01  0.97465449841E+01  0.51100000000E-03 0.  1.
        -12    1    3    3    0    0  0.13717926588E+01 -0.40701706972E+02 -0.11887938047E+01  0.40742164845E+02  0.00000000000E+00 0.  1.
</event>
<event>
 7    1  0.2404951E-015  0.9000769E+02  0.7816164E-02  0.1186339E+00
        -11   -1    0    0    0    0  0.00000000000E+00  0.00000000000E+00  0.45593999997E+02  0.45594000000E+02  0.51100000000E-03 0.  1.
         11   -1    0    0    0    0 -0.00000000000E+00 -0.00000000000E+00 -0.45593999997E+02  0.45594000000E+02  0.51100000000E-03 0. -1.
    9900012    2    1    2    0    0  0.93712913976E+00  0.24843779137E+00 -0.67320524524E+00  0.90007687472E+02  0.89999948147E+02 0.  0.
         12    1    1    2    0    0 -0.93712913976E+00 -0.24843779137E+00  0.67320524524E+00  0.11803125277E+01  0.00000000000E+00 0. -1.
         11    1    3    3    0    0 -0.90920792364E+01  0.24921997553E+01  0.28151189014E+01  0.98387935821E+01  0.51100000000E-03 0. -1.
        -11    1    3    3    0    0 -0.16879123544E+02 -0.21799193355E+01  0.31635189276E+02  0.35922723459E+02  0.51100000000E-03 0.  1.
         12    1    3    3    0    0  0.26908331921E+02 -0.63842628418E-01 -0.35123513423E+02  0.44246170431E+02  0.00000000000E+00 0. -1.
</event>
<event>
 7    1  0.2404951E-015  0.9000775E+02  0.7816164E-02  0.1186339E+00
        -11   -1    0    0    0    0  0.00000000000E+00  0.00000000000E+00  0.45593999997E+02  0.45594000000E+02  0.51100000000E-03 0. -1.
         11   -1    0    0    0    0 -0.00000000000E+00 -0.00000000000E+00 -0.45593999997E+02  0.45594000000E+02  0.51100000000E-03 0.  1.
    9900012    2    1    2    0    0 -0.15440942730E+00 -0.52511179011E+00 -0.10456604518E+01  0.90007749838E+02  0.90000011336E+02 0.  0.
         12    1    1    2    0    0  0.15440942730E+00  0.52511179011E+00  0.10456604518E+01  0.11802501615E+01  0.00000000000E+00 0. -1.
         11    1    3    3    0    0 -0.35669334575E+01  0.58592703586E+01 -0.70457946479E+01  0.98334778135E+01  0.51100000000E-03 0. -1.
        -11    1    3    3    0    0  0.16049816957E+02 -0.15437998984E+02 -0.32074987125E+02  0.39047832671E+02  0.51100000000E-03 0.  1.
         12    1    3    3    0    0 -0.12637292927E+02  0.90536168355E+01  0.38075121321E+02  0.41126439354E+02  0.00000000000E+00 0. -1.
</event>
<event>
 7    1  0.2404951E-015  0.9000776E+02  0.7816164E-02  0.1186339E+00
        -11   -1    0    0    0    0  0.00000000000E+00  0.00000000000E+00  0.45593999997E+02  0.45594000000E+02  0.51100000000E-03 0.  1.
         11   -1    0    0    0    0 -0.00000000000E+00 -0.00000000000E+00 -0.45593999997E+02  0.45594000000E+02  0.51100000000E-03 0. -1.
    9900012    2    1    2    0    0 -0.15755319147E+00  0.49103827787E+00 -0.10616087739E+01  0.90007764944E+02  0.90000026641E+02 0.  0.
         12    1    1    2    0    0  0.15755319147E+00 -0.49103827787E+00  0.10616087739E+01  0.11802350559E+01  0.00000000000E+00 0. -1.
         11    1    3    3    0    0 -0.56527291605E+01 -0.40339240952E+02 -0.74203955411E+01  0.41403743524E+02  0.51100000000E-03 0. -1.
        -11    1    3    3    0    0 -0.50160546702E+01  0.35796025837E+01  0.77162256668E+01  0.98749429322E+01  0.51100000000E-03 0.  1.
        -12    1    3    3    0    0  0.10511230639E+02  0.37250676646E+02 -0.13574388996E+01  0.38729078488E+02  0.00000000000E+00 0.  1.
</event>
<event>
 7    1  0.2404951E-015  0.9000799E+02  0.7816164E-02  0.1186339E+00
        -11   -1    0    0    0    0  0.00000000000E+00  0.00000000000E+00  0.45593999997E+02  0.45594000000E+02  0.51100000000E-03 0. -1.
         11   -1    0    0    0    0 -0.00000000000E+00 -0.00000000000E+00 -0.45593999997E+02  0.45594000000E+02  0.51100000000E-03 0.  1.
    9900012    2    1    2    0    0  0.22146236310E+00 -0.51292096683E+00 -0.10393684500E+01  0.90007991410E+02  0.90000256097E+02 0.  0.
         12    1    1    2    0    0 -0.22146236310E+00  0.51292096683E+00  0.10393684500E+01  0.11800085896E+01  0.00000000000E+00 0. -1.
         11    1    3    3    0    0 -0.12887282833E+02  0.22285058950E+02  0.25884113803E+02  0.36506071534E+02  0.51100000000E-03 0. -1.
        -11    1    3    3    0    0  0.46880902999E+01 -0.80374726218E+00  0.92130141551E+01  0.10368405393E+02  0.51100000000E-03 0.  1.
        -12    1    3    3    0    0  0.84206548961E+01 -0.21994232655E+02 -0.36136496408E+02  0.43133514483E+02  0.00000000000E+00 0.  1.
</event>
<event>
 7    1  0.2404951E-015  0.9000779E+02  0.7816164E-02  0.1186339E+00
        -11   -1    0    0    0    0  0.00000000000E+00  0.00000000000E+00  0.45593999997E+02  0.45594000000E+02  0.51100000000E-03 0. -1.
         11   -1    0    0    0    0 -0.00000000000E+00 -0.00000000000E+00 -0.45593999997E+02  0.45594000000E+02  0.51100000000E-03 0.  1.
    9900012    2    1    2    0    0 -0.58753166939E+00 -0.79957852295E+00 -0.63903949031E+00  0.90007792075E+02  0.90000054130E+02 0.  0.
         12    1    1    2    0    0  0.58753166939E+00  0.79957852295E+00  0.63903949031E+00  0.11802079254E+01  0.00000000000E+00 0. -1.
         11    1    3    3    0    0 -0.49951876390E+00  0.81053341469E+01  0.34143304558E+01  0.88092913080E+01  0.51100000000E-03 0. -1.
        -11    1    3    3    0    0 -0.31309034752E+02  0.45117116934E+01 -0.25829294055E+02  0.40838261852E+02  0.51100000000E-03 0.  1.
         12    1    3    3    0    0  0.31221021846E+02 -0.13416624363E+02  0.21775924109E+02  0.40360238914E+02  0.00000000000E+00 0. -1.
</event>
<event>
 7    1  0.2404951E-015  0.9000772E+02  0.7816164E-02  0.1186339E+00
        -11   -1    0    0    0    0  0.00000000000E+00  0.00000000000E+00  0.45593999997E+02  0.45594000000E+02  0.51100000000E-03 0. -1.
         11   -1    0    0    0    0 -0.00000000000E+00 -0.00000000000E+00 -0.45593999997E+02  0.45594000000E+02  0.51100000000E-03 0.  1.
    9900012    2    1    2    0    0 -0.10573960851E+01 -0.23282856261E+00  0.46986838135E+00  0.90007715324E+02  0.89999976366E+02 0.  0.
         12    1    1    2    0    0  0.10573960851E+01  0.23282856261E+00 -0.46986838135E+00  0.11802846759E+01  0.00000000000E+00 0. -1.
         11    1    3    3    0    0 -0.12592964702E+02 -0.28021455303E+02  0.29024186909E+02  0.42263319123E+02  0.51100000000E-03 0. -1.
        -11    1    3    3    0    0  0.10387505563E+01 -0.25576842405E+01 -0.10603551716E+02  0.10957009658E+02  0.51100000000E-03 0.  1.
        -12    1    3    3    0    0  0.10496818061E+02  0.30346310981E+02 -0.17950766812E+02  0.36787386543E+02  0.00000000000E+00 0.  1.
</event>
<event>
 7    1  0.2404951E-015  0.9000773E+02  0.7816164E-02  0.1186339E+00
        -11   -1    0    0    0    0  0.00000000000E+00  0.00000000000E+00  0.45593999997E+02  0.45594000000E+02  0.51100000000E-03 0.  1.
         11   -1    0    0    0    0 -0.00000000000E+00 -0.00000000000E+00 -0.45593999997E+02  0.45594000000E+02  0.51100000000E-03 0. -1.
    9900012    2    1    2    0    0  0.10194523464E+01 -0.20806125142E+00  0.55719453800E+00  0.90007729555E+02  0.89999990785E+02 0.  0.
         12    1    1    2    0    0 -0.10194523464E+01  0.20806125142E+00 -0.55719453800E+00  0.11802704453E+01  0.00000000000E+00 0. -1.
         11    1    3    3    0    0  0.76115800541E+01  0.24415048836E+01 -0.47949192758E+01  0.93213919636E+01  0.51100000000E-03 0. -1.
        -11    1    3    3    0    0  0.33524669101E+02  0.81099912127E+01 -0.10767617001E+02  0.36133322182E+02  0.51100000000E-03 0.  1.
         12    1    3    3    0    0 -0.40116796808E+02 -0.10759557348E+02  0.16119730815E+02  0.44553015409E+02  0.00000000000E+00 0. -1.
</event>
<event>
 7    1  0.2404951E-015  0.9000780E+02  0.7816164E-02  0.1186339E+00
        -11   -1    0    0    0    0  0.00000000000E+00  0.00000000000E+00  0.45593999997E+02  0.45594000000E+02  0.51100000000E-03 0.  1.
         11   -1    0    0    0    0 -0.00000000000E+00 -0.00000000000E+00 -0.45593999997E+02  0.45594000000E+02  0.51100000000E-03 0. -1.
    9900012    2    1    2    0    0 -0.68732739657E+00 -0.39467571674E+00  0.87445634861E+00  0.90007804348E+02  0.90000066565E+02 0.  0.
         12    1    1    2    0    0  0.68732739657E+00  0.39467571674E+00 -0.87445634861E+00  0.11801956520E+01  0.00000000000E+00 0. -1.
         11    1    3    3    0    0 -0.11127615981E+02 -0.24558460235E+02  0.22729421630E+02  0.35264265403E+02  0.51100000000E-03 0. -1.
        -11    1    3    3    0    0  0.83784637093E+00  0.76199833403E+01  0.12938228306E+02  0.15038746112E+02  0.51100000000E-03 0.  1.
        -12    1    3    3    0    0  0.96024422137E+01  0.16543801178E+02 -0.34793193587E+02  0.39704792833E+02  0.00000000000E+00 0.  1.
</event>
<event>
 7    1  0.2404951E-015  0.9000775E+02  0.7816164E-02  0.1186339E+00
        -11   -1    0    0    0    0  0.00000000000E+00  0.00000000000E+00  0.45593999997E+02  0.45594000000E+02  0.51100000000E-03 0.  1.
         11   -1    0    0    0    0 -0.00000000000E+00 -0.00000000000E+00 -0.45593999997E+02  0.45594000000E+02  0.51100000000E-03 0. -1.
    9900012    2    1    2    0    0  0.18805390413E+00  0.52670813726E+00  0.10393243924E+01  0.90007753871E+02  0.90000015422E+02 0.  0.
         12    1    1    2    0    0 -0.18805390413E+00 -0.52670813726E+00 -0.10393243924E+01  0.11802461291E+01  0.00000000000E+00 0. -1.
         11    1    3    3    0    0  0.24797344074E+02 -0.31903538796E+01  0.33901202170E+02  0.42123368097E+02  0.51100000000E-03 0. -1.
        -11    1    3    3    0    0  0.16672180582E+01  0.78057677209E+01 -0.52763361837E+01  0.95681424294E+01  0.51100000000E-03 0.  1.
        -12    1    3    3    0    0 -0.26276508228E+02 -0.40887057040E+01 -0.27585541594E+02  0.38316243344E+02  0.00000000000E+00 0.  1.
</event>
<event>
 7    1  0.2404951E-015  0.9000788E+02  0.7816164E-02  0.1186339E+00
        -11   -1    0    0    0    0  0.00000000000E+00  0.00000000000E+00  0.45593999997E+02  0.45594000000E+02  0.51100000000E-03 0.  1.
         11   -1    0    0    0    0 -0.00000000000E+00 -0.00000000000E+00 -0.45593999997E+02  0.45594000000E+02  0.51100000000E-03 0. -1.
    9900012    2    1    2    0    0  0.69649593520E+00  0.44387642181E+00  0.84293622927E+00  0.90007883755E+02  0.90000147020E+02 0.  0.
         12    1    1    2    0    0 -0.69649593520E+00 -0.44387642181E+00 -0.84293622927E+00  0.11801162452E+01  0.00000000000E+00 0. -1.
         11    1    3    3    0    0 -0.76034341734E+01  0.34101337089E+02 -0.46205534753E+01  0.35242913006E+02  0.51100000000E-03 0. -1.
        -11    1    3    3    0    0 -0.14859669753E+02 -0.16454058467E+01  0.23124894085E+01  0.15128276607E+02  0.51100000000E-03 0.  1.
        -12    1    3    3    0    0  0.23159599862E+02 -0.32012054821E+02  0.31510002961E+01  0.39636694141E+02  0.00000000000E+00 0.  1.
</event>
<event>
 7    1  0.2404951E-015  0.9000770E+02  0.7816164E-02  0.1186339E+00
        -11   -1    0    0    0    0  0.00000000000E+00  0.00000000000E+00  0.45593999997E+02  0.45594000000E+02  0.51100000000E-03 0.  1.
         11   -1    0    0    0    0 -0.00000000000E+00 -0.00000000000E+00 -0.45593999997E+02  0.45594000000E+02  0.51100000000E-03 0. -1.
    9900012    2    1    2    0    0  0.79557268743E+00  0.48321764908E+00  0.72572449966E+00  0.90007698663E+02  0.89999959485E+02 0.  0.
         12    1    1    2    0    0 -0.79557268743E+00 -0.48321764908E+00 -0.72572449966E+00  0.11803013373E+01  0.00000000000E+00 0. -1.
         11    1    3    3    0    0 -0.17615178974E+02 -0.33805920226E+02 -0.17341270228E+02  0.41879045189E+02  0.51100000000E-03 0. -1.
        -11    1    3    3    0    0  0.87554632448E+01 -0.11619451530E+00  0.49788202192E+01  0.10072749815E+02  0.51100000000E-03 0.  1.
        -12    1    3    3    0    0  0.96552884162E+01  0.34405332390E+02  0.13088174509E+02  0.38055903658E+02  0.00000000000E+00 0.  1.
</event>
<event>
 7    1  0.2404951E-015  0.9000770E+02  0.7816164E-02  0.1186339E+00
        -11   -1    0    0    0    0  0.00000000000E+00  0.00000000000E+00  0.45593999997E+02  0.45594000000E+02  0.51100000000E-03 0. -1.
         11   -1    0    0    0    0 -0.00000000000E+00 -0.00000000000E+00 -0.45593999997E+02  0.45594000000E+02  0.51100000000E-03 0.  1.
    9900012    2    1    2    0    0  0.71981551988E+00 -0.91912205122E+00  0.17372211085E+00  0.90007703809E+02  0.89999964699E+02 0.  0.
         12    1    1    2    0    0 -0.71981551988E+00  0.91912205122E+00 -0.17372211085E+00  0.11802961914E+01  0.00000000000E+00 0. -1.
         11    1    3    3    0    0 -0.54446389578E+00  0.17302007030E+02  0.76608587772E+01  0.18929993282E+02  0.51100000000E-03 0. -1.
        -11    1    3    3    0    0  0.32180102271E+02 -0.18288120048E+02 -0.13838668205E+02  0.39516111335E+02  0.51100000000E-03 0.  1.
         12    1    3    3    0    0 -0.30915822856E+02  0.66990967125E-01  0.63515315388E+01  0.31561599191E+02  0.00000000000E+00 0. -1.
</event>
<event>
 7    1  0.2404951E-015  0.9000771E+02  0.7816164E-02  0.1186339E+00
        -11   -1    0    0    0    0  0.00000000000E+00  0.00000000000E+00  0.45593999997E+02  0.45594000000E+02  0.51100000000E-03 0.  1.
         11   -1    0    0    0    0 -0.00000000000E+00 -0.00000000000E+00 -0.45593999997E+02  0.45594000000E+02  0.51100000000E-03 0. -1.
    9900012    2    1    2    0    0 -0.49443419378E+00 -0.17230093613E+00  0.10577947668E+01  0.90007710818E+02  0.89999971801E+02 0.  0.
         12    1    1    2    0    0  0.49443419378E+00  0.17230093613E+00 -0.10577947668E+01  0.11802891820E+01  0.00000000000E+00 0. -1.
         11    1    3    3    0    0 -0.28869357631E+02  0.15281357198E+02  0.17354182119E+02  0.36988205216E+02  0.51100000000E-03 0. -1.
        -11    1    3    3    0    0 -0.82044746015E+01 -0.25912001208E+01  0.37307860523E+01  0.93779788005E+01  0.51100000000E-03 0.  1.
        -12    1    3    3    0    0  0.36579398039E+02 -0.12862458013E+02 -0.20027173404E+02  0.43641526802E+02  0.00000000000E+00 0.  1.
</event>
<event>
 7    1  0.2404951E-015  0.9000773E+02  0.7816164E-02  0.1186339E+00
        -11   -1    0    0    0    0  0.00000000000E+00  0.00000000000E+00  0.45593999997E+02  0.45594000000E+02  0.51100000000E-03 0. -1.
         11   -1    0    0    0    0 -0.00000000000E+00 -0.00000000000E+00 -0.45593999997E+02  0.45594000000E+02  0.51100000000E-03 0.  1.
    9900012    2    1    2    0    0  0.19741205341E+00 -0.10408749507E+01 -0.52023768013E+00  0.90007729088E+02  0.89999990312E+02 0.  0.
         12    1    1    2    0    0 -0.19741205341E+00  0.10408749507E+01  0.52023768013E+00  0.11802709120E+01  0.00000000000E+00 0. -1.
         11    1    3    3    0    0  0.19432721712E+02 -0.17110394390E+02  0.29790567208E+02  0.39469914671E+02  0.51100000000E-03 0. -1.
        -11    1    3    3    0    0  0.49019407725E+01  0.11174731639E+02 -0.98542122546E+00  0.12242332530E+02  0.51100000000E-03 0.  1.
        -12    1    3    3    0    0 -0.24137250431E+02  0.48947878013E+01 -0.29325383662E+02  0.38295481887E+02  0.00000000000E+00 0.  1.
</event>
<event>
 7    1  0.2404951E-015  0.9000775E+02  0.7816164E-02  0.1186339E+00
        -11   -1    0    0    0    0  0.00000000000E+00  0.00000000000E+00  0.45593999997E+02  0.45594000000E+02  0.51100000000E-03 0.  1.
         11   -1    0    0    0    0 -0.00000000000E+00 -0.00000000000E+00 -0.45593999997E+02  0.45594000000E+02  0.51100000000E-03 0. -1.
    9900012    2    1    2    0    0 -0.11625048232E+01 -0.12319276932E+00  0.16248070995E+00  0.90007748373E+02  0.90000009851E+02 0.  0.
         12    1    1    2    0    0  0.11625048232E+01  0.12319276932E+00 -0.16248070995E+00  0.11802516272E+01  0.00000000000E+00 0. -1.
         11    1    3    3    0    0  0.28490454010E+02  0.13482848029E+02  0.22685489681E+02  0.38834579990E+02  0.51100000000E-03 0. -1.
        -11    1    3    3    0    0  0.50410325062E+01  0.39796195487E+01 -0.64020093860E+01  0.90683573442E+01  0.51100000000E-03 0.  1.
        -12    1    3    3    0    0 -0.34693991340E+02 -0.17585660347E+02 -0.16120999585E+02  0.42104811038E+02  0.00000000000E+00 0.  1.
</event>
<event>
 7    1  0.2404951E-015  0.9000776E+02  0.7816164E-02  0.1186339E+00
        -11   -1    0    0    0    0  0.00000000000E+00  0.00000000000E+00  0.45593999997E+02  0.45594000000E+02  0.51100000000E-03 0.  1.
         11   -1    0    0    0    0 -0.00000000000E+00 -0.00000000000E+00 -0.45593999997E+02  0.45594000000E+02  0.51100000000E-03 0. -1.
    9900012    2    1    2    0    0 -0.17641293401E-01  0.11799425951E+01  0.19513461676E-01  0.90007764211E+02  0.90000025898E+02 0.  0.
         12    1    1    2    0    0  0.17641293401E-01 -0.11799425951E+01 -0.19513461676E-01  0.11802357892E+01  0.00000000000E+00 0. -1.
         11    1    3    3    0    0  0.10687999793E+01  0.92170264546E+01  0.41265211427E+00  0.92879595224E+01  0.51100000000E-03 0. -1.
        -11    1    3    3    0    0 -0.32598413754E+02  0.12129629444E+02  0.17851668955E+02  0.39095608122E+02  0.51100000000E-03 0.  1.
         12    1    3    3    0    0  0.31511972481E+02 -0.20166713304E+02 -0.18244807608E+02  0.41624196566E+02  0.00000000000E+00 0. -1.
</event>
<event>
 7    1  0.2404951E-015  0.9000773E+02  0.7816164E-02  0.1186339E+00
        -11   -1    0    0    0    0  0.00000000000E+00  0.00000000000E+00  0.45593999997E+02  0.45594000000E+02  0.51100000000E-03 0.  1.
         11   -1    0    0    0    0 -0.00000000000E+00 -0.00000000000E+00 -0.45593999997E+02  0.45594000000E+02  0.51100000000E-03 0. -1.
    9900012    2    1    2    0    0 -0.65187692201E+00 -0.77870195666E+00  0.60143637737E+00  0.90007726314E+02  0.89999987501E+02 0.  0.
         12    1    1    2    0    0  0.65187692201E+00  0.77870195666E+00 -0.60143637737E+00  0.11802736864E+01  0.00000000000E+00 0. -1.
         11    1    3    3    0    0  0.12748245157E+02 -0.41557057400E+02  0.71199373081E+01  0.44047704615E+02  0.51100000000E-03 0. -1.
        -11    1    3    3    0    0 -0.64643423781E+01  0.30735996882E+01 -0.97549546937E+00  0.72240105964E+01  0.51100000000E-03 0.  1.
        -12    1    3    3    0    0 -0.69357797008E+01  0.37704755755E+02 -0.55430054614E+01  0.38736011102E+02  0.00000000000E+00 0.  1.
</event>
<event>
 7    1  0.2404951E-015  0.9000819E+02  0.7816164E-02  0.1186338E+00
        -11   -1    0    0    0    0  0.00000000000E+00  0.00000000000E+00  0.45593999997E+02  0.45594000000E+02  0.51100000000E-03 0.  1.
         11   -1    0    0    0    0 -0.00000000000E+00 -0.00000000000E+00 -0.45593999997E+02  0.45594000000E+02  0.51100000000E-03 0. -1.
    9900012    2    1    2    0    0 -0.10146786211E+01  0.57980496610E+00  0.16186103646E+00  0.90008192601E+02  0.90000459942E+02 0.  0.
         12    1    1    2    0    0  0.10146786211E+01 -0.57980496610E+00 -0.16186103646E+00  0.11798073987E+01  0.00000000000E+00 0. -1.
         11    1    3    3    0    0 -0.72636052273E+00 -0.10967627031E+02 -0.23932575850E+01  0.11249183279E+02  0.51100000000E-03 0. -1.
        -11    1    3    3    0    0  0.48081904126E+01 -0.32656523279E+02  0.79044668768E+01  0.33941829717E+02  0.51100000000E-03 0.  1.
         12    1    3    3    0    0 -0.50965085110E+01  0.44203955276E+02 -0.53493482554E+01  0.44817179606E+02  0.00000000000E+00 0. -1.
</event>
<event>
 7    1  0.2404951E-015  0.9000790E+02  0.7816164E-02  0.1186339E+00
        -11   -1    0    0    0    0  0.00000000000E+00  0.00000000000E+00  0.45593999997E+02  0.45594000000E+02  0.51100000000E-03 0. -1.
         11   -1    0    0    0    0 -0.00000000000E+00 -0.00000000000E+00 -0.45593999997E+02  0.45594000000E+02  0.51100000000E-03 0.  1.
    9900012    2    1    2    0    0  0.10366701935E+01  0.48761204579E+00 -0.28316806619E+00  0.90007900533E+02  0.90000164020E+02 0.  0.
         12    1    1    2    0    0 -0.10366701935E+01 -0.48761204579E+00  0.28316806619E+00  0.11800994666E+01  0.00000000000E+00 0. -1.
         11    1    3    3    0    0 -0.55692443608E+01  0.19385966194E+01 -0.76581427069E+01  0.96654947925E+01  0.51100000000E-03 0. -1.
        -11    1    3    3    0    0  0.32228700833E+02  0.87663029097E+01 -0.22040381730E+02  0.40016442260E+02  0.51100000000E-03 0.  1.
         12    1    3    3    0    0 -0.25622786279E+02 -0.10217287483E+02  0.29415356371E+02  0.40325963481E+02  0.00000000000E+00 0. -1.
</event>
<event>
 7    1  0.2404951E-015  0.9000771E+02  0.7816164E-02  0.1186339E+00
        -11   -1    0    0    0    0  0.00000000000E+00  0.00000000000E+00  0.45593999997E+02  0.45594000000E+02  0.51100000000E-03 0.  1.
         11   -1    0    0    0    0 -0.00000000000E+00 -0.00000000000E+00 -0.45593999997E+02  0.45594000000E+02  0.51100000000E-03 0. -1.
    9900012    2    1    2    0    0  0.11704809062E+01  0.12238655596E+00 -0.89929267104E-01  0.90007707115E+02  0.89999968049E+02 0.  0.
         12    1    1    2    0    0 -0.11704809062E+01 -0.12238655596E+00  0.89929267104E-01  0.11802928849E+01  0.00000000000E+00 0. -1.
         11    1    3    3    0    0  0.28482527897E+02  0.19542746010E+01  0.21148570389E+02  0.35529362707E+02  0.51100000000E-03 0. -1.
        -11    1    3    3    0    0  0.84862162575E+01  0.78746007817E+01 -0.11072530282E+02  0.16019554643E+02  0.51100000000E-03 0.  1.
        -12    1    3    3    0    0 -0.35798263248E+02 -0.97064888268E+01 -0.10165969374E+02  0.38458789765E+02  0.00000000000E+00 0.  1.
</event>
<event>
 7    1  0.2404951E-015  0.9000779E+02  0.7816164E-02  0.1186339E+00
        -11   -1    0    0    0    0  0.00000000000E+00  0.00000000000E+00  0.45593999997E+02  0.45594000000E+02  0.51100000000E-03 0.  1.
         11   -1    0    0    0    0 -0.00000000000E+00 -0.00000000000E+00 -0.45593999997E+02  0.45594000000E+02  0.51100000000E-03 0. -1.
    9900012    2    1    2    0    0  0.83583627730E+00  0.83289419703E+00  0.23532417657E-01  0.90007792899E+02  0.90000054966E+02 0.  0.
         12    1    1    2    0    0 -0.83583627730E+00 -0.83289419703E+00 -0.23532417657E-01  0.11802071007E+01  0.00000000000E+00 0. -1.
         11    1    3    3    0    0 -0.20402052789E+01  0.86777642947E+01  0.42697607250E+00  0.89245918429E+01  0.51100000000E-03 0. -1.
        -11    1    3    3    0    0  0.29878674412E+02  0.21608823866E+02 -0.13138604837E+02  0.39144595934E+02  0.51100000000E-03 0.  1.
         12    1    3    3    0    0 -0.27002632856E+02 -0.29453693964E+02  0.12735161182E+02  0.41938605122E+02  0.00000000000E+00 0. -1.
</event>
<event>
 7    1  0.2404951E-015  0.9000775E+02  0.7816164E-02  0.1186339E+00
        -11   -1    0    0    0    0  0.00000000000E+00  0.00000000000E+00  0.45593999997E+02  0.45594000000E+02  0.51100000000E-03 0.  1.
         11   -1    0    0    0    0 -0.00000000000E+00 -0.00000000000E+00 -0.45593999997E+02  0.45594000000E+02  0.51100000000E-03 0. -1.
    9900012    2    1    2    0    0 -0.38652672151E+00 -0.70714490856E-01  0.11129201677E+01  0.90007748016E+02  0.90000009490E+02 0.  0.
         12    1    1    2    0    0  0.38652672151E+00  0.70714490856E-01 -0.11129201677E+01  0.11802519838E+01  0.00000000000E+00 0. -1.
         11    1    3    3    0    0 -0.47038086051E+01 -0.11722657722E+01 -0.76217710674E+01  0.90327967374E+01  0.51100000000E-03 0. -1.
        -11    1    3    3    0    0 -0.22578728288E+02  0.32058696518E+02  0.76535982158E+01  0.39951677805E+02  0.51100000000E-03 0.  1.
         12    1    3    3    0    0  0.26896010171E+02 -0.30957145237E+02  0.10810930193E+01  0.41023273473E+02  0.00000000000E+00 0. -1.
</event>
<event>
 7    1  0.2404951E-015  0.9000771E+02  0.7816164E-02  0.1186339E+00
        -11   -1    0    0    0    0  0.00000000000E+00  0.00000000000E+00  0.45593999997E+02  0.45594000000E+02  0.51100000000E-03 0. -1.
         11   -1    0    0    0    0 -0.00000000000E+00 -0.00000000000E+00 -0.45593999997E+02  0.45594000000E+02  0.51100000000E-03 0.  1.
    9900012    2    1    2    0    0 -0.11712491476E+01 -0.29144352772E-01 -0.14283953652E+00  0.90007713131E+02  0.89999974145E+02 0.  0.
         12    1    1    2    0    0  0.11712491476E+01  0.29144352772E-01  0.14283953652E+00  0.11802868686E+01  0.00000000000E+00 0. -1.
         11    1    3    3    0    0  0.84043540985E+01 -0.68279115917E+01 -0.16466469648E+01  0.10952853099E+02  0.51100000000E-03 0. -1.
        -11    1    3    3    0    0  0.28927602770E+02  0.80964041088E+01 -0.18869787780E+02  0.35474312575E+02  0.51100000000E-03 0.  1.
         12    1    3    3    0    0 -0.38503206017E+02 -0.12976368698E+01  0.20373595208E+02  0.43580547458E+02  0.00000000000E+00 0. -1.
</event>
<event>
 7    1  0.2404951E-015  0.9000777E+02  0.7816164E-02  0.1186339E+00
        -11   -1    0    0    0    0  0.00000000000E+00  0.00000000000E+00  0.45593999997E+02  0.45594000000E+02  0.51100000000E-03 0.  1.
         11   -1    0    0    0    0 -0.00000000000E+00 -0.00000000000E+00 -0.45593999997E+02  0.45594000000E+02  0.51100000000E-03 0. -1.
    9900012    2    1    2    0    0 -0.76672005666E+00  0.81979946308E+00  0.36471352962E+00  0.90007768343E+02  0.90000030085E+02 0.  0.
         12    1    1    2    0    0  0.76672005666E+00 -0.81979946308E+00 -0.36471352962E+00  0.11802316568E+01  0.00000000000E+00 0. -1.
         11    1    3    3    0    0  0.73517676000E+00  0.12063966222E+02 -0.18364877452E+02  0.21985187968E+02  0.51100000000E-03 0. -1.
        -11    1    3    3    0    0  0.39749945323E+01 -0.15365066602E+02 -0.21773387373E+02  0.26943760895E+02  0.51100000000E-03 0.  1.
        -12    1    3    3    0    0 -0.54768913489E+01  0.41208998432E+01  0.40502978354E+02  0.41078819481E+02  0.00000000000E+00 0.  1.
</event>
<event>
 7    1  0.2404951E-015  0.9000773E+02  0.7816164E-02  0.1186339E+00
        -11   -1    0    0    0    0  0.00000000000E+00  0.00000000000E+00  0.45593999997E+02  0.45594000000E+02  0.51100000000E-03 0.  1.
         11   -1    0    0    0    0 -0.00000000000E+00 -0.00000000000E+00 -0.45593999997E+02  0.45594000000E+02  0.51100000000E-03 0. -1.
    9900012    2    1    2    0    0  0.94979087679E+00 -0.41046254448E+00  0.56786007698E+00  0.90007725762E+02  0.89999986942E+02 0.  0.
         12    1    1    2    0    0 -0.94979087679E+00  0.41046254448E+00 -0.56786007698E+00  0.11802742381E+01  0.00000000000E+00 0. -1.
         11    1    3    3    0    0 -0.46729004193E+01  0.11870168959E+02 -0.34041084643E+01  0.13203214159E+02  0.51100000000E-03 0. -1.
        -11    1    3    3    0    0  0.11716326092E+02  0.21628095172E+02  0.26095252192E+02  0.35860967431E+02  0.51100000000E-03 0.  1.
         12    1    3    3    0    0 -0.60936347957E+01 -0.33908726676E+02 -0.22123283651E+02  0.40943544171E+02  0.00000000000E+00 0. -1.
</event>
<event>
 7    1  0.2404951E-015  0.9000774E+02  0.7816164E-02  0.1186339E+00
        -11   -1    0    0    0    0  0.00000000000E+00  0.00000000000E+00  0.45593999997E+02  0.45594000000E+02  0.51100000000E-03 0.  1.
         11   -1    0    0    0    0 -0.00000000000E+00 -0.00000000000E+00 -0.45593999997E+02  0.45594000000E+02  0.51100000000E-03 0. -1.
    9900012    2    1    2    0    0  0.19041795831E+00 -0.59618246825E+00  0.10006658455E+01  0.90007735340E+02  0.89999996646E+02 0.  0.
         12    1    1    2    0    0 -0.19041795831E+00  0.59618246825E+00 -0.10006658455E+01  0.11802646605E+01  0.00000000000E+00 0. -1.
         11    1    3    3    0    0  0.34080599567E+02 -0.21788457699E+02 -0.50169931320E+01  0.40760205791E+02  0.51100000000E-03 0. -1.
        -11    1    3    3    0    0 -0.61665613373E+01 -0.17770300055E+01 -0.83092944011E+01  0.10498985097E+02  0.51100000000E-03 0.  1.
        -12    1    3    3    0    0 -0.27723620271E+02  0.22969305237E+02  0.14326953379E+02  0.38748544452E+02  0.00000000000E+00 0.  1.
</event>
<event>
 7    1  0.2404951E-015  0.9000801E+02  0.7816164E-02  0.1186339E+00
        -11   -1    0    0    0    0  0.00000000000E+00  0.00000000000E+00  0.45593999997E+02  0.45594000000E+02  0.51100000000E-03 0.  1.
         11   -1    0    0    0    0 -0.00000000000E+00 -0.00000000000E+00 -0.45593999997E+02  0.45594000000E+02  0.51100000000E-03 0. -1.
    9900012    2    1    2    0    0  0.11776116526E+01 -0.19326269553E-01  0.72375617602E-01  0.90008008077E+02  0.90000272983E+02 0.  0.
         12    1    1    2    0    0 -0.11776116526E+01  0.19326269553E-01 -0.72375617602E-01  0.11799919233E+01  0.00000000000E+00 0. -1.
         11    1    3    3    0    0  0.16039509628E+02 -0.30460727565E+02  0.52013025330E+01  0.34816308552E+02  0.51100000000E-03 0. -1.
        -11    1    3    3    0    0  0.39865838941E+00 -0.77371261748E+01  0.88526169492E+01  0.11763965193E+02  0.51100000000E-03 0.  1.
        -12    1    3    3    0    0 -0.15260556365E+02  0.38178527470E+02 -0.13981543865E+02  0.43427734332E+02  0.00000000000E+00 0.  1.
</event>
<event>
 7    1  0.2404951E-015  0.9000773E+02  0.7816164E-02  0.1186339E+00
        -11   -1    0    0    0    0  0.00000000000E+00  0.00000000000E+00  0.45593999997E+02  0.45594000000E+02  0.51100000000E-03 0. -1.
         11   -1    0    0    0    0 -0.00000000000E+00 -0.00000000000E+00 -0.45593999997E+02  0.45594000000E+02  0.51100000000E-03 0.  1.
    9900012    2    1    2    0    0  0.10815625998E+01  0.12152051374E-01  0.47234865613E+00  0.90007729445E+02  0.89999990674E+02 0.  0.
         12    1    1    2    0    0 -0.10815625998E+01 -0.12152051374E-01 -0.47234865613E+00  0.11802705548E+01  0.00000000000E+00 0. -1.
         11    1    3    3    0    0  0.27027596846E+01  0.90643209888E+01 -0.19678673863E+01  0.96612280385E+01  0.51100000000E-03 0. -1.
        -11    1    3    3    0    0  0.11775759297E+02  0.32331436998E+02  0.10775696554E+02  0.36056982151E+02  0.51100000000E-03 0.  1.
         12    1    3    3    0    0 -0.13396956382E+02 -0.41383605935E+02 -0.83354805114E+01  0.44289519255E+02  0.00000000000E+00 0. -1.
</event>
<event>
 7    1  0.4735962E-015  0.9000791E+02  0.7816164E-02  0.1186339E+00
        -11   -1    0    0    0    0  0.00000000000E+00  0.00000000000E+00  0.45593999997E+02  0.45594000000E+02  0.51100000000E-03 0. -1.
         11   -1    0    0    0    0 -0.00000000000E+00 -0.00000000000E+00 -0.45593999997E+02  0.45594000000E+02  0.51100000000E-03 0.  1.
    9900012    2    1    2    0    0  0.41510569577E+00 -0.65074647047E+00 -0.89264783156E+00  0.90007913622E+02  0.90000177282E+02 0.  0.
         12    1    1    2    0    0 -0.41510569577E+00  0.65074647047E+00  0.89264783156E+00  0.11800863776E+01  0.00000000000E+00 0. -1.
         11    1    3    3    0    0 -0.82936032360E+01  0.27279444011E+02  0.26136053423E+02  0.38678743632E+02  0.51100000000E-03 0. -1.
        -11    1    3    3    0    0  0.83232190280E+01 -0.53793630552E+00  0.45684158598E+01  0.95097725622E+01  0.51100000000E-03 0.  1.
        -12    1    3    3    0    0  0.38548990380E+00 -0.27392254176E+02 -0.31597117114E+02  0.41819397428E+02  0.00000000000E+00 0.  1.
</event>
<event>
 7    1  0.2404951E-015  0.9000768E+02  0.7816164E-02  0.1186339E+00
        -11   -1    0    0    0    0  0.00000000000E+00  0.00000000000E+00  0.45593999997E+02  0.45594000000E+02  0.51100000000E-03 0.  1.
         11   -1    0    0    0    0 -0.00000000000E+00 -0.00000000000E+00 -0.45593999997E+02  0.45594000000E+02  0.51100000000E-03 0. -1.
    9900012    2    1    2    0    0  0.70659381223E+00  0.91345556903E+00  0.24386104359E+00  0.90007684745E+02  0.89999945384E+02 0.  0.
         12    1    1    2    0    0 -0.70659381223E+00 -0.91345556903E+00 -0.24386104359E+00  0.11803152548E+01  0.00000000000E+00 0. -1.
         11    1    3    3    0    0  0.26534236336E+02  0.88647329672E+01 -0.22999565968E+02  0.36216422014E+02  0.51100000000E-03 0. -1.
        -11    1    3    3    0    0 -0.24011616068E-01  0.84255760316E+01 -0.68810526402E+01  0.10878409522E+02  0.51100000000E-03 0.  1.
        -12    1    3    3    0    0 -0.25803630908E+02 -0.16376853430E+02  0.30124479652E+02  0.42912853210E+02  0.00000000000E+00 0.  1.
</event>
<event>
 7    1  0.2404951E-015  0.9000769E+02  0.7816164E-02  0.1186339E+00
        -11   -1    0    0    0    0  0.00000000000E+00  0.00000000000E+00  0.45593999997E+02  0.45594000000E+02  0.51100000000E-03 0.  1.
         11   -1    0    0    0    0 -0.00000000000E+00 -0.00000000000E+00 -0.45593999997E+02  0.45594000000E+02  0.51100000000E-03 0. -1.
    9900012    2    1    2    0    0 -0.55954079914E+00 -0.19718590751E+00  0.10203746875E+01  0.90007689579E+02  0.89999950281E+02 0.  0.
         12    1    1    2    0    0  0.55954079914E+00  0.19718590751E+00 -0.10203746875E+01  0.11803104214E+01  0.00000000000E+00 0. -1.
         11    1    3    3    0    0  0.71709237549E+01  0.28122142575E+01 -0.52359860966E+01  0.93137665417E+01  0.51100000000E-03 0. -1.
        -11    1    3    3    0    0  0.21085920404E+02 -0.32522611689E+02  0.72574725528E+01  0.39433579833E+02  0.51100000000E-03 0.  1.
         12    1    3    3    0    0 -0.28816384958E+02  0.29513211524E+02 -0.10011117687E+01  0.41260343204E+02  0.00000000000E+00 0. -1.
</event>
<event>
 7    1  0.2404951E-015  0.9000777E+02  0.7816164E-02  0.1186339E+00
        -11   -1    0    0    0    0  0.00000000000E+00  0.00000000000E+00  0.45593999997E+02  0.45594000000E+02  0.51100000000E-03 0. -1.
         11   -1    0    0    0    0 -0.00000000000E+00 -0.00000000000E+00 -0.45593999997E+02  0.45594000000E+02  0.51100000000E-03 0.  1.
    9900012    2    1    2    0    0  0.32408515560E+00  0.24417664049E+00 -0.11082813481E+01  0.90007770799E+02  0.90000032574E+02 0.  0.
         12    1    1    2    0    0 -0.32408515560E+00 -0.24417664049E+00  0.11082813481E+01  0.11802292008E+01  0.00000000000E+00 0. -1.
         11    1    3    3    0    0  0.88499806591E+01 -0.38618385210E+02 -0.12551197485E+02  0.41560009534E+02  0.51100000000E-03 0. -1.
        -11    1    3    3    0    0  0.16928169247E+01  0.14679888453E+02 -0.70127085254E+01  0.16356736694E+02  0.51100000000E-03 0.  1.
        -12    1    3    3    0    0 -0.10218712428E+02  0.24182673398E+02  0.18455624663E+02  0.32091024571E+02  0.00000000000E+00 0.  1.
</event>
<event>
 7    1  0.2404951E-015  0.9000776E+02  0.7816164E-02  0.1186339E+00
        -11   -1    0    0    0    0  0.00000000000E+00  0.00000000000E+00  0.45593999997E+02  0.45594000000E+02  0.51100000000E-03 0.  1.
         11   -1    0    0    0    0 -0.00000000000E+00 -0.00000000000E+00 -0.45593999997E+02  0.45594000000E+02  0.51100000000E-03 0. -1.
    9900012    2    1    2    0    0  0.70101736219E+00  0.93642607782E+00  0.15698568288E+00  0.90007761191E+02  0.90000022839E+02 0.  0.
         12    1    1    2    0    0 -0.70101736219E+00 -0.93642607782E+00 -0.15698568288E+00  0.11802388089E+01  0.00000000000E+00 0. -1.
         11    1    3    3    0    0 -0.47750160730E+01 -0.28900032855E+02 -0.19855279658E+02  0.35387071199E+02  0.51100000000E-03 0. -1.
        -11    1    3    3    0    0 -0.75436760748E+01 -0.30148204823E+01 -0.65321420177E+01  0.10424253972E+02  0.51100000000E-03 0.  1.
        -12    1    3    3    0    0  0.13019709510E+02  0.32851279415E+02  0.26544407358E+02  0.44196436021E+02  0.00000000000E+00 0.  1.
</event>
<event>
 7    1  0.2404951E-015  0.9000767E+02  0.7816164E-02  0.1186339E+00
        -11   -1    0    0    0    0  0.00000000000E+00  0.00000000000E+00  0.45593999997E+02  0.45594000000E+02  0.51100000000E-03 0.  1.
         11   -1    0    0    0    0 -0.00000000000E+00 -0.00000000000E+00 -0.45593999997E+02  0.45594000000E+02  0.51100000000E-03 0. -1.
    9900012    2    1    2    0    0 -0.11663397705E+01  0.10609148291E+00  0.14686009139E+00  0.90007673033E+02  0.89999933517E+02 0.  0.
         12    1    1    2    0    0  0.11663397705E+01 -0.10609148291E+00 -0.14686009139E+00  0.11803269672E+01  0.00000000000E+00 0. -1.
         11    1    3    3    0    0  0.11401020960E+02  0.23858257545E+01 -0.21251282614E+02  0.24234117612E+02  0.51100000000E-03 0. -1.
        -11    1    3    3    0    0  0.13255371392E+02  0.23896546615E+01 -0.15475244731E+02  0.20515811461E+02  0.51100000000E-03 0.  1.
        -12    1    3    3    0    0 -0.25822732123E+02 -0.46693889331E+01  0.36873387436E+02  0.45257743960E+02  0.00000000000E+00 0.  1.
</event>
<event>
 7    1  0.2404951E-015  0.9000782E+02  0.7816164E-02  0.1186339E+00
        -11   -1    0    0    0    0  0.00000000000E+00  0.00000000000E+00  0.45593999997E+02  0.45594000000E+02  0.51100000000E-03 0.  1.
         11   -1    0    0    0    0 -0.00000000000E+00 -0.00000000000E+00 -0.45593999997E+02  0.45594000000E+02  0.51100000000E-03 0. -1.
    9900012    2    1    2    0    0  0.75603171723E+00 -0.80400478795E+00  0.41811822948E+00  0.90007817594E+02  0.90000079987E+02 0.  0.
         12    1    1    2    0    0 -0.75603171723E+00  0.80400478795E+00 -0.41811822948E+00  0.11801824055E+01  0.00000000000E+00 0. -1.
         11    1    3    3    0    0 -0.71289465845E+01 -0.82092724091E+00  0.47383530888E+01  0.85992901564E+01  0.51100000000E-03 0. -1.
        -11    1    3    3    0    0 -0.19548638155E+02  0.77300512216E+01  0.30105336318E+02  0.36718309066E+02  0.51100000000E-03 0.  1.
         12    1    3    3    0    0  0.27433616456E+02 -0.77131287686E+01 -0.34425571177E+02  0.44690218372E+02  0.00000000000E+00 0. -1.
</event>
<event>
 7    1  0.2641334E-015  0.9000775E+02  0.7816164E-02  0.1186339E+00
        -11   -1    0    0    0    0  0.00000000000E+00  0.00000000000E+00  0.45593999997E+02  0.45594000000E+02  0.51100000000E-03 0. -1.
         11   -1    0    0    0    0 -0.00000000000E+00 -0.00000000000E+00 -0.45593999997E+02  0.45594000000E+02  0.51100000000E-03 0.  1.
    9900012    2    1    2    0    0 -0.23335758154E+00 -0.35226983049E+00 -0.11020178874E+01  0.90007748663E+02  0.90000010145E+02 0.  0.
         12    1    1    2    0    0  0.23335758154E+00  0.35226983049E+00  0.11020178874E+01  0.11802513370E+01  0.00000000000E+00 0. -1.
         11    1    3    3    0    0  0.28233453560E+01  0.68663969430E+01  0.41572066443E+02  0.42229792737E+02  0.51100000000E-03 0. -1.
        -11    1    3    3    0    0 -0.76290005843E+01 -0.92753028570E+00 -0.46842465576E+01  0.90002293537E+01  0.51100000000E-03 0.  1.
        -12    1    3    3    0    0  0.45722976468E+01 -0.62911364878E+01 -0.37989837773E+02  0.38777726572E+02  0.00000000000E+00 0.  1.
</event>
<event>
 7    1  0.2404951E-015  0.9000800E+02  0.7816164E-02  0.1186339E+00
        -11   -1    0    0    0    0  0.00000000000E+00  0.00000000000E+00  0.45593999997E+02  0.45594000000E+02  0.51100000000E-03 0.  1.
         11   -1    0    0    0    0 -0.00000000000E+00 -0.00000000000E+00 -0.45593999997E+02  0.45594000000E+02  0.51100000000E-03 0. -1.
    9900012    2    1    2    0    0 -0.69821017825E+00  0.94791799666E+00 -0.79758855081E-01  0.90007996841E+02  0.90000261598E+02 0.  0.
         12    1    1    2    0    0  0.69821017825E+00 -0.94791799666E+00  0.79758855081E-01  0.11800031595E+01  0.00000000000E+00 0. -1.
         11    1    3    3    0    0  0.25047567374E+02  0.22028323107E+02 -0.13738864225E+02  0.36074700841E+02  0.51100000000E-03 0. -1.
        -11    1    3    3    0    0  0.30054140005E+01  0.95452382194E+01  0.98132602847E+00  0.10055201988E+02  0.51100000000E-03 0.  1.
        -12    1    3    3    0    0 -0.28751191553E+02 -0.30625643330E+02  0.12677779342E+02  0.43878094012E+02  0.00000000000E+00 0.  1.
</event>
<event>
 7    1  0.2404951E-015  0.9000776E+02  0.7816164E-02  0.1186339E+00
        -11   -1    0    0    0    0  0.00000000000E+00  0.00000000000E+00  0.45593999997E+02  0.45594000000E+02  0.51100000000E-03 0. -1.
         11   -1    0    0    0    0 -0.00000000000E+00 -0.00000000000E+00 -0.45593999997E+02  0.45594000000E+02  0.51100000000E-03 0.  1.
    9900012    2    1    2    0    0  0.54267837521E+00  0.10444038052E+01 -0.87680932450E-01  0.90007759739E+02  0.90000021368E+02 0.  0.
         12    1    1    2    0    0 -0.54267837521E+00 -0.10444038052E+01  0.87680932450E-01  0.11802402608E+01  0.00000000000E+00 0. -1.
         11    1    3    3    0    0  0.48155104010E+01  0.83287679644E+01 -0.32479036963E+01  0.10154131913E+02  0.51100000000E-03 0. -1.
        -11    1    3    3    0    0  0.12798045809E+02  0.14424963957E+02 -0.30641314503E+02  0.36204415704E+02  0.51100000000E-03 0.  1.
         12    1    3    3    0    0 -0.17070877835E+02 -0.21709328116E+02  0.33801537267E+02  0.43649212123E+02  0.00000000000E+00 0. -1.
</event>
<event>
 7    1  0.2404951E-015  0.9000782E+02  0.7816164E-02  0.1186339E+00
        -11   -1    0    0    0    0  0.00000000000E+00  0.00000000000E+00  0.45593999997E+02  0.45594000000E+02  0.51100000000E-03 0.  1.
         11   -1    0    0    0    0 -0.00000000000E+00 -0.00000000000E+00 -0.45593999997E+02  0.45594000000E+02  0.51100000000E-03 0. -1.
    9900012    2    1    2    0    0 -0.11430187051E+01 -0.24911010085E+00 -0.15579289312E+00  0.90007822459E+02  0.90000084916E+02 0.  0.
         12    1    1    2    0    0  0.11430187051E+01  0.24911010085E+00  0.15579289312E+00  0.11801775409E+01  0.00000000000E+00 0. -1.
         11    1    3    3    0    0  0.23349123739E+00 -0.35027126375E+01  0.87428149758E+01  0.94212699749E+01  0.51100000000E-03 0. -1.
        -11    1    3    3    0    0 -0.26531127614E+02 -0.27229422455E+02  0.57245589423E+01  0.38446232001E+02  0.51100000000E-03 0.  1.
         12    1    3    3    0    0  0.25154617672E+02  0.30483024991E+02 -0.14623166811E+02  0.42140320483E+02  0.00000000000E+00 0. -1.
</event>
<event>
 7    1  0.2404951E-015  0.9000775E+02  0.7816164E-02  0.1186339E+00
        -11   -1    0    0    0    0  0.00000000000E+00  0.00000000000E+00  0.45593999997E+02  0.45594000000E+02  0.51100000000E-03 0.  1.
         11   -1    0    0    0    0 -0.00000000000E+00 -0.00000000000E+00 -0.45593999997E+02  0.45594000000E+02  0.51100000000E-03 0. -1.
    9900012    2    1    2    0    0 -0.60753914355E+00  0.10066531861E+01  0.10259678810E+00  0.90007754030E+02  0.90000015584E+02 0.  0.
         12    1    1    2    0    0  0.60753914355E+00 -0.10066531861E+01 -0.10259678810E+00  0.11802459697E+01  0.00000000000E+00 0. -1.
         11    1    3    3    0    0  0.25015394332E+01 -0.92291964760E+01  0.38719690881E+00  0.95700412139E+01  0.51100000000E-03 0. -1.
        -11    1    3    3    0    0 -0.30983248850E+02 -0.20168681465E+02  0.92348932406E+01  0.38105389051E+02  0.51100000000E-03 0.  1.
         12    1    3    3    0    0  0.27874170273E+02  0.30404531127E+02 -0.95194933613E+01  0.42332323765E+02  0.00000000000E+00 0. -1.
</event>
<event>
 7    1  0.2404951E-015  0.9000772E+02  0.7816164E-02  0.1186339E+00
        -11   -1    0    0    0    0  0.00000000000E+00  0.00000000000E+00  0.45593999997E+02  0.45594000000E+02  0.51100000000E-03 0. -1.
         11   -1    0    0    0    0 -0.00000000000E+00 -0.00000000000E+00 -0.45593999997E+02  0.45594000000E+02  0.51100000000E-03 0.  1.
    9900012    2    1    2    0    0  0.10251363565E+01 -0.58489756161E+00  0.63305275203E-02  0.90007724701E+02  0.89999985867E+02 0.  0.
         12    1    1    2    0    0 -0.10251363565E+01  0.58489756161E+00 -0.63305275203E-02  0.11802752994E+01  0.00000000000E+00 0. -1.
         11    1    3    3    0    0  0.17009458863E+02 -0.38008353046E+02  0.50717145413E+00  0.41643892892E+02  0.51100000000E-03 0. -1.
        -11    1    3    3    0    0  0.21114362300E+01  0.39018508686E+01 -0.83630304579E+01  0.94669362444E+01  0.51100000000E-03 0.  1.
        -12    1    3    3    0    0 -0.18095758737E+02  0.33521604616E+02  0.78621895313E+01  0.38896895564E+02  0.00000000000E+00 0.  1.
</event>
<event>
 7    1  0.2404951E-015  0.9000782E+02  0.7816164E-02  0.1186339E+00
        -11   -1    0    0    0    0  0.00000000000E+00  0.00000000000E+00  0.45593999997E+02  0.45594000000E+02  0.51100000000E-03 0.  1.
         11   -1    0    0    0    0 -0.00000000000E+00 -0.00000000000E+00 -0.45593999997E+02  0.45594000000E+02  0.51100000000E-03 0. -1.
    9900012    2    1    2    0    0 -0.61033888988E+00  0.81447991374E+00  0.59744405163E+00  0.90007817605E+02  0.90000079997E+02 0.  0.
         12    1    1    2    0    0  0.61033888988E+00 -0.81447991374E+00 -0.59744405163E+00  0.11801823949E+01  0.00000000000E+00 0. -1.
         11    1    3    3    0    0 -0.94098812447E+01 -0.18227332067E+02 -0.24936708696E+02  0.32289641376E+02  0.51100000000E-03 0. -1.
        -11    1    3    3    0    0 -0.11650944294E+01 -0.74368317629E+01 -0.98608906411E+01  0.12405687252E+02  0.51100000000E-03 0.  1.
        -12    1    3    3    0    0  0.99646367842E+01  0.26478643744E+02  0.35395043389E+02  0.45312488977E+02  0.00000000000E+00 0.  1.
</event>
<event>
 7    1  0.2404951E-015  0.9000767E+02  0.7816164E-02  0.1186339E+00
        -11   -1    0    0    0    0  0.00000000000E+00  0.00000000000E+00  0.45593999997E+02  0.45594000000E+02  0.51100000000E-03 0.  1.
         11   -1    0    0    0    0 -0.00000000000E+00 -0.00000000000E+00 -0.45593999997E+02  0.45594000000E+02  0.51100000000E-03 0. -1.
    9900012    2    1    2    0    0  0.27489550767E+00 -0.50136091052E-01  0.11467821500E+01  0.90007665104E+02  0.89999925483E+02 0.  0.
         12    1    1    2    0    0 -0.27489550767E+00  0.50136091052E-01 -0.11467821500E+01  0.11803348963E+01  0.00000000000E+00 0. -1.
         11    1    3    3    0    0  0.25125492159E+02  0.10010112326E+02 -0.10792910499E+02  0.29120089669E+02  0.51100000000E-03 0. -1.
        -11    1    3    3    0    0  0.10751899315E+02 -0.16677323181E+02 -0.56470398590E+01  0.20630693318E+02  0.51100000000E-03 0.  1.
        -12    1    3    3    0    0 -0.35602495966E+02  0.66170747643E+01  0.17586732508E+02  0.40256882117E+02  0.00000000000E+00 0.  1.
</event>
<event>
 7    1  0.2404951E-015  0.9000773E+02  0.7816164E-02  0.1186339E+00
        -11   -1    0    0    0    0  0.00000000000E+00  0.00000000000E+00  0.45593999997E+02  0.45594000000E+02  0.51100000000E-03 0. -1.
         11   -1    0    0    0    0 -0.00000000000E+00 -0.00000000000E+00 -0.45593999997E+02  0.45594000000E+02  0.51100000000E-03 0.  1.
    9900012    2    1    2    0    0  0.77461176506E+00  0.63881296641E+00  0.62042594117E+00  0.90007731496E+02  0.89999992752E+02 0.  0.
         12    1    1    2    0    0 -0.77461176506E+00 -0.63881296641E+00 -0.62042594117E+00  0.11802685038E+01  0.00000000000E+00 0. -1.
         11    1    3    3    0    0 -0.83607220549E+01  0.57172438308E+01 -0.13875995686E+01  0.10223208064E+02  0.51100000000E-03 0. -1.
        -11    1    3    3    0    0  0.38799994152E+02  0.13948286737E+02  0.12377055446E+02  0.43048644007E+02  0.51100000000E-03 0.  1.
         12    1    3    3    0    0 -0.29664660332E+02 -0.19026717602E+02 -0.10369029936E+02  0.36735879425E+02  0.00000000000E+00 0. -1.
</event>
<event>
 7    1  0.2404951E-015  0.9000794E+02  0.7816164E-02  0.1186339E+00
        -11   -1    0    0    0    0  0.00000000000E+00  0.00000000000E+00  0.45593999997E+02  0.45594000000E+02  0.51100000000E-03 0.  1.
         11   -1    0    0    0    0 -0.00000000000E+00 -0.00000000000E+00 -0.45593999997E+02  0.45594000000E+02  0.51100000000E-03 0. -1.
    9900012    2    1    2    0    0  0.92090949536E+00 -0.15658467057E+00  0.72107973334E+00  0.90007936849E+02  0.90000200816E+02 0.  0.
         12    1    1    2    0    0 -0.92090949536E+00  0.15658467057E+00 -0.72107973334E+00  0.11800631507E+01  0.00000000000E+00 0. -1.
         11    1    3    3    0    0  0.69850796047E+01 -0.98964121317E+00 -0.68815880971E+01  0.98553022184E+01  0.51100000000E-03 0. -1.
        -11    1    3    3    0    0 -0.37486679115E+02  0.18384833730E+02 -0.49267069970E+01  0.42041951244E+02  0.51100000000E-03 0.  1.
         12    1    3    3    0    0  0.31422509005E+02 -0.17551777188E+02  0.12529374827E+02  0.38110683387E+02  0.00000000000E+00 0. -1.
</event>
<event>
 7    1  0.2404951E-015  0.9000744E+02  0.7816164E-02  0.1186340E+00
        -11   -1    0    0    0    0  0.00000000000E+00  0.00000000000E+00  0.45593999997E+02  0.45594000000E+02  0.51100000000E-03 0.  1.
         11   -1    0    0    0    0 -0.00000000000E+00 -0.00000000000E+00 -0.45593999997E+02  0.45594000000E+02  0.51100000000E-03 0. -1.
    9900012    2    1    2    0    0  0.18898790201E+00 -0.80250791579E+00  0.84497441019E+00  0.90007442023E+02  0.89999699458E+02 0.  0.
         12    1    1    2    0    0 -0.18898790201E+00  0.80250791579E+00 -0.84497441019E+00  0.11805579765E+01  0.00000000000E+00 0. -1.
         11    1    3    3    0    0 -0.17437405165E+02  0.29384406818E+02 -0.11410064305E+02  0.36023548279E+02  0.51100000000E-03 0. -1.
        -11    1    3    3    0    0 -0.34117326699E+01  0.63732261994E+01 -0.45906066536E+01  0.85633872801E+01  0.51100000000E-03 0.  1.
        -12    1    3    3    0    0  0.21038125737E+02 -0.36560140933E+02  0.16845645368E+02  0.45420506464E+02  0.00000000000E+00 0.  1.
</event>
<event>
 7    1  0.2404951E-015  0.9000767E+02  0.7816164E-02  0.1186339E+00
        -11   -1    0    0    0    0  0.00000000000E+00  0.00000000000E+00  0.45593999997E+02  0.45594000000E+02  0.51100000000E-03 0.  1.
         11   -1    0    0    0    0 -0.00000000000E+00 -0.00000000000E+00 -0.45593999997E+02  0.45594000000E+02  0.51100000000E-03 0. -1.
    9900012    2    1    2    0    0  0.50456996828E+00  0.10711889798E+00  0.10616597369E+01  0.90007666696E+02  0.89999927096E+02 0.  0.
         12    1    1    2    0    0 -0.50456996828E+00 -0.10711889798E+00 -0.10616597369E+01  0.11803333039E+01  0.00000000000E+00 0. -1.
         11    1    3    3    0    0 -0.19325373075E+02  0.20366639048E+02 -0.19082890208E+02  0.33947411235E+02  0.51100000000E-03 0. -1.
        -11    1    3    3    0    0 -0.11994011186E+02  0.39723998554E+00 -0.19461272455E+01  0.12157364659E+02  0.51100000000E-03 0.  1.
        -12    1    3    3    0    0  0.31823954229E+02 -0.20656760136E+02  0.22090677190E+02  0.43902890802E+02  0.00000000000E+00 0.  1.
</event>
<event>
 7    1  0.2404951E-015  0.9000778E+02  0.7816164E-02  0.1186339E+00
        -11   -1    0    0    0    0  0.00000000000E+00  0.00000000000E+00  0.45593999997E+02  0.45594000000E+02  0.51100000000E-03 0.  1.
         11   -1    0    0    0    0 -0.00000000000E+00 -0.00000000000E+00 -0.45593999997E+02  0.45594000000E+02  0.51100000000E-03 0. -1.
    9900012    2    1    2    0    0 -0.77851679702E+00 -0.14525966372E+00  0.87506165738E+00  0.90007778971E+02  0.90000040853E+02 0.  0.
         12    1    1    2    0    0  0.77851679702E+00  0.14525966372E+00 -0.87506165738E+00  0.11802210290E+01  0.00000000000E+00 0. -1.
         11    1    3    3    0    0 -0.74399909000E+01 -0.75872787832E+01  0.57471548501E+01  0.12080978978E+02  0.51100000000E-03 0. -1.
        -11    1    3    3    0    0 -0.19430398911E+02 -0.22225983687E+02  0.15641630762E+02  0.33409510111E+02  0.51100000000E-03 0.  1.
         12    1    3    3    0    0  0.26091873014E+02  0.29668002807E+02 -0.20513723955E+02  0.44517289882E+02  0.00000000000E+00 0. -1.
</event>
<event>
 7    1  0.2404951E-015  0.9000779E+02  0.7816164E-02  0.1186339E+00
        -11   -1    0    0    0    0  0.00000000000E+00  0.00000000000E+00  0.45593999997E+02  0.45594000000E+02  0.51100000000E-03 0. -1.
         11   -1    0    0    0    0 -0.00000000000E+00 -0.00000000000E+00 -0.45593999997E+02  0.45594000000E+02  0.51100000000E-03 0.  1.
    9900012    2    1    2    0    0 -0.98943574645E+00  0.60796506771E+00  0.21048029050E+00  0.90007785370E+02  0.90000047337E+02 0.  0.
         12    1    1    2    0    0  0.98943574645E+00 -0.60796506771E+00 -0.21048029050E+00  0.11802146299E+01  0.00000000000E+00 0. -1.
         11    1    3    3    0    0  0.83623649107E+01  0.37851967791E+01  0.43930144686E+00  0.91896598184E+01  0.51100000000E-03 0. -1.
        -11    1    3    3    0    0  0.16138578221E+01 -0.64195408147E+00 -0.39718205502E+02  0.39756162927E+02  0.51100000000E-03 0.  1.
         12    1    3    3    0    0 -0.10965658479E+02 -0.25352776299E+01  0.39489384346E+02  0.41061962624E+02  0.00000000000E+00 0. -1.
</event>
<event>
 7    1  0.2404951E-015  0.9000758E+02  0.7816164E-02  0.1186339E+00
        -11   -1    0    0    0    0  0.00000000000E+00  0.00000000000E+00  0.45593999997E+02  0.45594000000E+02  0.51100000000E-03 0.  1.
         11   -1    0    0    0    0 -0.00000000000E+00 -0.00000000000E+00 -0.45593999997E+02  0.45594000000E+02  0.51100000000E-03 0. -1.
    9900012    2    1    2    0    0 -0.62373902753E+00  0.84268493778E+00  0.54242935623E+00  0.90007577243E+02  0.89999836462E+02 0.  0.
         12    1    1    2    0    0  0.62373902753E+00 -0.84268493778E+00 -0.54242935623E+00  0.11804227570E+01  0.00000000000E+00 0. -1.
         11    1    3    3    0    0 -0.29037143423E+02  0.21987118521E+01  0.18965849090E+02  0.34751884322E+02  0.51100000000E-03 0. -1.
        -11    1    3    3    0    0 -0.67947140298E+01 -0.76194615952E+00  0.85148383865E+01  0.10920218574E+02  0.51100000000E-03 0.  1.
        -12    1    3    3    0    0  0.35208118425E+02 -0.59408075478E+00 -0.26938258121E+02  0.44335474347E+02  0.00000000000E+00 0.  1.
</event>
<event>
 7    1  0.2404951E-015  0.9000766E+02  0.7816164E-02  0.1186339E+00
        -11   -1    0    0    0    0  0.00000000000E+00  0.00000000000E+00  0.45593999997E+02  0.45594000000E+02  0.51100000000E-03 0.  1.
         11   -1    0    0    0    0 -0.00000000000E+00 -0.00000000000E+00 -0.45593999997E+02  0.45594000000E+02  0.51100000000E-03 0. -1.
    9900012    2    1    2    0    0 -0.98073103542E+00  0.50394621189E+00  0.42120356782E+00  0.90007657849E+02  0.89999918132E+02 0.  0.
         12    1    1    2    0    0  0.98073103542E+00 -0.50394621189E+00 -0.42120356782E+00  0.11803421512E+01  0.00000000000E+00 0. -1.
         11    1    3    3    0    0 -0.11785908795E+02 -0.34768116421E+01 -0.38916157003E+02  0.40810086271E+02  0.51100000000E-03 0. -1.
        -11    1    3    3    0    0  0.61303767926E+01  0.64703032766E+01 -0.57834719015E+00  0.89320115228E+01  0.51100000000E-03 0.  1.
        -12    1    3    3    0    0  0.46748009669E+01 -0.24895454227E+01  0.39915707761E+02  0.40265560055E+02  0.00000000000E+00 0.  1.
</event>
<event>
 7    1  0.2404951E-015  0.9000774E+02  0.7816164E-02  0.1186339E+00
        -11   -1    0    0    0    0  0.00000000000E+00  0.00000000000E+00  0.45593999997E+02  0.45594000000E+02  0.51100000000E-03 0.  1.
         11   -1    0    0    0    0 -0.00000000000E+00 -0.00000000000E+00 -0.45593999997E+02  0.45594000000E+02  0.51100000000E-03 0. -1.
    9900012    2    1    2    0    0 -0.73428777517E+00  0.52058348104E+00  0.76342746796E+00  0.90007742741E+02  0.90000004146E+02 0.  0.
         12    1    1    2    0    0  0.73428777517E+00 -0.52058348104E+00 -0.76342746796E+00  0.11802572585E+01  0.00000000000E+00 0. -1.
         11    1    3    3    0    0 -0.10791224133E+02 -0.47033529822E+01 -0.34596990585E+02  0.36544819131E+02  0.51100000000E-03 0. -1.
        -11    1    3    3    0    0  0.14618990505E+00 -0.49258249741E+01 -0.71298239002E+01  0.86671513355E+01  0.51100000000E-03 0.  1.
        -12    1    3    3    0    0  0.99107464527E+01  0.10149761437E+02  0.42490241953E+02  0.44795772275E+02  0.00000000000E+00 0.  1.
</event>
<event>
 7    1  0.2404951E-015  0.9000754E+02  0.7816164E-02  0.1186339E+00
        -11   -1    0    0    0    0  0.00000000000E+00  0.00000000000E+00  0.45593999997E+02  0.45594000000E+02  0.51100000000E-03 0. -1.
         11   -1    0    0    0    0 -0.00000000000E+00 -0.00000000000E+00 -0.45593999997E+02  0.45594000000E+02  0.51100000000E-03 0.  1.
    9900012    2    1    2    0    0  0.30982279450E+00  0.31342508981E+00 -0.10951046999E+01  0.90007542565E+02  0.89999801327E+02 0.  0.
         12    1    1    2    0    0 -0.30982279450E+00 -0.31342508981E+00  0.10951046999E+01  0.11804574345E+01  0.00000000000E+00 0. -1.
         11    1    3    3    0    0 -0.33741138075E+02 -0.81757360605E+01  0.48383313612E+01  0.35053052783E+02  0.51100000000E-03 0. -1.
        -11    1    3    3    0    0 -0.92175523997E+01  0.53178595830E-01 -0.57629242948E+01  0.10870942778E+02  0.51100000000E-03 0.  1.
        -12    1    3    3    0    0  0.43268513270E+02  0.84359825545E+01 -0.17051176639E+00  0.44083547004E+02  0.00000000000E+00 0.  1.
</event>
<event>
 7    1  0.2404951E-015  0.9000771E+02  0.7816164E-02  0.1186339E+00
        -11   -1    0    0    0    0  0.00000000000E+00  0.00000000000E+00  0.45593999997E+02  0.45594000000E+02  0.51100000000E-03 0. -1.
         11   -1    0    0    0    0 -0.00000000000E+00 -0.00000000000E+00 -0.45593999997E+02  0.45594000000E+02  0.51100000000E-03 0.  1.
    9900012    2    1    2    0    0  0.94055934851E+00 -0.70812832816E+00 -0.83598014464E-01  0.90007709254E+02  0.89999970216E+02 0.  0.
         12    1    1    2    0    0 -0.94055934851E+00  0.70812832816E+00  0.83598014464E-01  0.11802907461E+01  0.00000000000E+00 0. -1.
         11    1    3    3    0    0 -0.12454459426E+02  0.31711336895E+02  0.13741086984E+02  0.36736084699E+02  0.51100000000E-03 0. -1.
        -11    1    3    3    0    0  0.74485827113E+01  0.74932625374E+01 -0.60536873781E+01  0.12176924858E+02  0.51100000000E-03 0.  1.
        -12    1    3    3    0    0  0.59464360628E+01 -0.39912727761E+02 -0.77709976202E+01  0.41094699697E+02  0.00000000000E+00 0.  1.
</event>
<event>
 7    1  0.2404951E-015  0.9000836E+02  0.7816164E-02  0.1186338E+00
        -11   -1    0    0    0    0  0.00000000000E+00  0.00000000000E+00  0.45593999997E+02  0.45594000000E+02  0.51100000000E-03 0.  1.
         11   -1    0    0    0    0 -0.00000000000E+00 -0.00000000000E+00 -0.45593999997E+02  0.45594000000E+02  0.51100000000E-03 0. -1.
    9900012    2    1    2    0    0 -0.74925976747E+00  0.88653294090E+00 -0.21028671137E+00  0.90008359650E+02  0.90000629195E+02 0.  0.
         12    1    1    2    0    0  0.74925976747E+00 -0.88653294090E+00  0.21028671137E+00  0.11796403500E+01  0.00000000000E+00 0. -1.
         11    1    3    3    0    0 -0.25085290992E+02  0.23004259706E+01 -0.29710526905E+02  0.38952268137E+02  0.51100000000E-03 0. -1.
        -11    1    3    3    0    0 -0.81719321686E+01 -0.39255434779E+01  0.63677496943E+01  0.11078745570E+02  0.51100000000E-03 0.  1.
        -12    1    3    3    0    0  0.32507963393E+02  0.25116504481E+01  0.23132490499E+02  0.39977345943E+02  0.00000000000E+00 0.  1.
</event>
<event>
 7    1  0.2404951E-015  0.9000775E+02  0.7816164E-02  0.1186339E+00
        -11   -1    0    0    0    0  0.00000000000E+00  0.00000000000E+00  0.45593999997E+02  0.45594000000E+02  0.51100000000E-03 0.  1.
         11   -1    0    0    0    0 -0.00000000000E+00 -0.00000000000E+00 -0.45593999997E+02  0.45594000000E+02  0.51100000000E-03 0. -1.
    9900012    2    1    2    0    0  0.90665538232E+00  0.41313778559E+00  0.63267160609E+00  0.90007754189E+02  0.90000015745E+02 0.  0.
         12    1    1    2    0    0 -0.90665538232E+00 -0.41313778559E+00 -0.63267160609E+00  0.11802458106E+01  0.00000000000E+00 0. -1.
         11    1    3    3    0    0 -0.21221475104E+01  0.22752637507E+01  0.11541167427E+02  0.11953195432E+02  0.51100000000E-03 0. -1.
        -11    1    3    3    0    0 -0.15043748923E+02 -0.23715693525E+02  0.21220700362E+02  0.35200378196E+02  0.51100000000E-03 0.  1.
         12    1    3    3    0    0  0.18072551816E+02  0.21853567560E+02 -0.32129196183E+02  0.42854180561E+02  0.00000000000E+00 0. -1.
</event>
<event>
 7    1  0.2404951E-015  0.9000780E+02  0.7816164E-02  0.1186339E+00
        -11   -1    0    0    0    0  0.00000000000E+00  0.00000000000E+00  0.45593999997E+02  0.45594000000E+02  0.51100000000E-03 0.  1.
         11   -1    0    0    0    0 -0.00000000000E+00 -0.00000000000E+00 -0.45593999997E+02  0.45594000000E+02  0.51100000000E-03 0. -1.
    9900012    2    1    2    0    0 -0.10117761658E+01 -0.60746966624E+00 -0.12362853989E-01  0.90007803726E+02  0.90000065935E+02 0.  0.
         12    1    1    2    0    0  0.10117761658E+01  0.60746966624E+00  0.12362853989E-01  0.11801962741E+01  0.00000000000E+00 0. -1.
         11    1    3    3    0    0  0.92015636027E+01  0.14004922412E+01 -0.85973103310E+00  0.93471540569E+01  0.51100000000E-03 0. -1.
        -11    1    3    3    0    0  0.33047707908E+01 -0.26247298374E+02  0.30278453633E+02  0.40207299543E+02  0.51100000000E-03 0.  1.
         12    1    3    3    0    0 -0.13518110559E+02  0.24239336466E+02 -0.29431085454E+02  0.40453350126E+02  0.00000000000E+00 0. -1.
</event>
<event>
 7    1  0.2404951E-015  0.9000779E+02  0.7816164E-02  0.1186339E+00
        -11   -1    0    0    0    0  0.00000000000E+00  0.00000000000E+00  0.45593999997E+02  0.45594000000E+02  0.51100000000E-03 0. -1.
         11   -1    0    0    0    0 -0.00000000000E+00 -0.00000000000E+00 -0.45593999997E+02  0.45594000000E+02  0.51100000000E-03 0.  1.
    9900012    2    1    2    0    0  0.55637355756E+00  0.59056664204E+00 -0.85707090359E+00  0.90007791956E+02  0.90000054009E+02 0.  0.
         12    1    1    2    0    0 -0.55637355756E+00 -0.59056664204E+00  0.85707090359E+00  0.11802080444E+01  0.00000000000E+00 0. -1.
         11    1    3    3    0    0 -0.41265355742E+01  0.66429455691E+01 -0.44066758880E+01  0.89764031951E+01  0.51100000000E-03 0. -1.
        -11    1    3    3    0    0 -0.26714257046E+02  0.19333105260E+02  0.18696984851E+02  0.37907752918E+02  0.51100000000E-03 0.  1.
         12    1    3    3    0    0  0.31397166178E+02 -0.25385484187E+02 -0.15147379867E+02  0.43123635842E+02  0.00000000000E+00 0. -1.
</event>
<event>
 7    1  0.2404951E-015  0.9000770E+02  0.7816164E-02  0.1186339E+00
        -11   -1    0    0    0    0  0.00000000000E+00  0.00000000000E+00  0.45593999997E+02  0.45594000000E+02  0.51100000000E-03 0.  1.
         11   -1    0    0    0    0 -0.00000000000E+00 -0.00000000000E+00 -0.45593999997E+02  0.45594000000E+02  0.51100000000E-03 0. -1.
    9900012    2    1    2    0    0  0.91926767936E+00  0.61883323478E+00  0.40634006334E+00  0.90007695003E+02  0.89999955777E+02 0.  0.
         12    1    1    2    0    0 -0.91926767936E+00 -0.61883323478E+00 -0.40634006334E+00  0.11803049970E+01  0.00000000000E+00 0. -1.
         11    1    3    3    0    0  0.85607096127E+01 -0.24106515657E+01 -0.16664451827E+01  0.90484269269E+01  0.51100000000E-03 0. -1.
        -11    1    3    3    0    0 -0.30077053719E+02 -0.28912348857E+02 -0.16185276368E+01  0.41751319846E+02  0.51100000000E-03 0.  1.
         12    1    3    3    0    0  0.22435611786E+02  0.31941833658E+02  0.36913128829E+01  0.39207948230E+02  0.00000000000E+00 0. -1.
</event>
<event>
 7    1  0.2404951E-015  0.9000797E+02  0.7816164E-02  0.1186339E+00
        -11   -1    0    0    0    0  0.00000000000E+00  0.00000000000E+00  0.45593999997E+02  0.45594000000E+02  0.51100000000E-03 0.  1.
         11   -1    0    0    0    0 -0.00000000000E+00 -0.00000000000E+00 -0.45593999997E+02  0.45594000000E+02  0.51100000000E-03 0. -1.
    9900012    2    1    2    0    0  0.15324614277E-02  0.74181140529E-01  0.11776960398E+01  0.90007969004E+02  0.90000233394E+02 0.  0.
         12    1    1    2    0    0 -0.15324614277E-02 -0.74181140529E-01 -0.11776960398E+01  0.11800309963E+01  0.00000000000E+00 0. -1.
         11    1    3    3    0    0  0.57533513207E+01 -0.10548187991E+01  0.68559319265E+01  0.90120750640E+01  0.51100000000E-03 0. -1.
        -11    1    3    3    0    0  0.84528049241E+01  0.13887255024E+01  0.35977948953E+02  0.36983662349E+02  0.51100000000E-03 0.  1.
         12    1    3    3    0    0 -0.14204623783E+02 -0.25972556278E+00 -0.41656184840E+02  0.44012231591E+02  0.00000000000E+00 0. -1.
</event>
<event>
 7    1  0.2404951E-015  0.9000775E+02  0.7816164E-02  0.1186339E+00
        -11   -1    0    0    0    0  0.00000000000E+00  0.00000000000E+00  0.45593999997E+02  0.45594000000E+02  0.51100000000E-03 0. -1.
         11   -1    0    0    0    0 -0.00000000000E+00 -0.00000000000E+00 -0.45593999997E+02  0.45594000000E+02  0.51100000000E-03 0.  1.
    9900012    2    1    2    0    0 -0.97942574865E+00  0.64437067275E+00 -0.13600170384E+00  0.90007752219E+02  0.90000013748E+02 0.  0.
         12    1    1    2    0    0  0.97942574865E+00 -0.64437067275E+00  0.13600170384E+00  0.11802477810E+01  0.00000000000E+00 0. -1.
         11    1    3    3    0    0  0.18216292670E+01 -0.66184243438E+00  0.16354334835E+02  0.16468777633E+02  0.51100000000E-03 0. -1.
        -11    1    3    3    0    0 -0.22739248990E+02 -0.88867540030E+01 -0.36229830977E+02  0.43688081833E+02  0.51100000000E-03 0.  1.
         12    1    3    3    0    0  0.19938193974E+02  0.10192967110E+02  0.19739494438E+02  0.29850892753E+02  0.00000000000E+00 0. -1.
</event>
<event>
 7    1  0.2404951E-015  0.9000769E+02  0.7816164E-02  0.1186339E+00
        -11   -1    0    0    0    0  0.00000000000E+00  0.00000000000E+00  0.45593999997E+02  0.45594000000E+02  0.51100000000E-03 0.  1.
         11   -1    0    0    0    0 -0.00000000000E+00 -0.00000000000E+00 -0.45593999997E+02  0.45594000000E+02  0.51100000000E-03 0. -1.
    9900012    2    1    2    0    0 -0.14374608517E+00 -0.11714278125E+01 -0.15161108496E-01  0.90007688212E+02  0.89999948897E+02 0.  0.
         12    1    1    2    0    0  0.14374608517E+00  0.11714278125E+01  0.15161108496E-01  0.11803117877E+01  0.00000000000E+00 0. -1.
         11    1    3    3    0    0  0.36012127013E+01 -0.42549708374E+00 -0.61717196571E+01  0.71582053949E+01  0.51100000000E-03 0. -1.
        -11    1    3    3    0    0 -0.11086850709E+02  0.38919743497E+02 -0.55473139331E+01  0.40846510067E+02  0.51100000000E-03 0.  1.
         12    1    3    3    0    0  0.73418919228E+01 -0.39665674226E+02  0.11703872482E+02  0.42002972750E+02  0.00000000000E+00 0. -1.
</event>
<event>
 7    1  0.2404951E-015  0.9000775E+02  0.7816164E-02  0.1186339E+00
        -11   -1    0    0    0    0  0.00000000000E+00  0.00000000000E+00  0.45593999997E+02  0.45594000000E+02  0.51100000000E-03 0.  1.
         11   -1    0    0    0    0 -0.00000000000E+00 -0.00000000000E+00 -0.45593999997E+02  0.45594000000E+02  0.51100000000E-03 0. -1.
    9900012    2    1    2    0    0  0.41399548555E+00  0.58393469014E+00 -0.93841587945E+00  0.90007747338E+02  0.90000008802E+02 0.  0.
         12    1    1    2    0    0 -0.41399548555E+00 -0.58393469014E+00  0.93841587945E+00  0.11802526624E+01  0.00000000000E+00 0. -1.
         11    1    3    3    0    0 -0.27258154213E+02 -0.92909780152E+01 -0.20716238715E+02  0.35475227840E+02  0.51100000000E-03 0. -1.
        -11    1    3    3    0    0 -0.95754779988E+01 -0.57737046234E+00 -0.24691947809E+01  0.99055569597E+01  0.51100000000E-03 0.  1.
        -12    1    3    3    0    0  0.37247627697E+02  0.10452283168E+02  0.22247017616E+02  0.44626962537E+02  0.00000000000E+00 0.  1.
</event>
<event>
 7    1  0.2404951E-015  0.9000777E+02  0.7816164E-02  0.1186339E+00
        -11   -1    0    0    0    0  0.00000000000E+00  0.00000000000E+00  0.45593999997E+02  0.45594000000E+02  0.51100000000E-03 0.  1.
         11   -1    0    0    0    0 -0.00000000000E+00 -0.00000000000E+00 -0.45593999997E+02  0.45594000000E+02  0.51100000000E-03 0. -1.
    9900012    2    1    2    0    0  0.98839042047E+00  0.58533650385E+00  0.27095596828E+00  0.90007766302E+02  0.90000028017E+02 0.  0.
         12    1    1    2    0    0 -0.98839042047E+00 -0.58533650385E+00 -0.27095596828E+00  0.11802336984E+01  0.00000000000E+00 0. -1.
         11    1    3    3    0    0 -0.15952520808E+02 -0.21146743765E+02 -0.17376754348E+02  0.31679950819E+02  0.51100000000E-03 0. -1.
        -11    1    3    3    0    0 -0.16173740435E+02  0.80894895669E+00  0.27832341534E+01  0.16431392840E+02  0.51100000000E-03 0.  1.
        -12    1    3    3    0    0  0.33114651663E+02  0.20923131312E+02  0.14864476163E+02  0.41896422642E+02  0.00000000000E+00 0.  1.
</event>
<event>
 7    1  0.2404951E-015  0.9000769E+02  0.7816164E-02  0.1186339E+00
        -11   -1    0    0    0    0  0.00000000000E+00  0.00000000000E+00  0.45593999997E+02  0.45594000000E+02  0.51100000000E-03 0.  1.
         11   -1    0    0    0    0 -0.00000000000E+00 -0.00000000000E+00 -0.45593999997E+02  0.45594000000E+02  0.51100000000E-03 0. -1.
    9900012    2    1    2    0    0  0.89165954797E-01  0.60017514093E-01  0.11754070607E+01  0.90007688843E+02  0.89999949536E+02 0.  0.
         12    1    1    2    0    0 -0.89165954797E-01 -0.60017514093E-01 -0.11754070607E+01  0.11803111572E+01  0.00000000000E+00 0. -1.
         11    1    3    3    0    0 -0.40553256747E+01 -0.49615124861E+00  0.84247657977E+01  0.93631464475E+01  0.51100000000E-03 0. -1.
        -11    1    3    3    0    0  0.34642425597E+02 -0.91422009752E+01  0.17797685488E+02  0.40005438367E+02  0.51100000000E-03 0.  1.
         12    1    3    3    0    0 -0.30497933967E+02  0.96983697379E+01 -0.25047044225E+02  0.40639104029E+02  0.00000000000E+00 0. -1.
</event>
<event>
 7    1  0.2404951E-015  0.9000777E+02  0.7816164E-02  0.1186339E+00
        -11   -1    0    0    0    0  0.00000000000E+00  0.00000000000E+00  0.45593999997E+02  0.45594000000E+02  0.51100000000E-03 0.  1.
         11   -1    0    0    0    0 -0.00000000000E+00 -0.00000000000E+00 -0.45593999997E+02  0.45594000000E+02  0.51100000000E-03 0. -1.
    9900012    2    1    2    0    0  0.34767824368E+00 -0.85858668399E+00  0.73136441999E+00  0.90007769018E+02  0.90000030769E+02 0.  0.
         12    1    1    2    0    0 -0.34767824368E+00  0.85858668399E+00 -0.73136441999E+00  0.11802309816E+01  0.00000000000E+00 0. -1.
         11    1    3    3    0    0  0.51773025756E+00 -0.76493633062E+00  0.80493915570E+01  0.81022143213E+01  0.51100000000E-03 0. -1.
        -11    1    3    3    0    0  0.40442098393E+02  0.76302895573E+00 -0.82122561417E+01  0.41274528305E+02  0.51100000000E-03 0.  1.
         12    1    3    3    0    0 -0.40612150407E+02 -0.85667930910E+00  0.89422900468E+00  0.40631026392E+02  0.00000000000E+00 0. -1.
</event>
<event>
 7    1  0.2404951E-015  0.9000770E+02  0.7816164E-02  0.1186339E+00
        -11   -1    0    0    0    0  0.00000000000E+00  0.00000000000E+00  0.45593999997E+02  0.45594000000E+02  0.51100000000E-03 0. -1.
         11   -1    0    0    0    0 -0.00000000000E+00 -0.00000000000E+00 -0.45593999997E+02  0.45594000000E+02  0.51100000000E-03 0.  1.
    9900012    2    1    2    0    0 -0.11658815739E+01 -0.74425023743E-01  0.16817027333E+00  0.90007703355E+02  0.89999964240E+02 0.  0.
         12    1    1    2    0    0  0.11658815739E+01  0.74425023743E-01 -0.16817027333E+00  0.11802966446E+01  0.00000000000E+00 0. -1.
         11    1    3    3    0    0  0.21028439350E+01 -0.75592864405E+01 -0.50840216145E+01  0.93494406326E+01  0.51100000000E-03 0. -1.
        -11    1    3    3    0    0  0.30222573613E+01 -0.34243815691E+02 -0.99749386543E+01  0.35794864912E+02  0.51100000000E-03 0.  1.
         12    1    3    3    0    0 -0.62909828701E+01  0.41728677108E+02  0.15227130542E+02  0.44863397811E+02  0.00000000000E+00 0. -1.
</event>
<event>
 7    1  0.2404951E-015  0.9000741E+02  0.7816164E-02  0.1186340E+00
        -11   -1    0    0    0    0  0.00000000000E+00  0.00000000000E+00  0.45593999997E+02  0.45594000000E+02  0.51100000000E-03 0. -1.
         11   -1    0    0    0    0 -0.00000000000E+00 -0.00000000000E+00 -0.45593999997E+02  0.45594000000E+02  0.51100000000E-03 0.  1.
    9900012    2    1    2    0    0  0.98992742560E+00  0.52515430167E-01 -0.64116116996E+00  0.90007406156E+02  0.89999663117E+02 0.  0.
         12    1    1    2    0    0 -0.98992742560E+00 -0.52515430167E-01  0.64116116996E+00  0.11805938439E+01  0.00000000000E+00 0. -1.
         11    1    3    3    0    0 -0.59192782226E+00  0.16973230265E+02 -0.14695882947E+02  0.22459071665E+02  0.51100000000E-03 0. -1.
        -11    1    3    3    0    0 -0.81705360314E+01 -0.92819184326E+01 -0.24287679519E+02  0.27254413321E+02  0.51100000000E-03 0.  1.
         12    1    3    3    0    0  0.97523912793E+01 -0.76387964022E+01  0.38342401296E+02  0.40293921170E+02  0.00000000000E+00 0. -1.
</event>
<event>
 7    1  0.2404951E-015  0.9000763E+02  0.7816164E-02  0.1186339E+00
        -11   -1    0    0    0    0  0.00000000000E+00  0.00000000000E+00  0.45593999997E+02  0.45594000000E+02  0.51100000000E-03 0.  1.
         11   -1    0    0    0    0 -0.00000000000E+00 -0.00000000000E+00 -0.45593999997E+02  0.45594000000E+02  0.51100000000E-03 0. -1.
    9900012    2    1    2    0    0  0.23227839442E+00 -0.14642547361E+00  0.11479846561E+01  0.90007634615E+02  0.89999894592E+02 0.  0.
         12    1    1    2    0    0 -0.23227839442E+00  0.14642547361E+00 -0.11479846561E+01  0.11803653852E+01  0.00000000000E+00 0. -1.
         11    1    3    3    0    0 -0.53705085082E+01 -0.16968812045E+01  0.84131402117E+01  0.10124361508E+02  0.51100000000E-03 0. -1.
        -11    1    3    3    0    0  0.11833663373E+02 -0.19126364912E+01  0.35013096707E+02  0.37008251897E+02  0.51100000000E-03 0.  1.
         12    1    3    3    0    0 -0.62308764708E+01  0.34630922220E+01 -0.42278252263E+02  0.42875021210E+02  0.00000000000E+00 0. -1.
</event>
<event>
 7    1  0.2404951E-015  0.9000716E+02  0.7816164E-02  0.1186340E+00
        -11   -1    0    0    0    0  0.00000000000E+00  0.00000000000E+00  0.45593999997E+02  0.45594000000E+02  0.51100000000E-03 0.  1.
         11   -1    0    0    0    0 -0.00000000000E+00 -0.00000000000E+00 -0.45593999997E+02  0.45594000000E+02  0.51100000000E-03 0. -1.
    9900012    2    1    2    0    0 -0.78620687481E+00  0.75670187650E+00 -0.45127972098E+00  0.90007164547E+02  0.89999418317E+02 0.  0.
         12    1    1    2    0    0  0.78620687481E+00 -0.75670187650E+00  0.45127972098E+00  0.11808354528E+01  0.00000000000E+00 0. -1.
         11    1    3    3    0    0 -0.16871731751E+01 -0.99117690781E+00  0.78365838799E+01  0.80771920958E+01  0.51100000000E-03 0. -1.
        -11    1    3    3    0    0 -0.20822168182E+02  0.67323166544E+01  0.30295184130E+02  0.37372248488E+02  0.51100000000E-03 0.  1.
         12    1    3    3    0    0  0.21723134482E+02 -0.49844378701E+01 -0.38583047731E+02  0.44557723963E+02  0.00000000000E+00 0. -1.
</event>
<event>
 7    1  0.2404951E-015  0.9000776E+02  0.7816164E-02  0.1186339E+00
        -11   -1    0    0    0    0  0.00000000000E+00  0.00000000000E+00  0.45593999997E+02  0.45594000000E+02  0.51100000000E-03 0.  1.
         11   -1    0    0    0    0 -0.00000000000E+00 -0.00000000000E+00 -0.45593999997E+02  0.45594000000E+02  0.51100000000E-03 0. -1.
    9900012    2    1    2    0    0  0.50007296422E+00 -0.84564854699E+00  0.65403864537E+00  0.90007762319E+02  0.90000023981E+02 0.  0.
         12    1    1    2    0    0 -0.50007296422E+00  0.84564854699E+00 -0.65403864537E+00  0.11802376812E+01  0.00000000000E+00 0. -1.
         11    1    3    3    0    0  0.15542645030E+02 -0.29657132673E+02 -0.47789221276E+01  0.33822439738E+02  0.51100000000E-03 0. -1.
        -11    1    3    3    0    0  0.19490662783E+00 -0.11419136852E+02 -0.40778253465E+01  0.12126967257E+02  0.51100000000E-03 0.  1.
        -12    1    3    3    0    0 -0.15237478693E+02  0.40230620978E+02  0.95107861194E+01  0.44058355323E+02  0.00000000000E+00 0.  1.
</event>
<event>
 7    1  0.2404951E-015  0.9000793E+02  0.7816164E-02  0.1186339E+00
        -11   -1    0    0    0    0  0.00000000000E+00  0.00000000000E+00  0.45593999997E+02  0.45594000000E+02  0.51100000000E-03 0.  1.
         11   -1    0    0    0    0 -0.00000000000E+00 -0.00000000000E+00 -0.45593999997E+02  0.45594000000E+02  0.51100000000E-03 0. -1.
    9900012    2    1    2    0    0  0.52140936121E+00 -0.99125994249E+00  0.37161421868E+00  0.90007931729E+02  0.90000195628E+02 0.  0.
         12    1    1    2    0    0 -0.52140936121E+00  0.99125994249E+00 -0.37161421868E+00  0.11800682705E+01  0.00000000000E+00 0. -1.
         11    1    3    3    0    0  0.75176590845E+01 -0.39857965704E+01  0.36991257202E+01  0.92782166264E+01  0.51100000000E-03 0. -1.
        -11    1    3    3    0    0 -0.14678022361E+02 -0.28185650135E+02  0.22980248595E+02  0.39216922874E+02  0.51100000000E-03 0.  1.
         12    1    3    3    0    0  0.76817726375E+01  0.31180186763E+02 -0.26307760096E+02  0.41512792229E+02  0.00000000000E+00 0. -1.
</event>
<event>
 7    1  0.2404951E-015  0.9000768E+02  0.7816164E-02  0.1186339E+00
        -11   -1    0    0    0    0  0.00000000000E+00  0.00000000000E+00  0.45593999997E+02  0.45594000000E+02  0.51100000000E-03 0.  1.
         11   -1    0    0    0    0 -0.00000000000E+00 -0.00000000000E+00 -0.45593999997E+02  0.45594000000E+02  0.51100000000E-03 0. -1.
    9900012    2    1    2    0    0 -0.15621196640E+00  0.10604514310E+01 -0.49417228812E+00  0.90007675610E+02  0.89999936128E+02 0.  0.
         12    1    1    2    0    0  0.15621196640E+00 -0.10604514310E+01  0.49417228812E+00  0.11803243902E+01  0.00000000000E+00 0. -1.
         11    1    3    3    0    0  0.35910979911E+02  0.18977641685E+01 -0.37188263852E+01  0.36152865128E+02  0.51100000000E-03 0. -1.
        -11    1    3    3    0    0  0.87124907822E+01  0.18102999449E+01  0.69400045943E+00  0.89255990510E+01  0.51100000000E-03 0.  1.
        -12    1    3    3    0    0 -0.44779682659E+02 -0.26476126824E+01  0.25306536377E+01  0.44929211431E+02  0.00000000000E+00 0.  1.
</event>
<event>
 7    1  0.2404951E-015  0.9000777E+02  0.7816164E-02  0.1186339E+00
        -11   -1    0    0    0    0  0.00000000000E+00  0.00000000000E+00  0.45593999997E+02  0.45594000000E+02  0.51100000000E-03 0. -1.
         11   -1    0    0    0    0 -0.00000000000E+00 -0.00000000000E+00 -0.45593999997E+02  0.45594000000E+02  0.51100000000E-03 0.  1.
    9900012    2    1    2    0    0  0.10546277915E+01  0.52873311191E+00 -0.33833765040E-01  0.90007769850E+02  0.90000031612E+02 0.  0.
         12    1    1    2    0    0 -0.10546277915E+01 -0.52873311191E+00  0.33833765040E-01  0.11802301495E+01  0.00000000000E+00 0. -1.
         11    1    3    3    0    0  0.72502255011E+01  0.74716568602E+01 -0.27549823713E+01  0.10769463969E+02  0.51100000000E-03 0. -1.
        -11    1    3    3    0    0  0.34668739418E+01  0.34469303995E+01 -0.36864222602E+02  0.37186979609E+02  0.51100000000E-03 0.  1.
         12    1    3    3    0    0 -0.96624716515E+01 -0.10389854148E+02  0.39585371208E+02  0.42051326273E+02  0.00000000000E+00 0. -1.
</event>
<event>
 7    1  0.2404951E-015  0.9000758E+02  0.7816164E-02  0.1186339E+00
        -11   -1    0    0    0    0  0.00000000000E+00  0.00000000000E+00  0.45593999997E+02  0.45594000000E+02  0.51100000000E-03 0.  1.
         11   -1    0    0    0    0 -0.00000000000E+00 -0.00000000000E+00 -0.45593999997E+02  0.45594000000E+02  0.51100000000E-03 0. -1.
    9900012    2    1    2    0    0 -0.16533491420E+00  0.11150531215E+01  0.35030511455E+00  0.90007579409E+02  0.89999838657E+02 0.  0.
         12    1    1    2    0    0  0.16533491420E+00 -0.11150531215E+01 -0.35030511455E+00  0.11804205907E+01  0.00000000000E+00 0. -1.
         11    1    3    3    0    0  0.81248632788E+01 -0.51408303406E+01  0.34799996977E+00  0.96209481929E+01  0.51100000000E-03 0. -1.
        -11    1    3    3    0    0  0.28677976084E+02 -0.17203875554E+02  0.11067789718E+02  0.35226348319E+02  0.51100000000E-03 0.  1.
         12    1    3    3    0    0 -0.36968174277E+02  0.23459759017E+02 -0.11065484574E+02  0.45160282897E+02  0.00000000000E+00 0. -1.
</event>
<event>
 7    1  0.2404951E-015  0.9000772E+02  0.7816164E-02  0.1186339E+00
        -11   -1    0    0    0    0  0.00000000000E+00  0.00000000000E+00  0.45593999997E+02  0.45594000000E+02  0.51100000000E-03 0.  1.
         11   -1    0    0    0    0 -0.00000000000E+00 -0.00000000000E+00 -0.45593999997E+02  0.45594000000E+02  0.51100000000E-03 0. -1.
    9900012    2    1    2    0    0  0.79008328117E+00  0.55154724917E+00  0.68164082261E+00  0.90007716064E+02  0.89999977116E+02 0.  0.
         12    1    1    2    0    0 -0.79008328117E+00 -0.55154724917E+00 -0.68164082261E+00  0.11802839363E+01  0.00000000000E+00 0. -1.
         11    1    3    3    0    0  0.94840689943E+01  0.63511477876E+00 -0.35794976816E+01  0.10156955222E+02  0.51100000000E-03 0. -1.
        -11    1    3    3    0    0  0.18089732212E+02  0.32133550512E+02 -0.41825276569E+01  0.37111952493E+02  0.51100000000E-03 0.  1.
         12    1    3    3    0    0 -0.26783717926E+02 -0.32217118041E+02  0.84436661612E+01  0.42738808348E+02  0.00000000000E+00 0. -1.
</event>
<event>
 7    1  0.2404951E-015  0.9000776E+02  0.7816164E-02  0.1186339E+00
        -11   -1    0    0    0    0  0.00000000000E+00  0.00000000000E+00  0.45593999997E+02  0.45594000000E+02  0.51100000000E-03 0.  1.
         11   -1    0    0    0    0 -0.00000000000E+00 -0.00000000000E+00 -0.45593999997E+02  0.45594000000E+02  0.51100000000E-03 0. -1.
    9900012    2    1    2    0    0 -0.90911689943E+00  0.35484194324E+00  0.66375374891E+00  0.90007756220E+02  0.90000017802E+02 0.  0.
         12    1    1    2    0    0  0.90911689943E+00 -0.35484194324E+00 -0.66375374891E+00  0.11802437802E+01  0.00000000000E+00 0. -1.
         11    1    3    3    0    0 -0.79770308683E+01  0.48451541019E+01 -0.10500118232E+01  0.93920745757E+01  0.51100000000E-03 0. -1.
        -11    1    3    3    0    0 -0.52198084004E+01  0.20525539256E+02  0.32687253707E+02  0.38948693389E+02  0.51100000000E-03 0.  1.
         12    1    3    3    0    0  0.12287722369E+02 -0.25015851415E+02 -0.30973488135E+02  0.41666988256E+02  0.00000000000E+00 0. -1.
</event>
<event>
 7    1  0.2404951E-015  0.9000769E+02  0.7816164E-02  0.1186339E+00
        -11   -1    0    0    0    0  0.00000000000E+00  0.00000000000E+00  0.45593999997E+02  0.45594000000E+02  0.51100000000E-03 0.  1.
         11   -1    0    0    0    0 -0.00000000000E+00 -0.00000000000E+00 -0.45593999997E+02  0.45594000000E+02  0.51100000000E-03 0. -1.
    9900012    2    1    2    0    0  0.60992622815E+00  0.78054369165E+00  0.64177096969E+00  0.90007691381E+02  0.89999952107E+02 0.  0.
         12    1    1    2    0    0 -0.60992622815E+00 -0.78054369165E+00 -0.64177096969E+00  0.11803086189E+01  0.00000000000E+00 0. -1.
         11    1    3    3    0    0  0.80909166503E+01 -0.14299099606E+02 -0.39755639154E+02  0.43016717989E+02  0.51100000000E-03 0. -1.
        -11    1    3    3    0    0 -0.51489346787E+01  0.28574479841E+01  0.13946783436E+01  0.60515836978E+01  0.51100000000E-03 0.  1.
        -12    1    3    3    0    0 -0.23320557434E+01  0.12222195313E+02  0.39002731780E+02  0.40939389694E+02  0.00000000000E+00 0.  1.
</event>
<event>
 7    1  0.2404951E-015  0.9000778E+02  0.7816164E-02  0.1186339E+00
        -11   -1    0    0    0    0  0.00000000000E+00  0.00000000000E+00  0.45593999997E+02  0.45594000000E+02  0.51100000000E-03 0.  1.
         11   -1    0    0    0    0 -0.00000000000E+00 -0.00000000000E+00 -0.45593999997E+02  0.45594000000E+02  0.51100000000E-03 0. -1.
    9900012    2    1    2    0    0 -0.11166369139E+01  0.38208903886E+00  0.61349276844E-02  0.90007784906E+02  0.90000046867E+02 0.  0.
         12    1    1    2    0    0  0.11166369139E+01 -0.38208903886E+00 -0.61349276844E-02  0.11802150942E+01  0.00000000000E+00 0. -1.
         11    1    3    3    0    0  0.17569989995E+02 -0.17287719237E+01 -0.31478925502E+02  0.36091771248E+02  0.51100000000E-03 0. -1.
        -11    1    3    3    0    0  0.94280735002E+01  0.83302802781E+01  0.20642250372E+01  0.12749241731E+02  0.51100000000E-03 0.  1.
        -12    1    3    3    0    0 -0.28114700409E+02 -0.62194193155E+01  0.29420835393E+02  0.41166771927E+02  0.00000000000E+00 0.  1.
</event>
<event>
 7    1  0.2404951E-015  0.9000818E+02  0.7816164E-02  0.1186338E+00
        -11   -1    0    0    0    0  0.00000000000E+00  0.00000000000E+00  0.45593999997E+02  0.45594000000E+02  0.51100000000E-03 0.  1.
         11   -1    0    0    0    0 -0.00000000000E+00 -0.00000000000E+00 -0.45593999997E+02  0.45594000000E+02  0.51100000000E-03 0. -1.
    9900012    2    1    2    0    0 -0.76280551730E+00 -0.11244064317E+00  0.89301191255E+00  0.90008175678E+02  0.90000442796E+02 0.  0.
         12    1    1    2    0    0  0.76280551730E+00  0.11244064317E+00 -0.89301191255E+00  0.11798243223E+01  0.00000000000E+00 0. -1.
         11    1    3    3    0    0 -0.71895489890E+01  0.35315847618E+00 -0.48469927856E+01  0.86779994756E+01  0.51100000000E-03 0. -1.
        -11    1    3    3    0    0 -0.61485173945E+01  0.27341081742E+02  0.30945674279E+02  0.41748937397E+02  0.51100000000E-03 0.  1.
         12    1    3    3    0    0  0.12575260866E+02 -0.27806680861E+02 -0.25205669581E+02  0.39581238805E+02  0.00000000000E+00 0. -1.
</event>
<event>
 7    1  0.2404951E-015  0.9000784E+02  0.7816164E-02  0.1186339E+00
        -11   -1    0    0    0    0  0.00000000000E+00  0.00000000000E+00  0.45593999997E+02  0.45594000000E+02  0.51100000000E-03 0.  1.
         11   -1    0    0    0    0 -0.00000000000E+00 -0.00000000000E+00 -0.45593999997E+02  0.45594000000E+02  0.51100000000E-03 0. -1.
    9900012    2    1    2    0    0  0.71146055583E+00  0.53801409880E-01  0.94005819394E+00  0.90007838942E+02  0.90000101616E+02 0.  0.
         12    1    1    2    0    0 -0.71146055583E+00 -0.53801409880E-01 -0.94005819394E+00  0.11801610577E+01  0.00000000000E+00 0. -1.
         11    1    3    3    0    0  0.70289633717E+01 -0.47047211912E+01  0.43999045362E+01  0.95341432628E+01  0.51100000000E-03 0. -1.
        -11    1    3    3    0    0  0.21953777947E+02  0.33438201958E+02 -0.39831904549E+01  0.40198849770E+02  0.51100000000E-03 0.  1.
         12    1    3    3    0    0 -0.28271280763E+02 -0.28679679357E+02  0.52334411263E+00  0.40274845910E+02  0.00000000000E+00 0. -1.
</event>
<event>
 7    1  0.2404951E-015  0.9000740E+02  0.7816164E-02  0.1186340E+00
        -11   -1    0    0    0    0  0.00000000000E+00  0.00000000000E+00  0.45593999997E+02  0.45594000000E+02  0.51100000000E-03 0.  1.
         11   -1    0    0    0    0 -0.00000000000E+00 -0.00000000000E+00 -0.45593999997E+02  0.45594000000E+02  0.51100000000E-03 0. -1.
    9900012    2    1    2    0    0 -0.71639308867E-01  0.10655932697E+01 -0.50319592157E+00  0.90007395349E+02  0.89999652167E+02 0.  0.
         12    1    1    2    0    0  0.71639308867E-01 -0.10655932697E+01  0.50319592157E+00  0.11806046512E+01  0.00000000000E+00 0. -1.
         11    1    3    3    0    0  0.54284547518E+01 -0.52214642314E+01 -0.60910057842E+01  0.96867002347E+01  0.51100000000E-03 0. -1.
        -11    1    3    3    0    0 -0.16184616922E+02 -0.23812062898E+02  0.28888014596E+02  0.40785702788E+02  0.51100000000E-03 0.  1.
         12    1    3    3    0    0  0.10684522861E+02  0.30099120399E+02 -0.23300204734E+02  0.39534992326E+02  0.00000000000E+00 0. -1.
</event>
<event>
 7    1  0.2404951E-015  0.9000776E+02  0.7816164E-02  0.1186339E+00
        -11   -1    0    0    0    0  0.00000000000E+00  0.00000000000E+00  0.45593999997E+02  0.45594000000E+02  0.51100000000E-03 0. -1.
         11   -1    0    0    0    0 -0.00000000000E+00 -0.00000000000E+00 -0.45593999997E+02  0.45594000000E+02  0.51100000000E-03 0.  1.
    9900012    2    1    2    0    0 -0.29606637618E+00  0.47156151278E-01 -0.11415259407E+01  0.90007762534E+02  0.90000024200E+02 0.  0.
         12    1    1    2    0    0  0.29606637618E+00 -0.47156151278E-01  0.11415259407E+01  0.11802374655E+01  0.00000000000E+00 0. -1.
         11    1    3    3    0    0  0.13046059876E+02 -0.33849926424E+02 -0.10892023718E+02  0.37876818480E+02  0.51100000000E-03 0. -1.
        -11    1    3    3    0    0  0.13408457516E+00 -0.72588855316E+01  0.44155232779E+01  0.84974257228E+01  0.51100000000E-03 0.  1.
        -12    1    3    3    0    0 -0.13476210827E+02  0.41155968107E+02  0.53349744992E+01  0.43633518332E+02  0.00000000000E+00 0.  1.
</event>
<event>
 7    1  0.2404951E-015  0.9000767E+02  0.7816164E-02  0.1186339E+00
        -11   -1    0    0    0    0  0.00000000000E+00  0.00000000000E+00  0.45593999997E+02  0.45594000000E+02  0.51100000000E-03 0. -1.
         11   -1    0    0    0    0 -0.00000000000E+00 -0.00000000000E+00 -0.45593999997E+02  0.45594000000E+02  0.51100000000E-03 0.  1.
    9900012    2    1    2    0    0  0.65056789619E+00 -0.98460049127E+00 -0.22389872741E-01  0.90007670376E+02  0.89999930825E+02 0.  0.
         12    1    1    2    0    0 -0.65056789619E+00  0.98460049127E+00  0.22389872741E-01  0.11803296240E+01  0.00000000000E+00 0. -1.
         11    1    3    3    0    0 -0.28356144887E+02 -0.16893383489E+02  0.17221732477E+02  0.37229631053E+02  0.51100000000E-03 0. -1.
        -11    1    3    3    0    0 -0.82532984971E+01 -0.20413287438E+01 -0.35227598213E+01  0.92029232390E+01  0.51100000000E-03 0.  1.
        -12    1    3    3    0    0  0.37260011280E+02  0.17950111742E+02 -0.13721362528E+02  0.43575116084E+02  0.00000000000E+00 0.  1.
</event>
<event>
 7    1  0.2404951E-015  0.9000751E+02  0.7816164E-02  0.1186339E+00
        -11   -1    0    0    0    0  0.00000000000E+00  0.00000000000E+00  0.45593999997E+02  0.45594000000E+02  0.51100000000E-03 0.  1.
         11   -1    0    0    0    0 -0.00000000000E+00 -0.00000000000E+00 -0.45593999997E+02  0.45594000000E+02  0.51100000000E-03 0. -1.
    9900012    2    1    2    0    0  0.55060454855E+00 -0.94984552967E+00 -0.43379199087E+00  0.90007513918E+02  0.89999772301E+02 0.  0.
         12    1    1    2    0    0 -0.55060454855E+00  0.94984552967E+00  0.43379199087E+00  0.11804860823E+01  0.00000000000E+00 0. -1.
         11    1    3    3    0    0 -0.61823038938E+01 -0.25558092813E+02 -0.34415632467E+02  0.43311346643E+02  0.51100000000E-03 0. -1.
        -11    1    3    3    0    0  0.53576912624E+01  0.25773353200E+00  0.66298466520E+00  0.54047045399E+01  0.51100000000E-03 0.  1.
        -12    1    3    3    0    0  0.13752171800E+01  0.24350513751E+02  0.33318855811E+02  0.41291462735E+02  0.00000000000E+00 0.  1.
</event>
<event>
 7    1  0.2404951E-015  0.9000770E+02  0.7816164E-02  0.1186339E+00
        -11   -1    0    0    0    0  0.00000000000E+00  0.00000000000E+00  0.45593999997E+02  0.45594000000E+02  0.51100000000E-03 0.  1.
         11   -1    0    0    0    0 -0.00000000000E+00 -0.00000000000E+00 -0.45593999997E+02  0.45594000000E+02  0.51100000000E-03 0. -1.
    9900012    2    1    2    0    0  0.91911237690E+00 -0.16819615969E-01 -0.74030358834E+00  0.90007703485E+02  0.89999964371E+02 0.  0.
         12    1    1    2    0    0 -0.91911237690E+00  0.16819615969E-01  0.74030358834E+00  0.11802965152E+01  0.00000000000E+00 0. -1.
         11    1    3    3    0    0  0.17998593867E+01 -0.82849700742E+01 -0.35526007862E+00  0.84856604296E+01  0.51100000000E-03 0. -1.
        -11    1    3    3    0    0 -0.20358139754E+02 -0.16609270124E+02  0.28464625740E+02  0.38737018820E+02  0.51100000000E-03 0.  1.
         12    1    3    3    0    0  0.19477392744E+02  0.24877420582E+02 -0.28849669250E+02  0.42785024235E+02  0.00000000000E+00 0. -1.
</event>
<event>
 7    1  0.2404951E-015  0.9000771E+02  0.7816164E-02  0.1186339E+00
        -11   -1    0    0    0    0  0.00000000000E+00  0.00000000000E+00  0.45593999997E+02  0.45594000000E+02  0.51100000000E-03 0. -1.
         11   -1    0    0    0    0 -0.00000000000E+00 -0.00000000000E+00 -0.45593999997E+02  0.45594000000E+02  0.51100000000E-03 0.  1.
    9900012    2    1    2    0    0 -0.10110761682E-01 -0.75904613088E+00 -0.90379327835E+00  0.90007705314E+02  0.89999966224E+02 0.  0.
         12    1    1    2    0    0  0.10110761682E-01  0.75904613088E+00  0.90379327835E+00  0.11802946862E+01  0.00000000000E+00 0. -1.
         11    1    3    3    0    0 -0.12447674302E+02  0.14069135001E+02  0.24067822456E+02  0.30531053589E+02  0.51100000000E-03 0. -1.
        -11    1    3    3    0    0 -0.99491586566E+01  0.78213826565E+01  0.69061236370E+01  0.14417153970E+02  0.51100000000E-03 0.  1.
        -12    1    3    3    0    0  0.22386722197E+02 -0.22649563788E+02 -0.31877739371E+02  0.45059497755E+02  0.00000000000E+00 0.  1.
</event>
<event>
 7    1  0.2404951E-015  0.9000769E+02  0.7816164E-02  0.1186339E+00
        -11   -1    0    0    0    0  0.00000000000E+00  0.00000000000E+00  0.45593999997E+02  0.45594000000E+02  0.51100000000E-03 0.  1.
         11   -1    0    0    0    0 -0.00000000000E+00 -0.00000000000E+00 -0.45593999997E+02  0.45594000000E+02  0.51100000000E-03 0. -1.
    9900012    2    1    2    0    0 -0.48662165436E+00 -0.10702159703E+01  0.10476182354E+00  0.90007687373E+02  0.89999948046E+02 0.  0.
         12    1    1    2    0    0  0.48662165436E+00  0.10702159703E+01 -0.10476182354E+00  0.11803126269E+01  0.00000000000E+00 0. -1.
         11    1    3    3    0    0  0.51091147595E+01 -0.30131643354E+01 -0.38059564548E+01  0.70475185516E+01  0.51100000000E-03 0. -1.
        -11    1    3    3    0    0  0.32080201404E+02  0.11610486464E+00 -0.20462294563E+02  0.38050733258E+02  0.51100000000E-03 0.  1.
         12    1    3    3    0    0 -0.37675937818E+02  0.18268435005E+01  0.24373012841E+02  0.44909435563E+02  0.00000000000E+00 0. -1.
</event>
<event>
 7    1  0.2404951E-015  0.9000788E+02  0.7816164E-02  0.1186339E+00
        -11   -1    0    0    0    0  0.00000000000E+00  0.00000000000E+00  0.45593999997E+02  0.45594000000E+02  0.51100000000E-03 0.  1.
         11   -1    0    0    0    0 -0.00000000000E+00 -0.00000000000E+00 -0.45593999997E+02  0.45594000000E+02  0.51100000000E-03 0. -1.
    9900012    2    1    2    0    0  0.93842238825E+00 -0.71477662843E+00 -0.33838637013E-01  0.90007878286E+02  0.90000141479E+02 0.  0.
         12    1    1    2    0    0 -0.93842238825E+00  0.71477662843E+00  0.33838637013E-01  0.11801217144E+01  0.00000000000E+00 0. -1.
         11    1    3    3    0    0  0.23315331884E+01  0.69056150222E+01 -0.43684873344E+01  0.84974847864E+01  0.51100000000E-03 0. -1.
        -11    1    3    3    0    0 -0.35107470941E+02 -0.25007075187E+02  0.61163222239E+01  0.43535017206E+02  0.51100000000E-03 0.  1.
         12    1    3    3    0    0  0.33714360141E+02  0.17386683536E+02 -0.17816735265E+01  0.37975376294E+02  0.00000000000E+00 0. -1.
</event>
<event>
 7    1  0.2404951E-015  0.9000761E+02  0.7816164E-02  0.1186339E+00
        -11   -1    0    0    0    0  0.00000000000E+00  0.00000000000E+00  0.45593999997E+02  0.45594000000E+02  0.51100000000E-03 0.  1.
         11   -1    0    0    0    0 -0.00000000000E+00 -0.00000000000E+00 -0.45593999997E+02  0.45594000000E+02  0.51100000000E-03 0. -1.
    9900012    2    1    2    0    0 -0.92790707385E+00  0.26918562270E+00  0.67812507677E+00  0.90007607668E+02  0.89999867289E+02 0.  0.
         12    1    1    2    0    0  0.92790707385E+00 -0.26918562270E+00 -0.67812507677E+00  0.11803923318E+01  0.00000000000E+00 0. -1.
         11    1    3    3    0    0 -0.52501410590E+01 -0.42946129654E+01  0.68641135300E+01  0.96500640659E+01  0.51100000000E-03 0. -1.
        -11    1    3    3    0    0 -0.24124404168E+02 -0.20515432438E+02  0.16965116747E+02  0.35926105148E+02  0.51100000000E-03 0.  1.
         12    1    3    3    0    0  0.28446638154E+02  0.25079231027E+02 -0.23151105200E+02  0.44431438454E+02  0.00000000000E+00 0. -1.
</event>
<event>
 7    1  0.2404951E-015  0.9000781E+02  0.7816164E-02  0.1186339E+00
        -11   -1    0    0    0    0  0.00000000000E+00  0.00000000000E+00  0.45593999997E+02  0.45594000000E+02  0.51100000000E-03 0.  1.
         11   -1    0    0    0    0 -0.00000000000E+00 -0.00000000000E+00 -0.45593999997E+02  0.45594000000E+02  0.51100000000E-03 0. -1.
    9900012    2    1    2    0    0  0.87382795676E+00  0.77021938774E+00  0.18981563556E+00  0.90007812227E+02  0.90000074549E+02 0.  0.
         12    1    1    2    0    0 -0.87382795676E+00 -0.77021938774E+00 -0.18981563556E+00  0.11801877727E+01  0.00000000000E+00 0. -1.
         11    1    3    3    0    0  0.29616877937E+01  0.13437373217E+01 -0.72102747545E+01  0.79098221771E+01  0.51100000000E-03 0. -1.
        -11    1    3    3    0    0  0.20751775813E+02  0.25447266469E+02  0.26823363406E+02  0.42399202761E+02  0.51100000000E-03 0.  1.
         12    1    3    3    0    0 -0.22839635650E+02 -0.26020784403E+02 -0.19423273016E+02  0.39698787289E+02  0.00000000000E+00 0. -1.
</event>
<event>
 7    1  0.2404951E-015  0.9000742E+02  0.7816164E-02  0.1186340E+00
        -11   -1    0    0    0    0  0.00000000000E+00  0.00000000000E+00  0.45593999997E+02  0.45594000000E+02  0.51100000000E-03 0.  1.
         11   -1    0    0    0    0 -0.00000000000E+00 -0.00000000000E+00 -0.45593999997E+02  0.45594000000E+02  0.51100000000E-03 0. -1.
    9900012    2    1    2    0    0 -0.86902191560E+00  0.78589316199E+00 -0.14472520679E+00  0.90007418560E+02  0.89999675684E+02 0.  0.
         12    1    1    2    0    0  0.86902191560E+00 -0.78589316199E+00  0.14472520679E+00  0.11805814404E+01  0.00000000000E+00 0. -1.
         11    1    3    3    0    0 -0.10978021671E+02 -0.68078658106E+01 -0.27327232698E+01  0.13203475809E+02  0.51100000000E-03 0. -1.
        -11    1    3    3    0    0 -0.21048261223E+02 -0.24312016135E+02  0.55790419701E+00  0.32162317802E+02  0.51100000000E-03 0.  1.
         12    1    3    3    0    0  0.31157260978E+02  0.31905775108E+02  0.20300938660E+01  0.44641624948E+02  0.00000000000E+00 0. -1.
</event>
<event>
 7    1  0.2404951E-015  0.9000780E+02  0.7816164E-02  0.1186339E+00
        -11   -1    0    0    0    0  0.00000000000E+00  0.00000000000E+00  0.45593999997E+02  0.45594000000E+02  0.51100000000E-03 0.  1.
         11   -1    0    0    0    0 -0.00000000000E+00 -0.00000000000E+00 -0.45593999997E+02  0.45594000000E+02  0.51100000000E-03 0. -1.
    9900012    2    1    2    0    0 -0.45572770918E-01 -0.14851555457E+00  0.11699297696E+01  0.90007801113E+02  0.90000063288E+02 0.  0.
         12    1    1    2    0    0  0.45572770918E-01  0.14851555457E+00 -0.11699297696E+01  0.11801988872E+01  0.00000000000E+00 0. -1.
         11    1    3    3    0    0 -0.27321952858E+02 -0.27092507977E+01 -0.23569673771E+02  0.36185061417E+02  0.51100000000E-03 0. -1.
        -11    1    3    3    0    0 -0.68857962117E+01 -0.38331467017E+01 -0.38949869367E+01  0.87907978366E+01  0.51100000000E-03 0.  1.
        -12    1    3    3    0    0  0.34162176299E+02  0.63938819448E+01  0.28634590477E+02  0.45031941859E+02  0.00000000000E+00 0.  1.
</event>
<event>
 7    1  0.2404951E-015  0.9000780E+02  0.7816164E-02  0.1186339E+00
        -11   -1    0    0    0    0  0.00000000000E+00  0.00000000000E+00  0.45593999997E+02  0.45594000000E+02  0.51100000000E-03 0.  1.
         11   -1    0    0    0    0 -0.00000000000E+00 -0.00000000000E+00 -0.45593999997E+02  0.45594000000E+02  0.51100000000E-03 0. -1.
    9900012    2    1    2    0    0 -0.67163535822E+00  0.20357044963E+00  0.94885590785E+00  0.90007804035E+02  0.90000066248E+02 0.  0.
         12    1    1    2    0    0  0.67163535822E+00 -0.20357044963E+00 -0.94885590785E+00  0.11801959652E+01  0.00000000000E+00 0. -1.
         11    1    3    3    0    0  0.42792784711E+01  0.44779721183E+01 -0.72184301135E+01  0.95115819972E+01  0.51100000000E-03 0. -1.
        -11    1    3    3    0    0  0.33849830725E+02  0.14027817843E+02  0.84131159257E+01  0.37594829876E+02  0.51100000000E-03 0.  1.
         12    1    3    3    0    0 -0.38800744554E+02 -0.18302219512E+02 -0.24582990435E+00  0.42901392162E+02  0.00000000000E+00 0. -1.
</event>
<event>
 7    1  0.2404951E-015  0.9000793E+02  0.7816164E-02  0.1186339E+00
        -11   -1    0    0    0    0  0.00000000000E+00  0.00000000000E+00  0.45593999997E+02  0.45594000000E+02  0.51100000000E-03 0.  1.
         11   -1    0    0    0    0 -0.00000000000E+00 -0.00000000000E+00 -0.45593999997E+02  0.45594000000E+02  0.51100000000E-03 0. -1.
    9900012    2    1    2    0    0  0.10401907936E+00  0.11375043144E+00  0.11699596622E+01  0.90007930197E+02  0.90000194075E+02 0.  0.
         12    1    1    2    0    0 -0.10401907936E+00 -0.11375043144E+00 -0.11699596622E+01  0.11800698033E+01  0.00000000000E+00 0. -1.
         11    1    3    3    0    0  0.76277412863E+01  0.22881060887E-01  0.94107066929E+00  0.76856082999E+01  0.51100000000E-03 0. -1.
        -11    1    3    3    0    0  0.35094818414E+02  0.17290061173E+01 -0.13311761326E+02  0.37574442531E+02  0.51100000000E-03 0.  1.
         12    1    3    3    0    0 -0.42618540621E+02 -0.16381367468E+01  0.13540650319E+02  0.44747879366E+02  0.00000000000E+00 0. -1.
</event>
<event>
 7    1  0.2404951E-015  0.9000768E+02  0.7816164E-02  0.1186339E+00
        -11   -1    0    0    0    0  0.00000000000E+00  0.00000000000E+00  0.45593999997E+02  0.45594000000E+02  0.51100000000E-03 0.  1.
         11   -1    0    0    0    0 -0.00000000000E+00 -0.00000000000E+00 -0.45593999997E+02  0.45594000000E+02  0.51100000000E-03 0. -1.
    9900012    2    1    2    0    0  0.10992305440E+01 -0.42987663655E+00  0.67280907877E-02  0.90007683526E+02  0.89999944149E+02 0.  0.
         12    1    1    2    0    0 -0.10992305440E+01  0.42987663655E+00 -0.67280907877E-02  0.11803164739E+01  0.00000000000E+00 0. -1.
         11    1    3    3    0    0 -0.90881232749E+01 -0.18901778131E-01 -0.52344232271E+00  0.91032046040E+01  0.51100000000E-03 0. -1.
        -11    1    3    3    0    0  0.18811654723E+01 -0.83634740373E+01  0.39424553998E+02  0.40345779701E+02  0.51100000000E-03 0.  1.
         12    1    3    3    0    0  0.83061883466E+01  0.79524991789E+01 -0.38894383585E+02  0.40558699221E+02  0.00000000000E+00 0. -1.
</event>
<event>
 7    1  0.2404951E-015  0.9000773E+02  0.7816164E-02  0.1186339E+00
        -11   -1    0    0    0    0  0.00000000000E+00  0.00000000000E+00  0.45593999997E+02  0.45594000000E+02  0.51100000000E-03 0.  1.
         11   -1    0    0    0    0 -0.00000000000E+00 -0.00000000000E+00 -0.45593999997E+02  0.45594000000E+02  0.51100000000E-03 0. -1.
    9900012    2    1    2    0    0  0.95128100551E+00 -0.35287785856E-01  0.69774569920E+00  0.90007733149E+02  0.89999994426E+02 0.  0.
         12    1    1    2    0    0 -0.95128100551E+00  0.35287785856E-01 -0.69774569920E+00  0.11802668512E+01  0.00000000000E+00 0. -1.
         11    1    3    3    0    0 -0.73172266608E+01  0.36321573770E+01 -0.51745114805E+01  0.96700539057E+01  0.51100000000E-03 0. -1.
        -11    1    3    3    0    0 -0.30284602046E+01  0.16904456101E+01  0.41981765133E+02  0.42124788208E+02  0.51100000000E-03 0.  1.
         12    1    3    3    0    0  0.11296967871E+02 -0.53578907730E+01 -0.36109507954E+02  0.38212891035E+02  0.00000000000E+00 0. -1.
</event>
<event>
 7    1  0.2404951E-015  0.9000768E+02  0.7816164E-02  0.1186339E+00
        -11   -1    0    0    0    0  0.00000000000E+00  0.00000000000E+00  0.45593999997E+02  0.45594000000E+02  0.51100000000E-03 0.  1.
         11   -1    0    0    0    0 -0.00000000000E+00 -0.00000000000E+00 -0.45593999997E+02  0.45594000000E+02  0.51100000000E-03 0. -1.
    9900012    2    1    2    0    0  0.66059219736E+00  0.11718285666E+00  0.97110551224E+00  0.90007678099E+02  0.89999938650E+02 0.  0.
         12    1    1    2    0    0 -0.66059219736E+00 -0.11718285666E+00 -0.97110551224E+00  0.11803219006E+01  0.00000000000E+00 0. -1.
         11    1    3    3    0    0  0.76558181621E+01 -0.30876660296E+02 -0.21341212697E+02  0.38307010617E+02  0.51100000000E-03 0. -1.
        -11    1    3    3    0    0 -0.22679675607E+01 -0.67950664632E+00 -0.75506708043E+01  0.79131558809E+01  0.51100000000E-03 0.  1.
        -12    1    3    3    0    0 -0.47272584041E+01  0.31673349799E+02  0.29862989013E+02  0.43787511602E+02  0.00000000000E+00 0.  1.
</event>
<event>
 7    1  0.2404951E-015  0.9000769E+02  0.7816164E-02  0.1186339E+00
        -11   -1    0    0    0    0  0.00000000000E+00  0.00000000000E+00  0.45593999997E+02  0.45594000000E+02  0.51100000000E-03 0.  1.
         11   -1    0    0    0    0 -0.00000000000E+00 -0.00000000000E+00 -0.45593999997E+02  0.45594000000E+02  0.51100000000E-03 0. -1.
    9900012    2    1    2    0    0 -0.10780990325E+01  0.42733208344E+00 -0.21960287168E+00  0.90007688323E+02  0.89999949009E+02 0.  0.
         12    1    1    2    0    0  0.10780990325E+01 -0.42733208344E+00  0.21960287168E+00  0.11803116769E+01  0.00000000000E+00 0. -1.
         11    1    3    3    0    0 -0.12213377073E+02  0.21936651474E+02  0.26060848649E+02  0.36187720155E+02  0.51100000000E-03 0. -1.
        -11    1    3    3    0    0  0.29595826464E+01  0.11252947095E+01  0.98846601145E+01  0.10379398993E+02  0.51100000000E-03 0.  1.
        -12    1    3    3    0    0  0.81756953944E+01 -0.22634614100E+02 -0.36165111636E+02  0.43440569175E+02  0.00000000000E+00 0.  1.
</event>
<event>
 7    1  0.2404951E-015  0.9000765E+02  0.7816164E-02  0.1186339E+00
        -11   -1    0    0    0    0  0.00000000000E+00  0.00000000000E+00  0.45593999997E+02  0.45594000000E+02  0.51100000000E-03 0.  1.
         11   -1    0    0    0    0 -0.00000000000E+00 -0.00000000000E+00 -0.45593999997E+02  0.45594000000E+02  0.51100000000E-03 0. -1.
    9900012    2    1    2    0    0 -0.81764378631E+00  0.79358473871E+00  0.30806645301E+00  0.90007651306E+02  0.89999911504E+02 0.  0.
         12    1    1    2    0    0  0.81764378631E+00 -0.79358473871E+00 -0.30806645301E+00  0.11803486935E+01  0.00000000000E+00 0. -1.
         11    1    3    3    0    0  0.31456540712E+02 -0.11707549343E+02  0.70323826323E+00  0.33571940806E+02  0.51100000000E-03 0. -1.
        -11    1    3    3    0    0 -0.47253693378E+01 -0.28703293827E+01 -0.19015712152E+02  0.19803161743E+02  0.51100000000E-03 0.  1.
         12    1    3    3    0    0 -0.27548815161E+02  0.15371463464E+02  0.18620540341E+02  0.36632548757E+02  0.00000000000E+00 0. -1.
</event>
<event>
 7    1  0.2404951E-015  0.9000882E+02  0.7816164E-02  0.1186337E+00
        -11   -1    0    0    0    0  0.00000000000E+00  0.00000000000E+00  0.45593999997E+02  0.45594000000E+02  0.51100000000E-03 0.  1.
         11   -1    0    0    0    0 -0.00000000000E+00 -0.00000000000E+00 -0.45593999997E+02  0.45594000000E+02  0.51100000000E-03 0. -1.
    9900012    2    1    2    0    0 -0.95888756023E+00 -0.20097767641E+00  0.65621263617E+00  0.90008817061E+02  0.90001092640E+02 0.  0.
         12    1    1    2    0    0  0.95888756023E+00  0.20097767641E+00 -0.65621263617E+00  0.11791829389E+01  0.00000000000E+00 0. -1.
         11    1    3    3    0    0  0.34783693058E+02  0.16042098904E+02 -0.97653376590E+01  0.39529938779E+02  0.51100000000E-03 0. -1.
        -11    1    3    3    0    0  0.33716543897E+01 -0.81182474025E+01 -0.12037112131E+01  0.88725934854E+01  0.51100000000E-03 0.  1.
        -12    1    3    3    0    0 -0.39114235008E+02 -0.81248291777E+01  0.11625261508E+02  0.41606284797E+02  0.00000000000E+00 0.  1.
</event>
<event>
 7    1  0.2404951E-015  0.9000777E+02  0.7816164E-02  0.1186339E+00
        -11   -1    0    0    0    0  0.00000000000E+00  0.00000000000E+00  0.45593999997E+02  0.45594000000E+02  0.51100000000E-03 0.  1.
         11   -1    0    0    0    0 -0.00000000000E+00 -0.00000000000E+00 -0.45593999997E+02  0.45594000000E+02  0.51100000000E-03 0. -1.
    9900012    2    1    2    0    0  0.89571497465E+00  0.75642735416E+00  0.13580660586E+00  0.90007774982E+02  0.90000036812E+02 0.  0.
         12    1    1    2    0    0 -0.89571497465E+00 -0.75642735416E+00 -0.13580660586E+00  0.11802250176E+01  0.00000000000E+00 0. -1.
         11    1    3    3    0    0 -0.63714283204E+01  0.50409051912E+01 -0.30692080115E+01  0.86848063921E+01  0.51100000000E-03 0. -1.
        -11    1    3    3    0    0 -0.23749395245E+02 -0.25130389438E+02  0.20442828250E+02  0.40168140048E+02  0.51100000000E-03 0.  1.
         12    1    3    3    0    0  0.31016538540E+02  0.20845911601E+02 -0.17237813633E+02  0.41154828542E+02  0.00000000000E+00 0. -1.
</event>
<event>
 7    1  0.2404951E-015  0.9000816E+02  0.7816164E-02  0.1186338E+00
        -11   -1    0    0    0    0  0.00000000000E+00  0.00000000000E+00  0.45593999997E+02  0.45594000000E+02  0.51100000000E-03 0.  1.
         11   -1    0    0    0    0 -0.00000000000E+00 -0.00000000000E+00 -0.45593999997E+02  0.45594000000E+02  0.51100000000E-03 0. -1.
    9900012    2    1    2    0    0  0.12211321302E+00  0.50422077648E+00  0.10596603167E+01  0.90008156699E+02  0.90000423566E+02 0.  0.
         12    1    1    2    0    0 -0.12211321302E+00 -0.50422077648E+00 -0.10596603167E+01  0.11798433010E+01  0.00000000000E+00 0. -1.
         11    1    3    3    0    0 -0.34570615043E+01 -0.13019500540E+02  0.31633096685E+01  0.13837094958E+02  0.51100000000E-03 0. -1.
        -11    1    3    3    0    0 -0.16492977567E+02 -0.16059502702E+02  0.22958136128E+02  0.32511566416E+02  0.51100000000E-03 0.  1.
         12    1    3    3    0    0  0.20072152285E+02  0.29583224018E+02 -0.25061785480E+02  0.43659495326E+02  0.00000000000E+00 0. -1.
</event>
<event>
 7    1  0.2404951E-015  0.9000770E+02  0.7816164E-02  0.1186339E+00
        -11   -1    0    0    0    0  0.00000000000E+00  0.00000000000E+00  0.45593999997E+02  0.45594000000E+02  0.51100000000E-03 0. -1.
         11   -1    0    0    0    0 -0.00000000000E+00 -0.00000000000E+00 -0.45593999997E+02  0.45594000000E+02  0.51100000000E-03 0.  1.
    9900012    2    1    2    0    0 -0.58250634826E+00 -0.10067549353E+01  0.20060694735E+00  0.90007698220E+02  0.89999959036E+02 0.  0.
         12    1    1    2    0    0  0.58250634826E+00  0.10067549353E+01 -0.20060694735E+00  0.11803017804E+01  0.00000000000E+00 0. -1.
         11    1    3    3    0    0  0.50508942416E+01  0.23963518878E+02  0.32098700038E+02  0.40374352181E+02  0.51100000000E-03 0. -1.
        -11    1    3    3    0    0  0.26340685906E+01 -0.92677913364E+01  0.33249950657E+01  0.10192441613E+02  0.51100000000E-03 0.  1.
        -12    1    3    3    0    0 -0.82674691805E+01 -0.15702482477E+02 -0.35223088156E+02  0.39440904425E+02  0.00000000000E+00 0.  1.
</event>
<event>
 7    1  0.2404951E-015  0.9000777E+02  0.7816164E-02  0.1186339E+00
        -11   -1    0    0    0    0  0.00000000000E+00  0.00000000000E+00  0.45593999997E+02  0.45594000000E+02  0.51100000000E-03 0.  1.
         11   -1    0    0    0    0 -0.00000000000E+00 -0.00000000000E+00 -0.45593999997E+02  0.45594000000E+02  0.51100000000E-03 0. -1.
    9900012    2    1    2    0    0  0.42780762417E+00  0.10262854068E+01 -0.39580081584E+00  0.90007771469E+02  0.90000033252E+02 0.  0.
         12    1    1    2    0    0 -0.42780762417E+00 -0.10262854068E+01  0.39580081584E+00  0.11802285310E+01  0.00000000000E+00 0. -1.
         11    1    3    3    0    0 -0.41934344506E+01 -0.33476326815E+01 -0.59211306256E+01  0.79907024227E+01  0.51100000000E-03 0. -1.
        -11    1    3    3    0    0 -0.16796612451E+02 -0.20933357155E+02  0.30412441241E+02  0.40561659410E+02  0.51100000000E-03 0.  1.
         12    1    3    3    0    0  0.21417854526E+02  0.25307275243E+02 -0.24887111431E+02  0.41455409636E+02  0.00000000000E+00 0. -1.
</event>
<event>
 7    1  0.2404951E-015  0.9000783E+02  0.7816164E-02  0.1186339E+00
        -11   -1    0    0    0    0  0.00000000000E+00  0.00000000000E+00  0.45593999997E+02  0.45594000000E+02  0.51100000000E-03 0.  1.
         11   -1    0    0    0    0 -0.00000000000E+00 -0.00000000000E+00 -0.45593999997E+02  0.45594000000E+02  0.51100000000E-03 0. -1.
    9900012    2    1    2    0    0  0.50240112844E+00 -0.97958299087E+00  0.42522581347E+00  0.90007827673E+02  0.90000090198E+02 0.  0.
         12    1    1    2    0    0 -0.50240112844E+00  0.97958299087E+00 -0.42522581347E+00  0.11801723274E+01  0.00000000000E+00 0. -1.
         11    1    3    3    0    0 -0.35675741442E+01  0.16046158715E+01 -0.35118815407E+01  0.52569658156E+01  0.51100000000E-03 0. -1.
        -11    1    3    3    0    0 -0.30355968816E+02  0.24016574868E+02  0.11956535034E+02  0.40512213485E+02  0.51100000000E-03 0.  1.
         12    1    3    3    0    0  0.34425944089E+02 -0.26600773731E+02 -0.80194276796E+01  0.44238648372E+02  0.00000000000E+00 0. -1.
</event>
<event>
 7    1  0.2404951E-015  0.9000770E+02  0.7816164E-02  0.1186339E+00
        -11   -1    0    0    0    0  0.00000000000E+00  0.00000000000E+00  0.45593999997E+02  0.45594000000E+02  0.51100000000E-03 0.  1.
         11   -1    0    0    0    0 -0.00000000000E+00 -0.00000000000E+00 -0.45593999997E+02  0.45594000000E+02  0.51100000000E-03 0. -1.
    9900012    2    1    2    0    0 -0.10427422405E+01  0.46605549738E+00  0.29763323526E+00  0.90007701458E+02  0.89999962317E+02 0.  0.
         12    1    1    2    0    0  0.10427422405E+01 -0.46605549738E+00 -0.29763323526E+00  0.11802985425E+01  0.00000000000E+00 0. -1.
         11    1    3    3    0    0  0.53770886346E+01  0.12571478651E+01  0.72033535078E+01  0.90764423073E+01  0.51100000000E-03 0. -1.
        -11    1    3    3    0    0 -0.80780998692E+01  0.39479497053E+02 -0.22792370987E+01  0.40361879380E+02  0.51100000000E-03 0.  1.
         12    1    3    3    0    0  0.16582689942E+01 -0.40270589421E+02 -0.46264831738E+01  0.40569379770E+02  0.00000000000E+00 0. -1.
</event>
<event>
 7    1  0.2404951E-015  0.9000772E+02  0.7816164E-02  0.1186339E+00
        -11   -1    0    0    0    0  0.00000000000E+00  0.00000000000E+00  0.45593999997E+02  0.45594000000E+02  0.51100000000E-03 0.  1.
         11   -1    0    0    0    0 -0.00000000000E+00 -0.00000000000E+00 -0.45593999997E+02  0.45594000000E+02  0.51100000000E-03 0. -1.
    9900012    2    1    2    0    0 -0.89967779151E+00 -0.27548831987E+00 -0.71256923501E+00  0.90007716620E+02  0.89999977679E+02 0.  0.
         12    1    1    2    0    0  0.89967779151E+00  0.27548831987E+00  0.71256923501E+00  0.11802833802E+01  0.00000000000E+00 0. -1.
         11    1    3    3    0    0  0.36628172373E+02  0.47482334168E+01  0.96080426028E+01  0.38163899366E+02  0.51100000000E-03 0. -1.
        -11    1    3    3    0    0 -0.20553764621E+01 -0.11424136163E+01  0.10344097735E+02  0.10608017698E+02  0.51100000000E-03 0.  1.
        -12    1    3    3    0    0 -0.35472473702E+02 -0.38813081204E+01 -0.20664709572E+02  0.41235799555E+02  0.00000000000E+00 0.  1.
</event>
<event>
 7    1  0.2404951E-015  0.9000764E+02  0.7816164E-02  0.1186339E+00
        -11   -1    0    0    0    0  0.00000000000E+00  0.00000000000E+00  0.45593999997E+02  0.45594000000E+02  0.51100000000E-03 0.  1.
         11   -1    0    0    0    0 -0.00000000000E+00 -0.00000000000E+00 -0.45593999997E+02  0.45594000000E+02  0.51100000000E-03 0. -1.
    9900012    2    1    2    0    0  0.49234491153E+00 -0.52789047790E+00  0.93390138158E+00  0.90007642571E+02  0.89999902653E+02 0.  0.
         12    1    1    2    0    0 -0.49234491153E+00  0.52789047790E+00 -0.93390138158E+00  0.11803574285E+01  0.00000000000E+00 0. -1.
         11    1    3    3    0    0 -0.91716832956E+01 -0.94665856353E+01 -0.82701601740E+01  0.15560577355E+02  0.51100000000E-03 0. -1.
        -11    1    3    3    0    0  0.76265171028E+01 -0.98086830135E+01  0.38025825751E+02  0.40004217902E+02  0.51100000000E-03 0.  1.
         12    1    3    3    0    0  0.20375111042E+01  0.18747378171E+02 -0.28821764196E+02  0.34442847315E+02  0.00000000000E+00 0. -1.
</event>
<event>
 7    1  0.2404951E-015  0.9000771E+02  0.7816164E-02  0.1186339E+00
        -11   -1    0    0    0    0  0.00000000000E+00  0.00000000000E+00  0.45593999997E+02  0.45594000000E+02  0.51100000000E-03 0.  1.
         11   -1    0    0    0    0 -0.00000000000E+00 -0.00000000000E+00 -0.45593999997E+02  0.45594000000E+02  0.51100000000E-03 0. -1.
    9900012    2    1    2    0    0  0.10417325509E+01  0.33643030825E+00  0.44124902222E+00  0.90007706494E+02  0.89999967420E+02 0.  0.
         12    1    1    2    0    0 -0.10417325509E+01 -0.33643030825E+00 -0.44124902222E+00  0.11802935057E+01  0.00000000000E+00 0. -1.
         11    1    3    3    0    0  0.12062506209E+02  0.34562792879E+02  0.45086706674E+01  0.36883855805E+02  0.51100000000E-03 0. -1.
        -11    1    3    3    0    0  0.75411504615E+01  0.48846079832E+01 -0.39914971265E+01  0.98316018534E+01  0.51100000000E-03 0.  1.
        -12    1    3    3    0    0 -0.18561924120E+02 -0.39110970554E+02 -0.75924518594E-01  0.43292248835E+02  0.00000000000E+00 0.  1.
</event>
<event>
 7    1  0.2629379E-015  0.9000773E+02  0.7816164E-02  0.1186339E+00
        -11   -1    0    0    0    0  0.00000000000E+00  0.00000000000E+00  0.45593999997E+02  0.45594000000E+02  0.51100000000E-03 0. -1.
         11   -1    0    0    0    0 -0.00000000000E+00 -0.00000000000E+00 -0.45593999997E+02  0.45594000000E+02  0.51100000000E-03 0.  1.
    9900012    2    1    2    0    0  0.11568403696E+01  0.22988988959E+00 -0.43771493946E-01  0.90007726750E+02  0.89999987943E+02 0.  0.
         12    1    1    2    0    0 -0.11568403696E+01 -0.22988988959E+00  0.43771493946E-01  0.11802732505E+01  0.00000000000E+00 0. -1.
         11    1    3    3    0    0  0.12225577624E+02 -0.33373115188E+02  0.44931159203E+01  0.35824819002E+02  0.51100000000E-03 0. -1.
        -11    1    3    3    0    0  0.38352222211E+01 -0.68545637007E+01  0.58982848413E+01  0.98226135698E+01  0.51100000000E-03 0.  1.
        -12    1    3    3    0    0 -0.14903959475E+02  0.40457568779E+02 -0.10435172256E+02  0.44360294178E+02  0.00000000000E+00 0.  1.
</event>
<event>
 7    1  0.2404951E-015  0.9000784E+02  0.7816164E-02  0.1186339E+00
        -11   -1    0    0    0    0  0.00000000000E+00  0.00000000000E+00  0.45593999997E+02  0.45594000000E+02  0.51100000000E-03 0.  1.
         11   -1    0    0    0    0 -0.00000000000E+00 -0.00000000000E+00 -0.45593999997E+02  0.45594000000E+02  0.51100000000E-03 0. -1.
    9900012    2    1    2    0    0  0.93796807644E+00  0.23822472770E+00 -0.67545901575E+00  0.90007838988E+02  0.90000101662E+02 0.  0.
         12    1    1    2    0    0 -0.93796807644E+00 -0.23822472770E+00  0.67545901575E+00  0.11801610124E+01  0.00000000000E+00 0. -1.
         11    1    3    3    0    0  0.53413370079E-01 -0.94070802926E+01 -0.19037073029E+00  0.94091579801E+01  0.51100000000E-03 0. -1.
        -11    1    3    3    0    0  0.31770117272E+02 -0.15568168942E+02  0.14182141976E+02  0.38116156508E+02  0.51100000000E-03 0.  1.
         12    1    3    3    0    0 -0.30885562565E+02  0.25213473963E+02 -0.14667230262E+02  0.42482524499E+02  0.00000000000E+00 0. -1.
</event>
<event>
 7    1  0.2404951E-015  0.9000768E+02  0.7816164E-02  0.1186339E+00
        -11   -1    0    0    0    0  0.00000000000E+00  0.00000000000E+00  0.45593999997E+02  0.45594000000E+02  0.51100000000E-03 0.  1.
         11   -1    0    0    0    0 -0.00000000000E+00 -0.00000000000E+00 -0.45593999997E+02  0.45594000000E+02  0.51100000000E-03 0. -1.
    9900012    2    1    2    0    0 -0.71354932888E+00  0.86300461317E+00  0.37312667344E+00  0.90007680924E+02  0.89999941512E+02 0.  0.
         12    1    1    2    0    0  0.71354932888E+00 -0.86300461317E+00 -0.37312667344E+00  0.11803190761E+01  0.00000000000E+00 0. -1.
         11    1    3    3    0    0 -0.76724102129E+01  0.10876458155E+02  0.26009105062E+01  0.13562004137E+02  0.51100000000E-03 0. -1.
        -11    1    3    3    0    0  0.13897329598E+02  0.28968293340E+02 -0.14132599959E+02  0.35100258843E+02  0.51100000000E-03 0.  1.
         12    1    3    3    0    0 -0.69384687136E+01 -0.38981746882E+02  0.11904816126E+02  0.41345417945E+02  0.00000000000E+00 0. -1.
</event>
<event>
 7    1  0.2404951E-015  0.9000773E+02  0.7816164E-02  0.1186339E+00
        -11   -1    0    0    0    0  0.00000000000E+00  0.00000000000E+00  0.45593999997E+02  0.45594000000E+02  0.51100000000E-03 0.  1.
         11   -1    0    0    0    0 -0.00000000000E+00 -0.00000000000E+00 -0.45593999997E+02  0.45594000000E+02  0.51100000000E-03 0. -1.
    9900012    2    1    2    0    0  0.74839735608E+00 -0.81210949267E+00 -0.41643543801E+00  0.90007729309E+02  0.89999990536E+02 0.  0.
         12    1    1    2    0    0 -0.74839735608E+00  0.81210949267E+00  0.41643543801E+00  0.11802706913E+01  0.00000000000E+00 0. -1.
         11    1    3    3    0    0 -0.85566899815E+01  0.68242872117E+00 -0.42742133270E+01  0.95891371992E+01  0.51100000000E-03 0. -1.
        -11    1    3    3    0    0 -0.88659652424E+01 -0.38203932936E+02 -0.53759798176E+00  0.39222886729E+02  0.51100000000E-03 0.  1.
         12    1    3    3    0    0  0.18171052580E+02  0.36709394723E+02  0.43953758708E+01  0.41195705381E+02  0.00000000000E+00 0. -1.
</event>
<event>
 7    1  0.2404951E-015  0.9000777E+02  0.7816164E-02  0.1186339E+00
        -11   -1    0    0    0    0  0.00000000000E+00  0.00000000000E+00  0.45593999997E+02  0.45594000000E+02  0.51100000000E-03 0. -1.
         11   -1    0    0    0    0 -0.00000000000E+00 -0.00000000000E+00 -0.45593999997E+02  0.45594000000E+02  0.51100000000E-03 0.  1.
    9900012    2    1    2    0    0 -0.95073612756E+00  0.32105134465E+00  0.62126455061E+00  0.90007770026E+02  0.90000031790E+02 0.  0.
         12    1    1    2    0    0  0.95073612756E+00 -0.32105134465E+00 -0.62126455061E+00  0.11802299742E+01  0.00000000000E+00 0. -1.
         11    1    3    3    0    0  0.95861018903E+01 -0.19433755067E+01  0.52599822085E+00  0.97952402830E+01  0.51100000000E-03 0. -1.
        -11    1    3    3    0    0  0.29045981363E+02 -0.14045899324E+02 -0.13957658825E+02  0.35153556880E+02  0.51100000000E-03 0.  1.
         12    1    3    3    0    0 -0.39582819381E+02  0.16310326175E+02  0.14052925154E+02  0.45058972863E+02  0.00000000000E+00 0. -1.
</event>
<event>
 7    1  0.2404951E-015  0.9000767E+02  0.7816164E-02  0.1186339E+00
        -11   -1    0    0    0    0  0.00000000000E+00  0.00000000000E+00  0.45593999997E+02  0.45594000000E+02  0.51100000000E-03 0.  1.
         11   -1    0    0    0    0 -0.00000000000E+00 -0.00000000000E+00 -0.45593999997E+02  0.45594000000E+02  0.51100000000E-03 0. -1.
    9900012    2    1    2    0    0  0.24066282545E-01 -0.31219879799E-01  0.11796710915E+01  0.90007670490E+02  0.89999930941E+02 0.  0.
         12    1    1    2    0    0 -0.24066282545E-01  0.31219879799E-01 -0.11796710915E+01  0.11803295095E+01  0.00000000000E+00 0. -1.
         11    1    3    3    0    0 -0.74605632398E+01  0.36356433139E+02 -0.62063107106E+01  0.37629357254E+02  0.51100000000E-03 0. -1.
        -11    1    3    3    0    0 -0.98491542528E+01  0.16896626273E+01  0.20655808512E+01  0.10204284581E+02  0.51100000000E-03 0.  1.
        -12    1    3    3    0    0  0.17333783775E+02 -0.38077315646E+02  0.53204009509E+01  0.42174028656E+02  0.00000000000E+00 0.  1.
</event>
<event>
 7    1  0.2404951E-015  0.9000774E+02  0.7816164E-02  0.1186339E+00
        -11   -1    0    0    0    0  0.00000000000E+00  0.00000000000E+00  0.45593999997E+02  0.45594000000E+02  0.51100000000E-03 0. -1.
         11   -1    0    0    0    0 -0.00000000000E+00 -0.00000000000E+00 -0.45593999997E+02  0.45594000000E+02  0.51100000000E-03 0.  1.
    9900012    2    1    2    0    0 -0.75318158648E+00  0.78377755823E+00 -0.45981732374E+00  0.90007736583E+02  0.89999997906E+02 0.  0.
         12    1    1    2    0    0  0.75318158648E+00 -0.78377755823E+00  0.45981732374E+00  0.11802634173E+01  0.00000000000E+00 0. -1.
         11    1    3    3    0    0 -0.22377961568E+01 -0.62802925656E+01 -0.61077699024E+01  0.90418283433E+01  0.51100000000E-03 0. -1.
        -11    1    3    3    0    0 -0.31163582044E+02 -0.15556544680E+02  0.18215326745E+02  0.39306145281E+02  0.51100000000E-03 0.  1.
         12    1    3    3    0    0  0.32648196615E+02  0.22620614804E+02 -0.12567374166E+02  0.41659762958E+02  0.00000000000E+00 0. -1.
</event>
<event>
 7    1  0.2404951E-015  0.9000771E+02  0.7816164E-02  0.1186339E+00
        -11   -1    0    0    0    0  0.00000000000E+00  0.00000000000E+00  0.45593999997E+02  0.45594000000E+02  0.51100000000E-03 0.  1.
         11   -1    0    0    0    0 -0.00000000000E+00 -0.00000000000E+00 -0.45593999997E+02  0.45594000000E+02  0.51100000000E-03 0. -1.
    9900012    2    1    2    0    0  0.94783543282E+00  0.58723008102E+00  0.38711060100E+00  0.90007709445E+02  0.89999970410E+02 0.  0.
         12    1    1    2    0    0 -0.94783543282E+00 -0.58723008102E+00 -0.38711060100E+00  0.11802905546E+01  0.00000000000E+00 0. -1.
         11    1    3    3    0    0  0.14165756048E+02 -0.91987320073E+00 -0.38927726108E+01  0.14719663379E+02  0.51100000000E-03 0. -1.
        -11    1    3    3    0    0 -0.87480759538E+01 -0.23175050675E+02 -0.26038082879E+02  0.35938747431E+02  0.51100000000E-03 0.  1.
        -12    1    3    3    0    0 -0.44698446615E+01  0.24682153957E+02  0.30317966090E+02  0.39349298635E+02  0.00000000000E+00 0.  1.
</event>
<event>
 7    1  0.2404951E-015  0.9000785E+02  0.7816164E-02  0.1186339E+00
        -11   -1    0    0    0    0  0.00000000000E+00  0.00000000000E+00  0.45593999997E+02  0.45594000000E+02  0.51100000000E-03 0.  1.
         11   -1    0    0    0    0 -0.00000000000E+00 -0.00000000000E+00 -0.45593999997E+02  0.45594000000E+02  0.51100000000E-03 0. -1.
    9900012    2    1    2    0    0  0.84773458754E+00 -0.75799200755E+00  0.31551731982E+00  0.90007848741E+02  0.90000111545E+02 0.  0.
         12    1    1    2    0    0 -0.84773458754E+00  0.75799200755E+00 -0.31551731982E+00  0.11801512587E+01  0.00000000000E+00 0. -1.
         11    1    3    3    0    0 -0.76536723137E+01 -0.27512965000E+00  0.24949451588E+01  0.80547593270E+01  0.51100000000E-03 0. -1.
        -11    1    3    3    0    0 -0.83501494507E+01  0.38092494330E+02 -0.68684846013E+01  0.39597212037E+02  0.51100000000E-03 0.  1.
         12    1    3    3    0    0  0.16851556352E+02 -0.38575356688E+02  0.46890567623E+01  0.42355877377E+02  0.00000000000E+00 0. -1.
</event>
<event>
 7    1  0.2404951E-015  0.9000799E+02  0.7816164E-02  0.1186339E+00
        -11   -1    0    0    0    0  0.00000000000E+00  0.00000000000E+00  0.45593999997E+02  0.45594000000E+02  0.51100000000E-03 0.  1.
         11   -1    0    0    0    0 -0.00000000000E+00 -0.00000000000E+00 -0.45593999997E+02  0.45594000000E+02  0.51100000000E-03 0. -1.
    9900012    2    1    2    0    0  0.11116118093E+01 -0.34358980687E+00  0.19671333395E+00  0.90007986904E+02  0.90000251531E+02 0.  0.
         12    1    1    2    0    0 -0.11116118093E+01  0.34358980687E+00 -0.19671333395E+00  0.11800130956E+01  0.00000000000E+00 0. -1.
         11    1    3    3    0    0  0.18667062932E+02 -0.13501319874E+02  0.26464364647E+01  0.23189404975E+02  0.51100000000E-03 0. -1.
        -11    1    3    3    0    0  0.14341341314E+02 -0.17432583007E+02 -0.42956751590E+00  0.22577722416E+02  0.51100000000E-03 0.  1.
         12    1    3    3    0    0 -0.31896792437E+02  0.30590313075E+02 -0.20201556149E+01  0.44240859513E+02  0.00000000000E+00 0. -1.
</event>
<event>
 7    1  0.2404951E-015  0.9000768E+02  0.7816164E-02  0.1186339E+00
        -11   -1    0    0    0    0  0.00000000000E+00  0.00000000000E+00  0.45593999997E+02  0.45594000000E+02  0.51100000000E-03 0. -1.
         11   -1    0    0    0    0 -0.00000000000E+00 -0.00000000000E+00 -0.45593999997E+02  0.45594000000E+02  0.51100000000E-03 0.  1.
    9900012    2    1    2    0    0  0.61325926339E+00 -0.98314089238E+00 -0.22471296603E+00  0.90007682731E+02  0.89999943343E+02 0.  0.
         12    1    1    2    0    0 -0.61325926339E+00  0.98314089238E+00  0.22471296603E+00  0.11803172690E+01  0.00000000000E+00 0. -1.
         11    1    3    3    0    0 -0.38349640395E+01 -0.35132801073E+01  0.39582807468E+02  0.39923035125E+02  0.51100000000E-03 0. -1.
        -11    1    3    3    0    0 -0.40811364901E+01  0.12642553677E+02 -0.76919729676E+01  0.15351100512E+02  0.51100000000E-03 0.  1.
        -12    1    3    3    0    0  0.85293597930E+01 -0.10112414462E+02 -0.32115547466E+02  0.34733547095E+02  0.00000000000E+00 0.  1.
</event>
<event>
 7    1  0.2404951E-015  0.9000786E+02  0.7816164E-02  0.1186339E+00
        -11   -1    0    0    0    0  0.00000000000E+00  0.00000000000E+00  0.45593999997E+02  0.45594000000E+02  0.51100000000E-03 0.  1.
         11   -1    0    0    0    0 -0.00000000000E+00 -0.00000000000E+00 -0.45593999997E+02  0.45594000000E+02  0.51100000000E-03 0. -1.
    9900012    2    1    2    0    0 -0.97035623655E+00  0.41320604855E+00  0.52952702634E+00  0.90007860459E+02  0.90000123417E+02 0.  0.
         12    1    1    2    0    0  0.97035623655E+00 -0.41320604855E+00 -0.52952702634E+00  0.11801395409E+01  0.00000000000E+00 0. -1.
         11    1    3    3    0    0  0.10147377665E+02  0.31504034195E+02 -0.27332298278E+02  0.42924677908E+02  0.51100000000E-03 0. -1.
        -11    1    3    3    0    0 -0.93678391941E+01 -0.32462012033E+01  0.55712598696E+01  0.11372474235E+02  0.51100000000E-03 0.  1.
        -12    1    3    3    0    0 -0.17498947078E+01 -0.27844626943E+02  0.22290565435E+02  0.35710708317E+02  0.00000000000E+00 0.  1.
</event>
<event>
 7    1  0.2404951E-015  0.9000767E+02  0.7816164E-02  0.1186339E+00
        -11   -1    0    0    0    0  0.00000000000E+00  0.00000000000E+00  0.45593999997E+02  0.45594000000E+02  0.51100000000E-03 0.  1.
         11   -1    0    0    0    0 -0.00000000000E+00 -0.00000000000E+00 -0.45593999997E+02  0.45594000000E+02  0.51100000000E-03 0. -1.
    9900012    2    1    2    0    0 -0.49900221551E+00 -0.81916896725E+00  0.68784404837E+00  0.90007673586E+02  0.89999934078E+02 0.  0.
         12    1    1    2    0    0  0.49900221551E+00  0.81916896725E+00 -0.68784404837E+00  0.11803264137E+01  0.00000000000E+00 0. -1.
         11    1    3    3    0    0 -0.44917854668E+01 -0.16228563726E+01  0.84347561536E+01  0.96930341544E+01  0.51100000000E-03 0. -1.
        -11    1    3    3    0    0  0.47195573477E+01  0.38505291451E+02  0.77254143766E+01  0.39555198379E+02  0.51100000000E-03 0.  1.
         12    1    3    3    0    0 -0.72677409643E+00 -0.37701604045E+02 -0.15472326482E+02  0.40759441053E+02  0.00000000000E+00 0. -1.
</event>
<event>
 7    1  0.2404951E-015  0.9000772E+02  0.7816164E-02  0.1186339E+00
        -11   -1    0    0    0    0  0.00000000000E+00  0.00000000000E+00  0.45593999997E+02  0.45594000000E+02  0.51100000000E-03 0.  1.
         11   -1    0    0    0    0 -0.00000000000E+00 -0.00000000000E+00 -0.45593999997E+02  0.45594000000E+02  0.51100000000E-03 0. -1.
    9900012    2    1    2    0    0  0.28690806272E+00 -0.11417178150E+01 -0.84961705648E-01  0.90007722788E+02  0.89999983929E+02 0.  0.
         12    1    1    2    0    0 -0.28690806272E+00  0.11417178150E+01  0.84961705648E-01  0.11802772120E+01  0.00000000000E+00 0. -1.
         11    1    3    3    0    0 -0.29025132589E+02  0.22278625727E+02 -0.26304459066E+01  0.36683984680E+02  0.51100000000E-03 0. -1.
        -11    1    3    3    0    0 -0.74893932405E+01 -0.34173879722E+01 -0.64793078512E+01  0.10476210295E+02  0.51100000000E-03 0.  1.
        -12    1    3    3    0    0  0.36801433892E+02 -0.20002955570E+02  0.90247920522E+01  0.42847527812E+02  0.00000000000E+00 0.  1.
</event>
<event>
 7    1  0.2404951E-015  0.9000808E+02  0.7816164E-02  0.1186338E+00
        -11   -1    0    0    0    0  0.00000000000E+00  0.00000000000E+00  0.45593999997E+02  0.45594000000E+02  0.51100000000E-03 0.  1.
         11   -1    0    0    0    0 -0.00000000000E+00 -0.00000000000E+00 -0.45593999997E+02  0.45594000000E+02  0.51100000000E-03 0. -1.
    9900012    2    1    2    0    0  0.48499487111E+00 -0.42467237879E+00  0.98825106839E+00  0.90008081855E+02  0.90000347735E+02 0.  0.
         12    1    1    2    0    0 -0.48499487111E+00  0.42467237879E+00 -0.98825106839E+00  0.11799181448E+01  0.00000000000E+00 0. -1.
         11    1    3    3    0    0  0.20944739246E+02  0.79794267876E+01  0.18441523023E+02  0.29024870811E+02  0.51100000000E-03 0. -1.
        -11    1    3    3    0    0 -0.10395142903E+02  0.20667510912E+02  0.39993104454E+01  0.23477638032E+02  0.51100000000E-03 0.  1.
        -12    1    3    3    0    0 -0.10064601472E+02 -0.29071610078E+02 -0.21452582400E+02  0.37505573012E+02  0.00000000000E+00 0.  1.
</event>
<event>
 7    1  0.2404951E-015  0.9000781E+02  0.7816164E-02  0.1186339E+00
        -11   -1    0    0    0    0  0.00000000000E+00  0.00000000000E+00  0.45593999997E+02  0.45594000000E+02  0.51100000000E-03 0. -1.
         11   -1    0    0    0    0 -0.00000000000E+00 -0.00000000000E+00 -0.45593999997E+02  0.45594000000E+02  0.51100000000E-03 0.  1.
    9900012    2    1    2    0    0  0.10101120591E+01 -0.27946424676E-01 -0.60969914294E+00  0.90007813396E+02  0.90000075733E+02 0.  0.
         12    1    1    2    0    0 -0.10101120591E+01  0.27946424676E-01  0.60969914294E+00  0.11801866036E+01  0.00000000000E+00 0. -1.
         11    1    3    3    0    0  0.59288057720E+01 -0.29667988916E+01  0.79966678176E+01  0.10387460228E+02  0.51100000000E-03 0. -1.
        -11    1    3    3    0    0 -0.13665617999E+02 -0.28022435193E+02  0.19606216183E+02  0.36829467858E+02  0.51100000000E-03 0.  1.
         12    1    3    3    0    0  0.87469242858E+01  0.30961287660E+02 -0.28212583144E+02  0.42790885310E+02  0.00000000000E+00 0. -1.
</event>
<event>
 7    1  0.2553383E-015  0.9000775E+02  0.7816164E-02  0.1186339E+00
        -11   -1    0    0    0    0  0.00000000000E+00  0.00000000000E+00  0.45593999997E+02  0.45594000000E+02  0.51100000000E-03 0. -1.
         11   -1    0    0    0    0 -0.00000000000E+00 -0.00000000000E+00 -0.45593999997E+02  0.45594000000E+02  0.51100000000E-03 0.  1.
    9900012    2    1    2    0    0  0.13952469025E+00 -0.17708411760E+00 -0.11585143736E+01  0.90007753637E+02  0.90000015185E+02 0.  0.
         12    1    1    2    0    0 -0.13952469025E+00  0.17708411760E+00  0.11585143736E+01  0.11802463631E+01  0.00000000000E+00 0. -1.
         11    1    3    3    0    0  0.83359058834E+01 -0.13816186716E+02  0.36780720509E+02  0.40164608098E+02  0.51100000000E-03 0. -1.
        -11    1    3    3    0    0  0.78230379221E+01 -0.23669056498E+01 -0.41479430303E+01  0.91655657943E+01  0.51100000000E-03 0.  1.
        -12    1    3    3    0    0 -0.16019419115E+02  0.16006008248E+02 -0.33791291852E+02  0.40677579744E+02  0.00000000000E+00 0.  1.
</event>
<event>
 7    1  0.2404951E-015  0.9000774E+02  0.7816164E-02  0.1186339E+00
        -11   -1    0    0    0    0  0.00000000000E+00  0.00000000000E+00  0.45593999997E+02  0.45594000000E+02  0.51100000000E-03 0. -1.
         11   -1    0    0    0    0 -0.00000000000E+00 -0.00000000000E+00 -0.45593999997E+02  0.45594000000E+02  0.51100000000E-03 0.  1.
    9900012    2    1    2    0    0 -0.43816409385E+00 -0.47192623713E-01 -0.10948937882E+01  0.90007742687E+02  0.90000004091E+02 0.  0.
         12    1    1    2    0    0  0.43816409385E+00  0.47192623713E-01  0.10948937882E+01  0.11802573128E+01  0.00000000000E+00 0. -1.
         11    1    3    3    0    0  0.80957984710E+01 -0.16731193275E+02 -0.60829877880E+01  0.19557032545E+02  0.51100000000E-03 0. -1.
        -11    1    3    3    0    0 -0.22988925188E+02 -0.13623637107E+01 -0.24072405653E+02  0.33314072557E+02  0.51100000000E-03 0.  1.
         12    1    3    3    0    0  0.14454962623E+02  0.18046364361E+02  0.29060499652E+02  0.37136637585E+02  0.00000000000E+00 0. -1.
</event>
<event>
 7    1  0.2404951E-015  0.9000788E+02  0.7816164E-02  0.1186339E+00
        -11   -1    0    0    0    0  0.00000000000E+00  0.00000000000E+00  0.45593999997E+02  0.45594000000E+02  0.51100000000E-03 0. -1.
         11   -1    0    0    0    0 -0.00000000000E+00 -0.00000000000E+00 -0.45593999997E+02  0.45594000000E+02  0.51100000000E-03 0.  1.
    9900012    2    1    2    0    0  0.17340339142E+00  0.10067982222E+00 -0.11629646216E+01  0.90007876331E+02  0.90000139499E+02 0.  0.
         12    1    1    2    0    0 -0.17340339142E+00 -0.10067982222E+00  0.11629646216E+01  0.11801236689E+01  0.00000000000E+00 0. -1.
         11    1    3    3    0    0  0.22074754938E+01 -0.12512618342E+02  0.11703435982E+02  0.17274518224E+02  0.51100000000E-03 0. -1.
        -11    1    3    3    0    0 -0.13312583474E+02  0.24024116261E+02  0.21451405908E+02  0.34850335100E+02  0.51100000000E-03 0.  1.
        -12    1    3    3    0    0  0.11278511371E+02 -0.11410818097E+02 -0.34317806512E+02  0.37883023007E+02  0.00000000000E+00 0.  1.
</event>
<event>
 7    1  0.2404951E-015  0.9000763E+02  0.7816164E-02  0.1186339E+00
        -11   -1    0    0    0    0  0.00000000000E+00  0.00000000000E+00  0.45593999997E+02  0.45594000000E+02  0.51100000000E-03 0. -1.
         11   -1    0    0    0    0 -0.00000000000E+00 -0.00000000000E+00 -0.45593999997E+02  0.45594000000E+02  0.51100000000E-03 0.  1.
    9900012    2    1    2    0    0  0.15039792512E+00  0.78022870572E+00 -0.87286325071E+00  0.90007632844E+02  0.89999892797E+02 0.  0.
         12    1    1    2    0    0 -0.15039792512E+00 -0.78022870572E+00  0.87286325071E+00  0.11803671562E+01  0.00000000000E+00 0. -1.
         11    1    3    3    0    0 -0.32075741728E+01  0.36780041192E+01 -0.66391524165E+01  0.82398174401E+01  0.51100000000E-03 0. -1.
        -11    1    3    3    0    0 -0.30073008230E+02  0.21690225315E+02  0.13677245780E+02  0.39521117780E+02  0.51100000000E-03 0.  1.
         12    1    3    3    0    0  0.33430980328E+02 -0.24588000728E+02 -0.79109566140E+01  0.42246697623E+02  0.00000000000E+00 0. -1.
</event>
<event>
 7    1  0.2948824E-015  0.9000772E+02  0.7816164E-02  0.1186339E+00
        -11   -1    0    0    0    0  0.00000000000E+00  0.00000000000E+00  0.45593999997E+02  0.45594000000E+02  0.51100000000E-03 0.  1.
         11   -1    0    0    0    0 -0.00000000000E+00 -0.00000000000E+00 -0.45593999997E+02  0.45594000000E+02  0.51100000000E-03 0. -1.
    9900012    2    1    2    0    0 -0.21534373446E+00  0.10372634227E+01  0.52035957589E+00  0.90007719347E+02  0.89999980442E+02 0.  0.
         12    1    1    2    0    0  0.21534373446E+00 -0.10372634227E+01 -0.52035957589E+00  0.11802806532E+01  0.00000000000E+00 0. -1.
         11    1    3    3    0    0 -0.18598190248E+02  0.20854013888E+02 -0.27733863339E+02  0.39369401211E+02  0.51100000000E-03 0. -1.
        -11    1    3    3    0    0  0.64048231033E+01  0.74744607503E+01  0.41079757653E+00  0.98518057939E+01  0.51100000000E-03 0.  1.
        -12    1    3    3    0    0  0.11978023411E+02 -0.27291211215E+02  0.27843425339E+02  0.40786512342E+02  0.00000000000E+00 0.  1.
</event>
<event>
 7    1  0.2404951E-015  0.9000765E+02  0.7816164E-02  0.1186339E+00
        -11   -1    0    0    0    0  0.00000000000E+00  0.00000000000E+00  0.45593999997E+02  0.45594000000E+02  0.51100000000E-03 0.  1.
         11   -1    0    0    0    0 -0.00000000000E+00 -0.00000000000E+00 -0.45593999997E+02  0.45594000000E+02  0.51100000000E-03 0. -1.
    9900012    2    1    2    0    0 -0.49947068045E+00 -0.82584892327E+00  0.67950052800E+00  0.90007653283E+02  0.89999913506E+02 0.  0.
         12    1    1    2    0    0  0.49947068045E+00  0.82584892327E+00 -0.67950052800E+00  0.11803467170E+01  0.00000000000E+00 0. -1.
         11    1    3    3    0    0  0.12723969345E+02 -0.16467369422E+02  0.80858908291E+01  0.22326112119E+02  0.51100000000E-03 0. -1.
        -11    1    3    3    0    0  0.20790351202E+02 -0.44198946752E+01  0.11203501345E+02  0.24026914381E+02  0.51100000000E-03 0.  1.
        -12    1    3    3    0    0 -0.34013791228E+02  0.20061415174E+02 -0.18609891646E+02  0.43654626783E+02  0.00000000000E+00 0.  1.
</event>
<event>
 7    1  0.2404951E-015  0.9000777E+02  0.7816164E-02  0.1186339E+00
        -11   -1    0    0    0    0  0.00000000000E+00  0.00000000000E+00  0.45593999997E+02  0.45594000000E+02  0.51100000000E-03 0.  1.
         11   -1    0    0    0    0 -0.00000000000E+00 -0.00000000000E+00 -0.45593999997E+02  0.45594000000E+02  0.51100000000E-03 0. -1.
    9900012    2    1    2    0    0 -0.97562613812E+00 -0.15150242066E+00  0.64663769037E+00  0.90007771358E+02  0.90000033140E+02 0.  0.
         12    1    1    2    0    0  0.97562613812E+00  0.15150242066E+00 -0.64663769037E+00  0.11802286420E+01  0.00000000000E+00 0. -1.
         11    1    3    3    0    0 -0.54610003552E+01 -0.66224207509E+01  0.59125740343E+01  0.10422932095E+02  0.51100000000E-03 0. -1.
        -11    1    3    3    0    0 -0.92652805264E+01 -0.29424339575E+02  0.16939015572E+02  0.35193286739E+02  0.51100000000E-03 0.  1.
         12    1    3    3    0    0  0.13750654743E+02  0.35895257905E+02 -0.22204951916E+02  0.44391552525E+02  0.00000000000E+00 0. -1.
</event>
<event>
 7    1  0.2404951E-015  0.9000773E+02  0.7816164E-02  0.1186339E+00
        -11   -1    0    0    0    0  0.00000000000E+00  0.00000000000E+00  0.45593999997E+02  0.45594000000E+02  0.51100000000E-03 0. -1.
         11   -1    0    0    0    0 -0.00000000000E+00 -0.00000000000E+00 -0.45593999997E+02  0.45594000000E+02  0.51100000000E-03 0.  1.
    9900012    2    1    2    0    0 -0.73876767377E+00  0.39281109291E+00 -0.83244547590E+00  0.90007727277E+02  0.89999988477E+02 0.  0.
         12    1    1    2    0    0  0.73876767377E+00 -0.39281109291E+00  0.83244547590E+00  0.11802727231E+01  0.00000000000E+00 0. -1.
         11    1    3    3    0    0 -0.34369359812E+02 -0.23026285059E+02 -0.63927936470E+01  0.41860846962E+02  0.51100000000E-03 0. -1.
        -11    1    3    3    0    0  0.43285542217E+01  0.83328475913E-01 -0.73460648504E+01  0.85268982833E+01  0.51100000000E-03 0.  1.
        -12    1    3    3    0    0  0.29302037916E+02  0.23335767676E+02  0.12906413022E+02  0.39619982032E+02  0.00000000000E+00 0.  1.
</event>
<event>
 7    1  0.3490726E-015  0.9000776E+02  0.7816164E-02  0.1186339E+00
        -11   -1    0    0    0    0  0.00000000000E+00  0.00000000000E+00  0.45593999997E+02  0.45594000000E+02  0.51100000000E-03 0. -1.
         11   -1    0    0    0    0 -0.00000000000E+00 -0.00000000000E+00 -0.45593999997E+02  0.45594000000E+02  0.51100000000E-03 0.  1.
    9900012    2    1    2    0    0  0.59013967366E+00  0.57829156118E+00 -0.84278220269E+00  0.90007759429E+02  0.90000021054E+02 0.  0.
         12    1    1    2    0    0 -0.59013967366E+00 -0.57829156118E+00  0.84278220269E+00  0.11802405710E+01  0.00000000000E+00 0. -1.
         11    1    3    3    0    0 -0.22058635711E+01 -0.26028718675E+02  0.31416960464E+02  0.40858113454E+02  0.51100000000E-03 0. -1.
        -11    1    3    3    0    0  0.19395015771E+01  0.87970711922E+01  0.31179123435E+01  0.95326546970E+01  0.51100000000E-03 0.  1.
        -12    1    3    3    0    0  0.85650166756E+00  0.17809939044E+02 -0.35377655010E+02  0.39616991278E+02  0.00000000000E+00 0.  1.
</event>
<event>
 7    1  0.2404951E-015  0.9000781E+02  0.7816164E-02  0.1186339E+00
        -11   -1    0    0    0    0  0.00000000000E+00  0.00000000000E+00  0.45593999997E+02  0.45594000000E+02  0.51100000000E-03 0.  1.
         11   -1    0    0    0    0 -0.00000000000E+00 -0.00000000000E+00 -0.45593999997E+02  0.45594000000E+02  0.51100000000E-03 0. -1.
    9900012    2    1    2    0    0 -0.36462512314E+00  0.11194970285E+01 -0.81337461197E-01  0.90007813210E+02  0.90000075544E+02 0.  0.
         12    1    1    2    0    0  0.36462512314E+00 -0.11194970285E+01  0.81337461197E-01  0.11801867902E+01  0.00000000000E+00 0. -1.
         11    1    3    3    0    0  0.30685443703E+02  0.11943792247E+02 -0.26438301209E+02  0.42228360134E+02  0.51100000000E-03 0. -1.
        -11    1    3    3    0    0  0.53174594946E+00 -0.98053236347E+00 -0.32182005737E+01  0.34060259342E+01  0.51100000000E-03 0.  1.
        -12    1    3    3    0    0 -0.31581814776E+02 -0.98437628554E+01  0.29575164322E+02  0.44373427142E+02  0.00000000000E+00 0.  1.
</event>
<event>
 7    1  0.2404951E-015  0.9000775E+02  0.7816164E-02  0.1186339E+00
        -11   -1    0    0    0    0  0.00000000000E+00  0.00000000000E+00  0.45593999997E+02  0.45594000000E+02  0.51100000000E-03 0.  1.
         11   -1    0    0    0    0 -0.00000000000E+00 -0.00000000000E+00 -0.45593999997E+02  0.45594000000E+02  0.51100000000E-03 0. -1.
    9900012    2    1    2    0    0  0.31691688359E+00  0.10529465084E+01 -0.42878739589E+00  0.90007749479E+02  0.90000010972E+02 0.  0.
         12    1    1    2    0    0 -0.31691688359E+00 -0.10529465084E+01  0.42878739589E+00  0.11802505206E+01  0.00000000000E+00 0. -1.
         11    1    3    3    0    0  0.37028920153E+02  0.44643772333E+01  0.11441176615E+02  0.39012461014E+02  0.51100000000E-03 0. -1.
        -11    1    3    3    0    0 -0.13886523504E+01 -0.78564606075E+01  0.70777643363E+01  0.10665227465E+02  0.51100000000E-03 0.  1.
        -12    1    3    3    0    0 -0.35323350919E+02  0.44450298825E+01 -0.18947728347E+02  0.40330061000E+02  0.00000000000E+00 0.  1.
</event>
<event>
 7    1  0.2404951E-015  0.9000783E+02  0.7816164E-02  0.1186339E+00
        -11   -1    0    0    0    0  0.00000000000E+00  0.00000000000E+00  0.45593999997E+02  0.45594000000E+02  0.51100000000E-03 0.  1.
         11   -1    0    0    0    0 -0.00000000000E+00 -0.00000000000E+00 -0.45593999997E+02  0.45594000000E+02  0.51100000000E-03 0. -1.
    9900012    2    1    2    0    0  0.59703699424E+00 -0.28362621709E+00  0.97770311142E+00  0.90007830361E+02  0.90000092921E+02 0.  0.
         12    1    1    2    0    0 -0.59703699424E+00  0.28362621709E+00 -0.97770311142E+00  0.11801696393E+01  0.00000000000E+00 0. -1.
         11    1    3    3    0    0  0.14472182224E+02 -0.30467002394E+02  0.28365462977E+02  0.44071326090E+02  0.51100000000E-03 0. -1.
        -11    1    3    3    0    0  0.42332898171E+00  0.23739141481E+01 -0.97321470176E+01  0.10026433147E+02  0.51100000000E-03 0.  1.
        -12    1    3    3    0    0 -0.14298474211E+02  0.27809462029E+02 -0.17655612848E+02  0.35910071124E+02  0.00000000000E+00 0.  1.
</event>
<event>
 7    1  0.2404951E-015  0.9000778E+02  0.7816164E-02  0.1186339E+00
        -11   -1    0    0    0    0  0.00000000000E+00  0.00000000000E+00  0.45593999997E+02  0.45594000000E+02  0.51100000000E-03 0.  1.
         11   -1    0    0    0    0 -0.00000000000E+00 -0.00000000000E+00 -0.45593999997E+02  0.45594000000E+02  0.51100000000E-03 0. -1.
    9900012    2    1    2    0    0  0.89088242717E+00  0.27911026311E+00  0.72204439684E+00  0.90007778771E+02  0.90000040651E+02 0.  0.
         12    1    1    2    0    0 -0.89088242717E+00 -0.27911026311E+00 -0.72204439684E+00  0.11802212288E+01  0.00000000000E+00 0. -1.
         11    1    3    3    0    0  0.22671805863E+02  0.26433926997E+02  0.16256463127E+02  0.38432224386E+02  0.51100000000E-03 0. -1.
        -11    1    3    3    0    0 -0.91951352241E+00  0.84412665167E+01 -0.48862128847E+01  0.97967118025E+01  0.51100000000E-03 0.  1.
        -12    1    3    3    0    0 -0.20861409914E+02 -0.34596083250E+02 -0.10648205845E+02  0.41778842583E+02  0.00000000000E+00 0.  1.
</event>
<event>
 7    1  0.2404951E-015  0.9000779E+02  0.7816164E-02  0.1186339E+00
        -11   -1    0    0    0    0  0.00000000000E+00  0.00000000000E+00  0.45593999997E+02  0.45594000000E+02  0.51100000000E-03 0.  1.
         11   -1    0    0    0    0 -0.00000000000E+00 -0.00000000000E+00 -0.45593999997E+02  0.45594000000E+02  0.51100000000E-03 0. -1.
    9900012    2    1    2    0    0 -0.71462536352E-01  0.70368704687E+00  0.94478679134E+00  0.90007786276E+02  0.90000048254E+02 0.  0.
         12    1    1    2    0    0  0.71462536352E-01 -0.70368704687E+00 -0.94478679134E+00  0.11802137243E+01  0.00000000000E+00 0. -1.
         11    1    3    3    0    0  0.13422471452E+02 -0.23098561862E+02 -0.22412345466E+02  0.34871471570E+02  0.51100000000E-03 0. -1.
        -11    1    3    3    0    0  0.23031619605E+01 -0.56465613383E+01 -0.74892244249E+01  0.96579859552E+01  0.51100000000E-03 0.  1.
        -12    1    3    3    0    0 -0.15797095949E+02  0.29448810247E+02  0.30846356682E+02  0.45478328750E+02  0.00000000000E+00 0.  1.
</event>
<event>
 7    1  0.2584023E-015  0.9000775E+02  0.7816164E-02  0.1186339E+00
        -11   -1    0    0    0    0  0.00000000000E+00  0.00000000000E+00  0.45593999997E+02  0.45594000000E+02  0.51100000000E-03 0. -1.
         11   -1    0    0    0    0 -0.00000000000E+00 -0.00000000000E+00 -0.45593999997E+02  0.45594000000E+02  0.51100000000E-03 0.  1.
    9900012    2    1    2    0    0 -0.80604427523E+00  0.36377924583E+00 -0.78163660567E+00  0.90007746427E+02  0.90000007880E+02 0.  0.
         12    1    1    2    0    0  0.80604427523E+00 -0.36377924583E+00  0.78163660567E+00  0.11802535730E+01  0.00000000000E+00 0. -1.
         11    1    3    3    0    0  0.26024195855E+02  0.15283133788E+02  0.22436344802E+02  0.37606149984E+02  0.51100000000E-03 0. -1.
        -11    1    3    3    0    0 -0.15334230769E+01  0.88673883648E+01  0.23255565064E+01  0.92946315726E+01  0.51100000000E-03 0.  1.
        -12    1    3    3    0    0 -0.25296817053E+02 -0.23786742907E+02 -0.25543537914E+02  0.43106964870E+02  0.00000000000E+00 0.  1.
</event>
<event>
 7    1  0.2404951E-015  0.9000848E+02  0.7816164E-02  0.1186338E+00
        -11   -1    0    0    0    0  0.00000000000E+00  0.00000000000E+00  0.45593999997E+02  0.45594000000E+02  0.51100000000E-03 0. -1.
         11   -1    0    0    0    0 -0.00000000000E+00 -0.00000000000E+00 -0.45593999997E+02  0.45594000000E+02  0.51100000000E-03 0.  1.
    9900012    2    1    2    0    0  0.47813308575E+00 -0.61016943694E+00 -0.88901951258E+00  0.90008477349E+02  0.90000748447E+02 0.  0.
         12    1    1    2    0    0 -0.47813308575E+00  0.61016943694E+00  0.88901951258E+00  0.11795226506E+01  0.00000000000E+00 0. -1.
         11    1    3    3    0    0 -0.71997368765E+01 -0.40301322687E+01 -0.89163367621E+01  0.12148219570E+02  0.51100000000E-03 0. -1.
        -11    1    3    3    0    0  0.22007612420E+02 -0.58027889549E+01 -0.29138545944E+02  0.36973804566E+02  0.51100000000E-03 0.  1.
         12    1    3    3    0    0 -0.14329742458E+02  0.92227517866E+01  0.37165863194E+02  0.40886453214E+02  0.00000000000E+00 0. -1.
</event>
<event>
 7    1  0.2404951E-015  0.9000771E+02  0.7816164E-02  0.1186339E+00
        -11   -1    0    0    0    0  0.00000000000E+00  0.00000000000E+00  0.45593999997E+02  0.45594000000E+02  0.51100000000E-03 0. -1.
         11   -1    0    0    0    0 -0.00000000000E+00 -0.00000000000E+00 -0.45593999997E+02  0.45594000000E+02  0.51100000000E-03 0.  1.
    9900012    2    1    2    0    0  0.19577296605E+00 -0.89960099101E+00  0.73856236214E+00  0.90007710476E+02  0.89999971454E+02 0.  0.
         12    1    1    2    0    0 -0.19577296605E+00  0.89960099101E+00 -0.73856236214E+00  0.11802895238E+01  0.00000000000E+00 0. -1.
         11    1    3    3    0    0  0.29835365634E+02  0.20683445184E+01 -0.77667632829E+01  0.30899024316E+02  0.51100000000E-03 0. -1.
        -11    1    3    3    0    0  0.14114818090E+02  0.24944784314E+01  0.88358196862E+00  0.14360753104E+02  0.51100000000E-03 0.  1.
        -12    1    3    3    0    0 -0.43754410758E+02 -0.54624239408E+01  0.76217436764E+01  0.44747933056E+02  0.00000000000E+00 0.  1.
</event>
<event>
 7    1  0.2404951E-015  0.9000765E+02  0.7816164E-02  0.1186339E+00
        -11   -1    0    0    0    0  0.00000000000E+00  0.00000000000E+00  0.45593999997E+02  0.45594000000E+02  0.51100000000E-03 0.  1.
         11   -1    0    0    0    0 -0.00000000000E+00 -0.00000000000E+00 -0.45593999997E+02  0.45594000000E+02  0.51100000000E-03 0. -1.
    9900012    2    1    2    0    0  0.44679184161E+00  0.10652677659E+01  0.24248026804E+00  0.90007654693E+02  0.89999914935E+02 0.  0.
         12    1    1    2    0    0 -0.44679184161E+00 -0.10652677659E+01 -0.24248026804E+00  0.11803453068E+01  0.00000000000E+00 0. -1.
         11    1    3    3    0    0  0.23389165494E+02 -0.17134416265E+02  0.25341393839E+02  0.38507499597E+02  0.51100000000E-03 0. -1.
        -11    1    3    3    0    0 -0.90388035198E+01 -0.53909419765E+01  0.42594755839E+01  0.11353649500E+02  0.51100000000E-03 0.  1.
        -12    1    3    3    0    0 -0.13903570132E+02  0.23590626008E+02 -0.29358389154E+02  0.40146505596E+02  0.00000000000E+00 0.  1.
</event>
<event>
 7    1  0.2404951E-015  0.9000771E+02  0.7816164E-02  0.1186339E+00
        -11   -1    0    0    0    0  0.00000000000E+00  0.00000000000E+00  0.45593999997E+02  0.45594000000E+02  0.51100000000E-03 0.  1.
         11   -1    0    0    0    0 -0.00000000000E+00 -0.00000000000E+00 -0.45593999997E+02  0.45594000000E+02  0.51100000000E-03 0. -1.
    9900012    2    1    2    0    0 -0.54387376467E+00  0.48075174086E+00  0.93067349851E+00  0.90007714412E+02  0.89999975442E+02 0.  0.
         12    1    1    2    0    0  0.54387376467E+00 -0.48075174086E+00 -0.93067349851E+00  0.11802855879E+01  0.00000000000E+00 0. -1.
         11    1    3    3    0    0 -0.40543721819E+02  0.96289519696E+01  0.55565854852E+01  0.42040287077E+02  0.51100000000E-03 0. -1.
        -11    1    3    3    0    0 -0.90967308150E+00 -0.42535051341E+01  0.39585561155E+01  0.58813244955E+01  0.51100000000E-03 0.  1.
        -12    1    3    3    0    0  0.40909521136E+02 -0.48946950947E+01 -0.85844681022E+01  0.42086102840E+02  0.00000000000E+00 0.  1.
</event>
<event>
 7    1  0.2404951E-015  0.9000770E+02  0.7816164E-02  0.1186339E+00
        -11   -1    0    0    0    0  0.00000000000E+00  0.00000000000E+00  0.45593999997E+02  0.45594000000E+02  0.51100000000E-03 0. -1.
         11   -1    0    0    0    0 -0.00000000000E+00 -0.00000000000E+00 -0.45593999997E+02  0.45594000000E+02  0.51100000000E-03 0.  1.
    9900012    2    1    2    0    0  0.55335852016E+00  0.85665193013E+00 -0.59417537694E+00  0.90007702343E+02  0.89999963214E+02 0.  0.
         12    1    1    2    0    0 -0.55335852016E+00 -0.85665193013E+00  0.59417537694E+00  0.11802976573E+01  0.00000000000E+00 0. -1.
         11    1    3    3    0    0  0.98959271621E+00 -0.10891924456E+02  0.47691319331E+01  0.11931384319E+02  0.51100000000E-03 0. -1.
        -11    1    3    3    0    0 -0.58456508461E+01 -0.89141998053E+01 -0.37780234888E+02  0.39255327542E+02  0.51100000000E-03 0.  1.
         12    1    3    3    0    0  0.54094166500E+01  0.20662776192E+02  0.32416927578E+02  0.38820990482E+02  0.00000000000E+00 0. -1.
</event>
<event>
 7    1  0.2404951E-015  0.9000774E+02  0.7816164E-02  0.1186339E+00
        -11   -1    0    0    0    0  0.00000000000E+00  0.00000000000E+00  0.45593999997E+02  0.45594000000E+02  0.51100000000E-03 0.  1.
         11   -1    0    0    0    0 -0.00000000000E+00 -0.00000000000E+00 -0.45593999997E+02  0.45594000000E+02  0.51100000000E-03 0. -1.
    9900012    2    1    2    0    0 -0.37826745701E+00 -0.10931311355E+01  0.23449092398E+00  0.90007742426E+02  0.90000003826E+02 0.  0.
         12    1    1    2    0    0  0.37826745701E+00  0.10931311355E+01 -0.23449092398E+00  0.11802575744E+01  0.00000000000E+00 0. -1.
         11    1    3    3    0    0 -0.81666606143E+01  0.44104260425E+01 -0.13934503661E+01  0.93855158436E+01  0.51100000000E-03 0. -1.
        -11    1    3    3    0    0 -0.19963067803E+02 -0.27115372448E+02  0.21763439427E+02  0.40092577806E+02  0.51100000000E-03 0.  1.
         12    1    3    3    0    0  0.27751460960E+02  0.21611815270E+02 -0.20135498137E+02  0.40529648777E+02  0.00000000000E+00 0. -1.
</event>
<event>
 7    1  0.2404951E-015  0.9000787E+02  0.7816164E-02  0.1186339E+00
        -11   -1    0    0    0    0  0.00000000000E+00  0.00000000000E+00  0.45593999997E+02  0.45594000000E+02  0.51100000000E-03 0. -1.
         11   -1    0    0    0    0 -0.00000000000E+00 -0.00000000000E+00 -0.45593999997E+02  0.45594000000E+02  0.51100000000E-03 0.  1.
    9900012    2    1    2    0    0 -0.60804505382E+00 -0.85767157162E+00 -0.53608934530E+00  0.90007868186E+02  0.90000131246E+02 0.  0.
         12    1    1    2    0    0  0.60804505382E+00  0.85767157162E+00  0.53608934530E+00  0.11801318140E+01  0.00000000000E+00 0. -1.
         11    1    3    3    0    0  0.91187365822E+01 -0.57945240938E+00 -0.31104272174E+01  0.96520401826E+01  0.51100000000E-03 0. -1.
        -11    1    3    3    0    0  0.29172131729E+02  0.10806549671E+02 -0.16966700568E+02  0.35435345544E+02  0.51100000000E-03 0.  1.
         12    1    3    3    0    0 -0.38898913365E+02 -0.11084768833E+02  0.19541038440E+02  0.44920482459E+02  0.00000000000E+00 0. -1.
</event>
<event>
 7    1  0.2404951E-015  0.9000770E+02  0.7816164E-02  0.1186339E+00
        -11   -1    0    0    0    0  0.00000000000E+00  0.00000000000E+00  0.45593999997E+02  0.45594000000E+02  0.51100000000E-03 0.  1.
         11   -1    0    0    0    0 -0.00000000000E+00 -0.00000000000E+00 -0.45593999997E+02  0.45594000000E+02  0.51100000000E-03 0. -1.
    9900012    2    1    2    0    0  0.74094775609E+00  0.70932731601E+00  0.58391417524E+00  0.90007701486E+02  0.89999962345E+02 0.  0.
         12    1    1    2    0    0 -0.74094775609E+00 -0.70932731601E+00 -0.58391417524E+00  0.11802985142E+01  0.00000000000E+00 0. -1.
         11    1    3    3    0    0  0.17108083987E+02  0.32945847936E+02  0.11854863240E+02  0.38969901420E+02  0.51100000000E-03 0. -1.
        -11    1    3    3    0    0 -0.18358791649E+01  0.48081922934E+01  0.57855933383E+01  0.77435299428E+01  0.51100000000E-03 0.  1.
        -12    1    3    3    0    0 -0.14531257066E+02 -0.37044712913E+02 -0.17056542403E+02  0.43294270123E+02  0.00000000000E+00 0.  1.
</event>
<event>
 7    1  0.2404951E-015  0.9000768E+02  0.7816164E-02  0.1186339E+00
        -11   -1    0    0    0    0  0.00000000000E+00  0.00000000000E+00  0.45593999997E+02  0.45594000000E+02  0.51100000000E-03 0. -1.
         11   -1    0    0    0    0 -0.00000000000E+00 -0.00000000000E+00 -0.45593999997E+02  0.45594000000E+02  0.51100000000E-03 0.  1.
    9900012    2    1    2    0    0  0.48902516820E+00  0.20137277302E+00 -0.10552053344E+01  0.90007680168E+02  0.89999940746E+02 0.  0.
         12    1    1    2    0    0 -0.48902516820E+00 -0.20137277302E+00  0.10552053344E+01  0.11803198323E+01  0.00000000000E+00 0. -1.
         11    1    3    3    0    0  0.48123897975E+01  0.47706381237E+01 -0.89605510717E+01  0.11234302802E+02  0.51100000000E-03 0. -1.
        -11    1    3    3    0    0  0.16987186308E+02  0.31454658519E+02 -0.18496156662E+01  0.35796384169E+02  0.51100000000E-03 0.  1.
         12    1    3    3    0    0 -0.21310550937E+02 -0.36023923870E+02  0.97549614036E+01  0.42976993197E+02  0.00000000000E+00 0. -1.
</event>
<event>
 7    1  0.2404951E-015  0.9000773E+02  0.7816164E-02  0.1186339E+00
        -11   -1    0    0    0    0  0.00000000000E+00  0.00000000000E+00  0.45593999997E+02  0.45594000000E+02  0.51100000000E-03 0.  1.
         11   -1    0    0    0    0 -0.00000000000E+00 -0.00000000000E+00 -0.45593999997E+02  0.45594000000E+02  0.51100000000E-03 0. -1.
    9900012    2    1    2    0    0 -0.83714638914E+00 -0.71754675935E+00  0.42112301249E+00  0.90007732225E+02  0.89999993491E+02 0.  0.
         12    1    1    2    0    0  0.83714638914E+00  0.71754675935E+00 -0.42112301249E+00  0.11802677749E+01  0.00000000000E+00 0. -1.
         11    1    3    3    0    0 -0.28659842364E+00 -0.81649509036E+01 -0.88008589216E+01  0.12008483665E+02  0.51100000000E-03 0. -1.
        -11    1    3    3    0    0 -0.34865659114E+02 -0.11478133471E+02 -0.33120291353E+01  0.36855545996E+02  0.51100000000E-03 0.  1.
         12    1    3    3    0    0  0.34315111149E+02  0.18925537615E+02  0.12534011069E+02  0.41143702564E+02  0.00000000000E+00 0. -1.
</event>
<event>
 7    1  0.2404951E-015  0.9000785E+02  0.7816164E-02  0.1186339E+00
        -11   -1    0    0    0    0  0.00000000000E+00  0.00000000000E+00  0.45593999997E+02  0.45594000000E+02  0.51100000000E-03 0.  1.
         11   -1    0    0    0    0 -0.00000000000E+00 -0.00000000000E+00 -0.45593999997E+02  0.45594000000E+02  0.51100000000E-03 0. -1.
    9900012    2    1    2    0    0  0.23692878957E+00 -0.52457007447E+00  0.10302677175E+01  0.90007847220E+02  0.90000110003E+02 0.  0.
         12    1    1    2    0    0 -0.23692878957E+00  0.52457007447E+00 -0.10302677175E+01  0.11801527799E+01  0.00000000000E+00 0. -1.
         11    1    3    3    0    0  0.42116093636E+01  0.87451030086E+01 -0.37724526360E+01  0.10413735123E+02  0.51100000000E-03 0. -1.
        -11    1    3    3    0    0 -0.37575275061E+01  0.23872420683E+02  0.29592197315E+02  0.38206146422E+02  0.51100000000E-03 0.  1.
         12    1    3    3    0    0 -0.21715306790E+00 -0.33142093766E+02 -0.24789476962E+02  0.41387965675E+02  0.00000000000E+00 0. -1.
</event>
<event>
 7    1  0.2404951E-015  0.9000759E+02  0.7816164E-02  0.1186339E+00
        -11   -1    0    0    0    0  0.00000000000E+00  0.00000000000E+00  0.45593999997E+02  0.45594000000E+02  0.51100000000E-03 0.  1.
         11   -1    0    0    0    0 -0.00000000000E+00 -0.00000000000E+00 -0.45593999997E+02  0.45594000000E+02  0.51100000000E-03 0. -1.
    9900012    2    1    2    0    0  0.32134232359E+00 -0.29193679662E+00  0.10976698754E+01  0.90007590267E+02  0.89999849658E+02 0.  0.
         12    1    1    2    0    0 -0.32134232359E+00  0.29193679662E+00 -0.10976698754E+01  0.11804097329E+01  0.00000000000E+00 0. -1.
         11    1    3    3    0    0  0.10011872544E+02  0.25200313807E+01  0.23107042788E+01  0.10579579601E+02  0.51100000000E-03 0. -1.
        -11    1    3    3    0    0 -0.48719026572E+01 -0.71595420204E+01  0.38360488157E+02  0.39325837936E+02  0.51100000000E-03 0.  1.
         12    1    3    3    0    0 -0.48186275633E+01  0.43475738431E+01 -0.39573522560E+02  0.40102172731E+02  0.00000000000E+00 0. -1.
</event>
<event>
 7    1  0.2404951E-015  0.9000774E+02  0.7816164E-02  0.1186339E+00
        -11   -1    0    0    0    0  0.00000000000E+00  0.00000000000E+00  0.45593999997E+02  0.45594000000E+02  0.51100000000E-03 0.  1.
         11   -1    0    0    0    0 -0.00000000000E+00 -0.00000000000E+00 -0.45593999997E+02  0.45594000000E+02  0.51100000000E-03 0. -1.
    9900012    2    1    2    0    0 -0.10406849087E+01 -0.27199588175E+00  0.48579408607E+00  0.90007744632E+02  0.90000006062E+02 0.  0.
         12    1    1    2    0    0  0.10406849087E+01  0.27199588175E+00 -0.48579408607E+00  0.11802553676E+01  0.00000000000E+00 0. -1.
         11    1    3    3    0    0 -0.80023885248E+01 -0.65612586509E+01  0.75647649407E+01  0.12818502489E+02  0.51100000000E-03 0. -1.
        -11    1    3    3    0    0 -0.56866310781E+01  0.14933479469E+02  0.31696692562E+02  0.35496857632E+02  0.51100000000E-03 0.  1.
         12    1    3    3    0    0  0.12648334694E+02 -0.86442167002E+01 -0.38775663417E+02  0.41692384512E+02  0.00000000000E+00 0. -1.
</event>
<event>
 7    1  0.2404951E-015  0.9000787E+02  0.7816164E-02  0.1186339E+00
        -11   -1    0    0    0    0  0.00000000000E+00  0.00000000000E+00  0.45593999997E+02  0.45594000000E+02  0.51100000000E-03 0. -1.
         11   -1    0    0    0    0 -0.00000000000E+00 -0.00000000000E+00 -0.45593999997E+02  0.45594000000E+02  0.51100000000E-03 0.  1.
    9900012    2    1    2    0    0  0.10360172965E+01  0.56026750796E+00 -0.74033400397E-01  0.90007867608E+02  0.90000130660E+02 0.  0.
         12    1    1    2    0    0 -0.10360172965E+01 -0.56026750796E+00  0.74033400397E-01  0.11801323923E+01  0.00000000000E+00 0. -1.
         11    1    3    3    0    0 -0.31541481390E+02 -0.18864304739E+00 -0.17395869658E+02  0.36021062115E+02  0.51100000000E-03 0. -1.
        -11    1    3    3    0    0 -0.64892877263E+01  0.87135811850E+01  0.10193685024E+01  0.10912216304E+02  0.51100000000E-03 0.  1.
        -12    1    3    3    0    0  0.39066786413E+02 -0.79646706296E+01  0.16302467755E+02  0.43074589189E+02  0.00000000000E+00 0.  1.
</event>
<event>
 7    1  0.2404951E-015  0.9000776E+02  0.7816164E-02  0.1186339E+00
        -11   -1    0    0    0    0  0.00000000000E+00  0.00000000000E+00  0.45593999997E+02  0.45594000000E+02  0.51100000000E-03 0. -1.
         11   -1    0    0    0    0 -0.00000000000E+00 -0.00000000000E+00 -0.45593999997E+02  0.45594000000E+02  0.51100000000E-03 0.  1.
    9900012    2    1    2    0    0 -0.56312482437E+00 -0.80556105171E+00 -0.65340358550E+00  0.90007756626E+02  0.90000018214E+02 0.  0.
         12    1    1    2    0    0  0.56312482437E+00  0.80556105171E+00  0.65340358550E+00  0.11802433738E+01  0.00000000000E+00 0. -1.
         11    1    3    3    0    0 -0.61776474094E+01 -0.37003106413E+01  0.44029431823E+01  0.84404700867E+01  0.51100000000E-03 0. -1.
        -11    1    3    3    0    0 -0.32425633850E+02 -0.18590360126E+02  0.14084838050E+01  0.37403302623E+02  0.51100000000E-03 0.  1.
         12    1    3    3    0    0  0.38040156435E+02  0.21485109715E+02 -0.64648305727E+01  0.44163983917E+02  0.00000000000E+00 0. -1.
</event>
<event>
 7    1  0.2404951E-015  0.9000779E+02  0.7816164E-02  0.1186339E+00
        -11   -1    0    0    0    0  0.00000000000E+00  0.00000000000E+00  0.45593999997E+02  0.45594000000E+02  0.51100000000E-03 0.  1.
         11   -1    0    0    0    0 -0.00000000000E+00 -0.00000000000E+00 -0.45593999997E+02  0.45594000000E+02  0.51100000000E-03 0. -1.
    9900012    2    1    2    0    0 -0.11321976829E+01  0.84772679203E-02 -0.33310088874E+00  0.90007788299E+02  0.90000050304E+02 0.  0.
         12    1    1    2    0    0  0.11321976829E+01 -0.84772679203E-02  0.33310088874E+00  0.11802117010E+01  0.00000000000E+00 0. -1.
         11    1    3    3    0    0  0.22530633007E+02  0.18835867463E+02 -0.27881003523E+02  0.40494069745E+02  0.51100000000E-03 0. -1.
        -11    1    3    3    0    0 -0.17954821198E+01 -0.79731322728E+01 -0.44189085096E+01  0.92909282077E+01  0.51100000000E-03 0.  1.
        -12    1    3    3    0    0 -0.21867348570E+02 -0.10854257923E+02  0.31966811144E+02  0.40222790346E+02  0.00000000000E+00 0.  1.
</event>
<event>
 7    1  0.2404951E-015  0.9000788E+02  0.7816164E-02  0.1186339E+00
        -11   -1    0    0    0    0  0.00000000000E+00  0.00000000000E+00  0.45593999997E+02  0.45594000000E+02  0.51100000000E-03 0. -1.
         11   -1    0    0    0    0 -0.00000000000E+00 -0.00000000000E+00 -0.45593999997E+02  0.45594000000E+02  0.51100000000E-03 0.  1.
    9900012    2    1    2    0    0  0.37185310989E+00 -0.97451266073E+00  0.55202897328E+00  0.90007878969E+02  0.90000142171E+02 0.  0.
         12    1    1    2    0    0 -0.37185310989E+00  0.97451266073E+00 -0.55202897328E+00  0.11801210313E+01  0.00000000000E+00 0. -1.
         11    1    3    3    0    0  0.41661759302E+02 -0.24038538681E+01 -0.22631214744E+01  0.41792372756E+02  0.51100000000E-03 0. -1.
        -11    1    3    3    0    0 -0.40796163820E+01  0.92243394085E+01 -0.90733066248E-01  0.10086621838E+02  0.51100000000E-03 0.  1.
        -12    1    3    3    0    0 -0.37210289810E+02 -0.77949982011E+01  0.29058835139E+01  0.38128884375E+02  0.00000000000E+00 0.  1.
</event>
<event>
 7    1  0.2404951E-015  0.9000781E+02  0.7816164E-02  0.1186339E+00
        -11   -1    0    0    0    0  0.00000000000E+00  0.00000000000E+00  0.45593999997E+02  0.45594000000E+02  0.51100000000E-03 0.  1.
         11   -1    0    0    0    0 -0.00000000000E+00 -0.00000000000E+00 -0.45593999997E+02  0.45594000000E+02  0.51100000000E-03 0. -1.
    9900012    2    1    2    0    0  0.54084401614E+00  0.76329639975E+00 -0.71952219682E+00  0.90007811102E+02  0.90000073408E+02 0.  0.
         12    1    1    2    0    0 -0.54084401614E+00 -0.76329639975E+00  0.71952219682E+00  0.11801888982E+01  0.00000000000E+00 0. -1.
         11    1    3    3    0    0  0.57456317847E+01  0.79296498805E+01 -0.26365057455E+01  0.10141143655E+02  0.51100000000E-03 0. -1.
        -11    1    3    3    0    0 -0.42246806967E+01  0.17618934091E+01  0.40242878390E+02  0.40502363594E+02  0.51100000000E-03 0.  1.
         12    1    3    3    0    0 -0.98010707185E+00 -0.89282468899E+01 -0.38325894841E+02  0.39364303852E+02  0.00000000000E+00 0. -1.
</event>
<event>
 7    1  0.2404951E-015  0.9000777E+02  0.7816164E-02  0.1186339E+00
        -11   -1    0    0    0    0  0.00000000000E+00  0.00000000000E+00  0.45593999997E+02  0.45594000000E+02  0.51100000000E-03 0.  1.
         11   -1    0    0    0    0 -0.00000000000E+00 -0.00000000000E+00 -0.45593999997E+02  0.45594000000E+02  0.51100000000E-03 0. -1.
    9900012    2    1    2    0    0  0.70682988493E+00  0.93722673114E+00  0.12220108137E+00  0.90007773100E+02  0.90000034905E+02 0.  0.
         12    1    1    2    0    0 -0.70682988493E+00 -0.93722673114E+00 -0.12220108137E+00  0.11802269003E+01  0.00000000000E+00 0. -1.
         11    1    3    3    0    0  0.40798310846E+01  0.50700283627E+01 -0.79521517253E+01  0.10275549942E+02  0.51100000000E-03 0. -1.
        -11    1    3    3    0    0  0.10611298731E+02  0.29818920684E+02  0.23987301007E+02  0.39713452398E+02  0.51100000000E-03 0.  1.
         12    1    3    3    0    0 -0.13984299930E+02 -0.33951722315E+02 -0.15912948200E+02  0.40018770760E+02  0.00000000000E+00 0. -1.
</event>
<event>
 7    1  0.2404951E-015  0.9000737E+02  0.7816164E-02  0.1186340E+00
        -11   -1    0    0    0    0  0.00000000000E+00  0.00000000000E+00  0.45593999997E+02  0.45594000000E+02  0.51100000000E-03 0.  1.
         11   -1    0    0    0    0 -0.00000000000E+00 -0.00000000000E+00 -0.45593999997E+02  0.45594000000E+02  0.51100000000E-03 0. -1.
    9900012    2    1    2    0    0  0.76938954673E+00  0.88904917229E+00  0.10727796220E+00  0.90007374206E+02  0.89999630744E+02 0.  0.
         12    1    1    2    0    0 -0.76938954673E+00 -0.88904917229E+00 -0.10727796220E+00  0.11806257945E+01  0.00000000000E+00 0. -1.
         11    1    3    3    0    0 -0.62112775863E+01  0.23595972213E+01  0.69829073908E+01  0.96389140566E+01  0.51100000000E-03 0. -1.
        -11    1    3    3    0    0 -0.28154134936E+02  0.14090698747E+01  0.21224870534E+02  0.35286483551E+02  0.51100000000E-03 0.  1.
         12    1    3    3    0    0  0.35134802069E+02 -0.28796179238E+01 -0.28100499963E+02  0.45081976598E+02  0.00000000000E+00 0. -1.
</event>
<event>
 7    1  0.2404951E-015  0.9000754E+02  0.7816164E-02  0.1186339E+00
        -11   -1    0    0    0    0  0.00000000000E+00  0.00000000000E+00  0.45593999997E+02  0.45594000000E+02  0.51100000000E-03 0. -1.
         11   -1    0    0    0    0 -0.00000000000E+00 -0.00000000000E+00 -0.45593999997E+02  0.45594000000E+02  0.51100000000E-03 0.  1.
    9900012    2    1    2    0    0  0.92715077951E+00  0.71754568007E+00 -0.13782221587E+00  0.90007544438E+02  0.89999803224E+02 0.  0.
         12    1    1    2    0    0 -0.92715077951E+00 -0.71754568007E+00  0.13782221587E+00  0.11804555621E+01  0.00000000000E+00 0. -1.
         11    1    3    3    0    0 -0.71501780627E+01  0.40295553187E+01  0.36220184806E+01  0.89711415399E+01  0.51100000000E-03 0. -1.
        -11    1    3    3    0    0 -0.14685427450E+02 -0.20967494687E+02  0.28148640404E+02  0.38047911502E+02  0.51100000000E-03 0.  1.
         12    1    3    3    0    0  0.22762756292E+02  0.17655485049E+02 -0.31908481101E+02  0.42988491395E+02  0.00000000000E+00 0. -1.
</event>
<event>
 7    1  0.2404951E-015  0.9000777E+02  0.7816164E-02  0.1186339E+00
        -11   -1    0    0    0    0  0.00000000000E+00  0.00000000000E+00  0.45593999997E+02  0.45594000000E+02  0.51100000000E-03 0. -1.
         11   -1    0    0    0    0 -0.00000000000E+00 -0.00000000000E+00 -0.45593999997E+02  0.45594000000E+02  0.51100000000E-03 0.  1.
    9900012    2    1    2    0    0 -0.11624961486E+01 -0.18821532866E+00  0.78191553166E-01  0.90007772808E+02  0.90000034609E+02 0.  0.
         12    1    1    2    0    0  0.11624961486E+01  0.18821532866E+00 -0.78191553166E-01  0.11802271918E+01  0.00000000000E+00 0. -1.
         11    1    3    3    0    0  0.66011606858E+01  0.50318552805E+01 -0.49989362656E+01  0.96893887326E+01  0.51100000000E-03 0. -1.
        -11    1    3    3    0    0  0.10541431974E+02  0.28667203401E+02 -0.17966243880E+02  0.35436086949E+02  0.51100000000E-03 0.  1.
         12    1    3    3    0    0 -0.18305088808E+02 -0.33887274010E+02  0.23043371699E+02  0.44882297126E+02  0.00000000000E+00 0. -1.
</event>
<event>
 7    1  0.2404951E-015  0.9000773E+02  0.7816164E-02  0.1186339E+00
        -11   -1    0    0    0    0  0.00000000000E+00  0.00000000000E+00  0.45593999997E+02  0.45594000000E+02  0.51100000000E-03 0.  1.
         11   -1    0    0    0    0 -0.00000000000E+00 -0.00000000000E+00 -0.45593999997E+02  0.45594000000E+02  0.51100000000E-03 0. -1.
    9900012    2    1    2    0    0 -0.69557975071E+00  0.95330349442E+00 -0.20377981950E-01  0.90007731385E+02  0.89999992639E+02 0.  0.
         12    1    1    2    0    0  0.69557975071E+00 -0.95330349442E+00  0.20377981950E-01  0.11802686153E+01  0.00000000000E+00 0. -1.
         11    1    3    3    0    0 -0.24888995590E+02  0.25058403677E+02  0.10719744910E+02  0.36909329817E+02  0.51100000000E-03 0. -1.
        -11    1    3    3    0    0 -0.34289269956E+01 -0.21820030185E+02  0.27762685372E+01  0.22261602028E+02  0.51100000000E-03 0.  1.
        -12    1    3    3    0    0  0.27622342835E+02 -0.22850699974E+01 -0.13516391429E+02  0.30836799540E+02  0.00000000000E+00 0.  1.
</event>
<event>
 7    1  0.2404951E-015  0.9000785E+02  0.7816164E-02  0.1186339E+00
        -11   -1    0    0    0    0  0.00000000000E+00  0.00000000000E+00  0.45593999997E+02  0.45594000000E+02  0.51100000000E-03 0.  1.
         11   -1    0    0    0    0 -0.00000000000E+00 -0.00000000000E+00 -0.45593999997E+02  0.45594000000E+02  0.51100000000E-03 0. -1.
    9900012    2    1    2    0    0  0.86963339335E+00 -0.29441001603E+00  0.74148685639E+00  0.90007854986E+02  0.90000117872E+02 0.  0.
         12    1    1    2    0    0 -0.86963339335E+00  0.29441001603E+00 -0.74148685639E+00  0.11801450142E+01  0.00000000000E+00 0. -1.
         11    1    3    3    0    0  0.19101167156E+02 -0.88132210400E+01  0.37972298257E+01  0.21376304789E+02  0.51100000000E-03 0. -1.
        -11    1    3    3    0    0 -0.29270497097E+01 -0.74504279273E+01  0.28776439434E+02  0.29869046906E+02  0.51100000000E-03 0.  1.
         12    1    3    3    0    0 -0.15304484053E+02  0.15969238951E+02 -0.31832182404E+02  0.38762503291E+02  0.00000000000E+00 0. -1.
</event>
<event>
 7    1  0.2404951E-015  0.9000763E+02  0.7816164E-02  0.1186339E+00
        -11   -1    0    0    0    0  0.00000000000E+00  0.00000000000E+00  0.45593999997E+02  0.45594000000E+02  0.51100000000E-03 0.  1.
         11   -1    0    0    0    0 -0.00000000000E+00 -0.00000000000E+00 -0.45593999997E+02  0.45594000000E+02  0.51100000000E-03 0. -1.
    9900012    2    1    2    0    0  0.88552825675E+00 -0.77139044832E+00  0.11862644161E+00  0.90007628978E+02  0.89999888880E+02 0.  0.
         12    1    1    2    0    0 -0.88552825675E+00  0.77139044832E+00 -0.11862644161E+00  0.11803710221E+01  0.00000000000E+00 0. -1.
         11    1    3    3    0    0  0.23522456159E+01 -0.66738618185E+01  0.63740485116E+01  0.95237590110E+01  0.51100000000E-03 0. -1.
        -11    1    3    3    0    0 -0.92847864093E+00 -0.13975966104E+02  0.33346967920E+02  0.36169185377E+02  0.51100000000E-03 0.  1.
         12    1    3    3    0    0 -0.53823871821E+00  0.19878437474E+02 -0.39602389990E+02  0.44314684590E+02  0.00000000000E+00 0. -1.
</event>
<event>
 7    1  0.2404951E-015  0.9000759E+02  0.7816164E-02  0.1186339E+00
        -11   -1    0    0    0    0  0.00000000000E+00  0.00000000000E+00  0.45593999997E+02  0.45594000000E+02  0.51100000000E-03 0.  1.
         11   -1    0    0    0    0 -0.00000000000E+00 -0.00000000000E+00 -0.45593999997E+02  0.45594000000E+02  0.51100000000E-03 0. -1.
    9900012    2    1    2    0    0  0.74140222287E-01  0.74739400013E+00  0.91064703777E+00  0.90007587957E+02  0.89999847318E+02 0.  0.
         12    1    1    2    0    0 -0.74140222287E-01 -0.74739400013E+00 -0.91064703777E+00  0.11804120431E+01  0.00000000000E+00 0. -1.
         11    1    3    3    0    0 -0.58428405696E-01 -0.21281141379E+01 -0.92985249410E+01  0.95391220771E+01  0.51100000000E-03 0. -1.
        -11    1    3    3    0    0 -0.36784441689E+02  0.16535273620E+02  0.74176911634E+01  0.41006494199E+02  0.51100000000E-03 0.  1.
         12    1    3    3    0    0  0.36917010317E+02 -0.13659765482E+02  0.27914808153E+01  0.39461971681E+02  0.00000000000E+00 0. -1.
</event>
<event>
 7    1  0.2404951E-015  0.9000774E+02  0.7816164E-02  0.1186339E+00
        -11   -1    0    0    0    0  0.00000000000E+00  0.00000000000E+00  0.45593999997E+02  0.45594000000E+02  0.51100000000E-03 0.  1.
         11   -1    0    0    0    0 -0.00000000000E+00 -0.00000000000E+00 -0.45593999997E+02  0.45594000000E+02  0.51100000000E-03 0. -1.
    9900012    2    1    2    0    0 -0.96375876052E+00 -0.67558604199E+00  0.88101548567E-01  0.90007741837E+02  0.90000003229E+02 0.  0.
         12    1    1    2    0    0  0.96375876052E+00  0.67558604199E+00 -0.88101548567E-01  0.11802581631E+01  0.00000000000E+00 0. -1.
         11    1    3    3    0    0 -0.27441557131E+02  0.18499875812E+02  0.17355522936E+02  0.37369755679E+02  0.51100000000E-03 0. -1.
        -11    1    3    3    0    0 -0.95632383537E+01 -0.29468735106E+01 -0.16688590451E+01  0.10145180238E+02  0.51100000000E-03 0.  1.
        -12    1    3    3    0    0  0.36041036724E+02 -0.16228588343E+02 -0.15598562342E+02  0.42492805920E+02  0.00000000000E+00 0.  1.
</event>
<event>
 7    1  0.2404951E-015  0.9000789E+02  0.7816164E-02  0.1186339E+00
        -11   -1    0    0    0    0  0.00000000000E+00  0.00000000000E+00  0.45593999997E+02  0.45594000000E+02  0.51100000000E-03 0. -1.
         11   -1    0    0    0    0 -0.00000000000E+00 -0.00000000000E+00 -0.45593999997E+02  0.45594000000E+02  0.51100000000E-03 0.  1.
    9900012    2    1    2    0    0 -0.84666881435E+00  0.71478311608E+00 -0.40608191719E+00  0.90007887502E+02  0.90000150817E+02 0.  0.
         12    1    1    2    0    0  0.84666881435E+00 -0.71478311608E+00  0.40608191719E+00  0.11801124979E+01  0.00000000000E+00 0. -1.
         11    1    3    3    0    0  0.50325385130E+01 -0.15109530245E+01  0.29929158267E+01  0.60470627857E+01  0.51100000000E-03 0. -1.
        -11    1    3    3    0    0  0.20794078880E+02 -0.32874548914E+02 -0.77434121715E+01  0.39662200079E+02  0.51100000000E-03 0.  1.
         12    1    3    3    0    0 -0.26673286207E+02  0.35100285055E+02  0.43444144276E+01  0.44298624637E+02  0.00000000000E+00 0. -1.
</event>
<event>
 7    1  0.2404951E-015  0.9000773E+02  0.7816164E-02  0.1186339E+00
        -11   -1    0    0    0    0  0.00000000000E+00  0.00000000000E+00  0.45593999997E+02  0.45594000000E+02  0.51100000000E-03 0.  1.
         11   -1    0    0    0    0 -0.00000000000E+00 -0.00000000000E+00 -0.45593999997E+02  0.45594000000E+02  0.51100000000E-03 0. -1.
    9900012    2    1    2    0    0 -0.62549459844E+00  0.55850398940E+00  0.83058162651E+00  0.90007730524E+02  0.89999991766E+02 0.  0.
         12    1    1    2    0    0  0.62549459844E+00 -0.55850398940E+00 -0.83058162651E+00  0.11802694765E+01  0.00000000000E+00 0. -1.
         11    1    3    3    0    0  0.27312049229E+02 -0.19973949310E+02 -0.16345853292E+02  0.37577833948E+02  0.51100000000E-03 0. -1.
        -11    1    3    3    0    0  0.33705662741E+01  0.43147126568E+00 -0.71920466358E+01  0.79543962395E+01  0.51100000000E-03 0.  1.
        -12    1    3    3    0    0 -0.31308110102E+02  0.20100982033E+02  0.24368481555E+02  0.44475500336E+02  0.00000000000E+00 0.  1.
</event>
<event>
 7    1  0.2404951E-015  0.9000774E+02  0.7816164E-02  0.1186339E+00
        -11   -1    0    0    0    0  0.00000000000E+00  0.00000000000E+00  0.45593999997E+02  0.45594000000E+02  0.51100000000E-03 0. -1.
         11   -1    0    0    0    0 -0.00000000000E+00 -0.00000000000E+00 -0.45593999997E+02  0.45594000000E+02  0.51100000000E-03 0.  1.
    9900012    2    1    2    0    0  0.39399946594E+00 -0.88030570911E+00 -0.68032757507E+00  0.90007737601E+02  0.89999998938E+02 0.  0.
         12    1    1    2    0    0 -0.39399946594E+00  0.88030570911E+00  0.68032757507E+00  0.11802623988E+01  0.00000000000E+00 0. -1.
         11    1    3    3    0    0 -0.31004668778E+02  0.10676984499E+02  0.17313490466E+02  0.37081591611E+02  0.51100000000E-03 0. -1.
        -11    1    3    3    0    0 -0.40229727169E+01  0.59466472389E+01  0.34566027687E+01  0.79683766117E+01  0.51100000000E-03 0.  1.
        -12    1    3    3    0    0  0.35421640961E+02 -0.17503937447E+02 -0.21450420810E+02  0.44957769378E+02  0.00000000000E+00 0.  1.
</event>
<event>
 7    1  0.2404951E-015  0.9000789E+02  0.7816164E-02  0.1186339E+00
        -11   -1    0    0    0    0  0.00000000000E+00  0.00000000000E+00  0.45593999997E+02  0.45594000000E+02  0.51100000000E-03 0. -1.
         11   -1    0    0    0    0 -0.00000000000E+00 -0.00000000000E+00 -0.45593999997E+02  0.45594000000E+02  0.51100000000E-03 0.  1.
    9900012    2    1    2    0    0 -0.99680179889E-02 -0.22040725441E+00  0.11593056593E+01  0.90007886306E+02  0.90000149605E+02 0.  0.
         12    1    1    2    0    0  0.99680179889E-02  0.22040725441E+00 -0.11593056593E+01  0.11801136941E+01  0.00000000000E+00 0. -1.
         11    1    3    3    0    0 -0.42632651284E+01  0.32696512147E+02  0.13742636059E+02  0.35722505263E+02  0.51100000000E-03 0. -1.
        -11    1    3    3    0    0 -0.21929871251E+01  0.55340234232E+01  0.81776058035E+01  0.10114734041E+02  0.51100000000E-03 0.  1.
        -12    1    3    3    0    0  0.64462842355E+01 -0.38450942825E+02 -0.20760936204E+02  0.44170647002E+02  0.00000000000E+00 0.  1.
</event>
<event>
 7    1  0.2404951E-015  0.9000800E+02  0.7816164E-02  0.1186339E+00
        -11   -1    0    0    0    0  0.00000000000E+00  0.00000000000E+00  0.45593999997E+02  0.45594000000E+02  0.51100000000E-03 0.  1.
         11   -1    0    0    0    0 -0.00000000000E+00 -0.00000000000E+00 -0.45593999997E+02  0.45594000000E+02  0.51100000000E-03 0. -1.
    9900012    2    1    2    0    0  0.17414863379E+00  0.71582346227E+00  0.92178007564E+00  0.90007995982E+02  0.90000260728E+02 0.  0.
         12    1    1    2    0    0 -0.17414863379E+00 -0.71582346227E+00 -0.92178007564E+00  0.11800040185E+01  0.00000000000E+00 0. -1.
         11    1    3    3    0    0 -0.72802268960E+01 -0.36058882145E+01 -0.48924451321E+01  0.94836782476E+01  0.51100000000E-03 0. -1.
        -11    1    3    3    0    0 -0.15530011908E+02  0.36377669140E+02  0.10168860619E+02  0.40840198438E+02  0.51100000000E-03 0.  1.
         12    1    3    3    0    0  0.22984387438E+02 -0.32055957463E+02 -0.43546354109E+01  0.39684119296E+02  0.00000000000E+00 0. -1.
</event>
<event>
 7    1  0.2404951E-015  0.9000773E+02  0.7816164E-02  0.1186339E+00
        -11   -1    0    0    0    0  0.00000000000E+00  0.00000000000E+00  0.45593999997E+02  0.45594000000E+02  0.51100000000E-03 0. -1.
         11   -1    0    0    0    0 -0.00000000000E+00 -0.00000000000E+00 -0.45593999997E+02  0.45594000000E+02  0.51100000000E-03 0.  1.
    9900012    2    1    2    0    0  0.51102335075E+00 -0.62395714784E-01 -0.10620706605E+01  0.90007732158E+02  0.89999993423E+02 0.  0.
         12    1    1    2    0    0 -0.51102335075E+00  0.62395714784E-01  0.10620706605E+01  0.11802678417E+01  0.00000000000E+00 0. -1.
         11    1    3    3    0    0 -0.11386202574E+02 -0.26341232602E+02  0.24054542372E+02  0.37444988357E+02  0.51100000000E-03 0. -1.
        -11    1    3    3    0    0 -0.60637135537E+01  0.22554619962E+01  0.63675017374E+01  0.90774891635E+01  0.51100000000E-03 0.  1.
        -12    1    3    3    0    0  0.17960939478E+02  0.24023374891E+02 -0.31484114770E+02  0.43485254638E+02  0.00000000000E+00 0.  1.
</event>
<event>
 7    1  0.2404951E-015  0.9000894E+02  0.7816164E-02  0.1186337E+00
        -11   -1    0    0    0    0  0.00000000000E+00  0.00000000000E+00  0.45593999997E+02  0.45594000000E+02  0.51100000000E-03 0. -1.
         11   -1    0    0    0    0 -0.00000000000E+00 -0.00000000000E+00 -0.45593999997E+02  0.45594000000E+02  0.51100000000E-03 0.  1.
    9900012    2    1    2    0    0  0.10610672735E+01 -0.36305231885E+00  0.36402886247E+00  0.90008937763E+02  0.90001214934E+02 0.  0.
         12    1    1    2    0    0 -0.10610672735E+01  0.36305231885E+00 -0.36402886247E+00  0.11790622366E+01  0.00000000000E+00 0. -1.
         11    1    3    3    0    0  0.27531149784E+01 -0.84250638658E+01  0.44635480510E+01  0.99239409859E+01  0.51100000000E-03 0. -1.
        -11    1    3    3    0    0  0.58887646636E+01  0.12831644790E+02 -0.40347788201E+02  0.42746610044E+02  0.51100000000E-03 0.  1.
         12    1    3    3    0    0 -0.75808123686E+01 -0.47696332426E+01  0.36248269013E+02  0.37338386733E+02  0.00000000000E+00 0. -1.
</event>
<event>
 7    1  0.2404951E-015  0.9000771E+02  0.7816164E-02  0.1186339E+00
        -11   -1    0    0    0    0  0.00000000000E+00  0.00000000000E+00  0.45593999997E+02  0.45594000000E+02  0.51100000000E-03 0.  1.
         11   -1    0    0    0    0 -0.00000000000E+00 -0.00000000000E+00 -0.45593999997E+02  0.45594000000E+02  0.51100000000E-03 0. -1.
    9900012    2    1    2    0    0  0.11277797154E+01 -0.91467408134E-01  0.33589359718E+00  0.90007712797E+02  0.89999973806E+02 0.  0.
         12    1    1    2    0    0 -0.11277797154E+01  0.91467408134E-01 -0.33589359718E+00  0.11802872031E+01  0.00000000000E+00 0. -1.
         11    1    3    3    0    0 -0.32415048093E+02 -0.23085047425E+02  0.16636288484E+02  0.43132596169E+02  0.51100000000E-03 0. -1.
        -11    1    3    3    0    0  0.73284966037E+01 -0.69983572561E+00 -0.73958825168E+01  0.10435310775E+02  0.51100000000E-03 0.  1.
        -12    1    3    3    0    0  0.26214331205E+02  0.23693415743E+02 -0.89045123695E+01  0.36439805853E+02  0.00000000000E+00 0.  1.
</event>
<event>
 7    1  0.2404951E-015  0.9000770E+02  0.7816164E-02  0.1186339E+00
        -11   -1    0    0    0    0  0.00000000000E+00  0.00000000000E+00  0.45593999997E+02  0.45594000000E+02  0.51100000000E-03 0. -1.
         11   -1    0    0    0    0 -0.00000000000E+00 -0.00000000000E+00 -0.45593999997E+02  0.45594000000E+02  0.51100000000E-03 0.  1.
    9900012    2    1    2    0    0 -0.95523934503E-01  0.38998972279E+00 -0.11099099869E+01  0.90007696232E+02  0.89999957022E+02 0.  0.
         12    1    1    2    0    0  0.95523934503E-01 -0.38998972279E+00  0.11099099869E+01  0.11803037681E+01  0.00000000000E+00 0. -1.
         11    1    3    3    0    0 -0.62933131347E+01  0.20991766320E+00 -0.53169383995E+01  0.82413402940E+01  0.51100000000E-03 0. -1.
        -11    1    3    3    0    0  0.14544984229E+01 -0.24982237474E+02 -0.29981165107E+02  0.39052503330E+02  0.51100000000E-03 0.  1.
         12    1    3    3    0    0  0.47432907773E+01  0.25162309534E+02  0.34188193520E+02  0.42713852608E+02  0.00000000000E+00 0. -1.
</event>
<event>
 7    1  0.2404951E-015  0.9000770E+02  0.7816164E-02  0.1186339E+00
        -11   -1    0    0    0    0  0.00000000000E+00  0.00000000000E+00  0.45593999997E+02  0.45594000000E+02  0.51100000000E-03 0.  1.
         11   -1    0    0    0    0 -0.00000000000E+00 -0.00000000000E+00 -0.45593999997E+02  0.45594000000E+02  0.51100000000E-03 0. -1.
    9900012    2    1    2    0    0 -0.87893219273E-01  0.81067608719E+00  0.85334019181E+00  0.90007699013E+02  0.89999959840E+02 0.  0.
         12    1    1    2    0    0  0.87893219273E-01 -0.81067608719E+00 -0.85334019181E+00  0.11803009867E+01  0.00000000000E+00 0. -1.
         11    1    3    3    0    0 -0.10476934111E+02  0.25632117254E+01 -0.58230617183E+00  0.10801633370E+02  0.51100000000E-03 0. -1.
        -11    1    3    3    0    0  0.14892754882E+02 -0.20116829234E+02  0.33598523574E+02  0.41896798840E+02  0.51100000000E-03 0.  1.
         12    1    3    3    0    0 -0.45037139897E+01  0.18364293596E+02 -0.32162877211E+02  0.37309266804E+02  0.00000000000E+00 0. -1.
</event>
<event>
 7    1  0.2404951E-015  0.9000792E+02  0.7816164E-02  0.1186339E+00
        -11   -1    0    0    0    0  0.00000000000E+00  0.00000000000E+00  0.45593999997E+02  0.45594000000E+02  0.51100000000E-03 0.  1.
         11   -1    0    0    0    0 -0.00000000000E+00 -0.00000000000E+00 -0.45593999997E+02  0.45594000000E+02  0.51100000000E-03 0. -1.
    9900012    2    1    2    0    0 -0.10616695835E+01  0.49868014963E+00  0.12950073673E+00  0.90007917530E+02  0.90000181241E+02 0.  0.
         12    1    1    2    0    0  0.10616695835E+01 -0.49868014963E+00 -0.12950073673E+00  0.11800824704E+01  0.00000000000E+00 0. -1.
         11    1    3    3    0    0  0.30099955507E+02 -0.20530438259E+02 -0.17508959899E+02  0.40423630387E+02  0.51100000000E-03 0. -1.
        -11    1    3    3    0    0 -0.80772476142E+01 -0.10907020174E+01 -0.57470429273E+01  0.99729665888E+01  0.51100000000E-03 0.  1.
        -12    1    3    3    0    0 -0.23084377476E+02  0.22119820426E+02  0.23385503563E+02  0.39611320554E+02  0.00000000000E+00 0.  1.
</event>
<event>
 7    1  0.2404951E-015  0.9000793E+02  0.7816164E-02  0.1186339E+00
        -11   -1    0    0    0    0  0.00000000000E+00  0.00000000000E+00  0.45593999997E+02  0.45594000000E+02  0.51100000000E-03 0. -1.
         11   -1    0    0    0    0 -0.00000000000E+00 -0.00000000000E+00 -0.45593999997E+02  0.45594000000E+02  0.51100000000E-03 0.  1.
    9900012    2    1    2    0    0  0.14984121778E+00  0.67341835058E+00 -0.95740627451E+00  0.90007927358E+02  0.90000191199E+02 0.  0.
         12    1    1    2    0    0 -0.14984121778E+00 -0.67341835058E+00  0.95740627451E+00  0.11800726418E+01  0.00000000000E+00 0. -1.
         11    1    3    3    0    0  0.55574705380E+00  0.71378459645E+01  0.79745704132E+01  0.10716877966E+02  0.51100000000E-03 0. -1.
        -11    1    3    3    0    0  0.28680504990E+02 -0.44582763941E+01  0.22272372588E+02  0.36585600663E+02  0.51100000000E-03 0.  1.
         12    1    3    3    0    0 -0.29086410826E+02 -0.20061512198E+01 -0.31204349276E+02  0.42705448729E+02  0.00000000000E+00 0. -1.
</event>
<event>
 7    1  0.2404951E-015  0.9000776E+02  0.7816164E-02  0.1186339E+00
        -11   -1    0    0    0    0  0.00000000000E+00  0.00000000000E+00  0.45593999997E+02  0.45594000000E+02  0.51100000000E-03 0. -1.
         11   -1    0    0    0    0 -0.00000000000E+00 -0.00000000000E+00 -0.45593999997E+02  0.45594000000E+02  0.51100000000E-03 0.  1.
    9900012    2    1    2    0    0 -0.42922975687E+00 -0.22045123770E+00 -0.10770975238E+01  0.90007755954E+02  0.90000017533E+02 0.  0.
         12    1    1    2    0    0  0.42922975687E+00  0.22045123770E+00  0.10770975238E+01  0.11802440460E+01  0.00000000000E+00 0. -1.
         11    1    3    3    0    0 -0.14125146225E+01 -0.20707393439E+02  0.25641981675E+02  0.32989431112E+02  0.51100000000E-03 0. -1.
        -11    1    3    3    0    0 -0.73719449671E+01 -0.20646743244E+01  0.10324152818E+02  0.12852882336E+02  0.51100000000E-03 0.  1.
        -12    1    3    3    0    0  0.83552298327E+01  0.22551616526E+02 -0.37043232017E+02  0.44165442506E+02  0.00000000000E+00 0.  1.
</event>
<event>
 7    1  0.2404951E-015  0.9000773E+02  0.7816164E-02  0.1186339E+00
        -11   -1    0    0    0    0  0.00000000000E+00  0.00000000000E+00  0.45593999997E+02  0.45594000000E+02  0.51100000000E-03 0. -1.
         11   -1    0    0    0    0 -0.00000000000E+00 -0.00000000000E+00 -0.45593999997E+02  0.45594000000E+02  0.51100000000E-03 0.  1.
    9900012    2    1    2    0    0  0.96255691722E+00  0.43170081731E+00 -0.52928824775E+00  0.90007734155E+02  0.89999995446E+02 0.  0.
         12    1    1    2    0    0 -0.96255691722E+00 -0.43170081731E+00  0.52928824775E+00  0.11802658445E+01  0.00000000000E+00 0. -1.
         11    1    3    3    0    0  0.43369479814E+01  0.47960784000E+01  0.85495748750E+01  0.10719455052E+02  0.51100000000E-03 0. -1.
        -11    1    3    3    0    0 -0.93490897898E+01  0.32031799837E+02 -0.22269768998E+02  0.40117132153E+02  0.51100000000E-03 0.  1.
         12    1    3    3    0    0  0.59746987257E+01 -0.36396177419E+02  0.13190905875E+02  0.39171146950E+02  0.00000000000E+00 0. -1.
</event>
<event>
 7    1  0.2404951E-015  0.9000777E+02  0.7816164E-02  0.1186339E+00
        -11   -1    0    0    0    0  0.00000000000E+00  0.00000000000E+00  0.45593999997E+02  0.45594000000E+02  0.51100000000E-03 0.  1.
         11   -1    0    0    0    0 -0.00000000000E+00 -0.00000000000E+00 -0.45593999997E+02  0.45594000000E+02  0.51100000000E-03 0. -1.
    9900012    2    1    2    0    0  0.91845670924E+00 -0.50600949020E-01 -0.73947406675E+00  0.90007769057E+02  0.90000030809E+02 0.  0.
         12    1    1    2    0    0 -0.91845670924E+00  0.50600949020E-01  0.73947406675E+00  0.11802309427E+01  0.00000000000E+00 0. -1.
         11    1    3    3    0    0 -0.24397779724E+02 -0.14467698542E+02 -0.24562125266E+02  0.37521513221E+02  0.51100000000E-03 0. -1.
        -11    1    3    3    0    0  0.40240603541E+01 -0.67401593214E+01 -0.62218948195E+01  0.10016725254E+02  0.51100000000E-03 0.  1.
        -12    1    3    3    0    0  0.21292176079E+02  0.21157256915E+02  0.30044546019E+02  0.42469530582E+02  0.00000000000E+00 0.  1.
</event>
<event>
 7    1  0.2404951E-015  0.9000773E+02  0.7816164E-02  0.1186339E+00
        -11   -1    0    0    0    0  0.00000000000E+00  0.00000000000E+00  0.45593999997E+02  0.45594000000E+02  0.51100000000E-03 0. -1.
         11   -1    0    0    0    0 -0.00000000000E+00 -0.00000000000E+00 -0.45593999997E+02  0.45594000000E+02  0.51100000000E-03 0.  1.
    9900012    2    1    2    0    0  0.12349629438E+00 -0.11286848379E+01 -0.32225059502E+00  0.90007734672E+02  0.89999995970E+02 0.  0.
         12    1    1    2    0    0 -0.12349629438E+00  0.11286848379E+01  0.32225059502E+00  0.11802653278E+01  0.00000000000E+00 0. -1.
         11    1    3    3    0    0  0.90666626200E+01  0.13472037843E+01  0.27373690211E+01  0.95662175660E+01  0.51100000000E-03 0. -1.
        -11    1    3    3    0    0  0.29752871491E+02  0.17401777213E+02 -0.11080326323E+02  0.36205370373E+02  0.51100000000E-03 0.  1.
         12    1    3    3    0    0 -0.38696037816E+02 -0.19877665836E+02  0.80207067064E+01  0.44236146734E+02  0.00000000000E+00 0. -1.
</event>
<event>
 7    1  0.2404951E-015  0.9000780E+02  0.7816164E-02  0.1186339E+00
        -11   -1    0    0    0    0  0.00000000000E+00  0.00000000000E+00  0.45593999997E+02  0.45594000000E+02  0.51100000000E-03 0. -1.
         11   -1    0    0    0    0 -0.00000000000E+00 -0.00000000000E+00 -0.45593999997E+02  0.45594000000E+02  0.51100000000E-03 0.  1.
    9900012    2    1    2    0    0 -0.10044614404E+01  0.42140643662E+00 -0.45425106381E+00  0.90007800780E+02  0.90000062950E+02 0.  0.
         12    1    1    2    0    0  0.10044614404E+01 -0.42140643662E+00  0.45425106381E+00  0.11801992201E+01  0.00000000000E+00 0. -1.
         11    1    3    3    0    0 -0.29685722140E+02  0.55144236087E+01  0.17787366012E+02  0.35043421017E+02  0.51100000000E-03 0. -1.
        -11    1    3    3    0    0 -0.40737592987E+01 -0.47815572543E+01  0.99365678615E+01  0.11755602312E+02  0.51100000000E-03 0.  1.
        -12    1    3    3    0    0  0.32755019998E+02 -0.31145991774E+00 -0.28178184938E+02  0.43208777450E+02  0.00000000000E+00 0.  1.
</event>
<event>
 7    1  0.2404951E-015  0.9000768E+02  0.7816164E-02  0.1186339E+00
        -11   -1    0    0    0    0  0.00000000000E+00  0.00000000000E+00  0.45593999997E+02  0.45594000000E+02  0.51100000000E-03 0. -1.
         11   -1    0    0    0    0 -0.00000000000E+00 -0.00000000000E+00 -0.45593999997E+02  0.45594000000E+02  0.51100000000E-03 0.  1.
    9900012    2    1    2    0    0 -0.94499752464E+00 -0.16631509360E+00  0.68737280409E+00  0.90007676992E+02  0.89999937528E+02 0.  0.
         12    1    1    2    0    0  0.94499752464E+00  0.16631509360E+00 -0.68737280409E+00  0.11803230082E+01  0.00000000000E+00 0. -1.
         11    1    3    3    0    0 -0.24337279553E+02 -0.32140886549E+02  0.12659645608E+02  0.42256436095E+02  0.51100000000E-03 0. -1.
        -11    1    3    3    0    0 -0.34049913838E+01  0.12839393129E+02 -0.28948530343E+01  0.13595004840E+02  0.51100000000E-03 0.  1.
        -12    1    3    3    0    0  0.26797273413E+02  0.19135178327E+02 -0.90774197697E+01  0.34156236058E+02  0.00000000000E+00 0.  1.
</event>
<event>
 7    1  0.2404951E-015  0.9000769E+02  0.7816164E-02  0.1186339E+00
        -11   -1    0    0    0    0  0.00000000000E+00  0.00000000000E+00  0.45593999997E+02  0.45594000000E+02  0.51100000000E-03 0.  1.
         11   -1    0    0    0    0 -0.00000000000E+00 -0.00000000000E+00 -0.45593999997E+02  0.45594000000E+02  0.51100000000E-03 0. -1.
    9900012    2    1    2    0    0  0.10511201791E+01 -0.40690713489E+00  0.35029931233E+00  0.90007687899E+02  0.89999948579E+02 0.  0.
         12    1    1    2    0    0 -0.10511201791E+01  0.40690713489E+00 -0.35029931233E+00  0.11803121009E+01  0.00000000000E+00 0. -1.
         11    1    3    3    0    0  0.17371649617E+02  0.37757104147E+02 -0.31317807681E+01  0.41679505455E+02  0.51100000000E-03 0. -1.
        -11    1    3    3    0    0 -0.72669155291E+01 -0.83551150093E+00 -0.51670527294E+01  0.89557006954E+01  0.51100000000E-03 0.  1.
        -12    1    3    3    0    0 -0.90536139085E+01 -0.37328499781E+02  0.86491328098E+01  0.39372481749E+02  0.00000000000E+00 0.  1.
</event>
<event>
 7    1  0.2404951E-015  0.9000774E+02  0.7816164E-02  0.1186339E+00
        -11   -1    0    0    0    0  0.00000000000E+00  0.00000000000E+00  0.45593999997E+02  0.45594000000E+02  0.51100000000E-03 0.  1.
         11   -1    0    0    0    0 -0.00000000000E+00 -0.00000000000E+00 -0.45593999997E+02  0.45594000000E+02  0.51100000000E-03 0. -1.
    9900012    2    1    2    0    0  0.49920059821E+00  0.31036001428E+00  0.10234692666E+01  0.90007739895E+02  0.90000001262E+02 0.  0.
         12    1    1    2    0    0 -0.49920059821E+00 -0.31036001428E+00 -0.10234692666E+01  0.11802601050E+01  0.00000000000E+00 0. -1.
         11    1    3    3    0    0 -0.63874792674E+01  0.36892522175E+01 -0.56412113064E+01  0.92862122839E+01  0.51100000000E-03 0. -1.
        -11    1    3    3    0    0 -0.30291711430E+02 -0.13803575704E+02  0.21197749747E+02  0.39464808097E+02  0.51100000000E-03 0.  1.
         12    1    3    3    0    0  0.37178391295E+02  0.10424683501E+02 -0.14533069174E+02  0.41256719514E+02  0.00000000000E+00 0. -1.
</event>
<event>
 7    1  0.2404951E-015  0.9000759E+02  0.7816164E-02  0.1186339E+00
        -11   -1    0    0    0    0  0.00000000000E+00  0.00000000000E+00  0.45593999997E+02  0.45594000000E+02  0.51100000000E-03 0. -1.
         11   -1    0    0    0    0 -0.00000000000E+00 -0.00000000000E+00 -0.45593999997E+02  0.45594000000E+02  0.51100000000E-03 0.  1.
    9900012    2    1    2    0    0  0.10473172405E+01  0.70672199043E-01 -0.53990351409E+00  0.90007591695E+02  0.89999851105E+02 0.  0.
         12    1    1    2    0    0 -0.10473172405E+01 -0.70672199043E-01  0.53990351409E+00  0.11804083050E+01  0.00000000000E+00 0. -1.
         11    1    3    3    0    0 -0.17628685164E+01  0.13772835534E+02  0.10159036241E+02  0.17204787753E+02  0.51100000000E-03 0. -1.
        -11    1    3    3    0    0 -0.15189784804E+02 -0.16173996096E+02 -0.35617696607E+02  0.41963651222E+02  0.51100000000E-03 0.  1.
         12    1    3    3    0    0  0.17999970561E+02  0.24718327614E+01  0.24918756852E+02  0.30839152719E+02  0.00000000000E+00 0. -1.
</event>
<event>
 7    1  0.2404951E-015  0.9000773E+02  0.7816164E-02  0.1186339E+00
        -11   -1    0    0    0    0  0.00000000000E+00  0.00000000000E+00  0.45593999997E+02  0.45594000000E+02  0.51100000000E-03 0. -1.
         11   -1    0    0    0    0 -0.00000000000E+00 -0.00000000000E+00 -0.45593999997E+02  0.45594000000E+02  0.51100000000E-03 0.  1.
    9900012    2    1    2    0    0  0.11277556649E+01  0.27172108445E+00 -0.21766119226E+00  0.90007728175E+02  0.89999989386E+02 0.  0.
         12    1    1    2    0    0 -0.11277556649E+01 -0.27172108445E+00  0.21766119226E+00  0.11802718255E+01  0.00000000000E+00 0. -1.
         11    1    3    3    0    0 -0.79757335374E+01  0.43595767818E+01  0.32575296589E+00  0.90952927623E+01  0.51100000000E-03 0. -1.
        -11    1    3    3    0    0 -0.30527598166E+02 -0.13134859883E+02  0.16171981536E+02  0.36959326035E+02  0.51100000000E-03 0.  1.
         12    1    3    3    0    0  0.39631087368E+02  0.90470041860E+01 -0.16715395694E+02  0.43953109377E+02  0.00000000000E+00 0. -1.
</event>
<event>
 7    1  0.2404951E-015  0.9000775E+02  0.7816164E-02  0.1186339E+00
        -11   -1    0    0    0    0  0.00000000000E+00  0.00000000000E+00  0.45593999997E+02  0.45594000000E+02  0.51100000000E-03 0.  1.
         11   -1    0    0    0    0 -0.00000000000E+00 -0.00000000000E+00 -0.45593999997E+02  0.45594000000E+02  0.51100000000E-03 0. -1.
    9900012    2    1    2    0    0  0.11699527306E+01  0.15296469653E+00  0.28232297479E-01  0.90007752292E+02  0.90000013822E+02 0.  0.
         12    1    1    2    0    0 -0.11699527306E+01 -0.15296469653E+00 -0.28232297479E-01  0.11802477082E+01  0.00000000000E+00 0. -1.
         11    1    3    3    0    0 -0.50374128634E+01  0.15329126769E+02 -0.28384748291E+01  0.16383363375E+02  0.51100000000E-03 0. -1.
        -11    1    3    3    0    0 -0.26360330813E+02 -0.25749175777E+02  0.10950424112E+02  0.38442149813E+02  0.51100000000E-03 0.  1.
         12    1    3    3    0    0  0.32567696407E+02  0.10573013704E+02 -0.80837169852E+01  0.35182239104E+02  0.00000000000E+00 0. -1.
</event>
<event>
 7    1  0.2404951E-015  0.9000780E+02  0.7816164E-02  0.1186339E+00
        -11   -1    0    0    0    0  0.00000000000E+00  0.00000000000E+00  0.45593999997E+02  0.45594000000E+02  0.51100000000E-03 0.  1.
         11   -1    0    0    0    0 -0.00000000000E+00 -0.00000000000E+00 -0.45593999997E+02  0.45594000000E+02  0.51100000000E-03 0. -1.
    9900012    2    1    2    0    0  0.69457859597E+00 -0.91444149474E+00  0.27243704042E+00  0.90007803146E+02  0.90000065347E+02 0.  0.
         12    1    1    2    0    0 -0.69457859597E+00  0.91444149474E+00 -0.27243704042E+00  0.11801968540E+01  0.00000000000E+00 0. -1.
         11    1    3    3    0    0 -0.68629026353E-01  0.44919438844E+01  0.84637100481E+01  0.95821009097E+01  0.51100000000E-03 0. -1.
        -11    1    3    3    0    0  0.22952092789E+02  0.81159840058E+01  0.27210376930E+02  0.36511263642E+02  0.51100000000E-03 0.  1.
         12    1    3    3    0    0 -0.22188885167E+02 -0.13522369385E+02 -0.35401649938E+02  0.43914438594E+02  0.00000000000E+00 0. -1.
</event>
<event>
 7    1  0.2404951E-015  0.9000771E+02  0.7816164E-02  0.1186339E+00
        -11   -1    0    0    0    0  0.00000000000E+00  0.00000000000E+00  0.45593999997E+02  0.45594000000E+02  0.51100000000E-03 0. -1.
         11   -1    0    0    0    0 -0.00000000000E+00 -0.00000000000E+00 -0.45593999997E+02  0.45594000000E+02  0.51100000000E-03 0.  1.
    9900012    2    1    2    0    0  0.10736303681E+00  0.11675413462E+01  0.13565084866E+00  0.90007711574E+02  0.89999972566E+02 0.  0.
         12    1    1    2    0    0 -0.10736303681E+00 -0.11675413462E+01 -0.13565084866E+00  0.11802884264E+01  0.00000000000E+00 0. -1.
         11    1    3    3    0    0 -0.32255537800E+01  0.20285979798E+01 -0.85822245575E+01  0.93901004025E+01  0.51100000000E-03 0. -1.
        -11    1    3    3    0    0  0.33404016603E+02  0.46387531817E+01 -0.19549827939E+02  0.38981304865E+02  0.51100000000E-03 0.  1.
         12    1    3    3    0    0 -0.30071099786E+02 -0.54998098153E+01  0.28267703345E+02  0.41636306306E+02  0.00000000000E+00 0. -1.
</event>
<event>
 7    1  0.2404951E-015  0.9000756E+02  0.7816164E-02  0.1186339E+00
        -11   -1    0    0    0    0  0.00000000000E+00  0.00000000000E+00  0.45593999997E+02  0.45594000000E+02  0.51100000000E-03 0.  1.
         11   -1    0    0    0    0 -0.00000000000E+00 -0.00000000000E+00 -0.45593999997E+02  0.45594000000E+02  0.51100000000E-03 0. -1.
    9900012    2    1    2    0    0 -0.20662780175E+00 -0.10894228921E+01  0.40485465454E+00  0.90007557465E+02  0.89999816424E+02 0.  0.
         12    1    1    2    0    0  0.20662780175E+00  0.10894228921E+01 -0.40485465454E+00  0.11804425347E+01  0.00000000000E+00 0. -1.
         11    1    3    3    0    0  0.31129748222E+02  0.19055336200E+02 -0.61153262631E+01  0.37007624588E+02  0.51100000000E-03 0. -1.
        -11    1    3    3    0    0  0.77039934266E+01 -0.38486555531E+01  0.63411130220E+01  0.10694549028E+02  0.51100000000E-03 0.  1.
        -12    1    3    3    0    0 -0.39040369450E+02 -0.16296103539E+02  0.17906789566E+00  0.42305383850E+02  0.00000000000E+00 0.  1.
</event>
<event>
 7    1  0.2404951E-015  0.9000774E+02  0.7816164E-02  0.1186339E+00
        -11   -1    0    0    0    0  0.00000000000E+00  0.00000000000E+00  0.45593999997E+02  0.45594000000E+02  0.51100000000E-03 0.  1.
         11   -1    0    0    0    0 -0.00000000000E+00 -0.00000000000E+00 -0.45593999997E+02  0.45594000000E+02  0.51100000000E-03 0. -1.
    9900012    2    1    2    0    0 -0.25593294382E-01 -0.50805020206E+00  0.10650115792E+01  0.90007737449E+02  0.89999998784E+02 0.  0.
         12    1    1    2    0    0  0.25593294382E-01  0.50805020206E+00 -0.10650115792E+01  0.11802625506E+01  0.00000000000E+00 0. -1.
         11    1    3    3    0    0 -0.15396383437E+01  0.67722496308E+01 -0.54733865921E+01  0.88426134337E+01  0.51100000000E-03 0. -1.
        -11    1    3    3    0    0  0.40736358529E+02  0.11550631298E+01  0.43900546287E+01  0.40988506401E+02  0.51100000000E-03 0.  1.
         12    1    3    3    0    0 -0.39222313480E+02 -0.84353629626E+01  0.21483435425E+01  0.40176617615E+02  0.00000000000E+00 0. -1.
</event>
<event>
 7    1  0.2404951E-015  0.9000779E+02  0.7816164E-02  0.1186339E+00
        -11   -1    0    0    0    0  0.00000000000E+00  0.00000000000E+00  0.45593999997E+02  0.45594000000E+02  0.51100000000E-03 0.  1.
         11   -1    0    0    0    0 -0.00000000000E+00 -0.00000000000E+00 -0.45593999997E+02  0.45594000000E+02  0.51100000000E-03 0. -1.
    9900012    2    1    2    0    0 -0.11355682747E+01  0.24859885013E+00 -0.20393040753E+00  0.90007786330E+02  0.90000048310E+02 0.  0.
         12    1    1    2    0    0  0.11355682747E+01 -0.24859885013E+00  0.20393040753E+00  0.11802136696E+01  0.00000000000E+00 0. -1.
         11    1    3    3    0    0 -0.18804044891E+02  0.16152097598E+02 -0.26218866017E+02  0.36082007934E+02  0.51100000000E-03 0. -1.
        -11    1    3    3    0    0 -0.58232932203E+01  0.19501171722E+01 -0.72228624309E+01  0.94806878903E+01  0.51100000000E-03 0.  1.
        -12    1    3    3    0    0  0.23491769837E+02 -0.17853615920E+02  0.33237798040E+02  0.44445090506E+02  0.00000000000E+00 0.  1.
</event>
<event>
 7    1  0.2404951E-015  0.9000772E+02  0.7816164E-02  0.1186339E+00
        -11   -1    0    0    0    0  0.00000000000E+00  0.00000000000E+00  0.45593999997E+02  0.45594000000E+02  0.51100000000E-03 0. -1.
         11   -1    0    0    0    0 -0.00000000000E+00 -0.00000000000E+00 -0.45593999997E+02  0.45594000000E+02  0.51100000000E-03 0.  1.
    9900012    2    1    2    0    0 -0.41153842047E+00  0.71408727611E+00 -0.84484678919E+00  0.90007724351E+02  0.89999985513E+02 0.  0.
         12    1    1    2    0    0  0.41153842047E+00 -0.71408727611E+00  0.84484678919E+00  0.11802756486E+01  0.00000000000E+00 0. -1.
         11    1    3    3    0    0 -0.63033711864E+01  0.49880894044E+00 -0.44133830902E+01  0.77109823781E+01  0.51100000000E-03 0. -1.
        -11    1    3    3    0    0 -0.30553675635E+02 -0.16887298827E+02 -0.14958050608E+02  0.37979616043E+02  0.51100000000E-03 0.  1.
         12    1    3    3    0    0  0.36445508401E+02  0.17102577163E+02  0.18526586909E+02  0.44317125930E+02  0.00000000000E+00 0. -1.
</event>
<event>
 7    1  0.2404951E-015  0.9000746E+02  0.7816164E-02  0.1186340E+00
        -11   -1    0    0    0    0  0.00000000000E+00  0.00000000000E+00  0.45593999997E+02  0.45594000000E+02  0.51100000000E-03 0. -1.
         11   -1    0    0    0    0 -0.00000000000E+00 -0.00000000000E+00 -0.45593999997E+02  0.45594000000E+02  0.51100000000E-03 0.  1.
    9900012    2    1    2    0    0  0.20841602687E+00 -0.11467024285E+01 -0.18790080868E+00  0.90007461812E+02  0.89999719507E+02 0.  0.
         12    1    1    2    0    0 -0.20841602687E+00  0.11467024285E+01  0.18790080868E+00  0.11805381882E+01  0.00000000000E+00 0. -1.
         11    1    3    3    0    0  0.50314514002E+01  0.36339301002E+01  0.63513595116E+01  0.88803557965E+01  0.51100000000E-03 0. -1.
        -11    1    3    3    0    0  0.30707704300E+02  0.74765468649E+01  0.17873845049E+02  0.36308899646E+02  0.51100000000E-03 0.  1.
         12    1    3    3    0    0 -0.35530739673E+02 -0.12257179394E+02 -0.24413105370E+02  0.44818206370E+02  0.00000000000E+00 0. -1.
</event>
<event>
 7    1  0.2404951E-015  0.9000771E+02  0.7816164E-02  0.1186339E+00
        -11   -1    0    0    0    0  0.00000000000E+00  0.00000000000E+00  0.45593999997E+02  0.45594000000E+02  0.51100000000E-03 0. -1.
         11   -1    0    0    0    0 -0.00000000000E+00 -0.00000000000E+00 -0.45593999997E+02  0.45594000000E+02  0.51100000000E-03 0.  1.
    9900012    2    1    2    0    0 -0.77125201102E+00 -0.31973838713E+00 -0.83428100862E+00  0.90007708891E+02  0.89999969848E+02 0.  0.
         12    1    1    2    0    0  0.77125201102E+00  0.31973838713E+00  0.83428100862E+00  0.11802911090E+01  0.00000000000E+00 0. -1.
         11    1    3    3    0    0 -0.15299238274E+01 -0.99960568843E+01  0.15896853262E+01  0.10236645928E+02  0.51100000000E-03 0. -1.
        -11    1    3    3    0    0 -0.25880806770E+02 -0.22400220887E+02 -0.13231861050E+02  0.36696978104E+02  0.51100000000E-03 0.  1.
         12    1    3    3    0    0  0.26639478587E+02  0.32076539384E+02  0.10807894715E+02  0.43074084859E+02  0.00000000000E+00 0. -1.
</event>
<event>
 7    1  0.2408388E-015  0.9000769E+02  0.7816164E-02  0.1186339E+00
        -11   -1    0    0    0    0  0.00000000000E+00  0.00000000000E+00  0.45593999997E+02  0.45594000000E+02  0.51100000000E-03 0. -1.
         11   -1    0    0    0    0 -0.00000000000E+00 -0.00000000000E+00 -0.45593999997E+02  0.45594000000E+02  0.51100000000E-03 0.  1.
    9900012    2    1    2    0    0 -0.90134175758E+00 -0.63154625518E+00 -0.42644644277E+00  0.90007693173E+02  0.89999953923E+02 0.  0.
         12    1    1    2    0    0  0.90134175758E+00  0.63154625518E+00  0.42644644277E+00  0.11803068266E+01  0.00000000000E+00 0. -1.
         11    1    3    3    0    0 -0.14893910165E+02  0.39496644104E+01  0.37153291071E+02  0.40221827987E+02  0.51100000000E-03 0. -1.
        -11    1    3    3    0    0 -0.36361355945E+01  0.82102570193E+01 -0.41626687691E+01  0.98973538850E+01  0.51100000000E-03 0.  1.
        -12    1    3    3    0    0  0.17628704001E+02 -0.12791467685E+02 -0.33417068745E+02  0.39888511301E+02  0.00000000000E+00 0.  1.
</event>
<event>
 7    1  0.2404951E-015  0.9000772E+02  0.7816164E-02  0.1186339E+00
        -11   -1    0    0    0    0  0.00000000000E+00  0.00000000000E+00  0.45593999997E+02  0.45594000000E+02  0.51100000000E-03 0.  1.
         11   -1    0    0    0    0 -0.00000000000E+00 -0.00000000000E+00 -0.45593999997E+02  0.45594000000E+02  0.51100000000E-03 0. -1.
    9900012    2    1    2    0    0 -0.56196527561E+00 -0.79417861038E+00  0.66823732914E+00  0.90007717930E+02  0.89999979007E+02 0.  0.
         12    1    1    2    0    0  0.56196527561E+00  0.79417861038E+00 -0.66823732914E+00  0.11802820698E+01  0.00000000000E+00 0. -1.
         11    1    3    3    0    0 -0.10767565009E+02 -0.36521919172E+01 -0.74429130822E+01  0.13589551775E+02  0.51100000000E-03 0. -1.
        -11    1    3    3    0    0 -0.28458872520E+02  0.28930431099E+01 -0.14032098463E+02  0.31861840987E+02  0.51100000000E-03 0.  1.
         12    1    3    3    0    0  0.38664472254E+02 -0.35029803054E-01  0.22143248875E+02  0.44556325168E+02  0.00000000000E+00 0. -1.
</event>
<event>
 7    1  0.2404951E-015  0.9000775E+02  0.7816164E-02  0.1186339E+00
        -11   -1    0    0    0    0  0.00000000000E+00  0.00000000000E+00  0.45593999997E+02  0.45594000000E+02  0.51100000000E-03 0. -1.
         11   -1    0    0    0    0 -0.00000000000E+00 -0.00000000000E+00 -0.45593999997E+02  0.45594000000E+02  0.51100000000E-03 0.  1.
    9900012    2    1    2    0    0  0.10838499379E+00  0.22377785889E+00 -0.11537595475E+01  0.90007752174E+02  0.90000013703E+02 0.  0.
         12    1    1    2    0    0 -0.10838499379E+00 -0.22377785889E+00  0.11537595475E+01  0.11802478258E+01  0.00000000000E+00 0. -1.
         11    1    3    3    0    0  0.44771411042E+01 -0.35487307567E+02  0.11159842941E+02  0.37469132437E+02  0.51100000000E-03 0. -1.
        -11    1    3    3    0    0  0.10343048701E+00 -0.23484791219E+01 -0.13984589791E+02  0.14180789961E+02  0.51100000000E-03 0.  1.
        -12    1    3    3    0    0 -0.44721865975E+01  0.38059564548E+02  0.16709873024E+01  0.38357829776E+02  0.00000000000E+00 0.  1.
</event>
<event>
 7    1  0.2404951E-015  0.9000775E+02  0.7816164E-02  0.1186339E+00
        -11   -1    0    0    0    0  0.00000000000E+00  0.00000000000E+00  0.45593999997E+02  0.45594000000E+02  0.51100000000E-03 0. -1.
         11   -1    0    0    0    0 -0.00000000000E+00 -0.00000000000E+00 -0.45593999997E+02  0.45594000000E+02  0.51100000000E-03 0.  1.
    9900012    2    1    2    0    0  0.11441905481E+01  0.24552356247E+00 -0.15342345343E+00  0.90007748931E+02  0.90000010417E+02 0.  0.
         12    1    1    2    0    0 -0.11441905481E+01 -0.24552356247E+00  0.15342345343E+00  0.11802510691E+01  0.00000000000E+00 0. -1.
         11    1    3    3    0    0  0.83046611444E+00 -0.21753511270E+01  0.11397914148E+02  0.11633325994E+02  0.51100000000E-03 0. -1.
        -11    1    3    3    0    0  0.36493886056E+02 -0.12222393498E+02 -0.55244258261E+01  0.38880713770E+02  0.51100000000E-03 0.  1.
         12    1    3    3    0    0 -0.36180161622E+02  0.14643268188E+02 -0.60269117756E+01  0.39493709167E+02  0.00000000000E+00 0. -1.
</event>
<event>
 7    1  0.2404951E-015  0.9000770E+02  0.7816164E-02  0.1186339E+00
        -11   -1    0    0    0    0  0.00000000000E+00  0.00000000000E+00  0.45593999997E+02  0.45594000000E+02  0.51100000000E-03 0.  1.
         11   -1    0    0    0    0 -0.00000000000E+00 -0.00000000000E+00 -0.45593999997E+02  0.45594000000E+02  0.51100000000E-03 0. -1.
    9900012    2    1    2    0    0 -0.84066035997E+00  0.81470509091E+00 -0.15051533390E+00  0.90007699576E+02  0.89999960410E+02 0.  0.
         12    1    1    2    0    0  0.84066035997E+00 -0.81470509091E+00  0.15051533390E+00  0.11803004244E+01  0.00000000000E+00 0. -1.
         11    1    3    3    0    0  0.17732718888E+01 -0.96098513772E+01 -0.56322119906E+01  0.11278987049E+02  0.51100000000E-03 0. -1.
        -11    1    3    3    0    0 -0.29233753456E+02 -0.20895270119E+02  0.10203769996E+02  0.37354271199E+02  0.51100000000E-03 0.  1.
         12    1    3    3    0    0  0.26619821207E+02  0.31319826587E+02 -0.47220733396E+01  0.41374441327E+02  0.00000000000E+00 0. -1.
</event>
<event>
 7    1  0.2404951E-015  0.9000809E+02  0.7816164E-02  0.1186338E+00
        -11   -1    0    0    0    0  0.00000000000E+00  0.00000000000E+00  0.45593999997E+02  0.45594000000E+02  0.51100000000E-03 0. -1.
         11   -1    0    0    0    0 -0.00000000000E+00 -0.00000000000E+00 -0.45593999997E+02  0.45594000000E+02  0.51100000000E-03 0.  1.
    9900012    2    1    2    0    0 -0.75319744795E-01  0.10836964698E+01  0.46056291799E+00  0.90008089281E+02  0.90000355259E+02 0.  0.
         12    1    1    2    0    0  0.75319744795E-01 -0.10836964698E+01 -0.46056291799E+00  0.11799107187E+01  0.00000000000E+00 0. -1.
         11    1    3    3    0    0 -0.13533718652E+01 -0.85729700508E+01 -0.26312399387E+01  0.90692256986E+01  0.51100000000E-03 0. -1.
        -11    1    3    3    0    0 -0.25981677015E+02 -0.26232704397E+00 -0.28148569252E+02  0.38307418435E+02  0.51100000000E-03 0.  1.
         12    1    3    3    0    0  0.27259729136E+02  0.99189935646E+01  0.31240372108E+02  0.42631445147E+02  0.00000000000E+00 0. -1.
</event>
<event>
 7    1  0.2404951E-015  0.9000771E+02  0.7816164E-02  0.1186339E+00
        -11   -1    0    0    0    0  0.00000000000E+00  0.00000000000E+00  0.45593999997E+02  0.45594000000E+02  0.51100000000E-03 0. -1.
         11   -1    0    0    0    0 -0.00000000000E+00 -0.00000000000E+00 -0.45593999997E+02  0.45594000000E+02  0.51100000000E-03 0.  1.
    9900012    2    1    2    0    0 -0.99259379629E+00  0.63133983073E+00 -0.96244160149E-01  0.90007705391E+02  0.89999966302E+02 0.  0.
         12    1    1    2    0    0  0.99259379629E+00 -0.63133983073E+00  0.96244160149E-01  0.11802946093E+01  0.00000000000E+00 0. -1.
         11    1    3    3    0    0 -0.25903629958E+02  0.25853140836E+02 -0.16580558457E+02  0.40178325688E+02  0.51100000000E-03 0. -1.
        -11    1    3    3    0    0  0.30332851285E+01 -0.14001904329E+00 -0.79699071046E+01  0.85287656505E+01  0.51100000000E-03 0.  1.
        -12    1    3    3    0    0  0.21877751033E+02 -0.25081781962E+02  0.24454221402E+02  0.41300614052E+02  0.00000000000E+00 0.  1.
</event>
<event>
 7    1  0.2404951E-015  0.9000796E+02  0.7816164E-02  0.1186339E+00
        -11   -1    0    0    0    0  0.00000000000E+00  0.00000000000E+00  0.45593999997E+02  0.45594000000E+02  0.51100000000E-03 0.  1.
         11   -1    0    0    0    0 -0.00000000000E+00 -0.00000000000E+00 -0.45593999997E+02  0.45594000000E+02  0.51100000000E-03 0. -1.
    9900012    2    1    2    0    0 -0.15914994677E+00 -0.74809418187E+00  0.89862593752E+00  0.90007956702E+02  0.90000220930E+02 0.  0.
         12    1    1    2    0    0  0.15914994677E+00  0.74809418187E+00 -0.89862593752E+00  0.11800432984E+01  0.00000000000E+00 0. -1.
         11    1    3    3    0    0  0.20669871866E+02 -0.14816951008E+02 -0.25265844387E+02  0.35848968367E+02  0.51100000000E-03 0. -1.
        -11    1    3    3    0    0  0.10261261607E+02 -0.37623801312E+01  0.25029816882E+01  0.11212221529E+02  0.51100000000E-03 0.  1.
        -12    1    3    3    0    0 -0.31090283420E+02  0.17831236958E+02  0.23661488636E+02  0.42946766806E+02  0.00000000000E+00 0.  1.
</event>
<event>
 7    1  0.2404951E-015  0.9000777E+02  0.7816164E-02  0.1186339E+00
        -11   -1    0    0    0    0  0.00000000000E+00  0.00000000000E+00  0.45593999997E+02  0.45594000000E+02  0.51100000000E-03 0. -1.
         11   -1    0    0    0    0 -0.00000000000E+00 -0.00000000000E+00 -0.45593999997E+02  0.45594000000E+02  0.51100000000E-03 0.  1.
    9900012    2    1    2    0    0 -0.97361307555E+00 -0.28197963630E+00 -0.60456824930E+00  0.90007772181E+02  0.90000033974E+02 0.  0.
         12    1    1    2    0    0  0.97361307555E+00  0.28197963630E+00  0.60456824930E+00  0.11802278188E+01  0.00000000000E+00 0. -1.
         11    1    3    3    0    0 -0.16124548957E+02  0.32592110941E+02 -0.13542655738E+02  0.38802709949E+02  0.51100000000E-03 0. -1.
        -11    1    3    3    0    0  0.90698212416E+00 -0.27786333755E+01 -0.10231510812E+02  0.10640828623E+02  0.51100000000E-03 0.  1.
        -12    1    3    3    0    0  0.14243953758E+02 -0.30095457202E+02  0.23169598301E+02  0.40564233609E+02  0.00000000000E+00 0.  1.
</event>
<event>
 7    1  0.2404951E-015  0.9000761E+02  0.7816164E-02  0.1186339E+00
        -11   -1    0    0    0    0  0.00000000000E+00  0.00000000000E+00  0.45593999997E+02  0.45594000000E+02  0.51100000000E-03 0.  1.
         11   -1    0    0    0    0 -0.00000000000E+00 -0.00000000000E+00 -0.45593999997E+02  0.45594000000E+02  0.51100000000E-03 0. -1.
    9900012    2    1    2    0    0 -0.16756133531E+00  0.10444510530E+00  0.11637609680E+01  0.90007608043E+02  0.89999867669E+02 0.  0.
         12    1    1    2    0    0  0.16756133531E+00 -0.10444510530E+00 -0.11637609680E+01  0.11803919568E+01  0.00000000000E+00 0. -1.
         11    1    3    3    0    0  0.95907997358E+01  0.26668944071E+01  0.25992840431E+01  0.10288442212E+02  0.51100000000E-03 0. -1.
        -11    1    3    3    0    0  0.29564802961E+02 -0.16435066960E+01  0.19210339445E+02  0.35296116362E+02  0.51100000000E-03 0.  1.
         12    1    3    3    0    0 -0.39323164032E+02 -0.91894260578E+00 -0.20645862520E+02  0.44423049470E+02  0.00000000000E+00 0. -1.
</event>
<event>
 7    1  0.2404951E-015  0.9000750E+02  0.7816164E-02  0.1186340E+00
        -11   -1    0    0    0    0  0.00000000000E+00  0.00000000000E+00  0.45593999997E+02  0.45594000000E+02  0.51100000000E-03 0. -1.
         11   -1    0    0    0    0 -0.00000000000E+00 -0.00000000000E+00 -0.45593999997E+02  0.45594000000E+02  0.51100000000E-03 0.  1.
    9900012    2    1    2    0    0 -0.10669668553E+01  0.25161344203E+00 -0.43800170343E+00  0.90007503034E+02  0.89999761274E+02 0.  0.
         12    1    1    2    0    0  0.10669668553E+01 -0.25161344203E+00  0.43800170343E+00  0.11804969660E+01  0.00000000000E+00 0. -1.
         11    1    3    3    0    0  0.22439743859E+02  0.24457605829E+02  0.24974762424E+02  0.41538600671E+02  0.51100000000E-03 0. -1.
        -11    1    3    3    0    0 -0.32899210684E+01 -0.87576605485E+01  0.34695692653E+01  0.99778810409E+01  0.51100000000E-03 0.  1.
        -12    1    3    3    0    0 -0.20216789646E+02 -0.15448331839E+02 -0.28882333393E+02  0.38491021322E+02  0.00000000000E+00 0.  1.
</event>
<event>
 7    1  0.2404951E-015  0.9000771E+02  0.7816164E-02  0.1186339E+00
        -11   -1    0    0    0    0  0.00000000000E+00  0.00000000000E+00  0.45593999997E+02  0.45594000000E+02  0.51100000000E-03 0. -1.
         11   -1    0    0    0    0 -0.00000000000E+00 -0.00000000000E+00 -0.45593999997E+02  0.45594000000E+02  0.51100000000E-03 0.  1.
    9900012    2    1    2    0    0 -0.11450244537E+01  0.19383952706E+00  0.21075798250E+00  0.90007714573E+02  0.89999975605E+02 0.  0.
         12    1    1    2    0    0  0.11450244537E+01 -0.19383952706E+00 -0.21075798250E+00  0.11802854269E+01  0.00000000000E+00 0. -1.
         11    1    3    3    0    0 -0.81207530800E+01 -0.56944073722E+01 -0.85216080170E+00  0.99548522942E+01  0.51100000000E-03 0. -1.
        -11    1    3    3    0    0 -0.16797703546E+02 -0.27121472835E+02 -0.16297592168E+02  0.35823855793E+02  0.51100000000E-03 0.  1.
         12    1    3    3    0    0  0.23773432172E+02  0.33009719734E+02  0.17360510952E+02  0.44229006486E+02  0.00000000000E+00 0. -1.
</event>
<event>
 7    1  0.2404951E-015  0.9000775E+02  0.7816164E-02  0.1186339E+00
        -11   -1    0    0    0    0  0.00000000000E+00  0.00000000000E+00  0.45593999997E+02  0.45594000000E+02  0.51100000000E-03 0.  1.
         11   -1    0    0    0    0 -0.00000000000E+00 -0.00000000000E+00 -0.45593999997E+02  0.45594000000E+02  0.51100000000E-03 0. -1.
    9900012    2    1    2    0    0 -0.97319342899E+00 -0.60251493255E+00  0.28784126755E+00  0.90007753293E+02  0.90000014836E+02 0.  0.
         12    1    1    2    0    0  0.97319342899E+00  0.60251493255E+00 -0.28784126755E+00  0.11802467070E+01  0.00000000000E+00 0. -1.
         11    1    3    3    0    0 -0.60502689654E+01 -0.16425127136E+01  0.86236993070E+01  0.10661697452E+02  0.51100000000E-03 0. -1.
        -11    1    3    3    0    0  0.36893047375E+02  0.13996298729E+02  0.95756770754E+01  0.40604025841E+02  0.51100000000E-03 0.  1.
         12    1    3    3    0    0 -0.31815971839E+02 -0.12956300948E+02 -0.17911535115E+02  0.38742030000E+02  0.00000000000E+00 0. -1.
</event>
<event>
 7    1  0.2404951E-015  0.9000772E+02  0.7816164E-02  0.1186339E+00
        -11   -1    0    0    0    0  0.00000000000E+00  0.00000000000E+00  0.45593999997E+02  0.45594000000E+02  0.51100000000E-03 0.  1.
         11   -1    0    0    0    0 -0.00000000000E+00 -0.00000000000E+00 -0.45593999997E+02  0.45594000000E+02  0.51100000000E-03 0. -1.
    9900012    2    1    2    0    0  0.10561821284E+01  0.28659705494E+00  0.44205169363E+00  0.90007716873E+02  0.89999977936E+02 0.  0.
         12    1    1    2    0    0 -0.10561821284E+01 -0.28659705494E+00 -0.44205169363E+00  0.11802831270E+01  0.00000000000E+00 0. -1.
         11    1    3    3    0    0  0.16224634310E+01 -0.30123807232E+02 -0.84307329467E+01  0.31323368402E+02  0.51100000000E-03 0. -1.
        -11    1    3    3    0    0  0.96303208835E+01 -0.11372199853E+02  0.79235689245E+00  0.14923064013E+02  0.51100000000E-03 0.  1.
        -12    1    3    3    0    0 -0.10196602186E+02  0.41782604140E+02  0.80804277478E+01  0.43761284459E+02  0.00000000000E+00 0.  1.
</event>
<event>
 7    1  0.2404951E-015  0.9000769E+02  0.7816164E-02  0.1186339E+00
        -11   -1    0    0    0    0  0.00000000000E+00  0.00000000000E+00  0.45593999997E+02  0.45594000000E+02  0.51100000000E-03 0. -1.
         11   -1    0    0    0    0 -0.00000000000E+00 -0.00000000000E+00 -0.45593999997E+02  0.45594000000E+02  0.51100000000E-03 0.  1.
    9900012    2    1    2    0    0 -0.21380940413E-01 -0.10842128576E+01 -0.46600153702E+00  0.90007689830E+02  0.89999950536E+02 0.  0.
         12    1    1    2    0    0  0.21380940413E-01  0.10842128576E+01  0.46600153702E+00  0.11803101702E+01  0.00000000000E+00 0. -1.
         11    1    3    3    0    0 -0.23365852316E+02  0.28847230549E+02  0.76396054076E+01  0.37901046632E+02  0.51100000000E-03 0. -1.
        -11    1    3    3    0    0  0.48814760573E+01  0.68340083291E+01  0.38857305193E+01  0.92537225088E+01  0.51100000000E-03 0.  1.
        -12    1    3    3    0    0  0.18462995318E+02 -0.36765451735E+02 -0.11991337464E+02  0.42852920689E+02  0.00000000000E+00 0.  1.
</event>
<event>
 7    1  0.2404951E-015  0.9000866E+02  0.7816164E-02  0.1186337E+00
        -11   -1    0    0    0    0  0.00000000000E+00  0.00000000000E+00  0.45593999997E+02  0.45594000000E+02  0.51100000000E-03 0.  1.
         11   -1    0    0    0    0 -0.00000000000E+00 -0.00000000000E+00 -0.45593999997E+02  0.45594000000E+02  0.51100000000E-03 0. -1.
    9900012    2    1    2    0    0  0.73280787542E+00 -0.52509789050E+00  0.76033764925E+00  0.90008657591E+02  0.90000931066E+02 0.  0.
         12    1    1    2    0    0 -0.73280787542E+00  0.52509789050E+00 -0.76033764925E+00  0.11793424090E+01  0.00000000000E+00 0. -1.
         11    1    3    3    0    0  0.80495799371E+01 -0.16646781683E+02 -0.28465995254E+02  0.33944424632E+02  0.51100000000E-03 0. -1.
        -11    1    3    3    0    0 -0.48161315773E+01 -0.11934244486E+02 -0.30497009227E+01  0.13225807756E+02  0.51100000000E-03 0.  1.
        -12    1    3    3    0    0 -0.25006404843E+01  0.28055928278E+02  0.32276033826E+02  0.42838425203E+02  0.00000000000E+00 0.  1.
</event>
<event>
 7    1  0.2404951E-015  0.9000696E+02  0.7816164E-02  0.1186341E+00
        -11   -1    0    0    0    0  0.00000000000E+00  0.00000000000E+00  0.45593999997E+02  0.45594000000E+02  0.51100000000E-03 0. -1.
         11   -1    0    0    0    0 -0.00000000000E+00 -0.00000000000E+00 -0.45593999997E+02  0.45594000000E+02  0.51100000000E-03 0.  1.
    9900012    2    1    2    0    0 -0.54612592417E+00  0.99814821616E+00  0.31669206840E+00  0.90006963484E+02  0.89999214598E+02 0.  0.
         12    1    1    2    0    0  0.54612592417E+00 -0.99814821616E+00 -0.31669206840E+00  0.11810365162E+01  0.00000000000E+00 0. -1.
         11    1    3    3    0    0 -0.28503334491E+02  0.25153498561E+02 -0.77696474209E+01  0.38800850355E+02  0.51100000000E-03 0. -1.
        -11    1    3    3    0    0 -0.50902686091E+01  0.19064082094E-01 -0.60338836887E+01  0.78942352753E+01  0.51100000000E-03 0.  1.
        -12    1    3    3    0    0  0.33047477176E+02 -0.24174414427E+02  0.14120223178E+02  0.43311877853E+02  0.00000000000E+00 0.  1.
</event>
<event>
 7    1  0.2404951E-015  0.9000784E+02  0.7816164E-02  0.1186339E+00
        -11   -1    0    0    0    0  0.00000000000E+00  0.00000000000E+00  0.45593999997E+02  0.45594000000E+02  0.51100000000E-03 0.  1.
         11   -1    0    0    0    0 -0.00000000000E+00 -0.00000000000E+00 -0.45593999997E+02  0.45594000000E+02  0.51100000000E-03 0. -1.
    9900012    2    1    2    0    0 -0.43941295274E+00  0.60615560110E-01  0.10936215842E+01  0.90007844858E+02  0.90000107610E+02 0.  0.
         12    1    1    2    0    0  0.43941295274E+00 -0.60615560110E-01 -0.10936215842E+01  0.11801551417E+01  0.00000000000E+00 0. -1.
         11    1    3    3    0    0 -0.14527221630E+01  0.74248165298E+01  0.18985440085E+01  0.78001776773E+01  0.51100000000E-03 0. -1.
        -11    1    3    3    0    0 -0.17020639862E+02  0.33165680796E+02 -0.51592063253E+01  0.37633521947E+02  0.51100000000E-03 0.  1.
         12    1    3    3    0    0  0.18033949073E+02 -0.40529881765E+02  0.43542839010E+01  0.44574145234E+02  0.00000000000E+00 0. -1.
</event>
<event>
 7    1  0.2404951E-015  0.9000779E+02  0.7816164E-02  0.1186339E+00
        -11   -1    0    0    0    0  0.00000000000E+00  0.00000000000E+00  0.45593999997E+02  0.45594000000E+02  0.51100000000E-03 0.  1.
         11   -1    0    0    0    0 -0.00000000000E+00 -0.00000000000E+00 -0.45593999997E+02  0.45594000000E+02  0.51100000000E-03 0. -1.
    9900012    2    1    2    0    0  0.87839201509E+00 -0.42506327953E+00  0.66380635095E+00  0.90007792308E+02  0.90000054367E+02 0.  0.
         12    1    1    2    0    0 -0.87839201509E+00  0.42506327953E+00 -0.66380635095E+00  0.11802076916E+01  0.00000000000E+00 0. -1.
         11    1    3    3    0    0  0.74187586240E+01 -0.85896661058E+01 -0.22728722358E+00  0.11352180543E+02  0.51100000000E-03 0. -1.
        -11    1    3    3    0    0 -0.28368182525E+02 -0.19540464647E+02  0.18644424458E+02  0.39168840958E+02  0.51100000000E-03 0.  1.
         12    1    3    3    0    0  0.21827815916E+02  0.27705067473E+02 -0.17753330883E+02  0.39486770808E+02  0.00000000000E+00 0. -1.
</event>
<event>
 7    1  0.2404951E-015  0.9000781E+02  0.7816164E-02  0.1186339E+00
        -11   -1    0    0    0    0  0.00000000000E+00  0.00000000000E+00  0.45593999997E+02  0.45594000000E+02  0.51100000000E-03 0.  1.
         11   -1    0    0    0    0 -0.00000000000E+00 -0.00000000000E+00 -0.45593999997E+02  0.45594000000E+02  0.51100000000E-03 0. -1.
    9900012    2    1    2    0    0  0.11570113927E+01 -0.17605132628E+00 -0.15222229562E+00  0.90007813125E+02  0.90000075458E+02 0.  0.
         12    1    1    2    0    0 -0.11570113927E+01  0.17605132628E+00  0.15222229562E+00  0.11801868749E+01  0.00000000000E+00 0. -1.
         11    1    3    3    0    0  0.22344664361E+01 -0.74726260663E+01  0.31664981100E+01  0.84178198556E+01  0.51100000000E-03 0. -1.
        -11    1    3    3    0    0  0.30643547065E+02 -0.15512046232E+02  0.16132268873E+02  0.37946022904E+02  0.51100000000E-03 0.  1.
         12    1    3    3    0    0 -0.31721002108E+02  0.22808620972E+02 -0.19450989278E+02  0.43643970365E+02  0.00000000000E+00 0. -1.
</event>
<event>
 7    1  0.2404951E-015  0.9000775E+02  0.7816164E-02  0.1186339E+00
        -11   -1    0    0    0    0  0.00000000000E+00  0.00000000000E+00  0.45593999997E+02  0.45594000000E+02  0.51100000000E-03 0. -1.
         11   -1    0    0    0    0 -0.00000000000E+00 -0.00000000000E+00 -0.45593999997E+02  0.45594000000E+02  0.51100000000E-03 0.  1.
    9900012    2    1    2    0    0 -0.29783711003E-01 -0.11677358919E+01 -0.16882664103E+00  0.90007747223E+02  0.90000008686E+02 0.  0.
         12    1    1    2    0    0  0.29783711003E-01  0.11677358919E+01  0.16882664103E+00  0.11802527769E+01  0.00000000000E+00 0. -1.
         11    1    3    3    0    0 -0.38353275826E+02 -0.12894990772E+02 -0.44208105608E+01  0.40703785081E+02  0.51100000000E-03 0. -1.
        -11    1    3    3    0    0 -0.25441275801E+01  0.69399990846E+01  0.34300301148E+01  0.81486980118E+01  0.51100000000E-03 0.  1.
        -12    1    3    3    0    0  0.40867619695E+02  0.47872557959E+01  0.82195380505E+00  0.41155264131E+02  0.00000000000E+00 0.  1.
</event>
<event>
 7    1  0.2404951E-015  0.9000770E+02  0.7816164E-02  0.1186339E+00
        -11   -1    0    0    0    0  0.00000000000E+00  0.00000000000E+00  0.45593999997E+02  0.45594000000E+02  0.51100000000E-03 0.  1.
         11   -1    0    0    0    0 -0.00000000000E+00 -0.00000000000E+00 -0.45593999997E+02  0.45594000000E+02  0.51100000000E-03 0. -1.
    9900012    2    1    2    0    0 -0.64746055329E+00  0.96903467009E+00 -0.18677397708E+00  0.90007695853E+02  0.89999956639E+02 0.  0.
         12    1    1    2    0    0  0.64746055329E+00 -0.96903467009E+00  0.18677397708E+00  0.11803041466E+01  0.00000000000E+00 0. -1.
         11    1    3    3    0    0  0.21863941115E+01  0.62314482132E+00  0.92866270900E+01  0.95608614491E+01  0.51100000000E-03 0. -1.
        -11    1    3    3    0    0  0.10046192692E+02  0.29173447957E+02 -0.29799787079E+02  0.42895726635E+02  0.51100000000E-03 0.  1.
         12    1    3    3    0    0 -0.12880047357E+02 -0.28827558108E+02  0.20326386012E+02  0.37551107769E+02  0.00000000000E+00 0. -1.
</event>
<event>
 7    1  0.2404951E-015  0.9000778E+02  0.7816164E-02  0.1186339E+00
        -11   -1    0    0    0    0  0.00000000000E+00  0.00000000000E+00  0.45593999997E+02  0.45594000000E+02  0.51100000000E-03 0. -1.
         11   -1    0    0    0    0 -0.00000000000E+00 -0.00000000000E+00 -0.45593999997E+02  0.45594000000E+02  0.51100000000E-03 0.  1.
    9900012    2    1    2    0    0 -0.83039903719E+00 -0.71594355872E+00 -0.43679436084E+00  0.90007776693E+02  0.90000038546E+02 0.  0.
         12    1    1    2    0    0  0.83039903719E+00  0.71594355872E+00  0.43679436084E+00  0.11802233068E+01  0.00000000000E+00 0. -1.
         11    1    3    3    0    0  0.10139410897E+02 -0.68531833636E+00  0.37448462745E+00  0.10169442146E+02  0.51100000000E-03 0. -1.
        -11    1    3    3    0    0  0.10261221056E+02 -0.11396692749E+02 -0.34888769465E+02  0.38110411940E+02  0.51100000000E-03 0.  1.
         12    1    3    3    0    0 -0.21231030990E+02  0.11366067527E+02  0.34077490477E+02  0.41727922607E+02  0.00000000000E+00 0. -1.
</event>
<event>
 7    1  0.2404951E-015  0.9000778E+02  0.7816164E-02  0.1186339E+00
        -11   -1    0    0    0    0  0.00000000000E+00  0.00000000000E+00  0.45593999997E+02  0.45594000000E+02  0.51100000000E-03 0.  1.
         11   -1    0    0    0    0 -0.00000000000E+00 -0.00000000000E+00 -0.45593999997E+02  0.45594000000E+02  0.51100000000E-03 0. -1.
    9900012    2    1    2    0    0 -0.73930609350E+00 -0.89264735816E+00  0.22254348992E+00  0.90007780355E+02  0.90000042256E+02 0.  0.
         12    1    1    2    0    0  0.73930609350E+00  0.89264735816E+00 -0.22254348992E+00  0.11802196452E+01  0.00000000000E+00 0. -1.
         11    1    3    3    0    0  0.81402891526E+01  0.31203103878E+01  0.42277223592E+01  0.96888740838E+01  0.51100000000E-03 0. -1.
        -11    1    3    3    0    0  0.25598101220E+02  0.22668870789E+02 -0.11517069065E+02  0.36080235158E+02  0.51100000000E-03 0.  1.
         12    1    3    3    0    0 -0.34477696466E+02 -0.26681828535E+02  0.75118901952E+01  0.44238671113E+02  0.00000000000E+00 0. -1.
</event>
<event>
 7    1  0.2404951E-015  0.9000770E+02  0.7816164E-02  0.1186339E+00
        -11   -1    0    0    0    0  0.00000000000E+00  0.00000000000E+00  0.45593999997E+02  0.45594000000E+02  0.51100000000E-03 0. -1.
         11   -1    0    0    0    0 -0.00000000000E+00 -0.00000000000E+00 -0.45593999997E+02  0.45594000000E+02  0.51100000000E-03 0.  1.
    9900012    2    1    2    0    0 -0.74929185007E+00 -0.82638407226E+00  0.38570578315E+00  0.90007695860E+02  0.89999956645E+02 0.  0.
         12    1    1    2    0    0  0.74929185007E+00  0.82638407226E+00 -0.38570578315E+00  0.11803041399E+01  0.00000000000E+00 0. -1.
         11    1    3    3    0    0  0.11649099294E+02  0.29079750226E+02  0.29743634093E+02  0.43197420720E+02  0.51100000000E-03 0. -1.
        -11    1    3    3    0    0  0.17581309178E+01 -0.97701993560E+01 -0.22197608035E+01  0.10172273987E+02  0.51100000000E-03 0.  1.
        -12    1    3    3    0    0 -0.14156522062E+02 -0.20135934942E+02 -0.27138167506E+02  0.36638001153E+02  0.00000000000E+00 0.  1.
</event>
<event>
 7    1  0.2404951E-015  0.9000774E+02  0.7816164E-02  0.1186339E+00
        -11   -1    0    0    0    0  0.00000000000E+00  0.00000000000E+00  0.45593999997E+02  0.45594000000E+02  0.51100000000E-03 0.  1.
         11   -1    0    0    0    0 -0.00000000000E+00 -0.00000000000E+00 -0.45593999997E+02  0.45594000000E+02  0.51100000000E-03 0. -1.
    9900012    2    1    2    0    0  0.57158484859E-01  0.11779065412E+01 -0.47814486031E-01  0.90007738530E+02  0.89999999879E+02 0.  0.
         12    1    1    2    0    0 -0.57158484859E-01 -0.11779065412E+01  0.47814486031E-01  0.11802614699E+01  0.00000000000E+00 0. -1.
         11    1    3    3    0    0  0.19156042868E+02  0.12940125396E+01  0.17194979100E-01  0.19199706840E+02  0.51100000000E-03 0. -1.
        -11    1    3    3    0    0  0.13339683625E+01  0.31653006521E+02  0.68356348864E+01  0.32410155784E+02  0.51100000000E-03 0.  1.
         12    1    3    3    0    0 -0.20432852746E+02 -0.31769112519E+02 -0.69006443515E+01  0.38397875906E+02  0.00000000000E+00 0. -1.
</event>
<event>
 7    1  0.2404951E-015  0.9000774E+02  0.7816164E-02  0.1186339E+00
        -11   -1    0    0    0    0  0.00000000000E+00  0.00000000000E+00  0.45593999997E+02  0.45594000000E+02  0.51100000000E-03 0.  1.
         11   -1    0    0    0    0 -0.00000000000E+00 -0.00000000000E+00 -0.45593999997E+02  0.45594000000E+02  0.51100000000E-03 0. -1.
    9900012    2    1    2    0    0  0.82243756185E+00  0.35578137385E+00  0.76813161103E+00  0.90007741511E+02  0.90000002899E+02 0.  0.
         12    1    1    2    0    0 -0.82243756185E+00 -0.35578137385E+00 -0.76813161103E+00  0.11802584891E+01  0.00000000000E+00 0. -1.
         11    1    3    3    0    0 -0.38049302172E+01 -0.40785662470E+01 -0.71185578971E+01  0.90435647498E+01  0.51100000000E-03 0. -1.
        -11    1    3    3    0    0 -0.21578796523E+02 -0.12907671743E+02  0.32468962877E+02  0.41066847941E+02  0.51100000000E-03 0.  1.
         12    1    3    3    0    0  0.26206164302E+02  0.17342019364E+02 -0.24582273369E+02  0.39897328821E+02  0.00000000000E+00 0. -1.
</event>
<event>
 7    1  0.2404951E-015  0.9000769E+02  0.7816164E-02  0.1186339E+00
        -11   -1    0    0    0    0  0.00000000000E+00  0.00000000000E+00  0.45593999997E+02  0.45594000000E+02  0.51100000000E-03 0.  1.
         11   -1    0    0    0    0 -0.00000000000E+00 -0.00000000000E+00 -0.45593999997E+02  0.45594000000E+02  0.51100000000E-03 0. -1.
    9900012    2    1    2    0    0 -0.40186291244E+00  0.68404657017E+00  0.87390783407E+00  0.90007691391E+02  0.89999952117E+02 0.  0.
         12    1    1    2    0    0  0.40186291244E+00 -0.68404657017E+00 -0.87390783407E+00  0.11803086092E+01  0.00000000000E+00 0. -1.
         11    1    3    3    0    0  0.10778411999E+01  0.37070036294E+00  0.98203848586E+01  0.98863096980E+01  0.51100000000E-03 0. -1.
        -11    1    3    3    0    0 -0.29342252435E+01  0.81614640185E+01  0.34691631700E+02  0.35759313234E+02  0.51100000000E-03 0.  1.
         12    1    3    3    0    0  0.14545211311E+01 -0.78481178113E+01 -0.43638108724E+02  0.44362068459E+02  0.00000000000E+00 0. -1.
</event>
<event>
 7    1  0.2404951E-015  0.9000784E+02  0.7816164E-02  0.1186339E+00
        -11   -1    0    0    0    0  0.00000000000E+00  0.00000000000E+00  0.45593999997E+02  0.45594000000E+02  0.51100000000E-03 0. -1.
         11   -1    0    0    0    0 -0.00000000000E+00 -0.00000000000E+00 -0.45593999997E+02  0.45594000000E+02  0.51100000000E-03 0.  1.
    9900012    2    1    2    0    0 -0.19685841555E+00  0.34589966516E+00 -0.11110298534E+01  0.90007835965E+02  0.90000098600E+02 0.  0.
         12    1    1    2    0    0  0.19685841555E+00 -0.34589966516E+00  0.11110298534E+01  0.11801640349E+01  0.00000000000E+00 0. -1.
         11    1    3    3    0    0 -0.27915811928E+02 -0.26737246654E+02  0.37920077695E+01  0.38840085446E+02  0.51100000000E-03 0. -1.
        -11    1    3    3    0    0 -0.75503031389E+01  0.26990284895E+01 -0.70920592681E-01  0.80185324261E+01  0.51100000000E-03 0.  1.
        -12    1    3    3    0    0  0.35269256652E+02  0.24384117829E+02 -0.48321170303E+01  0.43149218093E+02  0.00000000000E+00 0.  1.
</event>
<event>
 7    1  0.2404951E-015  0.9000773E+02  0.7816164E-02  0.1186339E+00
        -11   -1    0    0    0    0  0.00000000000E+00  0.00000000000E+00  0.45593999997E+02  0.45594000000E+02  0.51100000000E-03 0. -1.
         11   -1    0    0    0    0 -0.00000000000E+00 -0.00000000000E+00 -0.45593999997E+02  0.45594000000E+02  0.51100000000E-03 0.  1.
    9900012    2    1    2    0    0 -0.34443206430E+00 -0.97962716776E+00 -0.56100675913E+00  0.90007732480E+02  0.89999993749E+02 0.  0.
         12    1    1    2    0    0  0.34443206430E+00  0.97962716776E+00  0.56100675913E+00  0.11802675199E+01  0.00000000000E+00 0. -1.
         11    1    3    3    0    0  0.34138866163E+01 -0.38371659913E+01  0.71646702017E+01  0.88153822398E+01  0.51100000000E-03 0. -1.
        -11    1    3    3    0    0  0.26908891503E+02 -0.19398286271E+01 -0.31951059046E+02  0.41817718152E+02  0.51100000000E-03 0.  1.
         12    1    3    3    0    0 -0.30667210183E+02  0.47973674506E+01  0.24225382085E+02  0.39374632088E+02  0.00000000000E+00 0. -1.
</event>
<event>
 7    1  0.2404951E-015  0.9000776E+02  0.7816164E-02  0.1186339E+00
        -11   -1    0    0    0    0  0.00000000000E+00  0.00000000000E+00  0.45593999997E+02  0.45594000000E+02  0.51100000000E-03 0.  1.
         11   -1    0    0    0    0 -0.00000000000E+00 -0.00000000000E+00 -0.45593999997E+02  0.45594000000E+02  0.51100000000E-03 0. -1.
    9900012    2    1    2    0    0 -0.12438994016E+00 -0.67039894738E+00  0.96336049890E+00  0.90007758052E+02  0.90000019658E+02 0.  0.
         12    1    1    2    0    0  0.12438994016E+00  0.67039894738E+00 -0.96336049890E+00  0.11802419484E+01  0.00000000000E+00 0. -1.
         11    1    3    3    0    0  0.35437747680E+01 -0.79623829924E+01  0.55204156267E+01  0.10316630820E+02  0.51100000000E-03 0. -1.
        -11    1    3    3    0    0 -0.52178432426E+00 -0.19910387591E+02  0.29746066935E+02  0.35798383920E+02  0.51100000000E-03 0.  1.
         12    1    3    3    0    0 -0.31463803839E+01  0.27202371636E+02 -0.34303122063E+02  0.43892743312E+02  0.00000000000E+00 0. -1.
</event>
<event>
 7    1  0.2404951E-015  0.9000791E+02  0.7816164E-02  0.1186339E+00
        -11   -1    0    0    0    0  0.00000000000E+00  0.00000000000E+00  0.45593999997E+02  0.45594000000E+02  0.51100000000E-03 0.  1.
         11   -1    0    0    0    0 -0.00000000000E+00 -0.00000000000E+00 -0.45593999997E+02  0.45594000000E+02  0.51100000000E-03 0. -1.
    9900012    2    1    2    0    0  0.20407704466E+00 -0.10229018535E+01 -0.55193900506E+00  0.90007910043E+02  0.90000173655E+02 0.  0.
         12    1    1    2    0    0 -0.20407704466E+00  0.10229018535E+01  0.55193900506E+00  0.11800899573E+01  0.00000000000E+00 0. -1.
         11    1    3    3    0    0 -0.14692148322E+01 -0.81422486524E+01  0.24248592558E+02  0.25621261613E+02  0.51100000000E-03 0. -1.
        -11    1    3    3    0    0 -0.17695781093E+02 -0.85564036031E+01  0.96278695618E+01  0.21887178523E+02  0.51100000000E-03 0.  1.
         12    1    3    3    0    0  0.19369072970E+02  0.15675750402E+02 -0.34428401125E+02  0.42499469907E+02  0.00000000000E+00 0. -1.
</event>
<event>
 7    1  0.2404951E-015  0.9000771E+02  0.7816164E-02  0.1186339E+00
        -11   -1    0    0    0    0  0.00000000000E+00  0.00000000000E+00  0.45593999997E+02  0.45594000000E+02  0.51100000000E-03 0. -1.
         11   -1    0    0    0    0 -0.00000000000E+00 -0.00000000000E+00 -0.45593999997E+02  0.45594000000E+02  0.51100000000E-03 0.  1.
    9900012    2    1    2    0    0  0.93085586080E+00  0.48151176400E+00 -0.54289553449E+00  0.90007711148E+02  0.89999972135E+02 0.  0.
         12    1    1    2    0    0 -0.93085586080E+00 -0.48151176400E+00  0.54289553449E+00  0.11802888519E+01  0.00000000000E+00 0. -1.
         11    1    3    3    0    0 -0.26607355153E+01 -0.91889687318E+01  0.43963470091E+00  0.95765306227E+01  0.51100000000E-03 0. -1.
        -11    1    3    3    0    0  0.36640089516E+02 -0.10708643756E+02 -0.12099024441E+02  0.40044445352E+02  0.51100000000E-03 0.  1.
         12    1    3    3    0    0 -0.33048498140E+02  0.20379124252E+02  0.11116494206E+02  0.40386735174E+02  0.00000000000E+00 0. -1.
</event>
<event>
 7    1  0.2404951E-015  0.9000772E+02  0.7816164E-02  0.1186339E+00
        -11   -1    0    0    0    0  0.00000000000E+00  0.00000000000E+00  0.45593999997E+02  0.45594000000E+02  0.51100000000E-03 0.  1.
         11   -1    0    0    0    0 -0.00000000000E+00 -0.00000000000E+00 -0.45593999997E+02  0.45594000000E+02  0.51100000000E-03 0. -1.
    9900012    2    1    2    0    0  0.11168308993E+01  0.27548376429E+00  0.26430752596E+00  0.90007719936E+02  0.89999981039E+02 0.  0.
         12    1    1    2    0    0 -0.11168308993E+01 -0.27548376429E+00 -0.26430752596E+00  0.11802800644E+01  0.00000000000E+00 0. -1.
         11    1    3    3    0    0 -0.87359535488E+01 -0.15977191394E+01 -0.17714678469E+01  0.90558097070E+01  0.51100000000E-03 0. -1.
        -11    1    3    3    0    0 -0.33200578582E+02 -0.63440892359E+01  0.12240071289E+02  0.35949203494E+02  0.51100000000E-03 0.  1.
         12    1    3    3    0    0  0.43053363030E+02  0.82172921396E+01 -0.10204295917E+02  0.45002706735E+02  0.00000000000E+00 0. -1.
</event>
<event>
 7    1  0.2404951E-015  0.9000802E+02  0.7816164E-02  0.1186338E+00
        -11   -1    0    0    0    0  0.00000000000E+00  0.00000000000E+00  0.45593999997E+02  0.45594000000E+02  0.51100000000E-03 0. -1.
         11   -1    0    0    0    0 -0.00000000000E+00 -0.00000000000E+00 -0.45593999997E+02  0.45594000000E+02  0.51100000000E-03 0.  1.
    9900012    2    1    2    0    0 -0.10820923825E+01  0.35840526419E+00 -0.30493281362E+00  0.90008015984E+02  0.90000280994E+02 0.  0.
         12    1    1    2    0    0  0.10820923825E+01 -0.35840526419E+00  0.30493281362E+00  0.11799840162E+01  0.00000000000E+00 0. -1.
         11    1    3    3    0    0  0.95136775126E+01  0.31231383734E+01 -0.52824612620E+00  0.10027118098E+02  0.51100000000E-03 0. -1.
        -11    1    3    3    0    0  0.14459516800E+02  0.32258935769E+02 -0.77375429907E+01  0.36188204361E+02  0.51100000000E-03 0.  1.
         12    1    3    3    0    0 -0.25055286696E+02 -0.35023668879E+02  0.79608563033E+01  0.43792693525E+02  0.00000000000E+00 0. -1.
</event>
<event>
 7    1  0.2404951E-015  0.9000778E+02  0.7816164E-02  0.1186339E+00
        -11   -1    0    0    0    0  0.00000000000E+00  0.00000000000E+00  0.45593999997E+02  0.45594000000E+02  0.51100000000E-03 0.  1.
         11   -1    0    0    0    0 -0.00000000000E+00 -0.00000000000E+00 -0.45593999997E+02  0.45594000000E+02  0.51100000000E-03 0. -1.
    9900012    2    1    2    0    0  0.55694892332E+00 -0.32265493663E+00  0.98925097205E+00  0.90007781462E+02  0.90000043377E+02 0.  0.
         12    1    1    2    0    0 -0.55694892332E+00  0.32265493663E+00 -0.98925097205E+00  0.11802185378E+01  0.00000000000E+00 0. -1.
         11    1    3    3    0    0 -0.75421341160E+01 -0.72472282075E+01 -0.33842486107E+02  0.35422026621E+02  0.51100000000E-03 0. -1.
        -11    1    3    3    0    0  0.65342139983E+01  0.36670533423E+01 -0.83695657820E+01  0.11233559740E+02  0.51100000000E-03 0.  1.
        -12    1    3    3    0    0  0.15648690410E+01  0.32575199286E+01  0.43201302861E+02  0.43352195102E+02  0.00000000000E+00 0.  1.
</event>
<event>
 7    1  0.2404951E-015  0.9000768E+02  0.7816164E-02  0.1186339E+00
        -11   -1    0    0    0    0  0.00000000000E+00  0.00000000000E+00  0.45593999997E+02  0.45594000000E+02  0.51100000000E-03 0. -1.
         11   -1    0    0    0    0 -0.00000000000E+00 -0.00000000000E+00 -0.45593999997E+02  0.45594000000E+02  0.51100000000E-03 0.  1.
    9900012    2    1    2    0    0 -0.60768506326E+00  0.41104793768E+00 -0.92461192607E+00  0.90007682773E+02  0.89999943385E+02 0.  0.
         12    1    1    2    0    0  0.60768506326E+00 -0.41104793768E+00  0.92461192607E+00  0.11803172273E+01  0.00000000000E+00 0. -1.
         11    1    3    3    0    0  0.54855694144E+01  0.40775517471E+01  0.99343833698E+01  0.12058601629E+02  0.51100000000E-03 0. -1.
        -11    1    3    3    0    0 -0.12738821725E+02 -0.37351131696E+02 -0.17174907253E+02  0.43039075934E+02  0.51100000000E-03 0.  1.
         12    1    3    3    0    0  0.66455672469E+01  0.33684627886E+02  0.63159119567E+01  0.34910005209E+02  0.00000000000E+00 0. -1.
</event>
<event>
 7    1  0.2404951E-015  0.9000777E+02  0.7816164E-02  0.1186339E+00
        -11   -1    0    0    0    0  0.00000000000E+00  0.00000000000E+00  0.45593999997E+02  0.45594000000E+02  0.51100000000E-03 0.  1.
         11   -1    0    0    0    0 -0.00000000000E+00 -0.00000000000E+00 -0.45593999997E+02  0.45594000000E+02  0.51100000000E-03 0. -1.
    9900012    2    1    2    0    0 -0.82970884374E+00 -0.57984641808E+00 -0.60687391184E+00  0.90007773505E+02  0.90000035316E+02 0.  0.
         12    1    1    2    0    0  0.82970884374E+00  0.57984641808E+00  0.60687391184E+00  0.11802264947E+01  0.00000000000E+00 0. -1.
         11    1    3    3    0    0 -0.13074575778E+01  0.79183744476E+01  0.32795326915E+01  0.86698001215E+01  0.51100000000E-03 0. -1.
        -11    1    3    3    0    0 -0.57661197514E+01  0.32918393272E+02  0.13427063777E+02  0.36016035242E+02  0.51100000000E-03 0.  1.
         12    1    3    3    0    0  0.62438684854E+01 -0.41416614138E+02 -0.17313470380E+02  0.45321938142E+02  0.00000000000E+00 0. -1.
</event>
<event>
 7    1  0.2404951E-015  0.9000781E+02  0.7816164E-02  0.1186339E+00
        -11   -1    0    0    0    0  0.00000000000E+00  0.00000000000E+00  0.45593999997E+02  0.45594000000E+02  0.51100000000E-03 0. -1.
         11   -1    0    0    0    0 -0.00000000000E+00 -0.00000000000E+00 -0.45593999997E+02  0.45594000000E+02  0.51100000000E-03 0.  1.
    9900012    2    1    2    0    0  0.52564017673E+00 -0.12217258574E+00 -0.10495876845E+01  0.90007805930E+02  0.90000068168E+02 0.  0.
         12    1    1    2    0    0 -0.52564017673E+00  0.12217258574E+00  0.10495876845E+01  0.11801940703E+01  0.00000000000E+00 0. -1.
         11    1    3    3    0    0 -0.40856173744E+01  0.76546246725E+01 -0.43628219714E+01  0.97118362847E+01  0.51100000000E-03 0. -1.
        -11    1    3    3    0    0 -0.16494230286E+02 -0.31487666994E+02 -0.20115141776E+02  0.40843013287E+02  0.51100000000E-03 0.  1.
         12    1    3    3    0    0  0.21105487837E+02  0.23710869735E+02  0.23428376063E+02  0.39452956358E+02  0.00000000000E+00 0. -1.
</event>
<event>
 7    1  0.2404951E-015  0.9000781E+02  0.7816164E-02  0.1186339E+00
        -11   -1    0    0    0    0  0.00000000000E+00  0.00000000000E+00  0.45593999997E+02  0.45594000000E+02  0.51100000000E-03 0.  1.
         11   -1    0    0    0    0 -0.00000000000E+00 -0.00000000000E+00 -0.45593999997E+02  0.45594000000E+02  0.51100000000E-03 0. -1.
    9900012    2    1    2    0    0 -0.72171311213E-01 -0.90462173616E+00  0.75451613134E+00  0.90007811974E+02  0.90000074292E+02 0.  0.
         12    1    1    2    0    0  0.72171311213E-01  0.90462173616E+00 -0.75451613134E+00  0.11801880258E+01  0.00000000000E+00 0. -1.
         11    1    3    3    0    0  0.53134303339E+01  0.40705887079E+02  0.78782687186E+01  0.41800345729E+02  0.51100000000E-03 0. -1.
        -11    1    3    3    0    0 -0.69741524235E+01 -0.45446852054E+01  0.43256931066E+01  0.93810759914E+01  0.51100000000E-03 0.  1.
        -12    1    3    3    0    0  0.15885507784E+01 -0.37065823610E+02 -0.11449445694E+02  0.38826390254E+02  0.00000000000E+00 0.  1.
</event>
<event>
 7    1  0.2404951E-015  0.9000777E+02  0.7816164E-02  0.1186339E+00
        -11   -1    0    0    0    0  0.00000000000E+00  0.00000000000E+00  0.45593999997E+02  0.45594000000E+02  0.51100000000E-03 0.  1.
         11   -1    0    0    0    0 -0.00000000000E+00 -0.00000000000E+00 -0.45593999997E+02  0.45594000000E+02  0.51100000000E-03 0. -1.
    9900012    2    1    2    0    0  0.62632750574E+00  0.35629622054E-01  0.99969511793E+00  0.90007768691E+02  0.90000030438E+02 0.  0.
         12    1    1    2    0    0 -0.62632750574E+00 -0.35629622054E-01 -0.99969511793E+00  0.11802313092E+01  0.00000000000E+00 0. -1.
         11    1    3    3    0    0  0.19693850673E+01  0.10525953663E+02 -0.50111203242E+00  0.10720321431E+02  0.51100000000E-03 0. -1.
        -11    1    3    3    0    0 -0.37487766820E+02 -0.17278887885E+02 -0.61200694096E+01  0.41729460547E+02  0.51100000000E-03 0.  1.
         12    1    3    3    0    0  0.36144709258E+02  0.67885638440E+01  0.76208765600E+01  0.37557986713E+02  0.00000000000E+00 0. -1.
</event>
<event>
 7    1  0.2404951E-015  0.9000770E+02  0.7816164E-02  0.1186339E+00
        -11   -1    0    0    0    0  0.00000000000E+00  0.00000000000E+00  0.45593999997E+02  0.45594000000E+02  0.51100000000E-03 0. -1.
         11   -1    0    0    0    0 -0.00000000000E+00 -0.00000000000E+00 -0.45593999997E+02  0.45594000000E+02  0.51100000000E-03 0.  1.
    9900012    2    1    2    0    0 -0.19558289058E+00 -0.10080657452E+01  0.58193426764E+00  0.90007704823E+02  0.89999965726E+02 0.  0.
         12    1    1    2    0    0  0.19558289058E+00  0.10080657452E+01 -0.58193426764E+00  0.11802951773E+01  0.00000000000E+00 0. -1.
         11    1    3    3    0    0 -0.50220616567E+01 -0.41926622622E+01  0.91087713330E+01  0.11214688386E+02  0.51100000000E-03 0. -1.
        -11    1    3    3    0    0  0.30660926035E+02  0.27490855019E+02 -0.12657745806E+02  0.43081991878E+02  0.51100000000E-03 0.  1.
         12    1    3    3    0    0 -0.25834447269E+02 -0.24306258502E+02  0.41309087408E+01  0.35711024559E+02  0.00000000000E+00 0. -1.
</event>
<event>
 7    1  0.2404951E-015  0.9000768E+02  0.7816164E-02  0.1186339E+00
        -11   -1    0    0    0    0  0.00000000000E+00  0.00000000000E+00  0.45593999997E+02  0.45594000000E+02  0.51100000000E-03 0.  1.
         11   -1    0    0    0    0 -0.00000000000E+00 -0.00000000000E+00 -0.45593999997E+02  0.45594000000E+02  0.51100000000E-03 0. -1.
    9900012    2    1    2    0    0  0.75039213211E+00 -0.76050387135E+00  0.50170266990E+00  0.90007677985E+02  0.89999938534E+02 0.  0.
         12    1    1    2    0    0 -0.75039213211E+00  0.76050387135E+00 -0.50170266990E+00  0.11803220151E+01  0.00000000000E+00 0. -1.
         11    1    3    3    0    0 -0.12988301708E+01  0.54270276071E+01  0.76509011430E+01  0.94697347916E+01  0.51100000000E-03 0. -1.
        -11    1    3    3    0    0 -0.15342388536E+01 -0.21234389699E+01  0.36479819051E+02  0.36573762183E+02  0.51100000000E-03 0.  1.
         12    1    3    3    0    0  0.35834611565E+01 -0.40640925086E+01 -0.43629017525E+02  0.43964181011E+02  0.00000000000E+00 0. -1.
</event>
<event>
 7    1  0.2404951E-015  0.9000748E+02  0.7816164E-02  0.1186340E+00
        -11   -1    0    0    0    0  0.00000000000E+00  0.00000000000E+00  0.45593999997E+02  0.45594000000E+02  0.51100000000E-03 0.  1.
         11   -1    0    0    0    0 -0.00000000000E+00 -0.00000000000E+00 -0.45593999997E+02  0.45594000000E+02  0.51100000000E-03 0. -1.
    9900012    2    1    2    0    0 -0.18086864807E+00  0.56105185387E+00  0.10228049191E+01  0.90007482083E+02  0.89999740046E+02 0.  0.
         12    1    1    2    0    0  0.18086864807E+00 -0.56105185387E+00 -0.10228049191E+01  0.11805179173E+01  0.00000000000E+00 0. -1.
         11    1    3    3    0    0  0.50587597711E+01 -0.26686075850E+02 -0.24659108933E+02  0.36685274271E+02  0.51100000000E-03 0. -1.
        -11    1    3    3    0    0 -0.18653745393E+00 -0.64797956867E+01 -0.44103553695E+01  0.78405218646E+01  0.51100000000E-03 0.  1.
        -12    1    3    3    0    0 -0.50530909653E+01  0.33726923391E+02  0.30092269221E+02  0.45481685947E+02  0.00000000000E+00 0.  1.
</event>
<event>
 7    1  0.2404951E-015  0.9000744E+02  0.7816164E-02  0.1186340E+00
        -11   -1    0    0    0    0  0.00000000000E+00  0.00000000000E+00  0.45593999997E+02  0.45594000000E+02  0.51100000000E-03 0.  1.
         11   -1    0    0    0    0 -0.00000000000E+00 -0.00000000000E+00 -0.45593999997E+02  0.45594000000E+02  0.51100000000E-03 0. -1.
    9900012    2    1    2    0    0  0.15035367111E+00 -0.70904182866E+00  0.93186322993E+00  0.90007442665E+02  0.89999700108E+02 0.  0.
         12    1    1    2    0    0 -0.15035367111E+00  0.70904182866E+00 -0.93186322993E+00  0.11805573347E+01  0.00000000000E+00 0. -1.
         11    1    3    3    0    0 -0.40301646756E+01 -0.78516470069E+01  0.42933821714E+01  0.98144647722E+01  0.51100000000E-03 0. -1.
        -11    1    3    3    0    0  0.27088760228E+02  0.33070886554E+02  0.85607741710E+01  0.43597836217E+02  0.51100000000E-03 0.  1.
         12    1    3    3    0    0 -0.22908241882E+02 -0.25928281376E+02 -0.11922293112E+02  0.36595141676E+02  0.00000000000E+00 0. -1.
</event>
<event>
 7    1  0.2404951E-015  0.9000771E+02  0.7816164E-02  0.1186339E+00
        -11   -1    0    0    0    0  0.00000000000E+00  0.00000000000E+00  0.45593999997E+02  0.45594000000E+02  0.51100000000E-03 0.  1.
         11   -1    0    0    0    0 -0.00000000000E+00 -0.00000000000E+00 -0.45593999997E+02  0.45594000000E+02  0.51100000000E-03 0. -1.
    9900012    2    1    2    0    0 -0.78838264667E+00  0.52905032203E-01  0.87678230580E+00  0.90007706243E+02  0.89999967166E+02 0.  0.
         12    1    1    2    0    0  0.78838264667E+00 -0.52905032203E-01 -0.87678230580E+00  0.11802937566E+01  0.00000000000E+00 0. -1.
         11    1    3    3    0    0 -0.68533531800E+01 -0.33513591322E+01  0.51298482197E+01  0.91932258136E+01  0.51100000000E-03 0. -1.
        -11    1    3    3    0    0 -0.31234032251E+02 -0.10168421875E+01  0.19062914490E+02  0.36605920939E+02  0.51100000000E-03 0.  1.
         12    1    3    3    0    0  0.37299002784E+02  0.44211063520E+01 -0.23315980404E+02  0.44208559491E+02  0.00000000000E+00 0. -1.
</event>
<event>
 7    1  0.2404951E-015  0.9000776E+02  0.7816164E-02  0.1186339E+00
        -11   -1    0    0    0    0  0.00000000000E+00  0.00000000000E+00  0.45593999997E+02  0.45594000000E+02  0.51100000000E-03 0. -1.
         11   -1    0    0    0    0 -0.00000000000E+00 -0.00000000000E+00 -0.45593999997E+02  0.45594000000E+02  0.51100000000E-03 0.  1.
    9900012    2    1    2    0    0 -0.56482538991E+00 -0.35294032879E-01 -0.10357119665E+01  0.90007757369E+02  0.90000018967E+02 0.  0.
         12    1    1    2    0    0  0.56482538991E+00  0.35294032879E-01  0.10357119665E+01  0.11802426307E+01  0.00000000000E+00 0. -1.
         11    1    3    3    0    0  0.11265011314E+02  0.13953033084E+01 -0.46803281987E+01  0.12278144140E+02  0.51100000000E-03 0. -1.
        -11    1    3    3    0    0 -0.74447282289E+01 -0.27936239398E+02 -0.25170605570E+02  0.38332973211E+02  0.51100000000E-03 0.  1.
         12    1    3    3    0    0 -0.43851084750E+01  0.26505642057E+02  0.28815221802E+02  0.39396640018E+02  0.00000000000E+00 0. -1.
</event>
<event>
 7    1  0.2404951E-015  0.9000772E+02  0.7816164E-02  0.1186339E+00
        -11   -1    0    0    0    0  0.00000000000E+00  0.00000000000E+00  0.45593999997E+02  0.45594000000E+02  0.51100000000E-03 0.  1.
         11   -1    0    0    0    0 -0.00000000000E+00 -0.00000000000E+00 -0.45593999997E+02  0.45594000000E+02  0.51100000000E-03 0. -1.
    9900012    2    1    2    0    0  0.78236562113E+00 -0.87686062583E+00  0.10986787193E+00  0.90007723985E+02  0.89999985142E+02 0.  0.
         12    1    1    2    0    0 -0.78236562113E+00  0.87686062583E+00 -0.10986787193E+00  0.11802760150E+01  0.00000000000E+00 0. -1.
         11    1    3    3    0    0  0.11640372296E+02  0.37446145497E+00 -0.12874767737E+01  0.11717341221E+02  0.51100000000E-03 0. -1.
        -11    1    3    3    0    0  0.21467728443E+02 -0.11895584149E+02  0.26410590552E+02  0.36053953741E+02  0.51100000000E-03 0.  1.
         12    1    3    3    0    0 -0.32325735118E+02  0.10644262069E+02 -0.25013245907E+02  0.42236429024E+02  0.00000000000E+00 0. -1.
</event>
<event>
 7    1  0.2404951E-015  0.9000771E+02  0.7816164E-02  0.1186339E+00
        -11   -1    0    0    0    0  0.00000000000E+00  0.00000000000E+00  0.45593999997E+02  0.45594000000E+02  0.51100000000E-03 0. -1.
         11   -1    0    0    0    0 -0.00000000000E+00 -0.00000000000E+00 -0.45593999997E+02  0.45594000000E+02  0.51100000000E-03 0.  1.
    9900012    2    1    2    0    0 -0.49293093049E+00 -0.97970958075E+00 -0.43620701910E+00  0.90007708371E+02  0.89999969322E+02 0.  0.
         12    1    1    2    0    0  0.49293093049E+00  0.97970958075E+00  0.43620701910E+00  0.11802916285E+01  0.00000000000E+00 0. -1.
         11    1    3    3    0    0 -0.38787706422E+01  0.44390186208E+01 -0.72926883030E+01  0.93772624446E+01  0.51100000000E-03 0. -1.
        -11    1    3    3    0    0 -0.14926502676E+02  0.32834769278E+02 -0.54325400532E+01  0.36475129162E+02  0.51100000000E-03 0.  1.
         12    1    3    3    0    0  0.18312342388E+02 -0.38253497480E+02  0.12289021337E+02  0.44155316765E+02  0.00000000000E+00 0. -1.
</event>
<event>
 7    1  0.2404951E-015  0.9000740E+02  0.7816164E-02  0.1186340E+00
        -11   -1    0    0    0    0  0.00000000000E+00  0.00000000000E+00  0.45593999997E+02  0.45594000000E+02  0.51100000000E-03 0. -1.
         11   -1    0    0    0    0 -0.00000000000E+00 -0.00000000000E+00 -0.45593999997E+02  0.45594000000E+02  0.51100000000E-03 0.  1.
    9900012    2    1    2    0    0  0.79836503381E+00 -0.61431294656E+00 -0.61566255518E+00  0.90007403750E+02  0.89999660679E+02 0.  0.
         12    1    1    2    0    0 -0.79836503381E+00  0.61431294656E+00  0.61566255518E+00  0.11805962499E+01  0.00000000000E+00 0. -1.
         11    1    3    3    0    0  0.31931108144E+02 -0.20365234241E+02 -0.61607926722E+01  0.38370480837E+02  0.51100000000E-03 0. -1.
        -11    1    3    3    0    0  0.70004417490E+01  0.51890545988E+01  0.63956370722E+01  0.10809100154E+02  0.51100000000E-03 0.  1.
        -12    1    3    3    0    0 -0.38133184860E+02  0.14561866696E+02 -0.85050695520E+00  0.40827822760E+02  0.00000000000E+00 0.  1.
</event>
<event>
 7    1  0.2404951E-015  0.9000764E+02  0.7816164E-02  0.1186339E+00
        -11   -1    0    0    0    0  0.00000000000E+00  0.00000000000E+00  0.45593999997E+02  0.45594000000E+02  0.51100000000E-03 0. -1.
         11   -1    0    0    0    0 -0.00000000000E+00 -0.00000000000E+00 -0.45593999997E+02  0.45594000000E+02  0.51100000000E-03 0.  1.
    9900012    2    1    2    0    0  0.14711701756E+00  0.91134314620E+00  0.73556208248E+00  0.90007643561E+02  0.89999903655E+02 0.  0.
         12    1    1    2    0    0 -0.14711701756E+00 -0.91134314620E+00 -0.73556208248E+00  0.11803564395E+01  0.00000000000E+00 0. -1.
         11    1    3    3    0    0  0.27059070853E+02 -0.30656824120E+02 -0.30564651485E+00  0.40891656858E+02  0.51100000000E-03 0. -1.
        -11    1    3    3    0    0 -0.78546528167E+01 -0.26766469687E+01  0.50613249584E+01  0.97199290359E+01  0.51100000000E-03 0.  1.
        -12    1    3    3    0    0 -0.19057301019E+02  0.34244814235E+02 -0.40201163611E+01  0.39396057666E+02  0.00000000000E+00 0.  1.
</event>
<event>
 7    1  0.5967437E-015  0.9000763E+02  0.7816164E-02  0.1186339E+00
        -11   -1    0    0    0    0  0.00000000000E+00  0.00000000000E+00  0.45593999997E+02  0.45594000000E+02  0.51100000000E-03 0. -1.
         11   -1    0    0    0    0 -0.00000000000E+00 -0.00000000000E+00 -0.45593999997E+02  0.45594000000E+02  0.51100000000E-03 0.  1.
    9900012    2    1    2    0    0  0.82366426471E+00  0.24499503719E+00 -0.80921122237E+00  0.90007632180E+02  0.89999892124E+02 0.  0.
         12    1    1    2    0    0 -0.82366426471E+00 -0.24499503719E+00  0.80921122237E+00  0.11803678205E+01  0.00000000000E+00 0. -1.
         11    1    3    3    0    0  0.24699444495E+02 -0.47112879666E+01  0.28669419164E+02  0.38133900773E+02  0.51100000000E-03 0. -1.
        -11    1    3    3    0    0  0.89410602638E+01 -0.26161824788E+00 -0.31672847494E+01  0.94890829743E+01  0.51100000000E-03 0.  1.
        -12    1    3    3    0    0 -0.32816840494E+02  0.52179012516E+01 -0.26311345637E+02  0.42384648432E+02  0.00000000000E+00 0.  1.
</event>
<event>
 7    1  0.2404951E-015  0.9000771E+02  0.7816164E-02  0.1186339E+00
        -11   -1    0    0    0    0  0.00000000000E+00  0.00000000000E+00  0.45593999997E+02  0.45594000000E+02  0.51100000000E-03 0.  1.
         11   -1    0    0    0    0 -0.00000000000E+00 -0.00000000000E+00 -0.45593999997E+02  0.45594000000E+02  0.51100000000E-03 0. -1.
    9900012    2    1    2    0    0 -0.97848221268E+00 -0.61514704773E+00  0.23926430992E+00  0.90007711586E+02  0.89999972579E+02 0.  0.
         12    1    1    2    0    0  0.97848221268E+00  0.61514704773E+00 -0.23926430992E+00  0.11802884143E+01  0.00000000000E+00 0. -1.
         11    1    3    3    0    0  0.54847767596E+01  0.11722911919E+02  0.32031732425E+02  0.34547667394E+02  0.51100000000E-03 0. -1.
        -11    1    3    3    0    0  0.89961333376E+01  0.10340861311E+01  0.71109339377E+01  0.11513693190E+02  0.51100000000E-03 0.  1.
        -12    1    3    3    0    0 -0.15459392310E+02 -0.13372145098E+02 -0.38903402052E+02  0.43946351002E+02  0.00000000000E+00 0.  1.
</event>
<event>
 7    1  0.2404951E-015  0.9000776E+02  0.7816164E-02  0.1186339E+00
        -11   -1    0    0    0    0  0.00000000000E+00  0.00000000000E+00  0.45593999997E+02  0.45594000000E+02  0.51100000000E-03 0.  1.
         11   -1    0    0    0    0 -0.00000000000E+00 -0.00000000000E+00 -0.45593999997E+02  0.45594000000E+02  0.51100000000E-03 0. -1.
    9900012    2    1    2    0    0 -0.77968488925E+00  0.25736527968E+00  0.84782625235E+00  0.90007764952E+02  0.90000026650E+02 0.  0.
         12    1    1    2    0    0  0.77968488925E+00 -0.25736527968E+00 -0.84782625235E+00  0.11802350477E+01  0.00000000000E+00 0. -1.
         11    1    3    3    0    0  0.60304791875E+01  0.49629641198E+01 -0.49220074418E+01  0.92316764243E+01  0.51100000000E-03 0. -1.
        -11    1    3    3    0    0  0.86035556431E+01  0.22404566035E+02  0.32018166656E+02  0.40014356739E+02  0.51100000000E-03 0.  1.
         12    1    3    3    0    0 -0.15413719720E+02 -0.27110164875E+02 -0.26248332962E+02  0.40761731789E+02  0.00000000000E+00 0. -1.
</event>
<event>
 7    1  0.2404951E-015  0.9000762E+02  0.7816164E-02  0.1186339E+00
        -11   -1    0    0    0    0  0.00000000000E+00  0.00000000000E+00  0.45593999997E+02  0.45594000000E+02  0.51100000000E-03 0.  1.
         11   -1    0    0    0    0 -0.00000000000E+00 -0.00000000000E+00 -0.45593999997E+02  0.45594000000E+02  0.51100000000E-03 0. -1.
    9900012    2    1    2    0    0 -0.10485652544E+01  0.40360683301E+00  0.36181083251E+00  0.90007620973E+02  0.89999880770E+02 0.  0.
         12    1    1    2    0    0  0.10485652544E+01 -0.40360683301E+00 -0.36181083251E+00  0.11803790268E+01  0.00000000000E+00 0. -1.
         11    1    3    3    0    0  0.67377661281E+01  0.75429964554E+01  0.20440744438E+01  0.10318552637E+02  0.51100000000E-03 0. -1.
        -11    1    3    3    0    0 -0.94173675118E+01  0.35503320208E+02  0.24675719353E+01  0.36813876027E+02  0.51100000000E-03 0.  1.
         12    1    3    3    0    0  0.16310361293E+01 -0.42642709830E+02 -0.41498355466E+01  0.42875192309E+02  0.00000000000E+00 0. -1.
</event>
<event>
 7    1  0.2404951E-015  0.9000775E+02  0.7816164E-02  0.1186339E+00
        -11   -1    0    0    0    0  0.00000000000E+00  0.00000000000E+00  0.45593999997E+02  0.45594000000E+02  0.51100000000E-03 0.  1.
         11   -1    0    0    0    0 -0.00000000000E+00 -0.00000000000E+00 -0.45593999997E+02  0.45594000000E+02  0.51100000000E-03 0. -1.
    9900012    2    1    2    0    0  0.48493980270E+00  0.10717330273E+01  0.95947805691E-01  0.90007752452E+02  0.90000013984E+02 0.  0.
         12    1    1    2    0    0 -0.48493980270E+00 -0.10717330273E+01 -0.95947805691E-01  0.11802475484E+01  0.00000000000E+00 0. -1.
         11    1    3    3    0    0 -0.33007794350E+01  0.43907926340E+01 -0.13058196883E+02  0.14166534895E+02  0.51100000000E-03 0. -1.
        -11    1    3    3    0    0  0.18631777542E+02  0.31634271811E+02  0.67986583446E+01  0.37337542004E+02  0.51100000000E-03 0.  1.
         12    1    3    3    0    0 -0.14846058304E+02 -0.34953331418E+02  0.63554863445E+01  0.38503675552E+02  0.00000000000E+00 0. -1.
</event>
<event>
 7    1  0.2613212E-015  0.9000776E+02  0.7816164E-02  0.1186339E+00
        -11   -1    0    0    0    0  0.00000000000E+00  0.00000000000E+00  0.45593999997E+02  0.45594000000E+02  0.51100000000E-03 0.  1.
         11   -1    0    0    0    0 -0.00000000000E+00 -0.00000000000E+00 -0.45593999997E+02  0.45594000000E+02  0.51100000000E-03 0. -1.
    9900012    2    1    2    0    0 -0.42489675897E-01  0.92723302825E+00  0.72896968578E+00  0.90007761353E+02  0.90000023003E+02 0.  0.
         12    1    1    2    0    0  0.42489675897E-01 -0.92723302825E+00 -0.72896968578E+00  0.11802386471E+01  0.00000000000E+00 0. -1.
         11    1    3    3    0    0  0.76725259803E+01 -0.71033233025E+01 -0.35738324546E+02  0.37236443150E+02  0.51100000000E-03 0. -1.
        -11    1    3    3    0    0 -0.57088483787E+01 -0.28699713011E+01 -0.60703302353E+01  0.88134326177E+01  0.51100000000E-03 0.  1.
        -12    1    3    3    0    0 -0.20061672776E+01  0.10900527632E+02  0.42537624467E+02  0.43957885585E+02  0.00000000000E+00 0.  1.
</event>
<event>
 7    1  0.2404951E-015  0.9000765E+02  0.7816164E-02  0.1186339E+00
        -11   -1    0    0    0    0  0.00000000000E+00  0.00000000000E+00  0.45593999997E+02  0.45594000000E+02  0.51100000000E-03 0. -1.
         11   -1    0    0    0    0 -0.00000000000E+00 -0.00000000000E+00 -0.45593999997E+02  0.45594000000E+02  0.51100000000E-03 0.  1.
    9900012    2    1    2    0    0 -0.10543412335E+01  0.38604821394E+00 -0.36409189388E+00  0.90007647694E+02  0.89999907843E+02 0.  0.
         12    1    1    2    0    0  0.10543412335E+01 -0.38604821394E+00  0.36409189388E+00  0.11803523065E+01  0.00000000000E+00 0. -1.
         11    1    3    3    0    0  0.73143310946E+01 -0.43693827215E+01  0.38145189149E+01  0.93349611431E+01  0.51100000000E-03 0. -1.
        -11    1    3    3    0    0  0.34079712351E+02  0.38413421487E+00  0.10310135654E+02  0.35607207845E+02  0.51100000000E-03 0.  1.
         12    1    3    3    0    0 -0.42448384679E+02  0.43712967206E+01 -0.14488746463E+02  0.45065478706E+02  0.00000000000E+00 0. -1.
</event>
<event>
 7    1  0.2404951E-015  0.9000778E+02  0.7816164E-02  0.1186339E+00
        -11   -1    0    0    0    0  0.00000000000E+00  0.00000000000E+00  0.45593999997E+02  0.45594000000E+02  0.51100000000E-03 0. -1.
         11   -1    0    0    0    0 -0.00000000000E+00 -0.00000000000E+00 -0.45593999997E+02  0.45594000000E+02  0.51100000000E-03 0.  1.
    9900012    2    1    2    0    0  0.88107208295E+00 -0.76898910615E+00  0.15904553437E+00  0.90007776401E+02  0.90000038250E+02 0.  0.
         12    1    1    2    0    0 -0.88107208295E+00  0.76898910615E+00 -0.15904553437E+00  0.11802235986E+01  0.00000000000E+00 0. -1.
         11    1    3    3    0    0  0.14191972401E+01 -0.87619483623E+01 -0.74673696228E+01  0.11599459869E+02  0.51100000000E-03 0. -1.
        -11    1    3    3    0    0  0.22487704485E+02  0.15398241316E+02 -0.25545456177E+02  0.37354692077E+02  0.51100000000E-03 0.  1.
         12    1    3    3    0    0 -0.23025829643E+02 -0.74052820593E+01  0.33171871334E+02  0.41053624455E+02  0.00000000000E+00 0. -1.
</event>
<event>
 7    1  0.2404951E-015  0.9000782E+02  0.7816164E-02  0.1186339E+00
        -11   -1    0    0    0    0  0.00000000000E+00  0.00000000000E+00  0.45593999997E+02  0.45594000000E+02  0.51100000000E-03 0.  1.
         11   -1    0    0    0    0 -0.00000000000E+00 -0.00000000000E+00 -0.45593999997E+02  0.45594000000E+02  0.51100000000E-03 0. -1.
    9900012    2    1    2    0    0 -0.21593451578E+00  0.29887060620E+00  0.11211030155E+01  0.90007820638E+02  0.90000083071E+02 0.  0.
         12    1    1    2    0    0  0.21593451578E+00 -0.29887060620E+00 -0.11211030155E+01  0.11801793617E+01  0.00000000000E+00 0. -1.
         11    1    3    3    0    0 -0.27724269055E+01  0.19698468761E+01 -0.10672091898E+02  0.11200901454E+02  0.51100000000E-03 0. -1.
        -11    1    3    3    0    0  0.61723301574E+01 -0.37909590685E+02  0.17027859840E+02  0.42014077837E+02  0.51100000000E-03 0.  1.
         12    1    3    3    0    0 -0.36158377678E+01  0.36238614415E+02 -0.52346649267E+01  0.36792841347E+02  0.00000000000E+00 0. -1.
</event>
<event>
 7    1  0.2404951E-015  0.9000772E+02  0.7816164E-02  0.1186339E+00
        -11   -1    0    0    0    0  0.00000000000E+00  0.00000000000E+00  0.45593999997E+02  0.45594000000E+02  0.51100000000E-03 0. -1.
         11   -1    0    0    0    0 -0.00000000000E+00 -0.00000000000E+00 -0.45593999997E+02  0.45594000000E+02  0.51100000000E-03 0.  1.
    9900012    2    1    2    0    0 -0.67191252888E+00 -0.93591037991E+00  0.25626146046E+00  0.90007718414E+02  0.89999979497E+02 0.  0.
         12    1    1    2    0    0  0.67191252888E+00  0.93591037991E+00 -0.25626146046E+00  0.11802815858E+01  0.00000000000E+00 0. -1.
         11    1    3    3    0    0  0.15193862072E+01  0.42006190671E+01  0.23215752533E+02  0.23641592606E+02  0.51100000000E-03 0. -1.
        -11    1    3    3    0    0  0.12906652601E+02 -0.19031748460E+02  0.11918138436E+02  0.25900408391E+02  0.51100000000E-03 0.  1.
         12    1    3    3    0    0 -0.15097951337E+02  0.13895219013E+02 -0.34877629509E+02  0.40465717418E+02  0.00000000000E+00 0. -1.
</event>
<event>
 7    1  0.2404951E-015  0.9000762E+02  0.7816164E-02  0.1186339E+00
        -11   -1    0    0    0    0  0.00000000000E+00  0.00000000000E+00  0.45593999997E+02  0.45594000000E+02  0.51100000000E-03 0.  1.
         11   -1    0    0    0    0 -0.00000000000E+00 -0.00000000000E+00 -0.45593999997E+02  0.45594000000E+02  0.51100000000E-03 0. -1.
    9900012    2    1    2    0    0  0.64186405231E+00  0.70931619090E+00  0.69149865888E+00  0.90007623232E+02  0.89999883058E+02 0.  0.
         12    1    1    2    0    0 -0.64186405231E+00 -0.70931619090E+00 -0.69149865888E+00  0.11803767685E+01  0.00000000000E+00 0. -1.
         11    1    3    3    0    0 -0.10370223689E+02  0.37117994816E+01  0.84212762490E+00  0.11046636318E+02  0.51100000000E-03 0. -1.
        -11    1    3    3    0    0 -0.15911342736E+02 -0.16358051462E+02  0.29128164767E+02  0.37002792573E+02  0.51100000000E-03 0.  1.
         12    1    3    3    0    0  0.26923430478E+02  0.13355568171E+02 -0.29278793733E+02  0.41958194340E+02  0.00000000000E+00 0. -1.
</event>
<event>
 7    1  0.2404951E-015  0.9000809E+02  0.7816164E-02  0.1186338E+00
        -11   -1    0    0    0    0  0.00000000000E+00  0.00000000000E+00  0.45593999997E+02  0.45594000000E+02  0.51100000000E-03 0. -1.
         11   -1    0    0    0    0 -0.00000000000E+00 -0.00000000000E+00 -0.45593999997E+02  0.45594000000E+02  0.51100000000E-03 0.  1.
    9900012    2    1    2    0    0  0.54371223788E+00  0.88032475335E+00 -0.56710133166E+00  0.90008085347E+02  0.90000351272E+02 0.  0.
         12    1    1    2    0    0 -0.54371223788E+00 -0.88032475335E+00  0.56710133166E+00  0.11799146534E+01  0.00000000000E+00 0. -1.
         11    1    3    3    0    0 -0.15907404837E+01 -0.59823177044E+01 -0.63516905032E+01  0.88691912208E+01  0.51100000000E-03 0. -1.
        -11    1    3    3    0    0  0.54770222329E+01 -0.28167367929E+02 -0.22117914449E+02  0.36229829263E+02  0.51100000000E-03 0.  1.
         12    1    3    3    0    0 -0.33425695113E+01  0.35030010387E+02  0.27902503620E+02  0.44909064863E+02  0.00000000000E+00 0. -1.
</event>
<event>
 7    1  0.2404951E-015  0.9000726E+02  0.7816164E-02  0.1186340E+00
        -11   -1    0    0    0    0  0.00000000000E+00  0.00000000000E+00  0.45593999997E+02  0.45594000000E+02  0.51100000000E-03 0.  1.
         11   -1    0    0    0    0 -0.00000000000E+00 -0.00000000000E+00 -0.45593999997E+02  0.45594000000E+02  0.51100000000E-03 0. -1.
    9900012    2    1    2    0    0  0.11296120955E+01 -0.21654585154E+00  0.26687144782E+00  0.90007264652E+02  0.89999519744E+02 0.  0.
         12    1    1    2    0    0 -0.11296120955E+01  0.21654585154E+00 -0.26687144782E+00  0.11807353479E+01  0.00000000000E+00 0. -1.
         11    1    3    3    0    0  0.27790818528E+02 -0.33536268338E+02  0.18022222270E+01  0.43591959048E+02  0.51100000000E-03 0. -1.
        -11    1    3    3    0    0 -0.97599868267E+01  0.46113510499E+01 -0.66978831574E+01  0.12703682160E+02  0.51100000000E-03 0.  1.
        -12    1    3    3    0    0 -0.16901219605E+02  0.28708371436E+02  0.51625323783E+01  0.33711623444E+02  0.00000000000E+00 0.  1.
</event>
<event>
 7    1  0.2404951E-015  0.9000772E+02  0.7816164E-02  0.1186339E+00
        -11   -1    0    0    0    0  0.00000000000E+00  0.00000000000E+00  0.45593999997E+02  0.45594000000E+02  0.51100000000E-03 0. -1.
         11   -1    0    0    0    0 -0.00000000000E+00 -0.00000000000E+00 -0.45593999997E+02  0.45594000000E+02  0.51100000000E-03 0.  1.
    9900012    2    1    2    0    0  0.86937365007E+00  0.86850000494E-01 -0.79354722922E+00  0.90007715852E+02  0.89999976901E+02 0.  0.
         12    1    1    2    0    0 -0.86937365007E+00 -0.86850000494E-01  0.79354722922E+00  0.11802841484E+01  0.00000000000E+00 0. -1.
         11    1    3    3    0    0 -0.32520808056E+01 -0.45655248864E+01 -0.75814498845E+01  0.94285963785E+01  0.51100000000E-03 0. -1.
        -11    1    3    3    0    0  0.33237337953E+02 -0.19745721483E+02 -0.85808457843E+01  0.39601074047E+02  0.51100000000E-03 0.  1.
         12    1    3    3    0    0 -0.29115883497E+02  0.24398096370E+02  0.15368748440E+02  0.40978045426E+02  0.00000000000E+00 0. -1.
</event>
<event>
 7    1  0.2404951E-015  0.9000768E+02  0.7816164E-02  0.1186339E+00
        -11   -1    0    0    0    0  0.00000000000E+00  0.00000000000E+00  0.45593999997E+02  0.45594000000E+02  0.51100000000E-03 0.  1.
         11   -1    0    0    0    0 -0.00000000000E+00 -0.00000000000E+00 -0.45593999997E+02  0.45594000000E+02  0.51100000000E-03 0. -1.
    9900012    2    1    2    0    0 -0.50112244705E+00 -0.83538732710E+00 -0.66645330486E+00  0.90007679831E+02  0.89999940405E+02 0.  0.
         12    1    1    2    0    0  0.50112244705E+00  0.83538732710E+00  0.66645330486E+00  0.11803201688E+01  0.00000000000E+00 0. -1.
         11    1    3    3    0    0  0.56155319172E+01  0.50034858853E+01 -0.71971457561E+01  0.10409994093E+02  0.51100000000E-03 0. -1.
        -11    1    3    3    0    0  0.17213802750E+02  0.27346107227E+02 -0.12681987676E+02  0.34712496270E+02  0.51100000000E-03 0.  1.
         12    1    3    3    0    0 -0.23330457114E+02 -0.33184980440E+02  0.19212680127E+02  0.44885189469E+02  0.00000000000E+00 0. -1.
</event>
<event>
 7    1  0.2404951E-015  0.9000775E+02  0.7816164E-02  0.1186339E+00
        -11   -1    0    0    0    0  0.00000000000E+00  0.00000000000E+00  0.45593999997E+02  0.45594000000E+02  0.51100000000E-03 0.  1.
         11   -1    0    0    0    0 -0.00000000000E+00 -0.00000000000E+00 -0.45593999997E+02  0.45594000000E+02  0.51100000000E-03 0. -1.
    9900012    2    1    2    0    0  0.16308704103E+00  0.85186229544E-03  0.11689323036E+01  0.90007745435E+02  0.90000006874E+02 0.  0.
         12    1    1    2    0    0 -0.16308704103E+00 -0.85186229544E-03 -0.11689323036E+01  0.11802545653E+01  0.00000000000E+00 0. -1.
         11    1    3    3    0    0 -0.10495425139E+00  0.87481916205E+01  0.25661749076E+01  0.91174078521E+01  0.51100000000E-03 0. -1.
        -11    1    3    3    0    0 -0.87703903574E+01 -0.35279789821E+02  0.23592725519E+02  0.43338205022E+02  0.51100000000E-03 0.  1.
         12    1    3    3    0    0  0.90384316499E+01  0.26532450063E+02 -0.24989968123E+02  0.37552132560E+02  0.00000000000E+00 0. -1.
</event>
<event>
 7    1  0.2404951E-015  0.9000774E+02  0.7816164E-02  0.1186339E+00
        -11   -1    0    0    0    0  0.00000000000E+00  0.00000000000E+00  0.45593999997E+02  0.45594000000E+02  0.51100000000E-03 0. -1.
         11   -1    0    0    0    0 -0.00000000000E+00 -0.00000000000E+00 -0.45593999997E+02  0.45594000000E+02  0.51100000000E-03 0.  1.
    9900012    2    1    2    0    0  0.27437979293E+00  0.11419862756E+01  0.11658034904E+00  0.90007742442E+02  0.90000003843E+02 0.  0.
         12    1    1    2    0    0 -0.27437979293E+00 -0.11419862756E+01 -0.11658034904E+00  0.11802575576E+01  0.00000000000E+00 0. -1.
         11    1    3    3    0    0 -0.63671998840E+00  0.57424539096E+01  0.75515940847E+01  0.95082996760E+01  0.51100000000E-03 0. -1.
        -11    1    3    3    0    0 -0.32485961179E+02  0.20349972509E+02 -0.12391830920E+01  0.38353547813E+02  0.51100000000E-03 0.  1.
         12    1    3    3    0    0  0.33397060960E+02 -0.24950440143E+02 -0.61958306436E+01  0.42145894954E+02  0.00000000000E+00 0. -1.
</event>
<event>
 7    1  0.2404951E-015  0.9000775E+02  0.7816164E-02  0.1186339E+00
        -11   -1    0    0    0    0  0.00000000000E+00  0.00000000000E+00  0.45593999997E+02  0.45594000000E+02  0.51100000000E-03 0.  1.
         11   -1    0    0    0    0 -0.00000000000E+00 -0.00000000000E+00 -0.45593999997E+02  0.45594000000E+02  0.51100000000E-03 0. -1.
    9900012    2    1    2    0    0 -0.39531464193E+00  0.24345340110E+00  0.10850995506E+01  0.90007752458E+02  0.90000013991E+02 0.  0.
         12    1    1    2    0    0  0.39531464193E+00 -0.24345340110E+00 -0.10850995506E+01  0.11802475415E+01  0.00000000000E+00 0. -1.
         11    1    3    3    0    0  0.16869030957E+01 -0.14934836433E+02 -0.37670882586E+02  0.40558480943E+02  0.51100000000E-03 0. -1.
        -11    1    3    3    0    0 -0.89117255779E+01 -0.33374121691E+01  0.61324517987E+01  0.11320960122E+02  0.51100000000E-03 0.  1.
        -12    1    3    3    0    0  0.68295078403E+01  0.18515702003E+02  0.32623530338E+02  0.38128311393E+02  0.00000000000E+00 0.  1.
</event>
<event>
 7    1  0.2404951E-015  0.9000775E+02  0.7816164E-02  0.1186339E+00
        -11   -1    0    0    0    0  0.00000000000E+00  0.00000000000E+00  0.45593999997E+02  0.45594000000E+02  0.51100000000E-03 0.  1.
         11   -1    0    0    0    0 -0.00000000000E+00 -0.00000000000E+00 -0.45593999997E+02  0.45594000000E+02  0.51100000000E-03 0. -1.
    9900012    2    1    2    0    0  0.38633160864E+00 -0.23307848677E+00  0.10906012660E+01  0.90007750529E+02  0.90000012036E+02 0.  0.
         12    1    1    2    0    0 -0.38633160864E+00  0.23307848677E+00 -0.10906012660E+01  0.11802494712E+01  0.00000000000E+00 0. -1.
         11    1    3    3    0    0  0.83701374381E+01  0.37753958324E+02  0.42129395103E+01  0.38899478524E+02  0.51100000000E-03 0. -1.
        -11    1    3    3    0    0  0.37456728562E+01  0.54320728343E+00 -0.95958452994E+01  0.10315298666E+02  0.51100000000E-03 0.  1.
        -12    1    3    3    0    0 -0.11729478686E+02 -0.38530244094E+02  0.64735070551E+01  0.40792973339E+02  0.00000000000E+00 0.  1.
</event>
<event>
 7    1  0.2404951E-015  0.9000774E+02  0.7816164E-02  0.1186339E+00
        -11   -1    0    0    0    0  0.00000000000E+00  0.00000000000E+00  0.45593999997E+02  0.45594000000E+02  0.51100000000E-03 0.  1.
         11   -1    0    0    0    0 -0.00000000000E+00 -0.00000000000E+00 -0.45593999997E+02  0.45594000000E+02  0.51100000000E-03 0. -1.
    9900012    2    1    2    0    0 -0.99611666993E+00 -0.62886149949E+00  0.72754247184E-01  0.90007742237E+02  0.90000003635E+02 0.  0.
         12    1    1    2    0    0  0.99611666993E+00  0.62886149949E+00 -0.72754247184E-01  0.11802577626E+01  0.00000000000E+00 0. -1.
         11    1    3    3    0    0 -0.13019586275E+02 -0.50257412370E+01 -0.81602271893E+01  0.16166539821E+02  0.51100000000E-03 0. -1.
        -11    1    3    3    0    0  0.94581591188E+01  0.38231923345E+02  0.28826539401E+01  0.39489826925E+02  0.51100000000E-03 0.  1.
         12    1    3    3    0    0  0.25653104858E+01 -0.33835043608E+02  0.53503274964E+01  0.34351375491E+02  0.00000000000E+00 0. -1.
</event>
<event>
 7    1  0.2404951E-015  0.9000776E+02  0.7816164E-02  0.1186339E+00
        -11   -1    0    0    0    0  0.00000000000E+00  0.00000000000E+00  0.45593999997E+02  0.45594000000E+02  0.51100000000E-03 0. -1.
         11   -1    0    0    0    0 -0.00000000000E+00 -0.00000000000E+00 -0.45593999997E+02  0.45594000000E+02  0.51100000000E-03 0.  1.
    9900012    2    1    2    0    0 -0.84528017936E-01 -0.10301374946E+01 -0.56976131240E+00  0.90007764347E+02  0.90000026036E+02 0.  0.
         12    1    1    2    0    0  0.84528017936E-01  0.10301374946E+01  0.56976131240E+00  0.11802356531E+01  0.00000000000E+00 0. -1.
         11    1    3    3    0    0 -0.30347729352E+02 -0.29705522066E+02  0.59184401572E+01  0.42876924472E+02  0.51100000000E-03 0. -1.
        -11    1    3    3    0    0 -0.12548737649E+01  0.85872594999E+01 -0.43157495666E+01  0.96923386480E+01  0.51100000000E-03 0.  1.
        -12    1    3    3    0    0  0.31518075099E+02  0.20088125072E+02 -0.21724519030E+01  0.37438501227E+02  0.00000000000E+00 0.  1.
</event>
<event>
 7    1  0.2404951E-015  0.9000782E+02  0.7816164E-02  0.1186339E+00
        -11   -1    0    0    0    0  0.00000000000E+00  0.00000000000E+00  0.45593999997E+02  0.45594000000E+02  0.51100000000E-03 0. -1.
         11   -1    0    0    0    0 -0.00000000000E+00 -0.00000000000E+00 -0.45593999997E+02  0.45594000000E+02  0.51100000000E-03 0.  1.
    9900012    2    1    2    0    0 -0.78285986918E+00  0.78439194868E+00 -0.40580729487E+00  0.90007822105E+02  0.90000084556E+02 0.  0.
         12    1    1    2    0    0  0.78285986918E+00 -0.78439194868E+00  0.40580729487E+00  0.11801778953E+01  0.00000000000E+00 0. -1.
         11    1    3    3    0    0 -0.28507132864E+02 -0.27929669130E+02  0.16368898141E+01  0.39942489286E+02  0.51100000000E-03 0. -1.
        -11    1    3    3    0    0  0.83807394469E+01 -0.59740991173E+01  0.67783364180E-01  0.10292290745E+02  0.51100000000E-03 0.  1.
        -12    1    3    3    0    0  0.19343533548E+02  0.34688160196E+02 -0.21104804731E+01  0.39773042073E+02  0.00000000000E+00 0.  1.
</event>
<event>
 7    1  0.2404951E-015  0.9000758E+02  0.7816164E-02  0.1186339E+00
        -11   -1    0    0    0    0  0.00000000000E+00  0.00000000000E+00  0.45593999997E+02  0.45594000000E+02  0.51100000000E-03 0.  1.
         11   -1    0    0    0    0 -0.00000000000E+00 -0.00000000000E+00 -0.45593999997E+02  0.45594000000E+02  0.51100000000E-03 0. -1.
    9900012    2    1    2    0    0  0.88002590882E+00  0.48111925136E-01  0.78526560427E+00  0.90007575319E+02  0.89999834513E+02 0.  0.
         12    1    1    2    0    0 -0.88002590882E+00 -0.48111925136E-01 -0.78526560427E+00  0.11804246807E+01  0.00000000000E+00 0. -1.
         11    1    3    3    0    0  0.99399074492E+01 -0.36057151178E+02 -0.10156202927E+02  0.38756526797E+02  0.51100000000E-03 0. -1.
        -11    1    3    3    0    0 -0.20472313686E+01 -0.37689117226E+01  0.98577646077E+01  0.10750412791E+02  0.51100000000E-03 0.  1.
        -12    1    3    3    0    0 -0.70126501718E+01  0.39874174826E+02  0.10837039234E+01  0.40500635732E+02  0.00000000000E+00 0.  1.
</event>
<event>
 7    1  0.2404951E-015  0.9000780E+02  0.7816164E-02  0.1186339E+00
        -11   -1    0    0    0    0  0.00000000000E+00  0.00000000000E+00  0.45593999997E+02  0.45594000000E+02  0.51100000000E-03 0.  1.
         11   -1    0    0    0    0 -0.00000000000E+00 -0.00000000000E+00 -0.45593999997E+02  0.45594000000E+02  0.51100000000E-03 0. -1.
    9900012    2    1    2    0    0  0.64491179118E+00 -0.60114279019E+00  0.78460082817E+00  0.90007795640E+02  0.90000057742E+02 0.  0.
         12    1    1    2    0    0 -0.64491179118E+00  0.60114279019E+00 -0.78460082817E+00  0.11802043603E+01  0.00000000000E+00 0. -1.
         11    1    3    3    0    0 -0.84136412405E+01  0.62329309799E+00 -0.38153961032E+01  0.92593250778E+01  0.51100000000E-03 0. -1.
        -11    1    3    3    0    0 -0.24863064209E+02 -0.14548830106E+02  0.25727082870E+02  0.38622832789E+02  0.51100000000E-03 0.  1.
         12    1    3    3    0    0  0.33921617241E+02  0.13324394218E+02 -0.21127085939E+02  0.42125637773E+02  0.00000000000E+00 0. -1.
</event>
<event>
 7    1  0.2404951E-015  0.9000774E+02  0.7816164E-02  0.1186339E+00
        -11   -1    0    0    0    0  0.00000000000E+00  0.00000000000E+00  0.45593999997E+02  0.45594000000E+02  0.51100000000E-03 0. -1.
         11   -1    0    0    0    0 -0.00000000000E+00 -0.00000000000E+00 -0.45593999997E+02  0.45594000000E+02  0.51100000000E-03 0.  1.
    9900012    2    1    2    0    0 -0.36021049095E+00  0.98141991523E-01 -0.11196579609E+01  0.90007738420E+02  0.89999999767E+02 0.  0.
         12    1    1    2    0    0  0.36021049095E+00 -0.98141991523E-01  0.11196579609E+01  0.11802615802E+01  0.00000000000E+00 0. -1.
         11    1    3    3    0    0  0.24312781190E+02 -0.30487783044E+02 -0.76765371215E+01  0.39743495903E+02  0.51100000000E-03 0. -1.
        -11    1    3    3    0    0  0.71213528194E+01  0.31131590621E+01  0.26727123094E+00  0.77766869229E+01  0.51100000000E-03 0.  1.
        -12    1    3    3    0    0 -0.31794344500E+02  0.27472765974E+02  0.62896079296E+01  0.42487555594E+02  0.00000000000E+00 0.  1.
</event>
<event>
 7    1  0.2404951E-015  0.9000786E+02  0.7816164E-02  0.1186339E+00
        -11   -1    0    0    0    0  0.00000000000E+00  0.00000000000E+00  0.45593999997E+02  0.45594000000E+02  0.51100000000E-03 0.  1.
         11   -1    0    0    0    0 -0.00000000000E+00 -0.00000000000E+00 -0.45593999997E+02  0.45594000000E+02  0.51100000000E-03 0. -1.
    9900012    2    1    2    0    0  0.53429052467E+00 -0.65603252667E+00 -0.82272676374E+00  0.90007862564E+02  0.90000125549E+02 0.  0.
         12    1    1    2    0    0 -0.53429052467E+00  0.65603252667E+00  0.82272676374E+00  0.11801374363E+01  0.00000000000E+00 0. -1.
         11    1    3    3    0    0 -0.18082580327E+02 -0.30655696130E+02 -0.62807648590E+01  0.36141381047E+02  0.51100000000E-03 0. -1.
        -11    1    3    3    0    0 -0.22427564716E+01 -0.88314214800E+01 -0.15221453070E+01  0.92380132359E+01  0.51100000000E-03 0.  1.
        -12    1    3    3    0    0  0.20859627323E+02  0.38831085083E+02  0.69801834023E+01  0.44628468281E+02  0.00000000000E+00 0.  1.
</event>
<event>
 7    1  0.2404951E-015  0.9000786E+02  0.7816164E-02  0.1186339E+00
        -11   -1    0    0    0    0  0.00000000000E+00  0.00000000000E+00  0.45593999997E+02  0.45594000000E+02  0.51100000000E-03 0.  1.
         11   -1    0    0    0    0 -0.00000000000E+00 -0.00000000000E+00 -0.45593999997E+02  0.45594000000E+02  0.51100000000E-03 0. -1.
    9900012    2    1    2    0    0  0.17267270913E+00 -0.11227797878E+01  0.31981634934E+00  0.90007858986E+02  0.90000121924E+02 0.  0.
         12    1    1    2    0    0 -0.17267270913E+00  0.11227797878E+01 -0.31981634934E+00  0.11801410143E+01  0.00000000000E+00 0. -1.
         11    1    3    3    0    0  0.33642799092E+01 -0.67014439439E+01 -0.57852571064E+01  0.94708463343E+01  0.51100000000E-03 0. -1.
        -11    1    3    3    0    0 -0.40191723004E+02  0.19891849950E+01  0.13863790318E+02  0.42562144416E+02  0.51100000000E-03 0.  1.
         12    1    3    3    0    0  0.37000115804E+02  0.35894791611E+01 -0.77587168623E+01  0.37974868236E+02  0.00000000000E+00 0. -1.
</event>
<event>
 7    1  0.2404951E-015  0.9000772E+02  0.7816164E-02  0.1186339E+00
        -11   -1    0    0    0    0  0.00000000000E+00  0.00000000000E+00  0.45593999997E+02  0.45594000000E+02  0.51100000000E-03 0. -1.
         11   -1    0    0    0    0 -0.00000000000E+00 -0.00000000000E+00 -0.45593999997E+02  0.45594000000E+02  0.51100000000E-03 0.  1.
    9900012    2    1    2    0    0 -0.77669386131E+00 -0.56817161127E+00 -0.68335924299E+00  0.90007723681E+02  0.89999984834E+02 0.  0.
         12    1    1    2    0    0  0.77669386131E+00  0.56817161127E+00  0.68335924299E+00  0.11802763189E+01  0.00000000000E+00 0. -1.
         11    1    3    3    0    0 -0.91442751200E+01 -0.16359674976E+01  0.19557983251E+01  0.94931187959E+01  0.51100000000E-03 0. -1.
        -11    1    3    3    0    0 -0.16551082868E+01 -0.11424790745E+02 -0.39058675394E+02  0.40728925236E+02  0.51100000000E-03 0.  1.
         12    1    3    3    0    0  0.10022689546E+02  0.12492586632E+02  0.36419517826E+02  0.39785679650E+02  0.00000000000E+00 0. -1.
</event>
<event>
 7    1  0.2404951E-015  0.9000775E+02  0.7816164E-02  0.1186339E+00
        -11   -1    0    0    0    0  0.00000000000E+00  0.00000000000E+00  0.45593999997E+02  0.45594000000E+02  0.51100000000E-03 0.  1.
         11   -1    0    0    0    0 -0.00000000000E+00 -0.00000000000E+00 -0.45593999997E+02  0.45594000000E+02  0.51100000000E-03 0. -1.
    9900012    2    1    2    0    0 -0.14001563646E+00 -0.17719291856E+00  0.11584381695E+01  0.90007753966E+02  0.90000015518E+02 0.  0.
         12    1    1    2    0    0  0.14001563646E+00  0.17719291856E+00 -0.11584381695E+01  0.11802460343E+01  0.00000000000E+00 0. -1.
         11    1    3    3    0    0 -0.25206306944E+02  0.12898627119E+02 -0.16530075690E+02  0.32786825004E+02  0.51100000000E-03 0. -1.
        -11    1    3    3    0    0 -0.24044210873E+01  0.13311314679E+02  0.13141997093E+02  0.18859597744E+02  0.51100000000E-03 0.  1.
        -12    1    3    3    0    0  0.27470712395E+02 -0.26387134717E+02  0.45465167668E+01  0.38361331217E+02  0.00000000000E+00 0.  1.
</event>
<event>
 7    1  0.2404951E-015  0.9000788E+02  0.7816164E-02  0.1186339E+00
        -11   -1    0    0    0    0  0.00000000000E+00  0.00000000000E+00  0.45593999997E+02  0.45594000000E+02  0.51100000000E-03 0. -1.
         11   -1    0    0    0    0 -0.00000000000E+00 -0.00000000000E+00 -0.45593999997E+02  0.45594000000E+02  0.51100000000E-03 0.  1.
    9900012    2    1    2    0    0  0.60581220130E+00 -0.74758578441E+00 -0.68322910315E+00  0.90007875034E+02  0.90000138184E+02 0.  0.
         12    1    1    2    0    0 -0.60581220130E+00  0.74758578441E+00  0.68322910315E+00  0.11801249661E+01  0.00000000000E+00 0. -1.
         11    1    3    3    0    0 -0.32002615060E+02 -0.26132345523E+02 -0.18218075434E+01  0.41356811243E+02  0.51100000000E-03 0. -1.
        -11    1    3    3    0    0  0.28525003317E+01 -0.52170286813E+01  0.43319904768E+00  0.59616950676E+01  0.51100000000E-03 0.  1.
        -12    1    3    3    0    0  0.29755926929E+02  0.30601788420E+02  0.70537939257E+00  0.42689368723E+02  0.00000000000E+00 0.  1.
</event>
<event>
 7    1  0.2404951E-015  0.9000778E+02  0.7816164E-02  0.1186339E+00
        -11   -1    0    0    0    0  0.00000000000E+00  0.00000000000E+00  0.45593999997E+02  0.45594000000E+02  0.51100000000E-03 0.  1.
         11   -1    0    0    0    0 -0.00000000000E+00 -0.00000000000E+00 -0.45593999997E+02  0.45594000000E+02  0.51100000000E-03 0. -1.
    9900012    2    1    2    0    0 -0.63837002180E+00 -0.95892459343E+00  0.25666655163E+00  0.90007775284E+02  0.90000037118E+02 0.  0.
         12    1    1    2    0    0  0.63837002180E+00  0.95892459343E+00 -0.25666655163E+00  0.11802247156E+01  0.00000000000E+00 0. -1.
         11    1    3    3    0    0 -0.29343426995E+02  0.13846029233E+02 -0.22063064182E+02  0.39236819885E+02  0.51100000000E-03 0. -1.
        -11    1    3    3    0    0 -0.11408267401E+01 -0.72831499123E+01 -0.55667882914E+01  0.92376885875E+01  0.51100000000E-03 0.  1.
        -12    1    3    3    0    0  0.29845883713E+02 -0.75218039143E+01  0.27886519025E+02  0.41533266812E+02  0.00000000000E+00 0.  1.
</event>
<event>
 7    1  0.2404951E-015  0.9000793E+02  0.7816164E-02  0.1186339E+00
        -11   -1    0    0    0    0  0.00000000000E+00  0.00000000000E+00  0.45593999997E+02  0.45594000000E+02  0.51100000000E-03 0.  1.
         11   -1    0    0    0    0 -0.00000000000E+00 -0.00000000000E+00 -0.45593999997E+02  0.45594000000E+02  0.51100000000E-03 0. -1.
    9900012    2    1    2    0    0  0.10235699225E+01  0.57165033017E+00  0.13448521401E+00  0.90007929765E+02  0.90000193638E+02 0.  0.
         12    1    1    2    0    0 -0.10235699225E+01 -0.57165033017E+00 -0.13448521401E+00  0.11800702348E+01  0.00000000000E+00 0. -1.
         11    1    3    3    0    0 -0.48182405637E+01 -0.28434878924E+01  0.73004836156E+01  0.91977131292E+01  0.51100000000E-03 0. -1.
        -11    1    3    3    0    0  0.11150412576E+01  0.24837863713E+02  0.29192864742E+02  0.38345614390E+02  0.51100000000E-03 0.  1.
         12    1    3    3    0    0  0.47267692286E+01 -0.21422725490E+02 -0.36358863144E+02  0.42464602246E+02  0.00000000000E+00 0. -1.
</event>
<event>
 7    1  0.2404951E-015  0.9000775E+02  0.7816164E-02  0.1186339E+00
        -11   -1    0    0    0    0  0.00000000000E+00  0.00000000000E+00  0.45593999997E+02  0.45594000000E+02  0.51100000000E-03 0. -1.
         11   -1    0    0    0    0 -0.00000000000E+00 -0.00000000000E+00 -0.45593999997E+02  0.45594000000E+02  0.51100000000E-03 0.  1.
    9900012    2    1    2    0    0  0.10829505915E+01  0.43420331883E+00 -0.17798478566E+00  0.90007748718E+02  0.90000010201E+02 0.  0.
         12    1    1    2    0    0 -0.10829505915E+01 -0.43420331883E+00  0.17798478566E+00  0.11802512824E+01  0.00000000000E+00 0. -1.
         11    1    3    3    0    0 -0.32201381893E+02 -0.52109010012E+01  0.19247353464E+02  0.37875362713E+02  0.51100000000E-03 0. -1.
        -11    1    3    3    0    0 -0.33694481189E+01 -0.40822186016E+01  0.47893014382E+01  0.71382839579E+01  0.51100000000E-03 0.  1.
        -12    1    3    3    0    0  0.36653780603E+02  0.97273229216E+01 -0.24214639687E+02  0.44994102046E+02  0.00000000000E+00 0.  1.
</event>
<event>
 7    1  0.2404951E-015  0.9000771E+02  0.7816164E-02  0.1186339E+00
        -11   -1    0    0    0    0  0.00000000000E+00  0.00000000000E+00  0.45593999997E+02  0.45594000000E+02  0.51100000000E-03 0. -1.
         11   -1    0    0    0    0 -0.00000000000E+00 -0.00000000000E+00 -0.45593999997E+02  0.45594000000E+02  0.51100000000E-03 0.  1.
    9900012    2    1    2    0    0 -0.90992329870E+00  0.21437882297E+00 -0.72053820668E+00  0.90007705970E+02  0.89999966889E+02 0.  0.
         12    1    1    2    0    0  0.90992329870E+00 -0.21437882297E+00  0.72053820668E+00  0.11802940297E+01  0.00000000000E+00 0. -1.
         11    1    3    3    0    0 -0.16753633220E+02  0.36176731802E+02 -0.85605227606E+01  0.40776496909E+02  0.51100000000E-03 0. -1.
        -11    1    3    3    0    0 -0.30026174689E+00  0.10148648648E+01 -0.63676889388E+01  0.64550422533E+01  0.51100000000E-03 0.  1.
        -12    1    3    3    0    0  0.16143971668E+02 -0.36977217844E+02  0.14207673493E+02  0.42776166808E+02  0.00000000000E+00 0.  1.
</event>
<event>
 7    1  0.2404951E-015  0.9000768E+02  0.7816164E-02  0.1186339E+00
        -11   -1    0    0    0    0  0.00000000000E+00  0.00000000000E+00  0.45593999997E+02  0.45594000000E+02  0.51100000000E-03 0. -1.
         11   -1    0    0    0    0 -0.00000000000E+00 -0.00000000000E+00 -0.45593999997E+02  0.45594000000E+02  0.51100000000E-03 0.  1.
    9900012    2    1    2    0    0 -0.18749142893E+00  0.70165079402E-01 -0.11632209218E+01  0.90007678397E+02  0.89999938952E+02 0.  0.
         12    1    1    2    0    0  0.18749142893E+00 -0.70165079402E-01  0.11632209218E+01  0.11803216033E+01  0.00000000000E+00 0. -1.
         11    1    3    3    0    0 -0.92068346175E+01  0.78731696558E+01  0.49047313423E+01  0.13069391489E+02  0.51100000000E-03 0. -1.
        -11    1    3    3    0    0 -0.71076277518E+01 -0.38218938852E+02 -0.14505833960E+02  0.41492467731E+02  0.51100000000E-03 0.  1.
         12    1    3    3    0    0  0.16126970940E+02  0.30415934276E+02  0.84378816955E+01  0.35445819177E+02  0.00000000000E+00 0. -1.
</event>
<event>
 7    1  0.2545247E-015  0.9000756E+02  0.7816164E-02  0.1186339E+00
        -11   -1    0    0    0    0  0.00000000000E+00  0.00000000000E+00  0.45593999997E+02  0.45594000000E+02  0.51100000000E-03 0.  1.
         11   -1    0    0    0    0 -0.00000000000E+00 -0.00000000000E+00 -0.45593999997E+02  0.45594000000E+02  0.51100000000E-03 0. -1.
    9900012    2    1    2    0    0  0.93468336267E-01  0.11054212891E+01  0.40342404466E+00  0.90007557915E+02  0.89999816879E+02 0.  0.
         12    1    1    2    0    0 -0.93468336267E-01 -0.11054212891E+01 -0.40342404466E+00  0.11804420850E+01  0.00000000000E+00 0. -1.
         11    1    3    3    0    0 -0.10668385414E+02 -0.11468869275E+02 -0.33419614590E+02  0.36908265327E+02  0.51100000000E-03 0. -1.
        -11    1    3    3    0    0  0.49922032986E+01  0.27670436185E+01 -0.79598469667E+01  0.97947837217E+01  0.51100000000E-03 0.  1.
        -12    1    3    3    0    0  0.57696504518E+01  0.98072469452E+01  0.41782885602E+02  0.43304508867E+02  0.00000000000E+00 0.  1.
</event>
<event>
 7    1  0.2404951E-015  0.9000777E+02  0.7816164E-02  0.1186339E+00
        -11   -1    0    0    0    0  0.00000000000E+00  0.00000000000E+00  0.45593999997E+02  0.45594000000E+02  0.51100000000E-03 0. -1.
         11   -1    0    0    0    0 -0.00000000000E+00 -0.00000000000E+00 -0.45593999997E+02  0.45594000000E+02  0.51100000000E-03 0.  1.
    9900012    2    1    2    0    0 -0.83464064071E+00  0.82664828158E+00  0.11387122147E+00  0.90007771617E+02  0.90000033403E+02 0.  0.
         12    1    1    2    0    0  0.83464064071E+00 -0.82664828158E+00 -0.11387122147E+00  0.11802283828E+01  0.00000000000E+00 0. -1.
         11    1    3    3    0    0  0.21837304187E+01 -0.96604311339E+01  0.36835627450E+00  0.99110188599E+01  0.51100000000E-03 0. -1.
        -11    1    3    3    0    0 -0.19879012081E+02 -0.61746455512E+01 -0.33395009014E+02  0.39351340464E+02  0.51100000000E-03 0.  1.
         12    1    3    3    0    0  0.16860641021E+02  0.16661724967E+02  0.33140523961E+02  0.40745412293E+02  0.00000000000E+00 0. -1.
</event>
<event>
 7    1  0.2404951E-015  0.9000780E+02  0.7816164E-02  0.1186339E+00
        -11   -1    0    0    0    0  0.00000000000E+00  0.00000000000E+00  0.45593999997E+02  0.45594000000E+02  0.51100000000E-03 0.  1.
         11   -1    0    0    0    0 -0.00000000000E+00 -0.00000000000E+00 -0.45593999997E+02  0.45594000000E+02  0.51100000000E-03 0. -1.
    9900012    2    1    2    0    0 -0.56145817088E+00 -0.79577710357E+00  0.66660617581E+00  0.90007804987E+02  0.90000067212E+02 0.  0.
         12    1    1    2    0    0  0.56145817088E+00  0.79577710357E+00 -0.66660617581E+00  0.11801950135E+01  0.00000000000E+00 0. -1.
         11    1    3    3    0    0 -0.23477986100E+02 -0.25481318648E+02 -0.15797159746E+02  0.38079701780E+02  0.51100000000E-03 0. -1.
        -11    1    3    3    0    0  0.13821009708E+02 -0.74681569957E+01  0.35615352008E+01  0.16108327397E+02  0.51100000000E-03 0.  1.
        -12    1    3    3    0    0  0.90955182213E+01  0.32153698540E+02  0.12902230721E+02  0.35819775810E+02  0.00000000000E+00 0.  1.
</event>
<event>
 7    1  0.2404951E-015  0.9000770E+02  0.7816164E-02  0.1186339E+00
        -11   -1    0    0    0    0  0.00000000000E+00  0.00000000000E+00  0.45593999997E+02  0.45594000000E+02  0.51100000000E-03 0.  1.
         11   -1    0    0    0    0 -0.00000000000E+00 -0.00000000000E+00 -0.45593999997E+02  0.45594000000E+02  0.51100000000E-03 0. -1.
    9900012    2    1    2    0    0  0.36837215703E+00 -0.87553925840E+00  0.70059338581E+00  0.90007704219E+02  0.89999965114E+02 0.  0.
         12    1    1    2    0    0 -0.36837215703E+00  0.87553925840E+00 -0.70059338581E+00  0.11802957813E+01  0.00000000000E+00 0. -1.
         11    1    3    3    0    0  0.11100925943E+01 -0.12536126865E+02 -0.38995635467E+02  0.40976168295E+02  0.51100000000E-03 0. -1.
        -11    1    3    3    0    0  0.51623965232E+01 -0.62100075379E+01  0.48294809506E+01  0.94094855331E+01  0.51100000000E-03 0.  1.
        -12    1    3    3    0    0 -0.59041169605E+01  0.17870595144E+02  0.34866747902E+02  0.39622050391E+02  0.00000000000E+00 0.  1.
</event>
<event>
 7    1  0.2404951E-015  0.9000770E+02  0.7816164E-02  0.1186339E+00
        -11   -1    0    0    0    0  0.00000000000E+00  0.00000000000E+00  0.45593999997E+02  0.45594000000E+02  0.51100000000E-03 0. -1.
         11   -1    0    0    0    0 -0.00000000000E+00 -0.00000000000E+00 -0.45593999997E+02  0.45594000000E+02  0.51100000000E-03 0.  1.
    9900012    2    1    2    0    0  0.35703474804E+00 -0.11240997497E+00 -0.11193783570E+01  0.90007695921E+02  0.89999956707E+02 0.  0.
         12    1    1    2    0    0 -0.35703474804E+00  0.11240997497E+00  0.11193783570E+01  0.11803040794E+01  0.00000000000E+00 0. -1.
         11    1    3    3    0    0  0.11037653000E+02 -0.30316283352E+01 -0.73139232270E+00  0.11469764126E+02  0.51100000000E-03 0. -1.
        -11    1    3    3    0    0  0.24002832536E+02  0.26912319950E+02 -0.36101517487E+01  0.36241442173E+02  0.51100000000E-03 0.  1.
         12    1    3    3    0    0 -0.34683450788E+02 -0.23993101590E+02  0.32221657144E+01  0.42296489622E+02  0.00000000000E+00 0. -1.
</event>
<event>
 7    1  0.2404951E-015  0.9000767E+02  0.7816164E-02  0.1186339E+00
        -11   -1    0    0    0    0  0.00000000000E+00  0.00000000000E+00  0.45593999997E+02  0.45594000000E+02  0.51100000000E-03 0.  1.
         11   -1    0    0    0    0 -0.00000000000E+00 -0.00000000000E+00 -0.45593999997E+02  0.45594000000E+02  0.51100000000E-03 0. -1.
    9900012    2    1    2    0    0  0.12234178735E+00 -0.56580667445E+00  0.10286307189E+01  0.90007667055E+02  0.89999927460E+02 0.  0.
         12    1    1    2    0    0 -0.12234178735E+00  0.56580667445E+00 -0.10286307189E+01  0.11803329452E+01  0.00000000000E+00 0. -1.
         11    1    3    3    0    0  0.82191458774E-01 -0.32050451792E+01  0.78501064633E+01  0.84795779248E+01  0.51100000000E-03 0. -1.
        -11    1    3    3    0    0  0.12248683023E+01  0.35624543447E+02  0.18281391558E+02  0.40060175683E+02  0.51100000000E-03 0.  1.
         12    1    3    3    0    0 -0.11847179738E+01 -0.32985304942E+02 -0.25102867303E+02  0.41467913447E+02  0.00000000000E+00 0. -1.
</event>
<event>
 7    1  0.2404951E-015  0.9000776E+02  0.7816164E-02  0.1186339E+00
        -11   -1    0    0    0    0  0.00000000000E+00  0.00000000000E+00  0.45593999997E+02  0.45594000000E+02  0.51100000000E-03 0. -1.
         11   -1    0    0    0    0 -0.00000000000E+00 -0.00000000000E+00 -0.45593999997E+02  0.45594000000E+02  0.51100000000E-03 0.  1.
    9900012    2    1    2    0    0 -0.29357096605E+00 -0.52160737858E+00 -0.10172095695E+01  0.90007757026E+02  0.90000018619E+02 0.  0.
         12    1    1    2    0    0  0.29357096605E+00  0.52160737858E+00  0.10172095695E+01  0.11802429741E+01  0.00000000000E+00 0. -1.
         11    1    3    3    0    0 -0.14553668981E+02 -0.32504068578E+02  0.21667501984E+02  0.41686981150E+02  0.51100000000E-03 0. -1.
        -11    1    3    3    0    0  0.11385367248E+02  0.10777484291E+02  0.18258609366E+01  0.15783362235E+02  0.51100000000E-03 0.  1.
        -12    1    3    3    0    0  0.28747307673E+01  0.21204976908E+02 -0.24510572490E+02  0.32537413641E+02  0.00000000000E+00 0.  1.
</event>
<event>
 7    1  0.2404951E-015  0.9000776E+02  0.7816164E-02  0.1186339E+00
        -11   -1    0    0    0    0  0.00000000000E+00  0.00000000000E+00  0.45593999997E+02  0.45594000000E+02  0.51100000000E-03 0.  1.
         11   -1    0    0    0    0 -0.00000000000E+00 -0.00000000000E+00 -0.45593999997E+02  0.45594000000E+02  0.51100000000E-03 0. -1.
    9900012    2    1    2    0    0  0.19658974096E+00  0.10813946451E+01  0.43001248428E+00  0.90007757380E+02  0.90000018978E+02 0.  0.
         12    1    1    2    0    0 -0.19658974096E+00 -0.10813946451E+01 -0.43001248428E+00  0.11802426197E+01  0.00000000000E+00 0. -1.
         11    1    3    3    0    0  0.31318025454E+02  0.10643294265E+02 -0.18927884787E+02  0.38109883940E+02  0.51100000000E-03 0. -1.
        -11    1    3    3    0    0  0.75704164230E+01 -0.52286227087E+01  0.31434726109E+01  0.97227115850E+01  0.51100000000E-03 0.  1.
        -12    1    3    3    0    0 -0.38691852136E+02 -0.43332769112E+01  0.16214424661E+02  0.42175161856E+02  0.00000000000E+00 0.  1.
</event>
<event>
 7    1  0.2476553E-015  0.9000775E+02  0.7816164E-02  0.1186339E+00
        -11   -1    0    0    0    0  0.00000000000E+00  0.00000000000E+00  0.45593999997E+02  0.45594000000E+02  0.51100000000E-03 0. -1.
         11   -1    0    0    0    0 -0.00000000000E+00 -0.00000000000E+00 -0.45593999997E+02  0.45594000000E+02  0.51100000000E-03 0.  1.
    9900012    2    1    2    0    0 -0.10640523082E+01 -0.38846396963E+00 -0.33149629538E+00  0.90007745212E+02  0.90000006649E+02 0.  0.
         12    1    1    2    0    0  0.10640523082E+01  0.38846396963E+00  0.33149629538E+00  0.11802547878E+01  0.00000000000E+00 0. -1.
         11    1    3    3    0    0  0.25893947821E+02  0.22138439015E+02  0.16632671675E+02  0.37911116880E+02  0.51100000000E-03 0. -1.
        -11    1    3    3    0    0  0.81384025216E+01 -0.38753208637E+01 -0.35467538384E+00  0.90209479706E+01  0.51100000000E-03 0.  1.
        -12    1    3    3    0    0 -0.35096402651E+02 -0.18651582121E+02 -0.16609492586E+02  0.43075680362E+02  0.00000000000E+00 0.  1.
</event>
<event>
 7    1  0.2404951E-015  0.9000748E+02  0.7816164E-02  0.1186340E+00
        -11   -1    0    0    0    0  0.00000000000E+00  0.00000000000E+00  0.45593999997E+02  0.45594000000E+02  0.51100000000E-03 0.  1.
         11   -1    0    0    0    0 -0.00000000000E+00 -0.00000000000E+00 -0.45593999997E+02  0.45594000000E+02  0.51100000000E-03 0. -1.
    9900012    2    1    2    0    0  0.37661031595E+00 -0.11188188872E+01  0.62873556931E-02  0.90007478690E+02  0.89999736608E+02 0.  0.
         12    1    1    2    0    0 -0.37661031595E+00  0.11188188872E+01 -0.62873556931E-02  0.11805213099E+01  0.00000000000E+00 0. -1.
         11    1    3    3    0    0 -0.38045150628E+00  0.12492064549E+02 -0.29617111802E+02  0.32146068684E+02  0.51100000000E-03 0. -1.
        -11    1    3    3    0    0 -0.74236514874E+01 -0.27365436875E+01 -0.11829812413E+02  0.14231786070E+02  0.51100000000E-03 0.  1.
        -12    1    3    3    0    0  0.81807133096E+01 -0.10874339748E+02  0.41453211571E+02  0.43629623936E+02  0.00000000000E+00 0.  1.
</event>
<event>
 7    1  0.2404951E-015  0.9000775E+02  0.7816164E-02  0.1186339E+00
        -11   -1    0    0    0    0  0.00000000000E+00  0.00000000000E+00  0.45593999997E+02  0.45594000000E+02  0.51100000000E-03 0.  1.
         11   -1    0    0    0    0 -0.00000000000E+00 -0.00000000000E+00 -0.45593999997E+02  0.45594000000E+02  0.51100000000E-03 0. -1.
    9900012    2    1    2    0    0  0.94967851188E+00 -0.41773063036E+00 -0.56267565465E+00  0.90007749159E+02  0.90000010648E+02 0.  0.
         12    1    1    2    0    0 -0.94967851188E+00  0.41773063036E+00  0.56267565465E+00  0.11802508410E+01  0.00000000000E+00 0. -1.
         11    1    3    3    0    0  0.19918307269E+02 -0.34920024389E+02 -0.40440806287E+01  0.40404228197E+02  0.51100000000E-03 0. -1.
        -11    1    3    3    0    0  0.59615358941E+01  0.39504114350E+01 -0.56656763659E+01  0.91238999154E+01  0.51100000000E-03 0.  1.
        -12    1    3    3    0    0 -0.24930164651E+02  0.30551882323E+02  0.91470813399E+01  0.40479621047E+02  0.00000000000E+00 0.  1.
</event>
<event>
 7    1  0.2404951E-015  0.9000772E+02  0.7816164E-02  0.1186339E+00
        -11   -1    0    0    0    0  0.00000000000E+00  0.00000000000E+00  0.45593999997E+02  0.45594000000E+02  0.51100000000E-03 0. -1.
         11   -1    0    0    0    0 -0.00000000000E+00 -0.00000000000E+00 -0.45593999997E+02  0.45594000000E+02  0.51100000000E-03 0.  1.
    9900012    2    1    2    0    0 -0.10338467558E+01  0.48953059194E+00 -0.29082584883E+00  0.90007720800E+02  0.89999981915E+02 0.  0.
         12    1    1    2    0    0  0.10338467558E+01 -0.48953059194E+00  0.29082584883E+00  0.11802791997E+01  0.00000000000E+00 0. -1.
         11    1    3    3    0    0 -0.52973252152E+01 -0.58814630731E+01 -0.56740181712E+01  0.97389806851E+01  0.51100000000E-03 0. -1.
        -11    1    3    3    0    0 -0.33527346588E+02 -0.14701332974E+02 -0.42824564520E+00  0.36611412907E+02  0.51100000000E-03 0.  1.
         12    1    3    3    0    0  0.37790825047E+02  0.21072326639E+02  0.58114379676E+01  0.43657327208E+02  0.00000000000E+00 0. -1.
</event>
<event>
 7    1  0.2404951E-015  0.9000771E+02  0.7816164E-02  0.1186339E+00
        -11   -1    0    0    0    0  0.00000000000E+00  0.00000000000E+00  0.45593999997E+02  0.45594000000E+02  0.51100000000E-03 0.  1.
         11   -1    0    0    0    0 -0.00000000000E+00 -0.00000000000E+00 -0.45593999997E+02  0.45594000000E+02  0.51100000000E-03 0. -1.
    9900012    2    1    2    0    0 -0.27740910250E+00 -0.12383343871E+00  0.11405218757E+01  0.90007711612E+02  0.89999972605E+02 0.  0.
         12    1    1    2    0    0  0.27740910250E+00  0.12383343871E+00 -0.11405218757E+01  0.11802883884E+01  0.00000000000E+00 0. -1.
         11    1    3    3    0    0 -0.97610433108E+01  0.26992012934E+01 -0.42994789435E+01  0.11002234936E+02  0.51100000000E-03 0. -1.
        -11    1    3    3    0    0 -0.12472323828E+02 -0.23537678009E+02  0.29979100875E+02  0.40103960369E+02  0.51100000000E-03 0.  1.
         12    1    3    3    0    0  0.21955958037E+02  0.20714643277E+02 -0.24539100056E+02  0.38901516307E+02  0.00000000000E+00 0. -1.
</event>
<event>
 7    1  0.2404951E-015  0.9000764E+02  0.7816164E-02  0.1186339E+00
        -11   -1    0    0    0    0  0.00000000000E+00  0.00000000000E+00  0.45593999997E+02  0.45594000000E+02  0.51100000000E-03 0.  1.
         11   -1    0    0    0    0 -0.00000000000E+00 -0.00000000000E+00 -0.45593999997E+02  0.45594000000E+02  0.51100000000E-03 0. -1.
    9900012    2    1    2    0    0 -0.10035729364E+01  0.30565685102E+00  0.54098096747E+00  0.90007641937E+02  0.89999902011E+02 0.  0.
         12    1    1    2    0    0  0.10035729364E+01 -0.30565685102E+00 -0.54098096747E+00  0.11803580628E+01  0.00000000000E+00 0. -1.
         11    1    3    3    0    0 -0.12632807765E-01  0.86520450977E+01 -0.36501088494E+02  0.37512497990E+02  0.51100000000E-03 0. -1.
        -11    1    3    3    0    0 -0.69818985778E+01 -0.94464259403E+01 -0.28935256455E+01  0.12097700679E+02  0.51100000000E-03 0.  1.
        -12    1    3    3    0    0  0.59909584491E+01  0.11000376936E+01  0.39935595107E+02  0.40397443268E+02  0.00000000000E+00 0.  1.
</event>
<event>
 7    1  0.2404951E-015  0.9000770E+02  0.7816164E-02  0.1186339E+00
        -11   -1    0    0    0    0  0.00000000000E+00  0.00000000000E+00  0.45593999997E+02  0.45594000000E+02  0.51100000000E-03 0.  1.
         11   -1    0    0    0    0 -0.00000000000E+00 -0.00000000000E+00 -0.45593999997E+02  0.45594000000E+02  0.51100000000E-03 0. -1.
    9900012    2    1    2    0    0  0.22366763843E+00  0.11466390919E+01  0.16823366573E+00  0.90007698773E+02  0.89999959597E+02 0.  0.
         12    1    1    2    0    0 -0.22366763843E+00 -0.11466390919E+01 -0.16823366573E+00  0.11803012267E+01  0.00000000000E+00 0. -1.
         11    1    3    3    0    0  0.36921702016E+01  0.78860429428E+01  0.59773078527E+01  0.10561723511E+02  0.51100000000E-03 0. -1.
        -11    1    3    3    0    0 -0.32992709140E+02  0.98447487297E+01  0.17217864988E+02  0.38495360876E+02  0.51100000000E-03 0.  1.
         12    1    3    3    0    0  0.29524206577E+02 -0.16584152581E+02 -0.23026939175E+02  0.40950614386E+02  0.00000000000E+00 0. -1.
</event>
<event>
 7    1  0.2404951E-015  0.9000771E+02  0.7816164E-02  0.1186339E+00
        -11   -1    0    0    0    0  0.00000000000E+00  0.00000000000E+00  0.45593999997E+02  0.45594000000E+02  0.51100000000E-03 0.  1.
         11   -1    0    0    0    0 -0.00000000000E+00 -0.00000000000E+00 -0.45593999997E+02  0.45594000000E+02  0.51100000000E-03 0. -1.
    9900012    2    1    2    0    0  0.39158809749E+00 -0.82802427426E-01  0.11103556660E+01  0.90007708856E+02  0.89999969813E+02 0.  0.
         12    1    1    2    0    0 -0.39158809749E+00  0.82802427426E-01 -0.11103556660E+01  0.11802911442E+01  0.00000000000E+00 0. -1.
         11    1    3    3    0    0 -0.72722184665E+00 -0.90404159535E+01  0.31165348289E+01  0.95901387804E+01  0.51100000000E-03 0. -1.
        -11    1    3    3    0    0 -0.16203990066E+02 -0.29238190854E+02  0.13009141479E+02  0.35870306114E+02  0.51100000000E-03 0.  1.
         12    1    3    3    0    0  0.17322800010E+02  0.38195804380E+02 -0.15015320641E+02  0.44547263961E+02  0.00000000000E+00 0. -1.
</event>
<event>
 7    1  0.2404951E-015  0.9000776E+02  0.7816164E-02  0.1186339E+00
        -11   -1    0    0    0    0  0.00000000000E+00  0.00000000000E+00  0.45593999997E+02  0.45594000000E+02  0.51100000000E-03 0. -1.
         11   -1    0    0    0    0 -0.00000000000E+00 -0.00000000000E+00 -0.45593999997E+02  0.45594000000E+02  0.51100000000E-03 0.  1.
    9900012    2    1    2    0    0 -0.61310834822E+00 -0.21861390585E+00 -0.98451381616E+00  0.90007762168E+02  0.90000023828E+02 0.  0.
         12    1    1    2    0    0  0.61310834822E+00  0.21861390585E+00  0.98451381616E+00  0.11802378323E+01  0.00000000000E+00 0. -1.
         11    1    3    3    0    0  0.12580804568E+01  0.90579802113E+01  0.10272473390E+01  0.92024458326E+01  0.51100000000E-03 0. -1.
        -11    1    3    3    0    0  0.31713081342E+02  0.13852590970E+02 -0.15409920737E+02  0.37882442663E+02  0.51100000000E-03 0.  1.
         12    1    3    3    0    0 -0.33584270147E+02 -0.23129185087E+02  0.13398159582E+02  0.42922873672E+02  0.00000000000E+00 0. -1.
</event>
<event>
 7    1  0.2404951E-015  0.9000781E+02  0.7816164E-02  0.1186339E+00
        -11   -1    0    0    0    0  0.00000000000E+00  0.00000000000E+00  0.45593999997E+02  0.45594000000E+02  0.51100000000E-03 0.  1.
         11   -1    0    0    0    0 -0.00000000000E+00 -0.00000000000E+00 -0.45593999997E+02  0.45594000000E+02  0.51100000000E-03 0. -1.
    9900012    2    1    2    0    0 -0.98279339964E+00 -0.51888160195E+00  0.39716143172E+00  0.90007805869E+02  0.90000068107E+02 0.  0.
         12    1    1    2    0    0  0.98279339964E+00  0.51888160195E+00 -0.39716143172E+00  0.11801941307E+01  0.00000000000E+00 0. -1.
         11    1    3    3    0    0 -0.15073994786E+02  0.29150741558E+02 -0.15029682936E+02  0.36095462618E+02  0.51100000000E-03 0. -1.
        -11    1    3    3    0    0 -0.21623778086E+01  0.68468876568E+01  0.11753900589E+02  0.13773522705E+02  0.51100000000E-03 0.  1.
        -12    1    3    3    0    0  0.16253579195E+02 -0.36516510817E+02  0.36729437786E+01  0.40138820547E+02  0.00000000000E+00 0.  1.
</event>
<event>
 7    1  0.2404951E-015  0.9000774E+02  0.7816164E-02  0.1186339E+00
        -11   -1    0    0    0    0  0.00000000000E+00  0.00000000000E+00  0.45593999997E+02  0.45594000000E+02  0.51100000000E-03 0. -1.
         11   -1    0    0    0    0 -0.00000000000E+00 -0.00000000000E+00 -0.45593999997E+02  0.45594000000E+02  0.51100000000E-03 0.  1.
    9900012    2    1    2    0    0 -0.18229370616E+00  0.79105791051E+00 -0.85674110491E+00  0.90007742005E+02  0.90000003400E+02 0.  0.
         12    1    1    2    0    0  0.18229370616E+00 -0.79105791051E+00  0.85674110491E+00  0.11802579946E+01  0.00000000000E+00 0. -1.
         11    1    3    3    0    0 -0.45397642067E+01 -0.74603036948E+01 -0.13598664072E+02  0.16161350658E+02  0.51100000000E-03 0. -1.
        -11    1    3    3    0    0  0.27411947061E+01  0.29726740823E+02 -0.19074563832E+02  0.35426434396E+02  0.51100000000E-03 0.  1.
         12    1    3    3    0    0  0.16162757944E+01 -0.21475379218E+02  0.31816486799E+02  0.38419956952E+02  0.00000000000E+00 0. -1.
</event>
<event>
 7    1  0.2404951E-015  0.9000775E+02  0.7816164E-02  0.1186339E+00
        -11   -1    0    0    0    0  0.00000000000E+00  0.00000000000E+00  0.45593999997E+02  0.45594000000E+02  0.51100000000E-03 0. -1.
         11   -1    0    0    0    0 -0.00000000000E+00 -0.00000000000E+00 -0.45593999997E+02  0.45594000000E+02  0.51100000000E-03 0.  1.
    9900012    2    1    2    0    0 -0.81523433220E+00  0.85120055794E+00 -0.61993498108E-01  0.90007748925E+02  0.90000010411E+02 0.  0.
         12    1    1    2    0    0  0.81523433220E+00 -0.85120055794E+00  0.61993498108E-01  0.11802510750E+01  0.00000000000E+00 0. -1.
         11    1    3    3    0    0 -0.74157371530E+00  0.45993203075E+01 -0.10251554699E+02  0.11260464150E+02  0.51100000000E-03 0. -1.
        -11    1    3    3    0    0  0.14716873846E+02  0.31184880977E+02 -0.98258148541E+01  0.35855680375E+02  0.51100000000E-03 0.  1.
         12    1    3    3    0    0 -0.14790534463E+02 -0.34933000726E+02  0.20015376055E+02  0.42891604400E+02  0.00000000000E+00 0. -1.
</event>
<event>
 7    1  0.2615463E-015  0.9000775E+02  0.7816164E-02  0.1186339E+00
        -11   -1    0    0    0    0  0.00000000000E+00  0.00000000000E+00  0.45593999997E+02  0.45594000000E+02  0.51100000000E-03 0.  1.
         11   -1    0    0    0    0 -0.00000000000E+00 -0.00000000000E+00 -0.45593999997E+02  0.45594000000E+02  0.51100000000E-03 0. -1.
    9900012    2    1    2    0    0 -0.85039355608E+00 -0.76073244309E+00 -0.30182519394E+00  0.90007753628E+02  0.90000015176E+02 0.  0.
         12    1    1    2    0    0  0.85039355608E+00  0.76073244309E+00  0.30182519394E+00  0.11802463717E+01  0.00000000000E+00 0. -1.
         11    1    3    3    0    0  0.11338005692E+02  0.35496367840E+02 -0.14999101818E+02  0.40168589202E+02  0.51100000000E-03 0. -1.
        -11    1    3    3    0    0 -0.95301363328E+01  0.14179444523E+01  0.11010318517E+01  0.96977490373E+01  0.51100000000E-03 0.  1.
        -12    1    3    3    0    0 -0.26582629150E+01 -0.37675044735E+02  0.13596244773E+02  0.40141415389E+02  0.00000000000E+00 0.  1.
</event>
<event>
 7    1  0.2404951E-015  0.9000772E+02  0.7816164E-02  0.1186339E+00
        -11   -1    0    0    0    0  0.00000000000E+00  0.00000000000E+00  0.45593999997E+02  0.45594000000E+02  0.51100000000E-03 0. -1.
         11   -1    0    0    0    0 -0.00000000000E+00 -0.00000000000E+00 -0.45593999997E+02  0.45594000000E+02  0.51100000000E-03 0.  1.
    9900012    2    1    2    0    0  0.92778869700E+00 -0.65507357865E+00  0.32115313950E+00  0.90007723508E+02  0.89999984658E+02 0.  0.
         12    1    1    2    0    0 -0.92778869700E+00  0.65507357865E+00 -0.32115313950E+00  0.11802764925E+01  0.00000000000E+00 0. -1.
         11    1    3    3    0    0  0.46538860422E+01 -0.60743699894E+01 -0.59022706800E+00  0.76749589129E+01  0.51100000000E-03 0. -1.
        -11    1    3    3    0    0  0.23487505346E+02 -0.25122278033E+02  0.17014698047E+02  0.38370453618E+02  0.51100000000E-03 0.  1.
         12    1    3    3    0    0 -0.27213602692E+02  0.30541574444E+02 -0.16103317840E+02  0.43962310977E+02  0.00000000000E+00 0. -1.
</event>
<event>
 7    1  0.2404951E-015  0.9000771E+02  0.7816164E-02  0.1186339E+00
        -11   -1    0    0    0    0  0.00000000000E+00  0.00000000000E+00  0.45593999997E+02  0.45594000000E+02  0.51100000000E-03 0. -1.
         11   -1    0    0    0    0 -0.00000000000E+00 -0.00000000000E+00 -0.45593999997E+02  0.45594000000E+02  0.51100000000E-03 0.  1.
    9900012    2    1    2    0    0 -0.16848196847E+00  0.18644071932E+00 -0.11532269843E+01  0.90007712411E+02  0.89999973415E+02 0.  0.
         12    1    1    2    0    0  0.16848196847E+00 -0.18644071932E+00  0.11532269843E+01  0.11802875891E+01  0.00000000000E+00 0. -1.
         11    1    3    3    0    0  0.64034326861E+00 -0.91093741036E+01 -0.23383416891E+01  0.94264828105E+01  0.51100000000E-03 0. -1.
        -11    1    3    3    0    0 -0.10609923627E+02 -0.14156800888E+02 -0.33319517023E+02  0.37725001069E+02  0.51100000000E-03 0.  1.
         12    1    3    3    0    0  0.98010983898E+01  0.23452615711E+02  0.34504631727E+02  0.42856228532E+02  0.00000000000E+00 0. -1.
</event>
<event>
 8    1  0.2404951E-015  0.9000727E+02  0.7816164E-02  0.1186340E+00
        -11   -1    0    0    0    0  0.00000000000E+00  0.00000000000E+00  0.45593999997E+02  0.45594000000E+02  0.51100000000E-03 0. -1.
         11   -1    0    0    0    0 -0.00000000000E+00 -0.00000000000E+00 -0.45593999997E+02  0.45594000000E+02  0.51100000000E-03 0.  1.
    9900012    2    1    2    0    0 -0.76344519015E+00 -0.61107449062E+00 -0.66171636183E+00  0.90007267543E+02  0.89999522673E+02 0.  0.
         23    2    3    3    0    0  0.22410404475E+02 -0.15022676962E+02 -0.81730784543E+01  0.61702812866E+02  0.54886527056E+02 0.  0.
         12    1    1    2    0    0  0.76344519015E+00  0.61107449062E+00  0.66171636183E+00  0.11807324570E+01  0.00000000000E+00 0. -1.
         11    1    4    4    0    0  0.37658562117E+02 -0.14216312800E+02  0.62065821141E+01  0.40728276567E+02  0.51100000000E-03 0. -1.
        -11    1    4    4    0    0 -0.15248157642E+02 -0.80636416215E+00 -0.14379660568E+02  0.20974536299E+02  0.51100000000E-03 0.  1.
        -12    1    3    3    0    0 -0.23173849665E+02  0.14411602472E+02  0.75113620925E+01  0.28304454677E+02  0.00000000000E+00 0.  1.
</event>
<event>
 7    1  0.2404951E-015  0.9000779E+02  0.7816164E-02  0.1186339E+00
        -11   -1    0    0    0    0  0.00000000000E+00  0.00000000000E+00  0.45593999997E+02  0.45594000000E+02  0.51100000000E-03 0.  1.
         11   -1    0    0    0    0 -0.00000000000E+00 -0.00000000000E+00 -0.45593999997E+02  0.45594000000E+02  0.51100000000E-03 0. -1.
    9900012    2    1    2    0    0 -0.81440890252E+00  0.75299855172E+00  0.40327949050E+00  0.90007786872E+02  0.90000048859E+02 0.  0.
         12    1    1    2    0    0  0.81440890252E+00 -0.75299855172E+00 -0.40327949050E+00  0.11802131277E+01  0.00000000000E+00 0. -1.
         11    1    3    3    0    0 -0.22455057155E+02  0.59165389540E+01 -0.27100474161E+02  0.35688523716E+02  0.51100000000E-03 0. -1.
        -11    1    3    3    0    0 -0.44462296791E+01 -0.10791948416E+01 -0.85105046182E+01  0.96624173468E+01  0.51100000000E-03 0.  1.
        -12    1    3    3    0    0  0.26086877932E+02 -0.40843455607E+01  0.36014258270E+02  0.44656845809E+02  0.00000000000E+00 0.  1.
</event>
<event>
 7    1  0.2404951E-015  0.9000756E+02  0.7816164E-02  0.1186339E+00
        -11   -1    0    0    0    0  0.00000000000E+00  0.00000000000E+00  0.45593999997E+02  0.45594000000E+02  0.51100000000E-03 0.  1.
         11   -1    0    0    0    0 -0.00000000000E+00 -0.00000000000E+00 -0.45593999997E+02  0.45594000000E+02  0.51100000000E-03 0. -1.
    9900012    2    1    2    0    0  0.16446632720E+00  0.30787668304E+00  0.11276481901E+01  0.90007564629E+02  0.89999823682E+02 0.  0.
         12    1    1    2    0    0 -0.16446632720E+00 -0.30787668304E+00 -0.11276481901E+01  0.11804353712E+01  0.00000000000E+00 0. -1.
         11    1    3    3    0    0 -0.29604945835E+02  0.11139993600E+02 -0.67271257174E+01  0.32338931584E+02  0.51100000000E-03 0. -1.
        -11    1    3    3    0    0  0.54168398788E+00  0.12644817617E+02 -0.10013962015E+02  0.16138905466E+02  0.51100000000E-03 0.  1.
        -12    1    3    3    0    0  0.29227728174E+02 -0.23476934534E+02  0.17868735923E+02  0.41529727580E+02  0.00000000000E+00 0.  1.
</event>
<event>
 7    1  0.2404951E-015  0.9000777E+02  0.7816164E-02  0.1186339E+00
        -11   -1    0    0    0    0  0.00000000000E+00  0.00000000000E+00  0.45593999997E+02  0.45594000000E+02  0.51100000000E-03 0. -1.
         11   -1    0    0    0    0 -0.00000000000E+00 -0.00000000000E+00 -0.45593999997E+02  0.45594000000E+02  0.51100000000E-03 0.  1.
    9900012    2    1    2    0    0  0.31481185286E+00 -0.10354916819E+01 -0.47072684371E+00  0.90007774052E+02  0.90000035870E+02 0.  0.
         12    1    1    2    0    0 -0.31481185286E+00  0.10354916819E+01  0.47072684371E+00  0.11802259476E+01  0.00000000000E+00 0. -1.
         11    1    3    3    0    0  0.27936524063E+02  0.22429542799E+02 -0.12683284861E+02  0.38005255979E+02  0.51100000000E-03 0. -1.
        -11    1    3    3    0    0 -0.14992252622E+00  0.10376044738E+01 -0.93047665627E+01  0.93636414314E+01  0.51100000000E-03 0.  1.
        -12    1    3    3    0    0 -0.27471789684E+02 -0.24502638955E+02  0.21517324580E+02  0.42638876642E+02  0.00000000000E+00 0.  1.
</event>
<event>
 7    1  0.2404951E-015  0.9000770E+02  0.7816164E-02  0.1186339E+00
        -11   -1    0    0    0    0  0.00000000000E+00  0.00000000000E+00  0.45593999997E+02  0.45594000000E+02  0.51100000000E-03 0.  1.
         11   -1    0    0    0    0 -0.00000000000E+00 -0.00000000000E+00 -0.45593999997E+02  0.45594000000E+02  0.51100000000E-03 0. -1.
    9900012    2    1    2    0    0 -0.69164195095E+00 -0.75512313306E+00 -0.58695866886E+00  0.90007703421E+02  0.89999964307E+02 0.  0.
         12    1    1    2    0    0  0.69164195095E+00  0.75512313306E+00  0.58695866886E+00  0.11802965786E+01  0.00000000000E+00 0. -1.
         11    1    3    3    0    0  0.99313175569E+00  0.19185250287E+01 -0.95020787475E+01  0.97445651393E+01  0.51100000000E-03 0. -1.
        -11    1    3    3    0    0 -0.33869387440E+02 -0.21671673615E+02 -0.47082300108E+01  0.40484123715E+02  0.51100000000E-03 0.  1.
         12    1    3    3    0    0  0.32184613734E+02  0.18998025453E+02  0.13623350089E+02  0.39779014567E+02  0.00000000000E+00 0. -1.
</event>
<event>
 7    1  0.2404951E-015  0.9000793E+02  0.7816164E-02  0.1186339E+00
        -11   -1    0    0    0    0  0.00000000000E+00  0.00000000000E+00  0.45593999997E+02  0.45594000000E+02  0.51100000000E-03 0.  1.
         11   -1    0    0    0    0 -0.00000000000E+00 -0.00000000000E+00 -0.45593999997E+02  0.45594000000E+02  0.51100000000E-03 0. -1.
    9900012    2    1    2    0    0 -0.77959722562E+00  0.78057622291E+00  0.41891973619E+00  0.90007930163E+02  0.90000194041E+02 0.  0.
         12    1    1    2    0    0  0.77959722562E+00 -0.78057622291E+00 -0.41891973619E+00  0.11800698366E+01  0.00000000000E+00 0. -1.
         11    1    3    3    0    0 -0.13137781984E+01 -0.50074685047E+01 -0.78920500976E+01  0.94384961187E+01  0.51100000000E-03 0. -1.
        -11    1    3    3    0    0  0.32390977504E+02 -0.20583627775E+02  0.80476548435E+01  0.39212573300E+02  0.51100000000E-03 0.  1.
         12    1    3    3    0    0 -0.31856796532E+02  0.26371672503E+02  0.26331499023E+00  0.41356860744E+02  0.00000000000E+00 0. -1.
</event>
<event>
 7    1  0.2404951E-015  0.9000779E+02  0.7816164E-02  0.1186339E+00
        -11   -1    0    0    0    0  0.00000000000E+00  0.00000000000E+00  0.45593999997E+02  0.45594000000E+02  0.51100000000E-03 0. -1.
         11   -1    0    0    0    0 -0.00000000000E+00 -0.00000000000E+00 -0.45593999997E+02  0.45594000000E+02  0.51100000000E-03 0.  1.
    9900012    2    1    2    0    0 -0.11214635863E+01 -0.36330397542E+00 -0.56856915845E-01  0.90007786857E+02  0.90000048844E+02 0.  0.
         12    1    1    2    0    0  0.11214635863E+01  0.36330397542E+00  0.56856915845E-01  0.11802131430E+01  0.00000000000E+00 0. -1.
         11    1    3    3    0    0 -0.46314237067E+01 -0.26724372731E+02 -0.78957275198E+01  0.28248622918E+02  0.51100000000E-03 0. -1.
        -11    1    3    3    0    0  0.93612326758E+01 -0.12833919535E+02  0.14578335006E+02  0.21560844595E+02  0.51100000000E-03 0.  1.
        -12    1    3    3    0    0 -0.58512725554E+01  0.39194988291E+02 -0.67394644017E+01  0.40198319344E+02  0.00000000000E+00 0.  1.
</event>
<event>
 7    1  0.2404951E-015  0.9000748E+02  0.7816164E-02  0.1186340E+00
        -11   -1    0    0    0    0  0.00000000000E+00  0.00000000000E+00  0.45593999997E+02  0.45594000000E+02  0.51100000000E-03 0.  1.
         11   -1    0    0    0    0 -0.00000000000E+00 -0.00000000000E+00 -0.45593999997E+02  0.45594000000E+02  0.51100000000E-03 0. -1.
    9900012    2    1    2    0    0  0.13425598691E+00  0.87987658169E+00  0.77550903718E+00  0.90007482429E+02  0.89999740397E+02 0.  0.
         12    1    1    2    0    0 -0.13425598691E+00 -0.87987658169E+00 -0.77550903718E+00  0.11805175711E+01  0.00000000000E+00 0. -1.
         11    1    3    3    0    0 -0.44971677038E+01  0.95919043735E+01 -0.28569725951E+02  0.30470615157E+02  0.51100000000E-03 0. -1.
        -11    1    3    3    0    0 -0.14805828054E+02 -0.90438337125E+01 -0.66881611117E+01  0.18593949874E+02  0.51100000000E-03 0.  1.
        -12    1    3    3    0    0  0.19437251745E+02  0.33180592070E+00  0.36033396100E+02  0.40942917398E+02  0.00000000000E+00 0.  1.
</event>
<event>
 7    1  0.2404951E-015  0.9000771E+02  0.7816164E-02  0.1186339E+00
        -11   -1    0    0    0    0  0.00000000000E+00  0.00000000000E+00  0.45593999997E+02  0.45594000000E+02  0.51100000000E-03 0.  1.
         11   -1    0    0    0    0 -0.00000000000E+00 -0.00000000000E+00 -0.45593999997E+02  0.45594000000E+02  0.51100000000E-03 0. -1.
    9900012    2    1    2    0    0 -0.99193154123E+00 -0.54270354529E+00  0.33856188419E+00  0.90007712124E+02  0.89999973124E+02 0.  0.
         12    1    1    2    0    0  0.99193154123E+00  0.54270354529E+00 -0.33856188419E+00  0.11802878759E+01  0.00000000000E+00 0. -1.
         11    1    3    3    0    0  0.44389896491E+01 -0.71292161803E+01  0.31706532184E+01  0.89768254156E+01  0.51100000000E-03 0. -1.
        -11    1    3    3    0    0  0.31753128618E+02  0.79832077773E+01  0.19033564015E+02  0.37871748611E+02  0.51100000000E-03 0.  1.
         12    1    3    3    0    0 -0.37184049809E+02 -0.13966951424E+01 -0.21865655349E+02  0.43159138098E+02  0.00000000000E+00 0. -1.
</event>
<event>
 7    1  0.2404951E-015  0.9000782E+02  0.7816164E-02  0.1186339E+00
        -11   -1    0    0    0    0  0.00000000000E+00  0.00000000000E+00  0.45593999997E+02  0.45594000000E+02  0.51100000000E-03 0.  1.
         11   -1    0    0    0    0 -0.00000000000E+00 -0.00000000000E+00 -0.45593999997E+02  0.45594000000E+02  0.51100000000E-03 0. -1.
    9900012    2    1    2    0    0  0.54498288271E+00 -0.10296792394E+01  0.18865512367E+00  0.90007815085E+02  0.90000077444E+02 0.  0.
         12    1    1    2    0    0 -0.54498288271E+00  0.10296792394E+01 -0.18865512367E+00  0.11801849153E+01  0.00000000000E+00 0. -1.
         11    1    3    3    0    0  0.70172760136E+01 -0.31645087439E+01  0.76369227643E+01  0.10843378985E+02  0.51100000000E-03 0. -1.
        -11    1    3    3    0    0 -0.18766634358E+02  0.37041347927E+02 -0.72700625107E+01  0.42155685626E+02  0.51100000000E-03 0.  1.
         12    1    3    3    0    0  0.12294341228E+02 -0.34906518423E+02 -0.17820512989E+00  0.37008750474E+02  0.00000000000E+00 0. -1.
</event>
<event>
 7    1  0.2404951E-015  0.9000776E+02  0.7816164E-02  0.1186339E+00
        -11   -1    0    0    0    0  0.00000000000E+00  0.00000000000E+00  0.45593999997E+02  0.45594000000E+02  0.51100000000E-03 0.  1.
         11   -1    0    0    0    0 -0.00000000000E+00 -0.00000000000E+00 -0.45593999997E+02  0.45594000000E+02  0.51100000000E-03 0. -1.
    9900012    2    1    2    0    0 -0.24741446353E+00  0.58046495244E+00  0.99740372849E+00  0.90007759484E+02  0.90000021109E+02 0.  0.
         12    1    1    2    0    0  0.24741446353E+00 -0.58046495244E+00 -0.99740372849E+00  0.11802405159E+01  0.00000000000E+00 0. -1.
         11    1    3    3    0    0  0.44575952789E+01  0.41890988729E+02  0.32393237976E+01  0.42251843880E+02  0.51100000000E-03 0. -1.
        -11    1    3    3    0    0 -0.78770596467E+01 -0.39318218241E+01  0.40980455797E+01  0.97108840673E+01  0.51100000000E-03 0.  1.
        -12    1    3    3    0    0  0.31720499043E+01 -0.37378701952E+02 -0.63399656488E+01  0.38045031537E+02  0.00000000000E+00 0.  1.
</event>
<event>
 7    1  0.2404951E-015  0.9000791E+02  0.7816164E-02  0.1186339E+00
        -11   -1    0    0    0    0  0.00000000000E+00  0.00000000000E+00  0.45593999997E+02  0.45594000000E+02  0.51100000000E-03 0. -1.
         11   -1    0    0    0    0 -0.00000000000E+00 -0.00000000000E+00 -0.45593999997E+02  0.45594000000E+02  0.51100000000E-03 0.  1.
    9900012    2    1    2    0    0 -0.28309620236E+00  0.49332247881E+00 -0.10339715501E+01  0.90007911997E+02  0.90000175635E+02 0.  0.
         12    1    1    2    0    0  0.28309620236E+00 -0.49332247881E+00  0.10339715501E+01  0.11800880028E+01  0.00000000000E+00 0. -1.
         11    1    3    3    0    0  0.39451491137E+01 -0.31387682792E+01 -0.92191548655E+01  0.10507563206E+02  0.51100000000E-03 0. -1.
        -11    1    3    3    0    0  0.34217624273E+02 -0.46944058836E+01 -0.10293105629E+02  0.36039301897E+02  0.51100000000E-03 0.  1.
         12    1    3    3    0    0 -0.38445869589E+02  0.83264966416E+01  0.18478288944E+02  0.43461046894E+02  0.00000000000E+00 0. -1.
</event>
<event>
 7    1  0.2404951E-015  0.9000810E+02  0.7816164E-02  0.1186338E+00
        -11   -1    0    0    0    0  0.00000000000E+00  0.00000000000E+00  0.45593999997E+02  0.45594000000E+02  0.51100000000E-03 0. -1.
         11   -1    0    0    0    0 -0.00000000000E+00 -0.00000000000E+00 -0.45593999997E+02  0.45594000000E+02  0.51100000000E-03 0.  1.
    9900012    2    1    2    0    0  0.89337605300E+00  0.61333399843E+00 -0.46676596553E+00  0.90008097533E+02  0.90000363619E+02 0.  0.
         12    1    1    2    0    0 -0.89337605300E+00 -0.61333399843E+00  0.46676596553E+00  0.11799024673E+01  0.00000000000E+00 0. -1.
         11    1    3    3    0    0 -0.26033145220E+02 -0.28499319153E+02 -0.35114277062E+01  0.38759075931E+02  0.51100000000E-03 0. -1.
        -11    1    3    3    0    0 -0.75294494405E+01  0.63853683029E+01  0.98010189047E+00  0.99209947696E+01  0.51100000000E-03 0.  1.
        -12    1    3    3    0    0  0.34455970714E+02  0.22727284849E+02  0.20645598502E+01  0.41328026832E+02  0.00000000000E+00 0.  1.
</event>
<event>
 7    1  0.2404951E-015  0.9000779E+02  0.7816164E-02  0.1186339E+00
        -11   -1    0    0    0    0  0.00000000000E+00  0.00000000000E+00  0.45593999997E+02  0.45594000000E+02  0.51100000000E-03 0. -1.
         11   -1    0    0    0    0 -0.00000000000E+00 -0.00000000000E+00 -0.45593999997E+02  0.45594000000E+02  0.51100000000E-03 0.  1.
    9900012    2    1    2    0    0 -0.88798400351E+00  0.25396411057E+00 -0.73476881828E+00  0.90007788758E+02  0.90000050769E+02 0.  0.
         12    1    1    2    0    0  0.88798400351E+00 -0.25396411057E+00  0.73476881828E+00  0.11802112422E+01  0.00000000000E+00 0. -1.
         11    1    3    3    0    0 -0.24836988192E+01 -0.14211392144E+02  0.34015819282E+02  0.36948726476E+02  0.51100000000E-03 0. -1.
        -11    1    3    3    0    0 -0.12063426728E+01  0.10453299036E+02  0.59344661355E+01  0.12080753783E+02  0.51100000000E-03 0.  1.
        -12    1    3    3    0    0  0.28020574885E+01  0.40120572182E+01 -0.40685054236E+02  0.40978308499E+02  0.00000000000E+00 0.  1.
</event>
<event>
 7    1  0.2404951E-015  0.9000776E+02  0.7816164E-02  0.1186339E+00
        -11   -1    0    0    0    0  0.00000000000E+00  0.00000000000E+00  0.45593999997E+02  0.45594000000E+02  0.51100000000E-03 0.  1.
         11   -1    0    0    0    0 -0.00000000000E+00 -0.00000000000E+00 -0.45593999997E+02  0.45594000000E+02  0.51100000000E-03 0. -1.
    9900012    2    1    2    0    0  0.64992919699E+00 -0.49497200902E+00  0.85180238149E+00  0.90007757420E+02  0.90000019018E+02 0.  0.
         12    1    1    2    0    0 -0.64992919699E+00  0.49497200902E+00 -0.85180238149E+00  0.11802425801E+01  0.00000000000E+00 0. -1.
         11    1    3    3    0    0  0.27498584960E+02 -0.19102908654E+02 -0.16749955177E+02  0.37438673755E+02  0.51100000000E-03 0. -1.
        -11    1    3    3    0    0 -0.32225865708E+01 -0.88478650944E+01 -0.41800535406E+01  0.10302554479E+02  0.51100000000E-03 0.  1.
        -12    1    3    3    0    0 -0.23626069192E+02  0.27455801739E+02  0.21781811099E+02  0.42266529185E+02  0.00000000000E+00 0.  1.
</event>
<event>
 7    1  0.2404951E-015  0.9000774E+02  0.7816164E-02  0.1186339E+00
        -11   -1    0    0    0    0  0.00000000000E+00  0.00000000000E+00  0.45593999997E+02  0.45594000000E+02  0.51100000000E-03 0. -1.
         11   -1    0    0    0    0 -0.00000000000E+00 -0.00000000000E+00 -0.45593999997E+02  0.45594000000E+02  0.51100000000E-03 0.  1.
    9900012    2    1    2    0    0  0.49991741123E+00 -0.10628780394E+01 -0.11575103627E+00  0.90007735010E+02  0.89999996312E+02 0.  0.
         12    1    1    2    0    0 -0.49991741123E+00  0.10628780394E+01  0.11575103627E+00  0.11802649902E+01  0.00000000000E+00 0. -1.
         11    1    3    3    0    0  0.11396143483E+02  0.74230082642E+01  0.10446908635E+02  0.17149665835E+02  0.51100000000E-03 0.  1.
        -11    1    3    3    0    0  0.70419485328E+01  0.14557741724E+02  0.23160909346E+02  0.28247913290E+02  0.51100000000E-03 0. -1.
        -12    1    3    3    0    0 -0.17938174605E+02 -0.23043628027E+02 -0.33723569017E+02  0.44610155885E+02  0.00000000000E+00 0.  1.
</event>
<event>
 7    1  0.2404951E-015  0.9000770E+02  0.7816164E-02  0.1186339E+00
        -11   -1    0    0    0    0  0.00000000000E+00  0.00000000000E+00  0.45593999997E+02  0.45594000000E+02  0.51100000000E-03 0.  1.
         11   -1    0    0    0    0 -0.00000000000E+00 -0.00000000000E+00 -0.45593999997E+02  0.45594000000E+02  0.51100000000E-03 0. -1.
    9900012    2    1    2    0    0  0.11574479475E+01  0.20444292166E+00 -0.10785215878E+00  0.90007697180E+02  0.89999957982E+02 0.  0.
         12    1    1    2    0    0 -0.11574479475E+01 -0.20444292166E+00  0.10785215878E+00  0.11803028203E+01  0.00000000000E+00 0. -1.
         11    1    3    3    0    0 -0.85949603800E+00  0.18337795276E+02 -0.40617668765E+01  0.18801899357E+02  0.51100000000E-03 0. -1.
        -11    1    3    3    0    0 -0.22356697114E+02  0.77952275433E+01 -0.17689229887E+02  0.29554971368E+02  0.51100000000E-03 0.  1.
        -12    1    3    3    0    0  0.24373641100E+02 -0.25928579898E+02  0.21643144604E+02  0.41650826454E+02  0.00000000000E+00 0.  1.
</event>
<event>
 7    1  0.2404951E-015  0.9000772E+02  0.7816164E-02  0.1186339E+00
        -11   -1    0    0    0    0  0.00000000000E+00  0.00000000000E+00  0.45593999997E+02  0.45594000000E+02  0.51100000000E-03 0.  1.
         11   -1    0    0    0    0 -0.00000000000E+00 -0.00000000000E+00 -0.45593999997E+02  0.45594000000E+02  0.51100000000E-03 0. -1.
    9900012    2    1    2    0    0  0.93122950143E+00  0.50555660197E+00  0.51988977604E+00  0.90007719846E+02  0.89999980948E+02 0.  0.
         12    1    1    2    0    0 -0.93122950143E+00 -0.50555660197E+00 -0.51988977604E+00  0.11802801538E+01  0.00000000000E+00 0. -1.
         11    1    3    3    0    0  0.64033261284E+01  0.10700604857E+01 -0.10605621739E+01  0.65781765965E+01  0.51100000000E-03 0. -1.
        -11    1    3    3    0    0  0.21774865223E+02 -0.32636938026E+02  0.10052705452E+02  0.40501498322E+02  0.51100000000E-03 0.  1.
         12    1    3    3    0    0 -0.27246961850E+02  0.32072434142E+02 -0.84722535019E+01  0.42928044927E+02  0.00000000000E+00 0. -1.
</event>
<event>
 7    1  0.2404951E-015  0.9000777E+02  0.7816164E-02  0.1186339E+00
        -11   -1    0    0    0    0  0.00000000000E+00  0.00000000000E+00  0.45593999997E+02  0.45594000000E+02  0.51100000000E-03 0.  1.
         11   -1    0    0    0    0 -0.00000000000E+00 -0.00000000000E+00 -0.45593999997E+02  0.45594000000E+02  0.51100000000E-03 0. -1.
    9900012    2    1    2    0    0  0.16568822175E+00 -0.11588704429E+01  0.15002964616E+00  0.90007770283E+02  0.90000032051E+02 0.  0.
         12    1    1    2    0    0 -0.16568822175E+00  0.11588704429E+01 -0.15002964616E+00  0.11802297171E+01  0.00000000000E+00 0. -1.
         11    1    3    3    0    0  0.32763672025E+00  0.83261915779E+01 -0.40468842139E+01  0.92633732579E+01  0.51100000000E-03 0. -1.
        -11    1    3    3    0    0  0.29951637243E+02 -0.15476205670E+02 -0.22105809381E+02  0.40314765585E+02  0.51100000000E-03 0.  1.
         12    1    3    3    0    0 -0.30113585742E+02  0.59911436493E+01  0.26302723241E+02  0.40429631440E+02  0.00000000000E+00 0. -1.
</event>
<event>
 7    1  0.2404951E-015  0.9000779E+02  0.7816164E-02  0.1186339E+00
        -11   -1    0    0    0    0  0.00000000000E+00  0.00000000000E+00  0.45593999997E+02  0.45594000000E+02  0.51100000000E-03 0. -1.
         11   -1    0    0    0    0 -0.00000000000E+00 -0.00000000000E+00 -0.45593999997E+02  0.45594000000E+02  0.51100000000E-03 0.  1.
    9900012    2    1    2    0    0 -0.69341483073E+00  0.89437092783E+00  0.33490447459E+00  0.90007794725E+02  0.90000056815E+02 0.  0.
         12    1    1    2    0    0  0.69341483073E+00 -0.89437092783E+00 -0.33490447459E+00  0.11802052750E+01  0.00000000000E+00 0. -1.
         11    1    3    3    0    0 -0.13839015909E+02 -0.35122157475E+02  0.13008954842E+02  0.39928901980E+02  0.51100000000E-03 0. -1.
        -11    1    3    3    0    0 -0.87428761050E+01  0.69911604207E+01  0.99951409683E+00  0.11238916109E+02  0.51100000000E-03 0.  1.
        -12    1    3    3    0    0  0.21888477183E+02  0.29025367982E+02 -0.13673564464E+02  0.38839976636E+02  0.00000000000E+00 0.  1.
</event>
<event>
 7    1  0.2404951E-015  0.9000773E+02  0.7816164E-02  0.1186339E+00
        -11   -1    0    0    0    0  0.00000000000E+00  0.00000000000E+00  0.45593999997E+02  0.45594000000E+02  0.51100000000E-03 0.  1.
         11   -1    0    0    0    0 -0.00000000000E+00 -0.00000000000E+00 -0.45593999997E+02  0.45594000000E+02  0.51100000000E-03 0. -1.
    9900012    2    1    2    0    0  0.12906228934E+00 -0.40616558976E+00 -0.11006389595E+01  0.90007731522E+02  0.89999992778E+02 0.  0.
         12    1    1    2    0    0 -0.12906228934E+00  0.40616558976E+00  0.11006389595E+01  0.11802684779E+01  0.00000000000E+00 0. -1.
         11    1    3    3    0    0 -0.72235002543E+01 -0.27048356196E+01  0.36794431635E+01  0.85459577525E+01  0.51100000000E-03 0. -1.
        -11    1    3    3    0    0  0.63009973731E+01  0.17833758664E+02  0.34424460999E+02  0.39278353216E+02  0.51100000000E-03 0.  1.
         12    1    3    3    0    0  0.10515651705E+01 -0.15535088635E+02 -0.39204543122E+02  0.42183420554E+02  0.00000000000E+00 0. -1.
</event>
<event>
 7    1  0.2404951E-015  0.9000754E+02  0.7816164E-02  0.1186339E+00
        -11   -1    0    0    0    0  0.00000000000E+00  0.00000000000E+00  0.45593999997E+02  0.45594000000E+02  0.51100000000E-03 0.  1.
         11   -1    0    0    0    0 -0.00000000000E+00 -0.00000000000E+00 -0.45593999997E+02  0.45594000000E+02  0.51100000000E-03 0. -1.
    9900012    2    1    2    0    0  0.40172850854E+00  0.51731970843E+00  0.98207855819E+00  0.90007540865E+02  0.89999799604E+02 0.  0.
         12    1    1    2    0    0 -0.40172850854E+00 -0.51731970843E+00 -0.98207855819E+00  0.11804591352E+01  0.00000000000E+00 0. -1.
         11    1    3    3    0    0 -0.96036374180E+00 -0.18625872434E+02  0.30484649604E+02  0.35737365378E+02  0.51100000000E-03 0. -1.
        -11    1    3    3    0    0 -0.85166026138E+01  0.72076013562E+01  0.79763255037E+01  0.13715094101E+02  0.51100000000E-03 0.  1.
        -12    1    3    3    0    0  0.98786948641E+01  0.11935590787E+02 -0.37478896549E+02  0.40555081386E+02  0.00000000000E+00 0.  1.
</event>
<event>
 7    1  0.2404951E-015  0.9000766E+02  0.7816164E-02  0.1186339E+00
        -11   -1    0    0    0    0  0.00000000000E+00  0.00000000000E+00  0.45593999997E+02  0.45594000000E+02  0.51100000000E-03 0.  1.
         11   -1    0    0    0    0 -0.00000000000E+00 -0.00000000000E+00 -0.45593999997E+02  0.45594000000E+02  0.51100000000E-03 0. -1.
    9900012    2    1    2    0    0 -0.13316114374E-01 -0.80108039662E+00  0.86677596212E+00  0.90007657808E+02  0.89999918091E+02 0.  0.
         12    1    1    2    0    0  0.13316114374E-01  0.80108039662E+00 -0.86677596212E+00  0.11803421916E+01  0.00000000000E+00 0. -1.
         11    1    3    3    0    0  0.60290991911E+01 -0.77090980462E+01 -0.65709804541E+01  0.11788045391E+02  0.51100000000E-03 0. -1.
        -11    1    3    3    0    0 -0.30733317075E+02  0.30700352430E+02  0.18581209702E+01  0.43479892267E+02  0.51100000000E-03 0.  1.
         12    1    3    3    0    0  0.24690901769E+02 -0.23792334780E+02  0.55796354460E+01  0.34739720151E+02  0.00000000000E+00 0. -1.
</event>
<event>
 7    1  0.2404951E-015  0.9000777E+02  0.7816164E-02  0.1186339E+00
        -11   -1    0    0    0    0  0.00000000000E+00  0.00000000000E+00  0.45593999997E+02  0.45594000000E+02  0.51100000000E-03 0. -1.
         11   -1    0    0    0    0 -0.00000000000E+00 -0.00000000000E+00 -0.45593999997E+02  0.45594000000E+02  0.51100000000E-03 0.  1.
    9900012    2    1    2    0    0 -0.11166325097E+01  0.20446214920E+00  0.32290657058E+00  0.90007770537E+02  0.90000032308E+02 0.  0.
         12    1    1    2    0    0  0.11166325097E+01 -0.20446214920E+00 -0.32290657058E+00  0.11802294631E+01  0.00000000000E+00 0. -1.
         11    1    3    3    0    0 -0.66240685997E+00  0.88167535242E+01  0.34087131006E+02  0.35215144839E+02  0.51100000000E-03 0. -1.
        -11    1    3    3    0    0  0.94096262083E+00  0.63214710169E+01  0.81028363813E+01  0.10319998263E+02  0.51100000000E-03 0.  1.
        -12    1    3    3    0    0 -0.13951882706E+01 -0.14933762392E+02 -0.41867060817E+02  0.44472627434E+02  0.00000000000E+00 0.  1.
</event>
<event>
 7    1  0.2404951E-015  0.9000774E+02  0.7816164E-02  0.1186339E+00
        -11   -1    0    0    0    0  0.00000000000E+00  0.00000000000E+00  0.45593999997E+02  0.45594000000E+02  0.51100000000E-03 0.  1.
         11   -1    0    0    0    0 -0.00000000000E+00 -0.00000000000E+00 -0.45593999997E+02  0.45594000000E+02  0.51100000000E-03 0. -1.
    9900012    2    1    2    0    0  0.78985020126E+00  0.73614006090E+00  0.47670515805E+00  0.90007740140E+02  0.90000001510E+02 0.  0.
         12    1    1    2    0    0 -0.78985020126E+00 -0.73614006090E+00 -0.47670515805E+00  0.11802598601E+01  0.00000000000E+00 0. -1.
         11    1    3    3    0    0 -0.15537619960E+01 -0.38443314849E+02 -0.92568305714E+01  0.39572611051E+02  0.51100000000E-03 0. -1.
        -11    1    3    3    0    0 -0.30225852931E+01 -0.18947312090E+01  0.82466979911E+01  0.89852131987E+01  0.51100000000E-03 0.  1.
        -12    1    3    3    0    0  0.53661974903E+01  0.41074186119E+02  0.14868377384E+01  0.41449915890E+02  0.00000000000E+00 0.  1.
</event>
<event>
 7    1  0.2404951E-015  0.9000782E+02  0.7816164E-02  0.1186339E+00
        -11   -1    0    0    0    0  0.00000000000E+00  0.00000000000E+00  0.45593999997E+02  0.45594000000E+02  0.51100000000E-03 0. -1.
         11   -1    0    0    0    0 -0.00000000000E+00 -0.00000000000E+00 -0.45593999997E+02  0.45594000000E+02  0.51100000000E-03 0.  1.
    9900012    2    1    2    0    0 -0.10973811674E+01 -0.43408727373E+00 -0.11761098687E-01  0.90007823949E+02  0.90000086425E+02 0.  0.
         12    1    1    2    0    0  0.10973811674E+01  0.43408727373E+00  0.11761098687E-01  0.11801760509E+01  0.00000000000E+00 0. -1.
         11    1    3    3    0    0  0.38936389471E+01  0.31098123972E+01  0.82349294030E+01  0.96252490840E+01  0.51100000000E-03 0. -1.
        -11    1    3    3    0    0 -0.30569097280E+02  0.26528254399E+02 -0.37360254002E+01  0.40646966382E+02  0.51100000000E-03 0.  1.
         12    1    3    3    0    0  0.25578077165E+02 -0.30072154070E+02 -0.45106651014E+01  0.39735608483E+02  0.00000000000E+00 0. -1.
</event>
<event>
 7    1  0.2404951E-015  0.9000784E+02  0.7816164E-02  0.1186339E+00
        -11   -1    0    0    0    0  0.00000000000E+00  0.00000000000E+00  0.45593999997E+02  0.45594000000E+02  0.51100000000E-03 0. -1.
         11   -1    0    0    0    0 -0.00000000000E+00 -0.00000000000E+00 -0.45593999997E+02  0.45594000000E+02  0.51100000000E-03 0.  1.
    9900012    2    1    2    0    0  0.27265656806E+00  0.11373532289E+01  0.15766604428E+00  0.90007842149E+02  0.90000104865E+02 0.  0.
         12    1    1    2    0    0 -0.27265656806E+00 -0.11373532289E+01 -0.15766604428E+00  0.11801578509E+01  0.00000000000E+00 0. -1.
         11    1    3    3    0    0 -0.60455508672E+01  0.19474194938E+02  0.50294087442E+00  0.20397203327E+02  0.51100000000E-03 0. -1.
        -11    1    3    3    0    0 -0.12198273384E+02  0.21440892849E+02 -0.59566576906E+01  0.25376988214E+02  0.51100000000E-03 0.  1.
         12    1    3    3    0    0  0.18516480819E+02 -0.39777734558E+02  0.56113828605E+01  0.44233650608E+02  0.00000000000E+00 0. -1.
</event>
<event>
 7    1  0.2404951E-015  0.9000761E+02  0.7816164E-02  0.1186339E+00
        -11   -1    0    0    0    0  0.00000000000E+00  0.00000000000E+00  0.45593999997E+02  0.45594000000E+02  0.51100000000E-03 0.  1.
         11   -1    0    0    0    0 -0.00000000000E+00 -0.00000000000E+00 -0.45593999997E+02  0.45594000000E+02  0.51100000000E-03 0. -1.
    9900012    2    1    2    0    0  0.84576853884E+00  0.81241159873E+00 -0.13407963006E+00  0.90007612617E+02  0.89999872303E+02 0.  0.
         12    1    1    2    0    0 -0.84576853884E+00 -0.81241159873E+00  0.13407963006E+00  0.11803873831E+01  0.00000000000E+00 0. -1.
         11    1    3    3    0    0  0.22952881437E+02 -0.19093309095E+02 -0.19891016650E+02  0.35875364278E+02  0.51100000000E-03 0. -1.
        -11    1    3    3    0    0  0.47750959596E+01 -0.19957382934E+01 -0.81282748749E+01  0.96360451152E+01  0.51100000000E-03 0.  1.
        -12    1    3    3    0    0 -0.26882208858E+02  0.21901458987E+02  0.27885211895E+02  0.44496203223E+02  0.00000000000E+00 0.  1.
</event>
<event>
 7    1  0.2404951E-015  0.9000778E+02  0.7816164E-02  0.1186339E+00
        -11   -1    0    0    0    0  0.00000000000E+00  0.00000000000E+00  0.45593999997E+02  0.45594000000E+02  0.51100000000E-03 0. -1.
         11   -1    0    0    0    0 -0.00000000000E+00 -0.00000000000E+00 -0.45593999997E+02  0.45594000000E+02  0.51100000000E-03 0.  1.
    9900012    2    1    2    0    0  0.48543147549E+00  0.10523123363E+01 -0.22343876741E+00  0.90007775507E+02  0.90000037344E+02 0.  0.
         12    1    1    2    0    0 -0.48543147549E+00 -0.10523123363E+01  0.22343876741E+00  0.11802244928E+01  0.00000000000E+00 0. -1.
         11    1    3    3    0    0  0.23638855516E+01  0.55401758315E+01 -0.89151125735E+01  0.10759216310E+02  0.51100000000E-03 0. -1.
        -11    1    3    3    0    0  0.16213330557E+02  0.65865165339E+01 -0.30225344778E+02  0.34926003994E+02  0.51100000000E-03 0.  1.
         12    1    3    3    0    0 -0.18091784633E+02 -0.11074380029E+02  0.38917018584E+02  0.44322555203E+02  0.00000000000E+00 0. -1.
</event>
<event>
 7    1  0.2404951E-015  0.9000778E+02  0.7816164E-02  0.1186339E+00
        -11   -1    0    0    0    0  0.00000000000E+00  0.00000000000E+00  0.45593999997E+02  0.45594000000E+02  0.51100000000E-03 0. -1.
         11   -1    0    0    0    0 -0.00000000000E+00 -0.00000000000E+00 -0.45593999997E+02  0.45594000000E+02  0.51100000000E-03 0.  1.
    9900012    2    1    2    0    0  0.10898287168E+01 -0.41344695842E+00 -0.18506882723E+00  0.90007781592E+02  0.90000043509E+02 0.  0.
         12    1    1    2    0    0 -0.10898287168E+01  0.41344695842E+00  0.18506882723E+00  0.11802184078E+01  0.00000000000E+00 0. -1.
         11    1    3    3    0    0  0.73915817525E+01  0.23960254411E+00  0.74203292107E+01  0.10476362730E+02  0.51100000000E-03 0. -1.
        -11    1    3    3    0    0 -0.26881878396E+02  0.30057937595E+02  0.46305757619E+01  0.40590112475E+02  0.51100000000E-03 0.  1.
         12    1    3    3    0    0  0.20580125360E+02 -0.30710987098E+02 -0.12235973800E+02  0.38941306388E+02  0.00000000000E+00 0. -1.
</event>
<event>
 7    1  0.2404951E-015  0.9000782E+02  0.7816164E-02  0.1186339E+00
        -11   -1    0    0    0    0  0.00000000000E+00  0.00000000000E+00  0.45593999997E+02  0.45594000000E+02  0.51100000000E-03 0. -1.
         11   -1    0    0    0    0 -0.00000000000E+00 -0.00000000000E+00 -0.45593999997E+02  0.45594000000E+02  0.51100000000E-03 0.  1.
    9900012    2    1    2    0    0 -0.19367237902E+00  0.23930704060E-01 -0.11639328362E+01  0.90007821490E+02  0.90000083933E+02 0.  0.
         12    1    1    2    0    0  0.19367237902E+00 -0.23930704060E-01  0.11639328362E+01  0.11801785103E+01  0.00000000000E+00 0. -1.
         11    1    3    3    0    0  0.72405759144E+01 -0.15819370291E+02  0.35445336123E+02  0.39484810613E+02  0.51100000000E-03 0. -1.
        -11    1    3    3    0    0 -0.79724199921E+01  0.40806338964E+01  0.28069108150E+01  0.93856167678E+01  0.51100000000E-03 0.  1.
        -12    1    3    3    0    0  0.53817169873E+00  0.11762667099E+02 -0.39416179774E+02  0.41137394109E+02  0.00000000000E+00 0.  1.
</event>
<event>
 7    1  0.2404951E-015  0.9000772E+02  0.7816164E-02  0.1186339E+00
        -11   -1    0    0    0    0  0.00000000000E+00  0.00000000000E+00  0.45593999997E+02  0.45594000000E+02  0.51100000000E-03 0.  1.
         11   -1    0    0    0    0 -0.00000000000E+00 -0.00000000000E+00 -0.45593999997E+02  0.45594000000E+02  0.51100000000E-03 0. -1.
    9900012    2    1    2    0    0 -0.69478432827E-01 -0.82615247598E+00  0.84006594397E+00  0.90007717849E+02  0.89999978924E+02 0.  0.
         12    1    1    2    0    0  0.69478432827E-01  0.82615247598E+00 -0.84006594397E+00  0.11802821512E+01  0.00000000000E+00 0. -1.
         11    1    3    3    0    0 -0.64262616508E+01 -0.69347686178E+01  0.52938491683E+01  0.10835713814E+02  0.51100000000E-03 0. -1.
        -11    1    3    3    0    0 -0.11185537476E+02 -0.17035159782E+02  0.28635075779E+02  0.35146557194E+02  0.51100000000E-03 0.  1.
         12    1    3    3    0    0  0.17542320694E+02  0.23143775924E+02 -0.33088859004E+02  0.44025446841E+02  0.00000000000E+00 0. -1.
</event>
<event>
 7    1  0.2404951E-015  0.9000773E+02  0.7816164E-02  0.1186339E+00
        -11   -1    0    0    0    0  0.00000000000E+00  0.00000000000E+00  0.45593999997E+02  0.45594000000E+02  0.51100000000E-03 0. -1.
         11   -1    0    0    0    0 -0.00000000000E+00 -0.00000000000E+00 -0.45593999997E+02  0.45594000000E+02  0.51100000000E-03 0.  1.
    9900012    2    1    2    0    0  0.50413708389E+00  0.99446925783E+00 -0.38718278982E+00  0.90007731464E+02  0.89999992719E+02 0.  0.
         12    1    1    2    0    0 -0.50413708389E+00 -0.99446925783E+00  0.38718278982E+00  0.11802685359E+01  0.00000000000E+00 0. -1.
         11    1    3    3    0    0  0.34500811995E+01  0.30647262759E+01 -0.87223950142E+01  0.98679168255E+01  0.51100000000E-03 0. -1.
        -11    1    3    3    0    0 -0.36824455371E+01  0.22392216302E+02 -0.28180268971E+02  0.36181477521E+02  0.51100000000E-03 0.  1.
         12    1    3    3    0    0  0.73650142149E+00 -0.24462473320E+02  0.36515481195E+02  0.43958337118E+02  0.00000000000E+00 0. -1.
</event>
<event>
 7    1  0.2404951E-015  0.9000777E+02  0.7816164E-02  0.1186339E+00
        -11   -1    0    0    0    0  0.00000000000E+00  0.00000000000E+00  0.45593999997E+02  0.45594000000E+02  0.51100000000E-03 0.  1.
         11   -1    0    0    0    0 -0.00000000000E+00 -0.00000000000E+00 -0.45593999997E+02  0.45594000000E+02  0.51100000000E-03 0. -1.
    9900012    2    1    2    0    0  0.60566967572E+00 -0.55245600979E+00  0.84905391152E+00  0.90007772927E+02  0.90000034730E+02 0.  0.
         12    1    1    2    0    0 -0.60566967572E+00  0.55245600979E+00 -0.84905391152E+00  0.11802270729E+01  0.00000000000E+00 0. -1.
         11    1    3    3    0    0  0.26961643287E+01 -0.12928771549E+02 -0.35736655538E+02  0.38098963046E+02  0.51100000000E-03 0. -1.
        -11    1    3    3    0    0  0.72853494406E+01 -0.41549864939E+01 -0.22402706194E+01  0.86809585845E+01  0.51100000000E-03 0.  1.
        -12    1    3    3    0    0 -0.93758440937E+01  0.16531302034E+02  0.38825980069E+02  0.43227851297E+02  0.00000000000E+00 0.  1.
</event>
<event>
 7    1  0.2404951E-015  0.9000726E+02  0.7816164E-02  0.1186340E+00
        -11   -1    0    0    0    0  0.00000000000E+00  0.00000000000E+00  0.45593999997E+02  0.45594000000E+02  0.51100000000E-03 0.  1.
         11   -1    0    0    0    0 -0.00000000000E+00 -0.00000000000E+00 -0.45593999997E+02  0.45594000000E+02  0.51100000000E-03 0. -1.
    9900012    2    1    2    0    0  0.48157509576E+00  0.78703506513E+00  0.73675957348E+00  0.90007257253E+02  0.89999512247E+02 0.  0.
         12    1    1    2    0    0 -0.48157509576E+00 -0.78703506513E+00 -0.73675957348E+00  0.11807427475E+01  0.00000000000E+00 0. -1.
         11    1    3    3    0    0 -0.27882982286E+01  0.70203406227E+01  0.57688565893E+01  0.95047091528E+01  0.51100000000E-03 0. -1.
        -11    1    3    3    0    0 -0.27859522994E+02  0.22254496409E+02 -0.12229915702E+02  0.37695974191E+02  0.51100000000E-03 0.  1.
         12    1    3    3    0    0  0.31129396318E+02 -0.28487801966E+02  0.71978186861E+01  0.42806573909E+02  0.00000000000E+00 0. -1.
</event>
<event>
 7    1  0.2404951E-015  0.9000789E+02  0.7816164E-02  0.1186339E+00
        -11   -1    0    0    0    0  0.00000000000E+00  0.00000000000E+00  0.45593999997E+02  0.45594000000E+02  0.51100000000E-03 0. -1.
         11   -1    0    0    0    0 -0.00000000000E+00 -0.00000000000E+00 -0.45593999997E+02  0.45594000000E+02  0.51100000000E-03 0.  1.
    9900012    2    1    2    0    0 -0.98333059895E+00 -0.65240142724E+00  0.94365903499E-02  0.90007891641E+02  0.90000155011E+02 0.  0.
         12    1    1    2    0    0  0.98333059895E+00  0.65240142724E+00 -0.94365903499E-02  0.11801083587E+01  0.00000000000E+00 0. -1.
         11    1    3    3    0    0  0.33189105101E+02  0.65632367645E+01  0.18221016723E+02  0.38426530222E+02  0.51100000000E-03 0. -1.
        -11    1    3    3    0    0  0.18285277246E-02  0.58896360820E+01  0.54285147356E+01  0.80097808346E+01  0.51100000000E-03 0.  1.
        -12    1    3    3    0    0 -0.34174264228E+02 -0.13105274274E+02 -0.23640094868E+02  0.43571580585E+02  0.00000000000E+00 0.  1.
</event>
<event>
 7    1  0.2404951E-015  0.9000800E+02  0.7816164E-02  0.1186339E+00
        -11   -1    0    0    0    0  0.00000000000E+00  0.00000000000E+00  0.45593999997E+02  0.45594000000E+02  0.51100000000E-03 0. -1.
         11   -1    0    0    0    0 -0.00000000000E+00 -0.00000000000E+00 -0.45593999997E+02  0.45594000000E+02  0.51100000000E-03 0.  1.
    9900012    2    1    2    0    0 -0.66182976017E+00 -0.61469424144E+00 -0.75929922541E+00  0.90007998748E+02  0.90000263531E+02 0.  0.
         12    1    1    2    0    0  0.66182976017E+00  0.61469424144E+00  0.75929922541E+00  0.11800012524E+01  0.00000000000E+00 0. -1.
         11    1    3    3    0    0 -0.15289804937E+02  0.72498498738E+01  0.35128176234E+01  0.17282313101E+02  0.51100000000E-03 0. -1.
        -11    1    3    3    0    0  0.70906769090E+01 -0.36638002589E+02  0.11511606819E+02  0.39053015563E+02  0.51100000000E-03 0.  1.
         12    1    3    3    0    0  0.75372982679E+01  0.28773458474E+02 -0.15783723667E+02  0.33672670083E+02  0.00000000000E+00 0. -1.
</event>
<event>
 7    1  0.2404951E-015  0.9000805E+02  0.7816164E-02  0.1186338E+00
        -11   -1    0    0    0    0  0.00000000000E+00  0.00000000000E+00  0.45593999997E+02  0.45594000000E+02  0.51100000000E-03 0. -1.
         11   -1    0    0    0    0 -0.00000000000E+00 -0.00000000000E+00 -0.45593999997E+02  0.45594000000E+02  0.51100000000E-03 0.  1.
    9900012    2    1    2    0    0 -0.66177187400E+00  0.95887268924E+00  0.18679819768E+00  0.90008054063E+02  0.90000319576E+02 0.  0.
         12    1    1    2    0    0  0.66177187400E+00 -0.95887268924E+00 -0.18679819768E+00  0.11799459369E+01  0.00000000000E+00 0. -1.
         11    1    3    3    0    0  0.46949474158E+00 -0.59198217077E+01 -0.84908999346E+01  0.10361471726E+02  0.51100000000E-03 0. -1.
        -11    1    3    3    0    0 -0.87212826241E+01 -0.91817575217E+01 -0.32457146163E+02  0.34840088678E+02  0.51100000000E-03 0.  1.
         12    1    3    3    0    0  0.75900160085E+01  0.16060451919E+02  0.41134844295E+02  0.44806493659E+02  0.00000000000E+00 0. -1.
</event>
<event>
 7    1  0.2404951E-015  0.9000772E+02  0.7816164E-02  0.1186339E+00
        -11   -1    0    0    0    0  0.00000000000E+00  0.00000000000E+00  0.45593999997E+02  0.45594000000E+02  0.51100000000E-03 0. -1.
         11   -1    0    0    0    0 -0.00000000000E+00 -0.00000000000E+00 -0.45593999997E+02  0.45594000000E+02  0.51100000000E-03 0.  1.
    9900012    2    1    2    0    0  0.10606957681E+01  0.12466324729E+00 -0.50243110015E+00  0.90007723148E+02  0.89999984293E+02 0.  0.
         12    1    1    2    0    0 -0.10606957681E+01 -0.12466324729E+00  0.50243110015E+00  0.11802768523E+01  0.00000000000E+00 0. -1.
         11    1    3    3    0    0  0.29005189814E+01 -0.10383523450E+02 -0.72616468217E+01  0.12998541627E+02  0.51100000000E-03 0. -1.
        -11    1    3    3    0    0 -0.33687749560E+02 -0.11157345140E+01  0.21564867345E+02  0.40014407878E+02  0.51100000000E-03 0.  1.
         12    1    3    3    0    0  0.31847926347E+02  0.11623921211E+02 -0.14805651624E+02  0.36994773643E+02  0.00000000000E+00 0. -1.
</event>
<event>
 7    1  0.2404951E-015  0.9000778E+02  0.7816164E-02  0.1186339E+00
        -11   -1    0    0    0    0  0.00000000000E+00  0.00000000000E+00  0.45593999997E+02  0.45594000000E+02  0.51100000000E-03 0. -1.
         11   -1    0    0    0    0 -0.00000000000E+00 -0.00000000000E+00 -0.45593999997E+02  0.45594000000E+02  0.51100000000E-03 0.  1.
    9900012    2    1    2    0    0  0.28072920876E+00 -0.10723992241E+01  0.40504489602E+00  0.90007783769E+02  0.90000045715E+02 0.  0.
         12    1    1    2    0    0 -0.28072920876E+00  0.10723992241E+01 -0.40504489602E+00  0.11802162312E+01  0.00000000000E+00 0. -1.
         11    1    3    3    0    0 -0.45714491159E+00 -0.47411884891E+01 -0.85122558934E+01  0.97542990735E+01  0.51100000000E-03 0. -1.
        -11    1    3    3    0    0 -0.11363791807E+01 -0.28194144776E+02 -0.22027975596E+02  0.35797106956E+02  0.51100000000E-03 0.  1.
         12    1    3    3    0    0  0.18742533011E+01  0.31862934041E+02  0.30945276386E+02  0.44456377739E+02  0.00000000000E+00 0. -1.
</event>
<event>
 7    1  0.2404951E-015  0.9000767E+02  0.7816164E-02  0.1186339E+00
        -11   -1    0    0    0    0  0.00000000000E+00  0.00000000000E+00  0.45593999997E+02  0.45594000000E+02  0.51100000000E-03 0. -1.
         11   -1    0    0    0    0 -0.00000000000E+00 -0.00000000000E+00 -0.45593999997E+02  0.45594000000E+02  0.51100000000E-03 0.  1.
    9900012    2    1    2    0    0 -0.79593068971E+00  0.24304527270E+00 -0.83702228725E+00  0.90007668277E+02  0.89999928698E+02 0.  0.
         12    1    1    2    0    0  0.79593068971E+00 -0.24304527270E+00  0.83702228725E+00  0.11803317232E+01  0.00000000000E+00 0. -1.
         11    1    3    3    0    0  0.88782315315E+00  0.88528617890E+01  0.29043031451E+01  0.93592931799E+01  0.51100000000E-03 0. -1.
        -11    1    3    3    0    0  0.37206533006E+02  0.76170475364E+01 -0.59942445316E+01  0.38448361204E+02  0.51100000000E-03 0.  1.
         12    1    3    3    0    0 -0.38890286848E+02 -0.16226864053E+02  0.22529190993E+01  0.42200013893E+02  0.00000000000E+00 0. -1.
</event>
<event>
 7    1  0.2404951E-015  0.9000780E+02  0.7816164E-02  0.1186339E+00
        -11   -1    0    0    0    0  0.00000000000E+00  0.00000000000E+00  0.45593999997E+02  0.45594000000E+02  0.51100000000E-03 0. -1.
         11   -1    0    0    0    0 -0.00000000000E+00 -0.00000000000E+00 -0.45593999997E+02  0.45594000000E+02  0.51100000000E-03 0.  1.
    9900012    2    1    2    0    0  0.41379417467E+00 -0.10969061052E+01 -0.13579667953E+00  0.90007801135E+02  0.90000063310E+02 0.  0.
         12    1    1    2    0    0 -0.41379417467E+00  0.10969061052E+01  0.13579667953E+00  0.11801988649E+01  0.00000000000E+00 0. -1.
         11    1    3    3    0    0 -0.77415440731E+01  0.50233762190E+01 -0.77709112539E+01  0.12064529632E+02  0.51100000000E-03 0. -1.
        -11    1    3    3    0    0  0.32803294692E+02 -0.13115811676E+02 -0.19723099445E+02  0.40460861466E+02  0.51100000000E-03 0.  1.
         12    1    3    3    0    0 -0.24647956444E+02  0.69955293519E+01  0.27358214020E+02  0.37482410037E+02  0.00000000000E+00 0. -1.
</event>
<event>
 7    1  0.2404951E-015  0.9000773E+02  0.7816164E-02  0.1186339E+00
        -11   -1    0    0    0    0  0.00000000000E+00  0.00000000000E+00  0.45593999997E+02  0.45594000000E+02  0.51100000000E-03 0.  1.
         11   -1    0    0    0    0 -0.00000000000E+00 -0.00000000000E+00 -0.45593999997E+02  0.45594000000E+02  0.51100000000E-03 0. -1.
    9900012    2    1    2    0    0  0.35112117377E+00 -0.11126090868E+01 -0.17844526722E+00  0.90007734025E+02  0.89999995314E+02 0.  0.
         12    1    1    2    0    0 -0.35112117377E+00  0.11126090868E+01  0.17844526722E+00  0.11802659751E+01  0.00000000000E+00 0. -1.
         11    1    3    3    0    0  0.40104759886E+02 -0.31310862859E+01  0.58909025399E+01  0.40655850746E+02  0.51100000000E-03 0. -1.
        -11    1    3    3    0    0 -0.20810208843E+01 -0.43073382253E+00  0.85933781942E+01  0.88522499172E+01  0.51100000000E-03 0.  1.
        -12    1    3    3    0    0 -0.37672617828E+02  0.24492110216E+01 -0.14662726001E+02  0.40499633362E+02  0.00000000000E+00 0.  1.
</event>
<event>
 7    1  0.2404951E-015  0.9000771E+02  0.7816164E-02  0.1186339E+00
        -11   -1    0    0    0    0  0.00000000000E+00  0.00000000000E+00  0.45593999997E+02  0.45594000000E+02  0.51100000000E-03 0.  1.
         11   -1    0    0    0    0 -0.00000000000E+00 -0.00000000000E+00 -0.45593999997E+02  0.45594000000E+02  0.51100000000E-03 0. -1.
    9900012    2    1    2    0    0  0.86623097696E+00 -0.27968842942E+00 -0.75133035125E+00  0.90007712315E+02  0.89999973317E+02 0.  0.
         12    1    1    2    0    0 -0.86623097696E+00  0.27968842942E+00  0.75133035125E+00  0.11802876851E+01  0.00000000000E+00 0. -1.
         11    1    3    3    0    0  0.18295071295E+02  0.29059535667E+02 -0.20232049098E+02  0.39856016583E+02  0.51100000000E-03 0. -1.
        -11    1    3    3    0    0 -0.40523763367E+01  0.61806108100E+01  0.70471760452E+01  0.10211973092E+02  0.51100000000E-03 0.  1.
        -12    1    3    3    0    0 -0.13376463981E+02 -0.35519834907E+02  0.12433542702E+02  0.39939722640E+02  0.00000000000E+00 0.  1.
</event>
<event>
 7    1  0.2404951E-015  0.9000760E+02  0.7816164E-02  0.1186339E+00
        -11   -1    0    0    0    0  0.00000000000E+00  0.00000000000E+00  0.45593999997E+02  0.45594000000E+02  0.51100000000E-03 0.  1.
         11   -1    0    0    0    0 -0.00000000000E+00 -0.00000000000E+00 -0.45593999997E+02  0.45594000000E+02  0.51100000000E-03 0. -1.
    9900012    2    1    2    0    0  0.23237138153E+00 -0.71631812149E+00  0.90896901815E+00  0.90007604818E+02  0.89999864401E+02 0.  0.
         12    1    1    2    0    0 -0.23237138153E+00  0.71631812149E+00 -0.90896901815E+00  0.11803951822E+01  0.00000000000E+00 0. -1.
         11    1    3    3    0    0  0.32871733718E+02 -0.58566639667E+01 -0.19583406535E+02  0.38708670892E+02  0.51100000000E-03 0. -1.
        -11    1    3    3    0    0  0.41989930079E+01 -0.48635891405E+01 -0.23175102352E+01  0.68305853013E+01  0.51100000000E-03 0.  1.
        -12    1    3    3    0    0 -0.36838355345E+02  0.10003934986E+02  0.22809885788E+02  0.44468348624E+02  0.00000000000E+00 0.  1.
</event>
<event>
 7    1  0.2404951E-015  0.9000766E+02  0.7816164E-02  0.1186339E+00
        -11   -1    0    0    0    0  0.00000000000E+00  0.00000000000E+00  0.45593999997E+02  0.45594000000E+02  0.51100000000E-03 0.  1.
         11   -1    0    0    0    0 -0.00000000000E+00 -0.00000000000E+00 -0.45593999997E+02  0.45594000000E+02  0.51100000000E-03 0. -1.
    9900012    2    1    2    0    0 -0.69941462237E+00  0.77346457669E+00  0.55297626725E+00  0.90007656399E+02  0.89999916663E+02 0.  0.
         12    1    1    2    0    0  0.69941462237E+00 -0.77346457669E+00 -0.55297626725E+00  0.11803436015E+01  0.00000000000E+00 0. -1.
         11    1    3    3    0    0 -0.33233769042E+02  0.68701489094E+01 -0.57751964120E+01  0.34424340875E+02  0.51100000000E-03 0. -1.
        -11    1    3    3    0    0 -0.10525313900E+02 -0.17931839557E+01  0.61241402225E+01  0.12308648794E+02  0.51100000000E-03 0.  1.
        -12    1    3    3    0    0  0.43059668320E+02 -0.43035003771E+01  0.20403245666E+00  0.43274666730E+02  0.00000000000E+00 0.  1.
</event>
<event>
 7    1  0.2404951E-015  0.9000776E+02  0.7816164E-02  0.1186339E+00
        -11   -1    0    0    0    0  0.00000000000E+00  0.00000000000E+00  0.45593999997E+02  0.45594000000E+02  0.51100000000E-03 0.  1.
         11   -1    0    0    0    0 -0.00000000000E+00 -0.00000000000E+00 -0.45593999997E+02  0.45594000000E+02  0.51100000000E-03 0. -1.
    9900012    2    1    2    0    0 -0.63934556924E+00  0.77108788820E-02  0.99204111033E+00  0.90007759440E+02  0.90000021065E+02 0.  0.
         12    1    1    2    0    0  0.63934556924E+00 -0.77108788820E-02 -0.99204111033E+00  0.11802405599E+01  0.00000000000E+00 0. -1.
         11    1    3    3    0    0  0.87587600725E+01  0.84986444893E+01 -0.32421988235E+02  0.34642865897E+02  0.51100000000E-03 0. -1.
        -11    1    3    3    0    0  0.14611096596E+02 -0.33605231764E+00  0.16297860157E+01  0.14705552611E+02  0.51100000000E-03 0.  1.
        -12    1    3    3    0    0 -0.24009202237E+02 -0.81548812928E+01  0.31784243330E+02  0.40659340932E+02  0.00000000000E+00 0.  1.
</event>
<event>
 7    1  0.2404951E-015  0.9000760E+02  0.7816164E-02  0.1186339E+00
        -11   -1    0    0    0    0  0.00000000000E+00  0.00000000000E+00  0.45593999997E+02  0.45594000000E+02  0.51100000000E-03 0. -1.
         11   -1    0    0    0    0 -0.00000000000E+00 -0.00000000000E+00 -0.45593999997E+02  0.45594000000E+02  0.51100000000E-03 0.  1.
    9900012    2    1    2    0    0  0.54960521480E+00  0.95397031462E+00 -0.42569457364E+00  0.90007601286E+02  0.89999860823E+02 0.  0.
         12    1    1    2    0    0 -0.54960521480E+00 -0.95397031462E+00  0.42569457364E+00  0.11803987137E+01  0.00000000000E+00 0. -1.
         11    1    3    3    0    0 -0.15401232254E+02 -0.57129007643E+00  0.13951950057E+02  0.20788969141E+02  0.51100000000E-03 0. -1.
        -11    1    3    3    0    0 -0.24078800214E+02  0.10838567888E+02 -0.30101707526E+01  0.26576762441E+02  0.51100000000E-03 0.  1.
         12    1    3    3    0    0  0.40029637683E+02 -0.93133074968E+01 -0.11367473878E+02  0.42641869705E+02  0.00000000000E+00 0. -1.
</event>
<event>
 7    1  0.2404951E-015  0.9000762E+02  0.7816164E-02  0.1186339E+00
        -11   -1    0    0    0    0  0.00000000000E+00  0.00000000000E+00  0.45593999997E+02  0.45594000000E+02  0.51100000000E-03 0.  1.
         11   -1    0    0    0    0 -0.00000000000E+00 -0.00000000000E+00 -0.45593999997E+02  0.45594000000E+02  0.51100000000E-03 0. -1.
    9900012    2    1    2    0    0  0.25984162895E+00  0.86814334764E+00 -0.75637625195E+00  0.90007620578E+02  0.89999880370E+02 0.  0.
         12    1    1    2    0    0 -0.25984162895E+00 -0.86814334764E+00  0.75637625195E+00  0.11803794215E+01  0.00000000000E+00 0. -1.
         11    1    3    3    0    0 -0.50698501788E+01 -0.30148106111E+01  0.58626057394E+01  0.83164060851E+01  0.51100000000E-03 0. -1.
        -11    1    3    3    0    0  0.17351495981E+02 -0.30193647924E+02 -0.23291438332E+02  0.41895368330E+02  0.51100000000E-03 0.  1.
         12    1    3    3    0    0 -0.12021804173E+02  0.34076601882E+02  0.16672456340E+02  0.39795846163E+02  0.00000000000E+00 0. -1.
</event>
<event>
 7    1  0.2404951E-015  0.9000772E+02  0.7816164E-02  0.1186339E+00
        -11   -1    0    0    0    0  0.00000000000E+00  0.00000000000E+00  0.45593999997E+02  0.45594000000E+02  0.51100000000E-03 0.  1.
         11   -1    0    0    0    0 -0.00000000000E+00 -0.00000000000E+00 -0.45593999997E+02  0.45594000000E+02  0.51100000000E-03 0. -1.
    9900012    2    1    2    0    0  0.84343845915E+00 -0.23289583391E+00  0.79211252455E+00  0.90007715646E+02  0.89999976693E+02 0.  0.
         12    1    1    2    0    0 -0.84343845915E+00  0.23289583391E+00 -0.79211252455E+00  0.11802843536E+01  0.00000000000E+00 0. -1.
         11    1    3    3    0    0  0.12660215500E+02  0.16765361482E+02 -0.34653800173E+02  0.40524613124E+02  0.51100000000E-03 0. -1.
        -11    1    3    3    0    0  0.87203079318E+01 -0.48855343557E+01  0.62514827698E+01  0.11789540002E+02  0.51100000000E-03 0.  1.
        -12    1    3    3    0    0 -0.20537084973E+02 -0.12112722960E+02  0.29194429928E+02  0.37693562521E+02  0.00000000000E+00 0.  1.
</event>
<event>
 7    1  0.2404951E-015  0.9000770E+02  0.7816164E-02  0.1186339E+00
        -11   -1    0    0    0    0  0.00000000000E+00  0.00000000000E+00  0.45593999997E+02  0.45594000000E+02  0.51100000000E-03 0. -1.
         11   -1    0    0    0    0 -0.00000000000E+00 -0.00000000000E+00 -0.45593999997E+02  0.45594000000E+02  0.51100000000E-03 0.  1.
    9900012    2    1    2    0    0  0.43258840545E+00  0.39295082168E+00 -0.10254628893E+01  0.90007696135E+02  0.89999956924E+02 0.  0.
         12    1    1    2    0    0 -0.43258840545E+00 -0.39295082168E+00  0.10254628893E+01  0.11803038652E+01  0.00000000000E+00 0. -1.
         11    1    3    3    0    0 -0.31402661913E+01 -0.88010096031E+01 -0.23350076647E+01  0.96317860670E+01  0.51100000000E-03 0. -1.
        -11    1    3    3    0    0 -0.17075965178E+02  0.15789078468E+02 -0.32651033664E+02  0.40087075039E+02  0.51100000000E-03 0.  1.
         12    1    3    3    0    0  0.20648819775E+02 -0.65951180430E+01  0.33960578439E+02  0.40288835029E+02  0.00000000000E+00 0. -1.
</event>
<event>
 7    1  0.2404951E-015  0.9000778E+02  0.7816164E-02  0.1186339E+00
        -11   -1    0    0    0    0  0.00000000000E+00  0.00000000000E+00  0.45593999997E+02  0.45594000000E+02  0.51100000000E-03 0. -1.
         11   -1    0    0    0    0 -0.00000000000E+00 -0.00000000000E+00 -0.45593999997E+02  0.45594000000E+02  0.51100000000E-03 0.  1.
    9900012    2    1    2    0    0 -0.86317179210E+00  0.70438284878E+00  0.38947457549E+00  0.90007783416E+02  0.90000045357E+02 0.  0.
         12    1    1    2    0    0  0.86317179210E+00 -0.70438284878E+00 -0.38947457549E+00  0.11802165841E+01  0.00000000000E+00 0. -1.
         11    1    3    3    0    0 -0.20109890301E+02 -0.39096423552E+02 -0.19234622986E+01  0.44007246335E+02  0.51100000000E-03 0. -1.
        -11    1    3    3    0    0  0.13814353145E+01  0.88458044146E+01  0.48277423806E+01  0.10171711558E+02  0.51100000000E-03 0.  1.
        -12    1    3    3    0    0  0.17865283195E+02  0.30955001986E+02 -0.25148055065E+01  0.35828825523E+02  0.00000000000E+00 0.  1.
</event>
<event>
 7    1  0.2404951E-015  0.9000777E+02  0.7816164E-02  0.1186339E+00
        -11   -1    0    0    0    0  0.00000000000E+00  0.00000000000E+00  0.45593999997E+02  0.45594000000E+02  0.51100000000E-03 0.  1.
         11   -1    0    0    0    0 -0.00000000000E+00 -0.00000000000E+00 -0.45593999997E+02  0.45594000000E+02  0.51100000000E-03 0. -1.
    9900012    2    1    2    0    0 -0.52712315017E+00 -0.98007185999E+00 -0.39313473817E+00  0.90007765028E+02  0.90000026727E+02 0.  0.
         12    1    1    2    0    0  0.52712315017E+00  0.98007185999E+00  0.39313473817E+00  0.11802349718E+01  0.00000000000E+00 0. -1.
         11    1    3    3    0    0  0.14154994754E+02  0.29302167194E+02 -0.20158814628E+02  0.38280003739E+02  0.51100000000E-03 0. -1.
        -11    1    3    3    0    0 -0.25863277195E+01  0.99687535088E+00 -0.78243496598E+01  0.83008011299E+01  0.51100000000E-03 0.  1.
        -12    1    3    3    0    0 -0.12095790185E+02 -0.31279114405E+02  0.27590029550E+02  0.43426960160E+02  0.00000000000E+00 0.  1.
</event>
<event>
 7    1  0.2404951E-015  0.9000776E+02  0.7816164E-02  0.1186339E+00
        -11   -1    0    0    0    0  0.00000000000E+00  0.00000000000E+00  0.45593999997E+02  0.45594000000E+02  0.51100000000E-03 0. -1.
         11   -1    0    0    0    0 -0.00000000000E+00 -0.00000000000E+00 -0.45593999997E+02  0.45594000000E+02  0.51100000000E-03 0.  1.
    9900012    2    1    2    0    0  0.70542690785E+00  0.90892180204E+00  0.26306641030E+00  0.90007758541E+02  0.90000020154E+02 0.  0.
         12    1    1    2    0    0 -0.70542690785E+00 -0.90892180204E+00 -0.26306641030E+00  0.11802414587E+01  0.00000000000E+00 0. -1.
         11    1    3    3    0    0  0.40782166023E+01 -0.61678672335E+01 -0.47470212952E+01  0.87868451849E+01  0.51100000000E-03 0. -1.
        -11    1    3    3    0    0 -0.25848567520E+02 -0.18963610782E+02 -0.20800625700E+02  0.38215612078E+02  0.51100000000E-03 0.  1.
         12    1    3    3    0    0  0.22475777825E+02  0.26040399818E+02  0.25810713406E+02  0.43005301278E+02  0.00000000000E+00 0. -1.
</event>
<event>
 7    1  0.2404951E-015  0.9000773E+02  0.7816164E-02  0.1186339E+00
        -11   -1    0    0    0    0  0.00000000000E+00  0.00000000000E+00  0.45593999997E+02  0.45594000000E+02  0.51100000000E-03 0. -1.
         11   -1    0    0    0    0 -0.00000000000E+00 -0.00000000000E+00 -0.45593999997E+02  0.45594000000E+02  0.51100000000E-03 0.  1.
    9900012    2    1    2    0    0 -0.14974155488E+00 -0.10701164968E+01  0.47484314479E+00  0.90007725514E+02  0.89999986691E+02 0.  0.
         12    1    1    2    0    0  0.14974155488E+00  0.10701164968E+01 -0.47484314479E+00  0.11802744859E+01  0.00000000000E+00 0. -1.
         11    1    3    3    0    0  0.58556960263E+01 -0.44826145363E+01  0.95865555868E+01  0.12094835977E+02  0.51100000000E-03 0. -1.
        -11    1    3    3    0    0 -0.29302388006E+02 -0.71508319181E+01  0.22221516914E+02  0.37464118223E+02  0.51100000000E-03 0.  1.
         12    1    3    3    0    0  0.23296950425E+02  0.10563329958E+02 -0.31333229357E+02  0.40448771314E+02  0.00000000000E+00 0. -1.
</event>
<event>
 7    1  0.2404951E-015  0.9000775E+02  0.7816164E-02  0.1186339E+00
        -11   -1    0    0    0    0  0.00000000000E+00  0.00000000000E+00  0.45593999997E+02  0.45594000000E+02  0.51100000000E-03 0.  1.
         11   -1    0    0    0    0 -0.00000000000E+00 -0.00000000000E+00 -0.45593999997E+02  0.45594000000E+02  0.51100000000E-03 0. -1.
    9900012    2    1    2    0    0 -0.13985828307E+00  0.65967121747E+00  0.96863932802E+00  0.90007750619E+02  0.90000012127E+02 0.  0.
         12    1    1    2    0    0  0.13985828307E+00 -0.65967121747E+00 -0.96863932802E+00  0.11802493814E+01  0.00000000000E+00 0. -1.
         11    1    3    3    0    0  0.26588305444E+01  0.21568830414E+01 -0.35996950250E+02  0.36159396454E+02  0.51100000000E-03 0. -1.
        -11    1    3    3    0    0  0.86323588864E+01  0.54345569530E+01 -0.38471083525E+01  0.10901938917E+02  0.51100000000E-03 0.  1.
        -12    1    3    3    0    0 -0.11431047714E+02 -0.69317687770E+01  0.40812697931E+02  0.42946415247E+02  0.00000000000E+00 0.  1.
</event>
<event>
 7    1  0.2404951E-015  0.9000778E+02  0.7816164E-02  0.1186339E+00
        -11   -1    0    0    0    0  0.00000000000E+00  0.00000000000E+00  0.45593999997E+02  0.45594000000E+02  0.51100000000E-03 0.  1.
         11   -1    0    0    0    0 -0.00000000000E+00 -0.00000000000E+00 -0.45593999997E+02  0.45594000000E+02  0.51100000000E-03 0. -1.
    9900012    2    1    2    0    0  0.55852532064E+00 -0.84236075601E+00  0.60941624683E+00  0.90007783774E+02  0.90000045720E+02 0.  0.
         12    1    1    2    0    0 -0.55852532064E+00  0.84236075601E+00 -0.60941624683E+00  0.11802162255E+01  0.00000000000E+00 0. -1.
         11    1    3    3    0    0 -0.46580219417E+01  0.51860234886E+01 -0.52833525777E+01  0.87467607007E+01  0.51100000000E-03 0. -1.
        -11    1    3    3    0    0  0.10129231728E+02  0.36600024644E+02  0.21471667949E+00  0.37976430096E+02  0.51100000000E-03 0.  1.
         12    1    3    3    0    0 -0.49126844654E+01 -0.42628408889E+02  0.56780521451E+01  0.43284592977E+02  0.00000000000E+00 0. -1.
</event>
<event>
 7    1  0.2404951E-015  0.9000790E+02  0.7816164E-02  0.1186339E+00
        -11   -1    0    0    0    0  0.00000000000E+00  0.00000000000E+00  0.45593999997E+02  0.45594000000E+02  0.51100000000E-03 0.  1.
         11   -1    0    0    0    0 -0.00000000000E+00 -0.00000000000E+00 -0.45593999997E+02  0.45594000000E+02  0.51100000000E-03 0. -1.
    9900012    2    1    2    0    0  0.41690211130E+00 -0.92792642008E-01 -0.11001039529E+01  0.90007895533E+02  0.90000158954E+02 0.  0.
         12    1    1    2    0    0 -0.41690211130E+00  0.92792642008E-01  0.11001039529E+01  0.11801044666E+01  0.00000000000E+00 0. -1.
         11    1    3    3    0    0 -0.34353839834E+02 -0.43293494539E+01 -0.14862837004E+02  0.37680678100E+02  0.51100000000E-03 0. -1.
        -11    1    3    3    0    0 -0.29442314145E+01 -0.95845033300E+01  0.50458297518E+01  0.11224598026E+02  0.51100000000E-03 0.  1.
        -12    1    3    3    0    0  0.37714973360E+02  0.13821060142E+02  0.87169032996E+01  0.41102619407E+02  0.00000000000E+00 0.  1.
</event>
<event>
 7    1  0.2404951E-015  0.9000774E+02  0.7816164E-02  0.1186339E+00
        -11   -1    0    0    0    0  0.00000000000E+00  0.00000000000E+00  0.45593999997E+02  0.45594000000E+02  0.51100000000E-03 0.  1.
         11   -1    0    0    0    0 -0.00000000000E+00 -0.00000000000E+00 -0.45593999997E+02  0.45594000000E+02  0.51100000000E-03 0. -1.
    9900012    2    1    2    0    0 -0.59107588639E+00  0.80313393857E+00 -0.63136398270E+00  0.90007739306E+02  0.90000000665E+02 0.  0.
         12    1    1    2    0    0  0.59107588639E+00 -0.80313393857E+00  0.63136398270E+00  0.11802606938E+01  0.00000000000E+00 0. -1.
         11    1    3    3    0    0 -0.98783459586E+01  0.78431172566E+01 -0.69384330595E+01  0.14395765376E+02  0.51100000000E-03 0. -1.
        -11    1    3    3    0    0  0.36770809463E+02  0.10869299658E+02  0.15786173289E+02  0.41466099057E+02  0.51100000000E-03 0.  1.
         12    1    3    3    0    0 -0.27483539391E+02 -0.17909282976E+02 -0.94791042124E+01  0.34145874873E+02  0.00000000000E+00 0. -1.
</event>
<event>
 7    1  0.4592825E-015  0.9000768E+02  0.7816164E-02  0.1186339E+00
        -11   -1    0    0    0    0  0.00000000000E+00  0.00000000000E+00  0.45593999997E+02  0.45594000000E+02  0.51100000000E-03 0. -1.
         11   -1    0    0    0    0 -0.00000000000E+00 -0.00000000000E+00 -0.45593999997E+02  0.45594000000E+02  0.51100000000E-03 0.  1.
    9900012    2    1    2    0    0  0.22930298381E+00 -0.54739930930E+00 -0.10202582225E+01  0.90007681101E+02  0.89999941692E+02 0.  0.
         12    1    1    2    0    0 -0.22930298381E+00  0.54739930930E+00  0.10202582225E+01  0.11803188987E+01  0.00000000000E+00 0. -1.
         11    1    3    3    0    0 -0.23027399333E+02 -0.15973394672E+02  0.27106664493E+02  0.38989507789E+02  0.51100000000E-03 0. -1.
        -11    1    3    3    0    0 -0.83860266612E+00  0.75433992198E+01  0.51589427360E+01  0.91771900185E+01  0.51100000000E-03 0.  1.
        -12    1    3    3    0    0  0.24095304983E+02  0.78825961429E+01 -0.33285865451E+02  0.41840983294E+02  0.00000000000E+00 0.  1.
</event>
<event>
 7    1  0.2404951E-015  0.9000749E+02  0.7816164E-02  0.1186340E+00
        -11   -1    0    0    0    0  0.00000000000E+00  0.00000000000E+00  0.45593999997E+02  0.45594000000E+02  0.51100000000E-03 0. -1.
         11   -1    0    0    0    0 -0.00000000000E+00 -0.00000000000E+00 -0.45593999997E+02  0.45594000000E+02  0.51100000000E-03 0.  1.
    9900012    2    1    2    0    0  0.72485668186E+00  0.57498108923E+00  0.73319948092E+00  0.90007490813E+02  0.89999748891E+02 0.  0.
         12    1    1    2    0    0 -0.72485668186E+00 -0.57498108923E+00 -0.73319948092E+00  0.11805091872E+01  0.00000000000E+00 0. -1.
         11    1    3    3    0    0 -0.16578058609E+01  0.40151684179E+02  0.74467664690E+01  0.40870042743E+02  0.51100000000E-03 0. -1.
        -11    1    3    3    0    0  0.25203604541E+01  0.11773571784E+01 -0.78901514856E+01  0.83661746020E+01  0.51100000000E-03 0.  1.
        -12    1    3    3    0    0 -0.13769791143E+00 -0.40754060269E+02  0.11765844974E+01  0.40771273468E+02  0.00000000000E+00 0.  1.
</event>
<event>
 7    1  0.2404951E-015  0.9000755E+02  0.7816164E-02  0.1186339E+00
        -11   -1    0    0    0    0  0.00000000000E+00  0.00000000000E+00  0.45593999997E+02  0.45594000000E+02  0.51100000000E-03 0. -1.
         11   -1    0    0    0    0 -0.00000000000E+00 -0.00000000000E+00 -0.45593999997E+02  0.45594000000E+02  0.51100000000E-03 0.  1.
    9900012    2    1    2    0    0  0.11403405638E+01 -0.19141991764E+00  0.23755613070E+00  0.90007554702E+02  0.89999813624E+02 0.  0.
         12    1    1    2    0    0 -0.11403405638E+01  0.19141991764E+00 -0.23755613070E+00  0.11804452980E+01  0.00000000000E+00 0. -1.
         11    1    3    3    0    0 -0.31762188505E+02  0.94023195438E+01 -0.15194542552E+02  0.36443303295E+02  0.51100000000E-03 0. -1.
        -11    1    3    3    0    0 -0.85493670617E+01 -0.30492529272E+01  0.76267429592E+00  0.91088579368E+01  0.51100000000E-03 0.  1.
        -12    1    3    3    0    0  0.41451896130E+02 -0.65444865343E+01  0.14669424387E+02  0.44455393471E+02  0.00000000000E+00 0.  1.
</event>
<event>
 7    1  0.2404951E-015  0.9000775E+02  0.7816164E-02  0.1186339E+00
        -11   -1    0    0    0    0  0.00000000000E+00  0.00000000000E+00  0.45593999997E+02  0.45594000000E+02  0.51100000000E-03 0.  1.
         11   -1    0    0    0    0 -0.00000000000E+00 -0.00000000000E+00 -0.45593999997E+02  0.45594000000E+02  0.51100000000E-03 0. -1.
    9900012    2    1    2    0    0 -0.46048452942E+00 -0.10146783354E+01 -0.38905099394E+00  0.90007754770E+02  0.90000016333E+02 0.  0.
         12    1    1    2    0    0  0.46048452942E+00  0.10146783354E+01  0.38905099394E+00  0.11802452296E+01  0.00000000000E+00 0. -1.
         11    1    3    3    0    0  0.20810132220E+01  0.96349687572E+01  0.39508961429E+01  0.10619454768E+02  0.51100000000E-03 0. -1.
        -11    1    3    3    0    0 -0.32890202960E+02  0.10207670819E+02  0.15265584507E+02  0.37669617265E+02  0.51100000000E-03 0.  1.
         12    1    3    3    0    0  0.30348705208E+02 -0.20857317912E+02 -0.19605531644E+02  0.41718682737E+02  0.00000000000E+00 0. -1.
</event>
<event>
 7    1  0.2918478E-015  0.9000772E+02  0.7816164E-02  0.1186339E+00
        -11   -1    0    0    0    0  0.00000000000E+00  0.00000000000E+00  0.45593999997E+02  0.45594000000E+02  0.51100000000E-03 0.  1.
         11   -1    0    0    0    0 -0.00000000000E+00 -0.00000000000E+00 -0.45593999997E+02  0.45594000000E+02  0.51100000000E-03 0. -1.
    9900012    2    1    2    0    0  0.52216060324E-01  0.11135194551E+01  0.38781822163E+00  0.90007722462E+02  0.89999983598E+02 0.  0.
         12    1    1    2    0    0 -0.52216060324E-01 -0.11135194551E+01 -0.38781822163E+00  0.11802775380E+01  0.00000000000E+00 0. -1.
         11    1    3    3    0    0  0.21280702250E+02 -0.11119331026E+02 -0.30893790952E+02  0.39127153364E+02  0.51100000000E-03 0. -1.
        -11    1    3    3    0    0  0.18756748574E+01  0.97175830057E+01 -0.21854287057E+01  0.10135367508E+02  0.51100000000E-03 0.  1.
        -12    1    3    3    0    0 -0.23104161047E+02  0.25152674754E+01  0.33467037879E+02  0.40745201590E+02  0.00000000000E+00 0.  1.
</event>
<event>
 7    1  0.2404951E-015  0.9000776E+02  0.7816164E-02  0.1186339E+00
        -11   -1    0    0    0    0  0.00000000000E+00  0.00000000000E+00  0.45593999997E+02  0.45594000000E+02  0.51100000000E-03 0. -1.
         11   -1    0    0    0    0 -0.00000000000E+00 -0.00000000000E+00 -0.45593999997E+02  0.45594000000E+02  0.51100000000E-03 0.  1.
    9900012    2    1    2    0    0  0.25551680644E+00 -0.14673382248E+00 -0.11428679676E+01  0.90007759836E+02  0.90000021466E+02 0.  0.
         12    1    1    2    0    0 -0.25551680644E+00  0.14673382248E+00  0.11428679676E+01  0.11802401639E+01  0.00000000000E+00 0. -1.
         11    1    3    3    0    0  0.13260552929E+01  0.35459306058E+02 -0.17079753723E+02  0.39380690652E+02  0.51100000000E-03 0. -1.
        -11    1    3    3    0    0 -0.95726207629E+01  0.17591504016E+01  0.31917529040E+01  0.10242898285E+02  0.51100000000E-03 0.  1.
        -12    1    3    3    0    0  0.85020822765E+01 -0.37365190282E+02  0.12745132851E+02  0.40384170899E+02  0.00000000000E+00 0.  1.
</event>
<event>
 7    1  0.2404951E-015  0.9000775E+02  0.7816164E-02  0.1186339E+00
        -11   -1    0    0    0    0  0.00000000000E+00  0.00000000000E+00  0.45593999997E+02  0.45594000000E+02  0.51100000000E-03 0.  1.
         11   -1    0    0    0    0 -0.00000000000E+00 -0.00000000000E+00 -0.45593999997E+02  0.45594000000E+02  0.51100000000E-03 0. -1.
    9900012    2    1    2    0    0  0.76897805123E-01 -0.11146337780E+01  0.38036152691E+00  0.90007747221E+02  0.90000008684E+02 0.  0.
         12    1    1    2    0    0 -0.76897805123E-01  0.11146337780E+01 -0.38036152691E+00  0.11802527791E+01  0.00000000000E+00 0. -1.
         11    1    3    3    0    0  0.22896796382E+02  0.15532782430E+02 -0.27923289317E+02  0.39309549745E+02  0.51100000000E-03 0. -1.
        -11    1    3    3    0    0 -0.44773184701E+01  0.81031339876E+00 -0.63294078562E+01  0.77951518624E+01  0.51100000000E-03 0.  1.
        -12    1    3    3    0    0 -0.18342580107E+02 -0.17457729607E+02  0.34633058700E+02  0.42903045614E+02  0.00000000000E+00 0.  1.
</event>
<event>
 7    1  0.2404951E-015  0.9000771E+02  0.7816164E-02  0.1186339E+00
        -11   -1    0    0    0    0  0.00000000000E+00  0.00000000000E+00  0.45593999997E+02  0.45594000000E+02  0.51100000000E-03 0.  1.
         11   -1    0    0    0    0 -0.00000000000E+00 -0.00000000000E+00 -0.45593999997E+02  0.45594000000E+02  0.51100000000E-03 0. -1.
    9900012    2    1    2    0    0 -0.92428986413E+00 -0.30052037801E+00  0.66967107515E+00  0.90007710375E+02  0.89999971352E+02 0.  0.
         12    1    1    2    0    0  0.92428986413E+00  0.30052037801E+00 -0.66967107515E+00  0.11802896252E+01  0.00000000000E+00 0. -1.
         11    1    3    3    0    0 -0.77985307576E+01 -0.12910928707E+02  0.86713544807E+00  0.15108311825E+02  0.51100000000E-03 0. -1.
        -11    1    3    3    0    0 -0.17486758341E+02 -0.22953653820E+02  0.10111842433E+02  0.30576237483E+02  0.51100000000E-03 0.  1.
         12    1    3    3    0    0  0.24360999235E+02  0.35564062148E+02 -0.10309306806E+02  0.44323161067E+02  0.00000000000E+00 0. -1.
</event>
<event>
 7    1  0.2404951E-015  0.9000791E+02  0.7816164E-02  0.1186339E+00
        -11   -1    0    0    0    0  0.00000000000E+00  0.00000000000E+00  0.45593999997E+02  0.45594000000E+02  0.51100000000E-03 0. -1.
         11   -1    0    0    0    0 -0.00000000000E+00 -0.00000000000E+00 -0.45593999997E+02  0.45594000000E+02  0.51100000000E-03 0.  1.
    9900012    2    1    2    0    0 -0.80529679335E+00 -0.77464171912E+00 -0.37952552610E+00  0.90007910027E+02  0.90000173640E+02 0.  0.
         12    1    1    2    0    0  0.80529679335E+00  0.77464171912E+00  0.37952552610E+00  0.11800899726E+01  0.00000000000E+00 0. -1.
         11    1    3    3    0    0  0.13669238381E+02 -0.13574471986E+01  0.29069424324E+02  0.32151550066E+02  0.51100000000E-03 0. -1.
        -11    1    3    3    0    0  0.11847030854E+02  0.15505496528E+02 -0.10569991968E+02  0.22192280034E+02  0.51100000000E-03 0.  1.
        -12    1    3    3    0    0 -0.26321566029E+02 -0.14922691049E+02 -0.18878957883E+02  0.35664079928E+02  0.00000000000E+00 0.  1.
</event>
<event>
 7    1  0.2404951E-015  0.9000776E+02  0.7816164E-02  0.1186339E+00
        -11   -1    0    0    0    0  0.00000000000E+00  0.00000000000E+00  0.45593999997E+02  0.45594000000E+02  0.51100000000E-03 0.  1.
         11   -1    0    0    0    0 -0.00000000000E+00 -0.00000000000E+00 -0.45593999997E+02  0.45594000000E+02  0.51100000000E-03 0. -1.
    9900012    2    1    2    0    0  0.19237402638E+00 -0.51100825767E+00  0.10463356738E+01  0.90007764622E+02  0.90000026315E+02 0.  0.
         12    1    1    2    0    0 -0.19237402638E+00  0.51100825767E+00 -0.10463356738E+01  0.11802353781E+01  0.00000000000E+00 0. -1.
         11    1    3    3    0    0  0.32791854430E+01 -0.29907502692E+02  0.20406924811E+02  0.36354564431E+02  0.51100000000E-03 0. -1.
        -11    1    3    3    0    0  0.31236804515E+01 -0.41348783032E+01  0.82722045674E+01  0.97613506653E+01  0.51100000000E-03 0.  1.
        -12    1    3    3    0    0 -0.62104918681E+01  0.33531372737E+02 -0.27632793704E+02  0.43891849526E+02  0.00000000000E+00 0.  1.
</event>
<event>
 7    1  0.2404951E-015  0.9000771E+02  0.7816164E-02  0.1186339E+00
        -11   -1    0    0    0    0  0.00000000000E+00  0.00000000000E+00  0.45593999997E+02  0.45594000000E+02  0.51100000000E-03 0.  1.
         11   -1    0    0    0    0 -0.00000000000E+00 -0.00000000000E+00 -0.45593999997E+02  0.45594000000E+02  0.51100000000E-03 0. -1.
    9900012    2    1    2    0    0  0.20994069803E+00  0.80709295147E+00  0.83523767002E+00  0.90007705082E+02  0.89999965989E+02 0.  0.
         12    1    1    2    0    0 -0.20994069803E+00 -0.80709295147E+00 -0.83523767002E+00  0.11802949184E+01  0.00000000000E+00 0. -1.
         11    1    3    3    0    0 -0.15470765672E+02 -0.20169789128E+02 -0.23452863652E+02  0.34586150374E+02  0.51100000000E-03 0. -1.
        -11    1    3    3    0    0 -0.87129230776E+01 -0.80556724384E+01  0.49826528069E+01  0.12869954011E+02  0.51100000000E-03 0.  1.
        -12    1    3    3    0    0  0.24393629448E+02  0.29032554518E+02  0.19305448515E+02  0.42551600697E+02  0.00000000000E+00 0.  1.
</event>
<event>
 7    1  0.2404951E-015  0.9000769E+02  0.7816164E-02  0.1186339E+00
        -11   -1    0    0    0    0  0.00000000000E+00  0.00000000000E+00  0.45593999997E+02  0.45594000000E+02  0.51100000000E-03 0.  1.
         11   -1    0    0    0    0 -0.00000000000E+00 -0.00000000000E+00 -0.45593999997E+02  0.45594000000E+02  0.51100000000E-03 0. -1.
    9900012    2    1    2    0    0  0.48313442877E+00 -0.50824425689E+00  0.94942365756E+00  0.90007688015E+02  0.89999948697E+02 0.  0.
         12    1    1    2    0    0 -0.48313442877E+00  0.50824425689E+00 -0.94942365756E+00  0.11803119852E+01  0.00000000000E+00 0. -1.
         11    1    3    3    0    0  0.86667544324E+01 -0.13670353323E+01  0.55156408293E+01  0.10363576217E+02  0.51100000000E-03 0. -1.
        -11    1    3    3    0    0  0.25634094646E+02  0.19577671593E+02 -0.20079472511E+02  0.37994437091E+02  0.51100000000E-03 0.  1.
         12    1    3    3    0    0 -0.33817714650E+02 -0.18718880517E+02  0.15513255339E+02  0.41649674706E+02  0.00000000000E+00 0. -1.
</event>
<event>
 7    1  0.2458021E-015  0.9000778E+02  0.7816164E-02  0.1186339E+00
        -11   -1    0    0    0    0  0.00000000000E+00  0.00000000000E+00  0.45593999997E+02  0.45594000000E+02  0.51100000000E-03 0. -1.
         11   -1    0    0    0    0 -0.00000000000E+00 -0.00000000000E+00 -0.45593999997E+02  0.45594000000E+02  0.51100000000E-03 0.  1.
    9900012    2    1    2    0    0 -0.31665200737E+00 -0.27671920675E-01 -0.11366068035E+01  0.90007784234E+02  0.90000046186E+02 0.  0.
         12    1    1    2    0    0  0.31665200737E+00  0.27671920675E-01  0.11366068035E+01  0.11802157662E+01  0.00000000000E+00 0. -1.
         11    1    3    3    0    0  0.36930915063E+02  0.10016208994E+02  0.44974843319E+01  0.38528486806E+02  0.51100000000E-03 0. -1.
        -11    1    3    3    0    0  0.27533145170E+01 -0.52179110864E+01  0.70930749055E+01  0.92259985265E+01  0.51100000000E-03 0.  1.
        -12    1    3    3    0    0 -0.40000881588E+02 -0.48259698287E+01 -0.12727166041E+02  0.42253298901E+02  0.00000000000E+00 0.  1.
</event>
<event>
 7    1  0.2404951E-015  0.9000772E+02  0.7816164E-02  0.1186339E+00
        -11   -1    0    0    0    0  0.00000000000E+00  0.00000000000E+00  0.45593999997E+02  0.45594000000E+02  0.51100000000E-03 0.  1.
         11   -1    0    0    0    0 -0.00000000000E+00 -0.00000000000E+00 -0.45593999997E+02  0.45594000000E+02  0.51100000000E-03 0. -1.
    9900012    2    1    2    0    0  0.11514906117E+01  0.25018598688E+00 -0.67439139848E-01  0.90007715418E+02  0.89999976462E+02 0.  0.
         12    1    1    2    0    0 -0.11514906117E+01 -0.25018598688E+00  0.67439139848E-01  0.11802845819E+01  0.00000000000E+00 0. -1.
         11    1    3    3    0    0  0.91627758779E+01  0.37488438989E+01  0.39149070514E+01  0.10645975289E+02  0.51100000000E-03 0. -1.
        -11    1    3    3    0    0 -0.37752029536E+02  0.13815472934E+02 -0.15480475039E+02  0.43078163078E+02  0.51100000000E-03 0.  1.
         12    1    3    3    0    0  0.29740744269E+02 -0.17314130846E+02  0.11498128848E+02  0.36283577052E+02  0.00000000000E+00 0. -1.
</event>
<event>
 7    1  0.2404951E-015  0.9000782E+02  0.7816164E-02  0.1186339E+00
        -11   -1    0    0    0    0  0.00000000000E+00  0.00000000000E+00  0.45593999997E+02  0.45594000000E+02  0.51100000000E-03 0. -1.
         11   -1    0    0    0    0 -0.00000000000E+00 -0.00000000000E+00 -0.45593999997E+02  0.45594000000E+02  0.51100000000E-03 0.  1.
    9900012    2    1    2    0    0  0.13370571850E+00 -0.41993658719E+00 -0.10948069199E+01  0.90007819443E+02  0.90000081859E+02 0.  0.
         12    1    1    2    0    0 -0.13370571850E+00  0.41993658719E+00  0.10948069199E+01  0.11801805575E+01  0.00000000000E+00 0. -1.
         11    1    3    3    0    0 -0.10703864765E+02 -0.41473104554E+01 -0.18829802509E+01  0.11632648873E+02  0.51100000000E-03 0. -1.
        -11    1    3    3    0    0 -0.32121512016E+02  0.70254108632E+01  0.98956575685E+01  0.34337617433E+02  0.51100000000E-03 0.  1.
         12    1    3    3    0    0  0.42959082499E+02 -0.32980369950E+01 -0.91074842375E+01  0.44037553137E+02  0.00000000000E+00 0. -1.
</event>
<event>
 7    1  0.2404951E-015  0.9000765E+02  0.7816164E-02  0.1186339E+00
        -11   -1    0    0    0    0  0.00000000000E+00  0.00000000000E+00  0.45593999997E+02  0.45594000000E+02  0.51100000000E-03 0.  1.
         11   -1    0    0    0    0 -0.00000000000E+00 -0.00000000000E+00 -0.45593999997E+02  0.45594000000E+02  0.51100000000E-03 0. -1.
    9900012    2    1    2    0    0 -0.10867713239E+01 -0.30559461087E+00 -0.34461941264E+00  0.90007651528E+02  0.89999911728E+02 0.  0.
         12    1    1    2    0    0  0.10867713239E+01  0.30559461087E+00  0.34461941264E+00  0.11803484724E+01  0.00000000000E+00 0. -1.
         11    1    3    3    0    0 -0.59801228310E+01 -0.19858250860E+02 -0.35913052106E+02  0.41471186480E+02  0.51100000000E-03 0. -1.
        -11    1    3    3    0    0  0.11156661467E+02 -0.29986154634E+00  0.69502795833E+01  0.13147904722E+02  0.51100000000E-03 0.  1.
        -12    1    3    3    0    0 -0.62633099601E+01  0.19852517795E+02  0.28618153110E+02  0.35388560325E+02  0.00000000000E+00 0.  1.
</event>
<event>
 7    1  0.2404951E-015  0.9000787E+02  0.7816164E-02  0.1186339E+00
        -11   -1    0    0    0    0  0.00000000000E+00  0.00000000000E+00  0.45593999997E+02  0.45594000000E+02  0.51100000000E-03 0.  1.
         11   -1    0    0    0    0 -0.00000000000E+00 -0.00000000000E+00 -0.45593999997E+02  0.45594000000E+02  0.51100000000E-03 0. -1.
    9900012    2    1    2    0    0  0.10156396337E+01 -0.59947279820E+00  0.42546562357E-01  0.90007872163E+02  0.90000135276E+02 0.  0.
         12    1    1    2    0    0 -0.10156396337E+01  0.59947279820E+00 -0.42546562357E-01  0.11801278369E+01  0.00000000000E+00 0. -1.
         11    1    3    3    0    0 -0.76669504941E+01 -0.54979572254E+01  0.36677100857E+00  0.94416198168E+01  0.51100000000E-03 0. -1.
        -11    1    3    3    0    0 -0.12747767819E+02  0.31348502038E+02 -0.21856698237E+02  0.40285846429E+02  0.51100000000E-03 0.  1.
         12    1    3    3    0    0  0.21430357947E+02 -0.26450017611E+02  0.21532473791E+02  0.40280405918E+02  0.00000000000E+00 0. -1.
</event>
<event>
 7    1  0.2404951E-015  0.9000775E+02  0.7816164E-02  0.1186339E+00
        -11   -1    0    0    0    0  0.00000000000E+00  0.00000000000E+00  0.45593999997E+02  0.45594000000E+02  0.51100000000E-03 0.  1.
         11   -1    0    0    0    0 -0.00000000000E+00 -0.00000000000E+00 -0.45593999997E+02  0.45594000000E+02  0.51100000000E-03 0. -1.
    9900012    2    1    2    0    0 -0.21011069518E+00  0.11465221844E+01  0.18530997140E+00  0.90007746040E+02  0.90000007488E+02 0.  0.
         12    1    1    2    0    0  0.21011069518E+00 -0.11465221844E+01 -0.18530997140E+00  0.11802539596E+01  0.00000000000E+00 0. -1.
         11    1    3    3    0    0  0.41195990739E+02  0.11196923289E+02  0.62138919662E+01  0.43140389402E+02  0.51100000000E-03 0. -1.
        -11    1    3    3    0    0 -0.37221705735E+01 -0.77877384248E+01 -0.22947155076E+01  0.89313572918E+01  0.51100000000E-03 0.  1.
        -12    1    3    3    0    0 -0.37683930861E+02 -0.22626626797E+01 -0.37338664872E+01  0.37935999347E+02  0.00000000000E+00 0.  1.
</event>
<event>
 7    1  0.2404951E-015  0.9000757E+02  0.7816164E-02  0.1186339E+00
        -11   -1    0    0    0    0  0.00000000000E+00  0.00000000000E+00  0.45593999997E+02  0.45594000000E+02  0.51100000000E-03 0.  1.
         11   -1    0    0    0    0 -0.00000000000E+00 -0.00000000000E+00 -0.45593999997E+02  0.45594000000E+02  0.51100000000E-03 0. -1.
    9900012    2    1    2    0    0  0.10893324481E+01  0.15470050021E+00  0.42758497972E+00  0.90007573661E+02  0.89999832833E+02 0.  0.
         12    1    1    2    0    0 -0.10893324481E+01 -0.15470050021E+00 -0.42758497972E+00  0.11804263391E+01  0.00000000000E+00 0. -1.
         11    1    3    3    0    0 -0.67338952607E+00 -0.90397280272E+01 -0.34954627823E+01  0.97153690914E+01  0.51100000000E-03 0. -1.
        -11    1    3    3    0    0  0.23701823963E+02 -0.87367400446E+01  0.31753596218E+02  0.40575829737E+02  0.51100000000E-03 0.  1.
         12    1    3    3    0    0 -0.21939101989E+02  0.17931168572E+02 -0.27830548456E+02  0.39716374832E+02  0.00000000000E+00 0. -1.
</event>
<event>
 7    1  0.3292524E-015  0.9000771E+02  0.7816164E-02  0.1186339E+00
        -11   -1    0    0    0    0  0.00000000000E+00  0.00000000000E+00  0.45593999997E+02  0.45594000000E+02  0.51100000000E-03 0. -1.
         11   -1    0    0    0    0 -0.00000000000E+00 -0.00000000000E+00 -0.45593999997E+02  0.45594000000E+02  0.51100000000E-03 0.  1.
    9900012    2    1    2    0    0  0.86916212730E+00 -0.53613623447E+00 -0.59178165065E+00  0.90007707499E+02  0.89999968438E+02 0.  0.
         12    1    1    2    0    0 -0.86916212730E+00  0.53613623447E+00  0.59178165065E+00  0.11802925008E+01  0.00000000000E+00 0. -1.
         11    1    3    3    0    0  0.14611671204E+02  0.18165802634E+02  0.31258677254E+02  0.38994899982E+02  0.51100000000E-03 0. -1.
        -11    1    3    3    0    0 -0.54810320426E+01 -0.35029555152E+01  0.63422505234E+01  0.90849629365E+01  0.51100000000E-03 0.  1.
        -12    1    3    3    0    0 -0.82614770344E+01 -0.15198983353E+02 -0.38192709428E+02  0.41927844581E+02  0.00000000000E+00 0.  1.
</event>
<event>
 7    1  0.2404951E-015  0.9000777E+02  0.7816164E-02  0.1186339E+00
        -11   -1    0    0    0    0  0.00000000000E+00  0.00000000000E+00  0.45593999997E+02  0.45594000000E+02  0.51100000000E-03 0. -1.
         11   -1    0    0    0    0 -0.00000000000E+00 -0.00000000000E+00 -0.45593999997E+02  0.45594000000E+02  0.51100000000E-03 0.  1.
    9900012    2    1    2    0    0 -0.41771751898E+00 -0.85940016026E+00 -0.69273949879E+00  0.90007769271E+02  0.90000031025E+02 0.  0.
         12    1    1    2    0    0  0.41771751898E+00  0.85940016026E+00  0.69273949879E+00  0.11802307293E+01  0.00000000000E+00 0. -1.
         11    1    3    3    0    0  0.41305292441E+01 -0.27675277116E+02  0.19749553793E+02  0.34249483362E+02  0.51100000000E-03 0. -1.
        -11    1    3    3    0    0  0.12099349234E+02 -0.36164439951E+01  0.40874254664E+01  0.13273280162E+02  0.51100000000E-03 0.  1.
        -12    1    3    3    0    0 -0.16647595998E+02  0.30432320951E+02 -0.24529718758E+02  0.42485005747E+02  0.00000000000E+00 0.  1.
</event>
<event>
 7    1  0.2404951E-015  0.9000811E+02  0.7816164E-02  0.1186338E+00
        -11   -1    0    0    0    0  0.00000000000E+00  0.00000000000E+00  0.45593999997E+02  0.45594000000E+02  0.51100000000E-03 0. -1.
         11   -1    0    0    0    0 -0.00000000000E+00 -0.00000000000E+00 -0.45593999997E+02  0.45594000000E+02  0.51100000000E-03 0.  1.
    9900012    2    1    2    0    0 -0.12515569550E+00 -0.58002156921E+00 -0.10198341190E+01  0.90008105683E+02  0.90000371877E+02 0.  0.
         12    1    1    2    0    0  0.12515569550E+00  0.58002156921E+00  0.10198341190E+01  0.11798943169E+01  0.00000000000E+00 0. -1.
         11    1    3    3    0    0  0.21432945442E+01 -0.65776467853E+01 -0.41789012051E+01  0.80822252059E+01  0.51100000000E-03 0. -1.
        -11    1    3    3    0    0 -0.23997692924E+02  0.19970287197E+02 -0.27660483961E+02  0.41710957908E+02  0.51100000000E-03 0.  1.
         12    1    3    3    0    0  0.21729242684E+02 -0.13972661981E+02  0.30819551048E+02  0.40214922569E+02  0.00000000000E+00 0. -1.
</event>
<event>
 7    1  0.2404951E-015  0.9000784E+02  0.7816164E-02  0.1186339E+00
        -11   -1    0    0    0    0  0.00000000000E+00  0.00000000000E+00  0.45593999997E+02  0.45594000000E+02  0.51100000000E-03 0.  1.
         11   -1    0    0    0    0 -0.00000000000E+00 -0.00000000000E+00 -0.45593999997E+02  0.45594000000E+02  0.51100000000E-03 0. -1.
    9900012    2    1    2    0    0 -0.91450385194E+00 -0.56320400464E+00  0.48914099798E+00  0.90007841129E+02  0.90000103831E+02 0.  0.
         12    1    1    2    0    0  0.91450385194E+00  0.56320400464E+00 -0.48914099798E+00  0.11801588715E+01  0.00000000000E+00 0. -1.
         11    1    3    3    0    0 -0.16205620882E+01  0.88444296962E+01 -0.11178995728E+01  0.90608971878E+01  0.51100000000E-03 0. -1.
        -11    1    3    3    0    0 -0.29086721733E+02 -0.14168447038E+02  0.26508765199E+02  0.41826987762E+02  0.51100000000E-03 0.  1.
         12    1    3    3    0    0  0.29792779970E+02  0.47608133367E+01 -0.24901724628E+02  0.39119956178E+02  0.00000000000E+00 0. -1.
</event>
<event>
 7    1  0.2404951E-015  0.9000778E+02  0.7816164E-02  0.1186339E+00
        -11   -1    0    0    0    0  0.00000000000E+00  0.00000000000E+00  0.45593999997E+02  0.45594000000E+02  0.51100000000E-03 0.  1.
         11   -1    0    0    0    0 -0.00000000000E+00 -0.00000000000E+00 -0.45593999997E+02  0.45594000000E+02  0.51100000000E-03 0. -1.
    9900012    2    1    2    0    0  0.85818895037E+00  0.74368484579E+00  0.32151272678E+00  0.90007777200E+02  0.90000039059E+02 0.  0.
         12    1    1    2    0    0 -0.85818895037E+00 -0.74368484579E+00 -0.32151272678E+00  0.11802228001E+01  0.00000000000E+00 0. -1.
         11    1    3    3    0    0  0.21535937103E+02  0.66453611231E+01 -0.27194007090E+02  0.35319561623E+02  0.51100000000E-03 0. -1.
        -11    1    3    3    0    0  0.33851294506E+01  0.34018003715E+01 -0.88697322561E+01  0.10084815205E+02  0.51100000000E-03 0.  1.
        -12    1    3    3    0    0 -0.24062877604E+02 -0.93034766489E+01  0.36385252073E+02  0.44603400372E+02  0.00000000000E+00 0.  1.
</event>
<event>
 7    1  0.2404951E-015  0.9000642E+02  0.7816164E-02  0.1186342E+00
        -11   -1    0    0    0    0  0.00000000000E+00  0.00000000000E+00  0.45593999997E+02  0.45594000000E+02  0.51100000000E-03 0. -1.
         11   -1    0    0    0    0 -0.00000000000E+00 -0.00000000000E+00 -0.45593999997E+02  0.45594000000E+02  0.51100000000E-03 0.  1.
    9900012    2    1    2    0    0 -0.64095611730E+00  0.55200325736E+00 -0.82498516661E+00  0.90006419336E+02  0.89998663261E+02 0.  0.
         12    1    1    2    0    0  0.64095611730E+00 -0.55200325736E+00  0.82498516661E+00  0.11815806640E+01  0.00000000000E+00 0. -1.
         11    1    3    3    0    0 -0.21669621532E+02  0.24108557036E+02 -0.20714856669E+02  0.38469472400E+02  0.51100000000E-03 0. -1.
        -11    1    3    3    0    0 -0.76365000267E+01  0.32387159103E+01  0.38859481446E+01  0.91600221970E+01  0.51100000000E-03 0.  1.
        -12    1    3    3    0    0  0.28665165441E+02 -0.26795269689E+02  0.16003923358E+02  0.42376924739E+02  0.00000000000E+00 0.  1.
</event>
<event>
 7    1  0.2404951E-015  0.9000780E+02  0.7816164E-02  0.1186339E+00
        -11   -1    0    0    0    0  0.00000000000E+00  0.00000000000E+00  0.45593999997E+02  0.45594000000E+02  0.51100000000E-03 0. -1.
         11   -1    0    0    0    0 -0.00000000000E+00 -0.00000000000E+00 -0.45593999997E+02  0.45594000000E+02  0.51100000000E-03 0.  1.
    9900012    2    1    2    0    0  0.11349791071E+01 -0.40136077570E-01 -0.32107183285E+00  0.90007798492E+02  0.90000060632E+02 0.  0.
         12    1    1    2    0    0 -0.11349791071E+01  0.40136077570E-01  0.32107183285E+00  0.11802015083E+01  0.00000000000E+00 0. -1.
         11    1    3    3    0    0 -0.43312499446E+01 -0.35540035017E+01 -0.11560845024E+02  0.12846937569E+02  0.51100000000E-03 0. -1.
        -11    1    3    3    0    0  0.30696119837E+02 -0.19886447582E+00 -0.20148718787E+02  0.36718689915E+02  0.51100000000E-03 0.  1.
         12    1    3    3    0    0 -0.25229890785E+02  0.37127319000E+01  0.31388491978E+02  0.40442171007E+02  0.00000000000E+00 0. -1.
</event>
<event>
 7    1  0.2404951E-015  0.9000775E+02  0.7816164E-02  0.1186339E+00
        -11   -1    0    0    0    0  0.00000000000E+00  0.00000000000E+00  0.45593999997E+02  0.45594000000E+02  0.51100000000E-03 0.  1.
         11   -1    0    0    0    0 -0.00000000000E+00 -0.00000000000E+00 -0.45593999997E+02  0.45594000000E+02  0.51100000000E-03 0. -1.
    9900012    2    1    2    0    0 -0.47171913700E-01 -0.81376803777E-01  0.11764942455E+01  0.90007751686E+02  0.90000013208E+02 0.  0.
         12    1    1    2    0    0  0.47171913700E-01  0.81376803777E-01 -0.11764942455E+01  0.11802483142E+01  0.00000000000E+00 0. -1.
         11    1    3    3    0    0  0.82268250115E+01 -0.67443952431E+01 -0.24061504688E+00  0.10640743058E+02  0.51100000000E-03 0. -1.
        -11    1    3    3    0    0  0.12900720271E+02  0.34807513842E+02  0.17029777790E+02  0.40841216132E+02  0.51100000000E-03 0.  1.
         12    1    3    3    0    0 -0.21174717196E+02 -0.28144495402E+02 -0.15612668497E+02  0.38525792495E+02  0.00000000000E+00 0. -1.
</event>
<event>
 7    1  0.2404951E-015  0.9000752E+02  0.7816164E-02  0.1186339E+00
        -11   -1    0    0    0    0  0.00000000000E+00  0.00000000000E+00  0.45593999997E+02  0.45594000000E+02  0.51100000000E-03 0. -1.
         11   -1    0    0    0    0 -0.00000000000E+00 -0.00000000000E+00 -0.45593999997E+02  0.45594000000E+02  0.51100000000E-03 0.  1.
    9900012    2    1    2    0    0 -0.93781635656E+00  0.41882804303E+00 -0.58190348461E+00  0.90007522083E+02  0.89999780574E+02 0.  0.
         12    1    1    2    0    0  0.93781635656E+00 -0.41882804303E+00  0.58190348461E+00  0.11804779175E+01  0.00000000000E+00 0. -1.
         11    1    3    3    0    0 -0.18401130555E+02 -0.22911862634E+02  0.24954512299E+02  0.38552337664E+02  0.51100000000E-03 0. -1.
        -11    1    3    3    0    0  0.33367132512E+01 -0.18651900173E+01  0.69819589365E+01  0.79599208522E+01  0.51100000000E-03 0.  1.
        -12    1    3    3    0    0  0.14126600947E+02  0.25195880694E+02 -0.32518374720E+02  0.43495263566E+02  0.00000000000E+00 0.  1.
</event>
<event>
 7    1  0.2404951E-015  0.9000808E+02  0.7816164E-02  0.1186338E+00
        -11   -1    0    0    0    0  0.00000000000E+00  0.00000000000E+00  0.45593999997E+02  0.45594000000E+02  0.51100000000E-03 0.  1.
         11   -1    0    0    0    0 -0.00000000000E+00 -0.00000000000E+00 -0.45593999997E+02  0.45594000000E+02  0.51100000000E-03 0. -1.
    9900012    2    1    2    0    0  0.70379618886E+00 -0.72367258922E+00 -0.61087848143E+00  0.90008083219E+02  0.90000349116E+02 0.  0.
         12    1    1    2    0    0 -0.70379618886E+00  0.72367258922E+00  0.61087848143E+00  0.11799167813E+01  0.00000000000E+00 0. -1.
         11    1    3    3    0    0  0.85989188069E+01  0.40246141214E+01  0.14261965111E+01  0.96006749879E+01  0.51100000000E-03 0. -1.
        -11    1    3    3    0    0 -0.63230039505E+01  0.73863201955E+01  0.37645666935E+02  0.38881028076E+02  0.51100000000E-03 0.  1.
         12    1    3    3    0    0 -0.15721186675E+01 -0.12134606906E+02 -0.39682741928E+02  0.41526380155E+02  0.00000000000E+00 0. -1.
</event>
<event>
 7    1  0.2404951E-015  0.9000774E+02  0.7816164E-02  0.1186339E+00
        -11   -1    0    0    0    0  0.00000000000E+00  0.00000000000E+00  0.45593999997E+02  0.45594000000E+02  0.51100000000E-03 0. -1.
         11   -1    0    0    0    0 -0.00000000000E+00 -0.00000000000E+00 -0.45593999997E+02  0.45594000000E+02  0.51100000000E-03 0.  1.
    9900012    2    1    2    0    0 -0.44779455497E+00  0.10563516686E+01  0.27679864633E+00  0.90007738884E+02  0.90000000237E+02 0.  0.
         12    1    1    2    0    0  0.44779455497E+00 -0.10563516686E+01 -0.27679864633E+00  0.11802611160E+01  0.00000000000E+00 0. -1.
         11    1    3    3    0    0 -0.11985385741E+01 -0.12424603417E+01 -0.10706154360E+02  0.10844442995E+02  0.51100000000E-03 0. -1.
        -11    1    3    3    0    0 -0.99543767346E+01  0.60463446392E+01 -0.32343640090E+02  0.34376721109E+02  0.51100000000E-03 0.  1.
         12    1    3    3    0    0  0.10705120754E+02 -0.37475326289E+01  0.43326593097E+02  0.44786574780E+02  0.00000000000E+00 0. -1.
</event>
<event>
 8    1  0.2404951E-015  0.9000795E+02  0.7816164E-02  0.1186339E+00
        -11   -1    0    0    0    0  0.00000000000E+00  0.00000000000E+00  0.45593999997E+02  0.45594000000E+02  0.51100000000E-03 0. -1.
         11   -1    0    0    0    0 -0.00000000000E+00 -0.00000000000E+00 -0.45593999997E+02  0.45594000000E+02  0.51100000000E-03 0.  1.
    9900012    2    1    2    0    0 -0.82497805653E+00  0.81864012516E+00 -0.20433360906E+00  0.90007952259E+02  0.90000216428E+02 0.  0.
         23    2    3    3    0    0  0.54590386631E+01  0.18161299076E+02  0.47835411105E+01  0.70899431127E+02  0.68148464262E+02 0.  0.
         12    1    1    2    0    0  0.82497805653E+00 -0.81864012516E+00  0.20433360906E+00  0.11800477414E+01  0.00000000000E+00 0. -1.
         11    1    4    4    0    0 -0.40373740995E+01 -0.21194325177E+02  0.18223491178E+02  0.28241732247E+02  0.51100000000E-03 0. -1.
        -11    1    4    4    0    0  0.94964127625E+01  0.39355624253E+02 -0.13439950068E+02  0.42657698880E+02  0.51100000000E-03 0.  1.
         12    1    3    3    0    0 -0.62840167196E+01 -0.17342658951E+02 -0.49878747196E+01  0.19108521132E+02  0.00000000000E+00 0. -1.
</event>
<event>
 7    1  0.2404951E-015  0.9000770E+02  0.7816164E-02  0.1186339E+00
        -11   -1    0    0    0    0  0.00000000000E+00  0.00000000000E+00  0.45593999997E+02  0.45594000000E+02  0.51100000000E-03 0. -1.
         11   -1    0    0    0    0 -0.00000000000E+00 -0.00000000000E+00 -0.45593999997E+02  0.45594000000E+02  0.51100000000E-03 0.  1.
    9900012    2    1    2    0    0 -0.82242280214E+00 -0.76167776865E+00 -0.36957244723E+00  0.90007696614E+02  0.89999957410E+02 0.  0.
         12    1    1    2    0    0  0.82242280214E+00  0.76167776865E+00  0.36957244723E+00  0.11803033858E+01  0.00000000000E+00 0. -1.
         11    1    3    3    0    0 -0.63178675746E+01 -0.24067491662E+01  0.40604645212E+01  0.78863974429E+01  0.51100000000E-03 0. -1.
        -11    1    3    3    0    0 -0.28384699505E+02  0.20376398223E+02 -0.20153439682E+02  0.40336706631E+02  0.51100000000E-03 0.  1.
         12    1    3    3    0    0  0.33880144277E+02 -0.18731326826E+02  0.15723402713E+02  0.41784592541E+02  0.00000000000E+00 0. -1.
</event>
<event>
 7    1  0.2404951E-015  0.9000777E+02  0.7816164E-02  0.1186339E+00
        -11   -1    0    0    0    0  0.00000000000E+00  0.00000000000E+00  0.45593999997E+02  0.45594000000E+02  0.51100000000E-03 0.  1.
         11   -1    0    0    0    0 -0.00000000000E+00 -0.00000000000E+00 -0.45593999997E+02  0.45594000000E+02  0.51100000000E-03 0. -1.
    9900012    2    1    2    0    0 -0.12683404587E+00  0.71069743597E+00  0.93368920691E+00  0.90007765593E+02  0.90000027299E+02 0.  0.
         12    1    1    2    0    0  0.12683404587E+00 -0.71069743597E+00 -0.93368920691E+00  0.11802344071E+01  0.00000000000E+00 0. -1.
         11    1    3    3    0    0  0.34341018588E+02 -0.64378403954E+01 -0.14084022366E+02  0.37671090147E+02  0.51100000000E-03 0. -1.
        -11    1    3    3    0    0  0.57886106138E+01 -0.18274915716E+01 -0.36291456838E+01  0.70723713801E+01  0.51100000000E-03 0.  1.
        -12    1    3    3    0    0 -0.40256463247E+02  0.89760294030E+01  0.18646857257E+02  0.45264304066E+02  0.00000000000E+00 0.  1.
</event>
<event>
 7    1  0.2404951E-015  0.9000771E+02  0.7816164E-02  0.1186339E+00
        -11   -1    0    0    0    0  0.00000000000E+00  0.00000000000E+00  0.45593999997E+02  0.45594000000E+02  0.51100000000E-03 0.  1.
         11   -1    0    0    0    0 -0.00000000000E+00 -0.00000000000E+00 -0.45593999997E+02  0.45594000000E+02  0.51100000000E-03 0. -1.
    9900012    2    1    2    0    0 -0.81557696331E+00 -0.49929216029E-01  0.85172074091E+00  0.90007708964E+02  0.89999969922E+02 0.  0.
         12    1    1    2    0    0  0.81557696331E+00  0.49929216029E-01 -0.85172074091E+00  0.11802910362E+01  0.00000000000E+00 0. -1.
         11    1    3    3    0    0 -0.16429259355E+02 -0.11938289788E+02 -0.23902836381E+01  0.20448882173E+02  0.51100000000E-03 0. -1.
        -11    1    3    3    0    0 -0.10626495274E+02  0.21696519752E+02 -0.21381471535E+02  0.32261876828E+02  0.51100000000E-03 0.  1.
         12    1    3    3    0    0  0.26240177665E+02 -0.98081591801E+01  0.24623475914E+02  0.37296949963E+02  0.00000000000E+00 0. -1.
</event>
<event>
 7    1  0.2404951E-015  0.9000773E+02  0.7816164E-02  0.1186339E+00
        -11   -1    0    0    0    0  0.00000000000E+00  0.00000000000E+00  0.45593999997E+02  0.45594000000E+02  0.51100000000E-03 0. -1.
         11   -1    0    0    0    0 -0.00000000000E+00 -0.00000000000E+00 -0.45593999997E+02  0.45594000000E+02  0.51100000000E-03 0.  1.
    9900012    2    1    2    0    0  0.88622992821E+00  0.66267529266E+00 -0.41049069307E+00  0.90007726880E+02  0.89999988075E+02 0.  0.
         12    1    1    2    0    0 -0.88622992821E+00 -0.66267529266E+00  0.41049069307E+00  0.11802731202E+01  0.00000000000E+00 0. -1.
         11    1    3    3    0    0 -0.68921173176E+01 -0.60332217979E+01 -0.19279093751E+00  0.91617801212E+01  0.51100000000E-03 0. -1.
        -11    1    3    3    0    0  0.16846690038E+02 -0.14973919149E+02 -0.33337080484E+02  0.40241647027E+02  0.51100000000E-03 0.  1.
         12    1    3    3    0    0 -0.90683427922E+01  0.21669816240E+02  0.33119380729E+02  0.40604299732E+02  0.00000000000E+00 0. -1.
</event>
<event>
 7    1  0.2404951E-015  0.9000780E+02  0.7816164E-02  0.1186339E+00
        -11   -1    0    0    0    0  0.00000000000E+00  0.00000000000E+00  0.45593999997E+02  0.45594000000E+02  0.51100000000E-03 0.  1.
         11   -1    0    0    0    0 -0.00000000000E+00 -0.00000000000E+00 -0.45593999997E+02  0.45594000000E+02  0.51100000000E-03 0. -1.
    9900012    2    1    2    0    0 -0.11255351351E+01  0.32594551570E+00  0.14074880514E+00  0.90007796608E+02  0.90000058724E+02 0.  0.
         12    1    1    2    0    0  0.11255351351E+01 -0.32594551570E+00 -0.14074880514E+00  0.11802033916E+01  0.00000000000E+00 0. -1.
         11    1    3    3    0    0  0.44005728986E+01  0.62464539482E+01  0.27339302546E+01  0.81152697836E+01  0.51100000000E-03 0. -1.
        -11    1    3    3    0    0  0.36878040063E+02  0.68513159356E+01 -0.27065308549E+01  0.37606590891E+02  0.51100000000E-03 0.  1.
         12    1    3    3    0    0 -0.42404148096E+02 -0.12771824368E+02  0.11334940547E+00  0.44285935934E+02  0.00000000000E+00 0. -1.
</event>
<event>
 7    1  0.2404951E-015  0.9000777E+02  0.7816164E-02  0.1186339E+00
        -11   -1    0    0    0    0  0.00000000000E+00  0.00000000000E+00  0.45593999997E+02  0.45594000000E+02  0.51100000000E-03 0.  1.
         11   -1    0    0    0    0 -0.00000000000E+00 -0.00000000000E+00 -0.45593999997E+02  0.45594000000E+02  0.51100000000E-03 0. -1.
    9900012    2    1    2    0    0 -0.33736149403E+00  0.50696548998E+00  0.10109964341E+01  0.90007770965E+02  0.90000032742E+02 0.  0.
         12    1    1    2    0    0  0.33736149403E+00 -0.50696548998E+00 -0.10109964341E+01  0.11802290351E+01  0.00000000000E+00 0. -1.
         11    1    3    3    0    0 -0.54546470956E+01 -0.41760666739E+01  0.10211433312E+02  0.12307155575E+02  0.51100000000E-03 0. -1.
        -11    1    3    3    0    0 -0.30595480636E+02 -0.47167246382E+01 -0.22693256594E+02  0.38383783318E+02  0.51100000000E-03 0.  1.
         12    1    3    3    0    0  0.35712766238E+02  0.93997568020E+01  0.13492819715E+02  0.39316832072E+02  0.00000000000E+00 0. -1.
</event>
<event>
 7    1  0.2404951E-015  0.9000778E+02  0.7816164E-02  0.1186339E+00
        -11   -1    0    0    0    0  0.00000000000E+00  0.00000000000E+00  0.45593999997E+02  0.45594000000E+02  0.51100000000E-03 0.  1.
         11   -1    0    0    0    0 -0.00000000000E+00 -0.00000000000E+00 -0.45593999997E+02  0.45594000000E+02  0.51100000000E-03 0. -1.
    9900012    2    1    2    0    0 -0.31427469830E+00 -0.92753772903E+00  0.65864696965E+00  0.90007783640E+02  0.90000045584E+02 0.  0.
         12    1    1    2    0    0  0.31427469830E+00  0.92753772903E+00 -0.65864696965E+00  0.11802163596E+01  0.00000000000E+00 0. -1.
         11    1    3    3    0    0  0.78310585708E+01  0.29537789559E+02  0.17964007919E+02  0.35447314019E+02  0.51100000000E-03 0. -1.
        -11    1    3    3    0    0  0.14817221259E+02 -0.16740353782E+01 -0.46461656803E+01  0.15618556145E+02  0.51100000000E-03 0.  1.
        -12    1    3    3    0    0 -0.22962554528E+02 -0.28791291910E+02 -0.12659195269E+02  0.38941913476E+02  0.00000000000E+00 0.  1.
</event>
<event>
 7    1  0.2404951E-015  0.9000780E+02  0.7816164E-02  0.1186339E+00
        -11   -1    0    0    0    0  0.00000000000E+00  0.00000000000E+00  0.45593999997E+02  0.45594000000E+02  0.51100000000E-03 0. -1.
         11   -1    0    0    0    0 -0.00000000000E+00 -0.00000000000E+00 -0.45593999997E+02  0.45594000000E+02  0.51100000000E-03 0.  1.
    9900012    2    1    2    0    0  0.96315944854E+00  0.68155728604E+00 -0.26109859447E-01  0.90007797398E+02  0.90000059523E+02 0.  0.
         12    1    1    2    0    0 -0.96315944854E+00 -0.68155728604E+00  0.26109859447E-01  0.11802026022E+01  0.00000000000E+00 0. -1.
         11    1    3    3    0    0  0.66052304976E+01  0.29200476156E+01  0.42863219040E+02  0.43467358957E+02  0.51100000000E-03 0. -1.
        -11    1    3    3    0    0 -0.61056938234E+01  0.23261269281E+01 -0.46323241346E+01  0.80092940201E+01  0.51100000000E-03 0.  1.
        -12    1    3    3    0    0  0.46362277428E+00 -0.45646172577E+01 -0.38257004765E+02  0.38531144420E+02  0.00000000000E+00 0.  1.
</event>
<event>
 7    1  0.2468509E-015  0.9000774E+02  0.7816164E-02  0.1186339E+00
        -11   -1    0    0    0    0  0.00000000000E+00  0.00000000000E+00  0.45593999997E+02  0.45594000000E+02  0.51100000000E-03 0.  1.
         11   -1    0    0    0    0 -0.00000000000E+00 -0.00000000000E+00 -0.45593999997E+02  0.45594000000E+02  0.51100000000E-03 0. -1.
    9900012    2    1    2    0    0  0.99222739794E+00 -0.42320803946E+00  0.47893829635E+00  0.90007744881E+02  0.90000006314E+02 0.  0.
         12    1    1    2    0    0 -0.99222739794E+00  0.42320803946E+00 -0.47893829635E+00  0.11802551189E+01  0.00000000000E+00 0. -1.
         11    1    3    3    0    0  0.19675831599E+02  0.21164980335E+02 -0.26022134793E+02  0.38887610381E+02  0.51100000000E-03 0. -1.
        -11    1    3    3    0    0  0.89618606269E+01 -0.80074524814E+00  0.39308148800E+01  0.98187292829E+01  0.51100000000E-03 0.  1.
        -12    1    3    3    0    0 -0.27645464828E+02 -0.20787443126E+02  0.22570258210E+02  0.41301405217E+02  0.00000000000E+00 0.  1.
</event>
<event>
 7    1  0.2404951E-015  0.9000778E+02  0.7816164E-02  0.1186339E+00
        -11   -1    0    0    0    0  0.00000000000E+00  0.00000000000E+00  0.45593999997E+02  0.45594000000E+02  0.51100000000E-03 0. -1.
         11   -1    0    0    0    0 -0.00000000000E+00 -0.00000000000E+00 -0.45593999997E+02  0.45594000000E+02  0.51100000000E-03 0.  1.
    9900012    2    1    2    0    0  0.63967873880E+00 -0.34642566711E+00 -0.92936800482E+00  0.90007777767E+02  0.90000039633E+02 0.  0.
         12    1    1    2    0    0 -0.63967873880E+00  0.34642566711E+00  0.92936800482E+00  0.11802222333E+01  0.00000000000E+00 0. -1.
         11    1    3    3    0    0  0.26020945286E+02  0.26250879714E+02 -0.17539946544E+02  0.40912687572E+02  0.51100000000E-03 0. -1.
        -11    1    3    3    0    0  0.36456374051E+01 -0.10702530209E+01  0.89023471178E+01  0.96792509052E+01  0.51100000000E-03 0.  1.
        -12    1    3    3    0    0 -0.29026903952E+02 -0.25527052360E+02  0.77082314218E+01  0.39415839289E+02  0.00000000000E+00 0.  1.
</event>
<event>
 7    1  0.2404951E-015  0.9000774E+02  0.7816164E-02  0.1186339E+00
        -11   -1    0    0    0    0  0.00000000000E+00  0.00000000000E+00  0.45593999997E+02  0.45594000000E+02  0.51100000000E-03 0. -1.
         11   -1    0    0    0    0 -0.00000000000E+00 -0.00000000000E+00 -0.45593999997E+02  0.45594000000E+02  0.51100000000E-03 0.  1.
    9900012    2    1    2    0    0 -0.90540709733E+00 -0.20184230943E+00 -0.72973992732E+00  0.90007736177E+02  0.89999997495E+02 0.  0.
         12    1    1    2    0    0  0.90540709733E+00  0.20184230943E+00  0.72973992732E+00  0.11802638227E+01  0.00000000000E+00 0. -1.
         11    1    3    3    0    0 -0.66301608476E+01 -0.12780228879E+01 -0.69711049141E+01  0.97050852315E+01  0.51100000000E-03 0. -1.
        -11    1    3    3    0    0 -0.64457847956E+01  0.35953387491E+02 -0.12850166769E+02  0.38721066617E+02  0.51100000000E-03 0.  1.
         12    1    3    3    0    0  0.12170538546E+02 -0.34877206913E+02  0.19091531755E+02  0.41581584329E+02  0.00000000000E+00 0. -1.
</event>
<event>
 7    1  0.2404951E-015  0.9000772E+02  0.7816164E-02  0.1186339E+00
        -11   -1    0    0    0    0  0.00000000000E+00  0.00000000000E+00  0.45593999997E+02  0.45594000000E+02  0.51100000000E-03 0. -1.
         11   -1    0    0    0    0 -0.00000000000E+00 -0.00000000000E+00 -0.45593999997E+02  0.45594000000E+02  0.51100000000E-03 0.  1.
    9900012    2    1    2    0    0  0.96980908754E+00  0.41873432215E+00 -0.52649480252E+00  0.90007718307E+02  0.89999979388E+02 0.  0.
         12    1    1    2    0    0 -0.96980908754E+00 -0.41873432215E+00  0.52649480252E+00  0.11802816935E+01  0.00000000000E+00 0. -1.
         11    1    3    3    0    0  0.17452216701E+02 -0.28886221259E+02 -0.11997773380E+02  0.35818154793E+02  0.51100000000E-03 0. -1.
        -11    1    3    3    0    0  0.80145814232E+01 -0.52119570806E+01 -0.20077946991E+01  0.97687896801E+01  0.51100000000E-03 0.  1.
        -12    1    3    3    0    0 -0.24496989037E+02  0.34516912662E+02  0.13479073277E+02  0.44420773834E+02  0.00000000000E+00 0.  1.
</event>
<event>
 7    1  0.2404951E-015  0.9000773E+02  0.7816164E-02  0.1186339E+00
        -11   -1    0    0    0    0  0.00000000000E+00  0.00000000000E+00  0.45593999997E+02  0.45594000000E+02  0.51100000000E-03 0.  1.
         11   -1    0    0    0    0 -0.00000000000E+00 -0.00000000000E+00 -0.45593999997E+02  0.45594000000E+02  0.51100000000E-03 0. -1.
    9900012    2    1    2    0    0  0.90328109064E+00 -0.41050928537E+00  0.63922397142E+00  0.90007728045E+02  0.89999989255E+02 0.  0.
         12    1    1    2    0    0 -0.90328109064E+00  0.41050928537E+00 -0.63922397142E+00  0.11802719550E+01  0.00000000000E+00 0. -1.
         11    1    3    3    0    0 -0.28277594210E+02  0.12114051282E+02 -0.18482711209E+02  0.35888482647E+02  0.51100000000E-03 0. -1.
        -11    1    3    3    0    0 -0.76567598992E+01 -0.14874002178E+01 -0.44834978233E+01  0.89966707483E+01  0.51100000000E-03 0.  1.
        -12    1    3    3    0    0  0.36837635200E+02 -0.11037160350E+02  0.23605433004E+02  0.45122574650E+02  0.00000000000E+00 0.  1.
</event>
<event>
 7    1  0.2404951E-015  0.9000772E+02  0.7816164E-02  0.1186339E+00
        -11   -1    0    0    0    0  0.00000000000E+00  0.00000000000E+00  0.45593999997E+02  0.45594000000E+02  0.51100000000E-03 0.  1.
         11   -1    0    0    0    0 -0.00000000000E+00 -0.00000000000E+00 -0.45593999997E+02  0.45594000000E+02  0.51100000000E-03 0. -1.
    9900012    2    1    2    0    0 -0.16949485018E+00  0.10860688305E+01  0.42986921539E+00  0.90007719715E+02  0.89999980815E+02 0.  0.
         12    1    1    2    0    0  0.16949485018E+00 -0.10860688305E+01 -0.42986921539E+00  0.11802802850E+01  0.00000000000E+00 0. -1.
         11    1    3    3    0    0 -0.56920242908E+01  0.22602820979E+01  0.80828423935E+01  0.10141023474E+02  0.51100000000E-03 0. -1.
        -11    1    3    3    0    0 -0.53479424208E+01  0.21613246061E+02  0.28253669538E+02  0.35972249527E+02  0.51100000000E-03 0.  1.
         12    1    3    3    0    0  0.10870471861E+02 -0.22787459328E+02 -0.35906642716E+02  0.43894446713E+02  0.00000000000E+00 0. -1.
</event>
<event>
 7    1  0.2404951E-015  0.9000776E+02  0.7816164E-02  0.1186339E+00
        -11   -1    0    0    0    0  0.00000000000E+00  0.00000000000E+00  0.45593999997E+02  0.45594000000E+02  0.51100000000E-03 0.  1.
         11   -1    0    0    0    0 -0.00000000000E+00 -0.00000000000E+00 -0.45593999997E+02  0.45594000000E+02  0.51100000000E-03 0. -1.
    9900012    2    1    2    0    0  0.34662734418E+00 -0.75183425732E+00  0.84115972928E+00  0.90007764872E+02  0.90000026569E+02 0.  0.
         12    1    1    2    0    0 -0.34662734418E+00  0.75183425732E+00 -0.84115972928E+00  0.11802351276E+01  0.00000000000E+00 0. -1.
         11    1    3    3    0    0 -0.66419286585E+01  0.58548101418E+00 -0.64902638996E+01  0.93049196703E+01  0.51100000000E-03 0. -1.
        -11    1    3    3    0    0  0.89132731669E+01  0.36613751816E+02  0.17229395588E+02  0.41435073708E+02  0.51100000000E-03 0.  1.
         12    1    3    3    0    0 -0.19247171642E+01 -0.37951067087E+02 -0.98979719590E+01  0.39267771494E+02  0.00000000000E+00 0. -1.
</event>
<event>
 7    1  0.2404951E-015  0.9000778E+02  0.7816164E-02  0.1186339E+00
        -11   -1    0    0    0    0  0.00000000000E+00  0.00000000000E+00  0.45593999997E+02  0.45594000000E+02  0.51100000000E-03 0.  1.
         11   -1    0    0    0    0 -0.00000000000E+00 -0.00000000000E+00 -0.45593999997E+02  0.45594000000E+02  0.51100000000E-03 0. -1.
    9900012    2    1    2    0    0 -0.52931272293E+00  0.10547951916E+01  0.12393100287E-01  0.90007780341E+02  0.90000042241E+02 0.  0.
         12    1    1    2    0    0  0.52931272293E+00 -0.10547951916E+01 -0.12393100287E-01  0.11802196592E+01  0.00000000000E+00 0. -1.
         11    1    3    3    0    0  0.30639424900E+01 -0.77207633194E+01  0.32806922913E+01  0.89308942435E+01  0.51100000000E-03 0. -1.
        -11    1    3    3    0    0  0.28478315334E+02 -0.18005695046E+02  0.13171427876E+02  0.36176041946E+02  0.51100000000E-03 0.  1.
         12    1    3    3    0    0 -0.32071570547E+02  0.26781253557E+02 -0.16439727067E+02  0.44900844151E+02  0.00000000000E+00 0. -1.
</event>
<event>
 7    1  0.2404951E-015  0.9000774E+02  0.7816164E-02  0.1186339E+00
        -11   -1    0    0    0    0  0.00000000000E+00  0.00000000000E+00  0.45593999997E+02  0.45594000000E+02  0.51100000000E-03 0.  1.
         11   -1    0    0    0    0 -0.00000000000E+00 -0.00000000000E+00 -0.45593999997E+02  0.45594000000E+02  0.51100000000E-03 0. -1.
    9900012    2    1    2    0    0  0.50617312153E+00 -0.30801611391E+00  0.10207435281E+01  0.90007744729E+02  0.90000006159E+02 0.  0.
         12    1    1    2    0    0 -0.50617312153E+00  0.30801611391E+00 -0.10207435281E+01  0.11802552714E+01  0.00000000000E+00 0. -1.
         11    1    3    3    0    0  0.14740104277E+02  0.18050494880E+02 -0.32075844675E+02  0.39647835394E+02  0.51100000000E-03 0. -1.
        -11    1    3    3    0    0 -0.48055458058E+01  0.71512429614E+01  0.16291810876E+01  0.87685675947E+01  0.51100000000E-03 0.  1.
        -12    1    3    3    0    0 -0.94283853492E+01 -0.25509753956E+02  0.31467407116E+02  0.41591341740E+02  0.00000000000E+00 0.  1.
</event>
<event>
 7    1  0.2789154E-015  0.9000795E+02  0.7816164E-02  0.1186339E+00
        -11   -1    0    0    0    0  0.00000000000E+00  0.00000000000E+00  0.45593999997E+02  0.45594000000E+02  0.51100000000E-03 0. -1.
         11   -1    0    0    0    0 -0.00000000000E+00 -0.00000000000E+00 -0.45593999997E+02  0.45594000000E+02  0.51100000000E-03 0.  1.
    9900012    2    1    2    0    0 -0.62520210212E+00  0.42405776102E+00 -0.90653387386E+00  0.90007954951E+02  0.90000219156E+02 0.  0.
         12    1    1    2    0    0  0.62520210212E+00 -0.42405776102E+00  0.90653387386E+00  0.11800450490E+01  0.00000000000E+00 0. -1.
         11    1    3    3    0    0 -0.18779423803E+02 -0.11094345297E+02  0.27438275022E+02  0.35051536235E+02  0.51100000000E-03 0. -1.
        -11    1    3    3    0    0 -0.76810046132E+01  0.13329697063E+01  0.66742815666E+01  0.10262586165E+02  0.51100000000E-03 0.  1.
        -12    1    3    3    0    0  0.25835226314E+02  0.10185433351E+02 -0.35019090463E+02  0.44693832551E+02  0.00000000000E+00 0.  1.
</event>
<event>
 7    1  0.2404951E-015  0.9000777E+02  0.7816164E-02  0.1186339E+00
        -11   -1    0    0    0    0  0.00000000000E+00  0.00000000000E+00  0.45593999997E+02  0.45594000000E+02  0.51100000000E-03 0. -1.
         11   -1    0    0    0    0 -0.00000000000E+00 -0.00000000000E+00 -0.45593999997E+02  0.45594000000E+02  0.51100000000E-03 0.  1.
    9900012    2    1    2    0    0  0.11701697645E+01  0.14849440214E+00  0.40010722569E-01  0.90007767513E+02  0.90000029244E+02 0.  0.
         12    1    1    2    0    0 -0.11701697645E+01 -0.14849440214E+00 -0.40010722569E-01  0.11802324869E+01  0.00000000000E+00 0. -1.
         11    1    3    3    0    0 -0.46599517459E+01 -0.58289061728E+00 -0.81465749036E+01  0.94032757413E+01  0.51100000000E-03 0. -1.
        -11    1    3    3    0    0 -0.15620638471E+02  0.33350990297E+02  0.17029943069E+02  0.40574768776E+02  0.51100000000E-03 0.  1.
         12    1    3    3    0    0  0.21450759981E+02 -0.32619605278E+02 -0.88433574431E+01  0.40029722996E+02  0.00000000000E+00 0. -1.
</event>
<event>
 7    1  0.2404951E-015  0.9000784E+02  0.7816164E-02  0.1186339E+00
        -11   -1    0    0    0    0  0.00000000000E+00  0.00000000000E+00  0.45593999997E+02  0.45594000000E+02  0.51100000000E-03 0.  1.
         11   -1    0    0    0    0 -0.00000000000E+00 -0.00000000000E+00 -0.45593999997E+02  0.45594000000E+02  0.51100000000E-03 0. -1.
    9900012    2    1    2    0    0  0.77102940474E+00 -0.44685853808E+00  0.77369849150E+00  0.90007839735E+02  0.90000102419E+02 0.  0.
         12    1    1    2    0    0 -0.77102940474E+00  0.44685853808E+00 -0.77369849150E+00  0.11801602653E+01  0.00000000000E+00 0. -1.
         11    1    3    3    0    0  0.20619321053E+01  0.78874551836E+01  0.63987529568E+01  0.10363761525E+02  0.51100000000E-03 0. -1.
        -11    1    3    3    0    0 -0.27468737512E+02 -0.80867722452E+01  0.25939108603E+02  0.38636314281E+02  0.51100000000E-03 0.  1.
         12    1    3    3    0    0  0.26177834812E+02 -0.24754147647E+00 -0.31564163068E+02  0.41007763929E+02  0.00000000000E+00 0. -1.
</event>
<event>
 7    1  0.2404951E-015  0.9000776E+02  0.7816164E-02  0.1186339E+00
        -11   -1    0    0    0    0  0.00000000000E+00  0.00000000000E+00  0.45593999997E+02  0.45594000000E+02  0.51100000000E-03 0.  1.
         11   -1    0    0    0    0 -0.00000000000E+00 -0.00000000000E+00 -0.45593999997E+02  0.45594000000E+02  0.51100000000E-03 0. -1.
    9900012    2    1    2    0    0  0.85963430691E+00 -0.19156586760E+00  0.78567639732E+00  0.90007764420E+02  0.90000026110E+02 0.  0.
         12    1    1    2    0    0 -0.85963430691E+00  0.19156586760E+00 -0.78567639732E+00  0.11802355801E+01  0.00000000000E+00 0. -1.
         11    1    3    3    0    0 -0.29299212637E+00  0.46887549778E+00  0.75626857799E+01  0.75828691856E+01  0.51100000000E-03 0. -1.
        -11    1    3    3    0    0  0.38000923945E+02 -0.16789195914E+02 -0.73900101548E+01  0.42196677244E+02  0.51100000000E-03 0.  1.
         12    1    3    3    0    0 -0.36848297511E+02  0.16128754548E+02  0.61300077217E+00  0.40228217991E+02  0.00000000000E+00 0. -1.
</event>
<event>
 7    1  0.2404951E-015  0.9000777E+02  0.7816164E-02  0.1186339E+00
        -11   -1    0    0    0    0  0.00000000000E+00  0.00000000000E+00  0.45593999997E+02  0.45594000000E+02  0.51100000000E-03 0.  1.
         11   -1    0    0    0    0 -0.00000000000E+00 -0.00000000000E+00 -0.45593999997E+02  0.45594000000E+02  0.51100000000E-03 0. -1.
    9900012    2    1    2    0    0  0.10894585756E+01 -0.48898356299E-01 -0.45126790151E+00  0.90007765381E+02  0.90000027084E+02 0.  0.
         12    1    1    2    0    0 -0.10894585756E+01  0.48898356299E-01  0.45126790151E+00  0.11802346191E+01  0.00000000000E+00 0. -1.
         11    1    3    3    0    0  0.25580848847E+02  0.73093091122E+01 -0.27692089086E+02  0.38401271146E+02  0.51100000000E-03 0. -1.
        -11    1    3    3    0    0  0.26267272823E+01  0.79363885943E+01 -0.23186726379E+01  0.86753791386E+01  0.51100000000E-03 0.  1.
        -12    1    3    3    0    0 -0.27118117554E+02 -0.15294596063E+02  0.29559493822E+02  0.42931115096E+02  0.00000000000E+00 0.  1.
</event>
<event>
 7    1  0.2404951E-015  0.9000715E+02  0.7816164E-02  0.1186340E+00
        -11   -1    0    0    0    0  0.00000000000E+00  0.00000000000E+00  0.45593999997E+02  0.45594000000E+02  0.51100000000E-03 0.  1.
         11   -1    0    0    0    0 -0.00000000000E+00 -0.00000000000E+00 -0.45593999997E+02  0.45594000000E+02  0.51100000000E-03 0. -1.
    9900012    2    1    2    0    0  0.10469338991E+01 -0.41553415426E+00 -0.35448575964E+00  0.90007153111E+02  0.89999406730E+02 0.  0.
         12    1    1    2    0    0 -0.10469338991E+01  0.41553415426E+00  0.35448575964E+00  0.11808468894E+01  0.00000000000E+00 0. -1.
         11    1    3    3    0    0  0.16623946437E+02 -0.24640495164E+02 -0.23739958160E+02  0.38040704657E+02  0.51100000000E-03 0. -1.
        -11    1    3    3    0    0  0.16895766423E+01 -0.88320472216E+01  0.60615056381E+01  0.10844426136E+02  0.51100000000E-03 0.  1.
        -12    1    3    3    0    0 -0.17266589180E+02  0.33057008231E+02  0.17323966763E+02  0.41122022318E+02  0.00000000000E+00 0.  1.
</event>
<event>
 7    1  0.2404951E-015  0.9000775E+02  0.7816164E-02  0.1186339E+00
        -11   -1    0    0    0    0  0.00000000000E+00  0.00000000000E+00  0.45593999997E+02  0.45594000000E+02  0.51100000000E-03 0.  1.
         11   -1    0    0    0    0 -0.00000000000E+00 -0.00000000000E+00 -0.45593999997E+02  0.45594000000E+02  0.51100000000E-03 0. -1.
    9900012    2    1    2    0    0  0.70593067157E+00  0.78654712164E+00  0.52535006347E+00  0.90007751222E+02  0.90000012739E+02 0.  0.
         12    1    1    2    0    0 -0.70593067157E+00 -0.78654712164E+00 -0.52535006347E+00  0.11802487775E+01  0.00000000000E+00 0. -1.
         11    1    3    3    0    0 -0.89568422328E+01 -0.14980532947E+01 -0.39309450436E+01  0.98955300846E+01  0.51100000000E-03 0. -1.
        -11    1    3    3    0    0  0.30019783280E+02 -0.26688885631E+02 -0.10739879972E+02  0.41579189825E+02  0.51100000000E-03 0.  1.
         12    1    3    3    0    0 -0.20357010375E+02  0.28973486047E+02  0.15196175079E+02  0.38533031313E+02  0.00000000000E+00 0. -1.
</event>
<event>
 7    1  0.2404951E-015  0.9000782E+02  0.7816164E-02  0.1186339E+00
        -11   -1    0    0    0    0  0.00000000000E+00  0.00000000000E+00  0.45593999997E+02  0.45594000000E+02  0.51100000000E-03 0.  1.
         11   -1    0    0    0    0 -0.00000000000E+00 -0.00000000000E+00 -0.45593999997E+02  0.45594000000E+02  0.51100000000E-03 0. -1.
    9900012    2    1    2    0    0 -0.11452998547E+01 -0.20570147065E+00  0.19699821847E+00  0.90007816476E+02  0.90000078853E+02 0.  0.
         12    1    1    2    0    0  0.11452998547E+01  0.20570147065E+00 -0.19699821847E+00  0.11801835240E+01  0.00000000000E+00 0. -1.
         11    1    3    3    0    0 -0.31848419646E+02  0.19444160165E+02  0.52925878163E+01  0.37688309654E+02  0.51100000000E-03 0. -1.
        -11    1    3    3    0    0 -0.51673121989E+01  0.21226418698E+01  0.67083871602E+01  0.87297870776E+01  0.51100000000E-03 0.  1.
        -12    1    3    3    0    0  0.35870431991E+02 -0.21772503506E+02 -0.11803976758E+02  0.43589719745E+02  0.00000000000E+00 0.  1.
</event>
<event>
 7    1  0.2404951E-015  0.9000769E+02  0.7816164E-02  0.1186339E+00
        -11   -1    0    0    0    0  0.00000000000E+00  0.00000000000E+00  0.45593999997E+02  0.45594000000E+02  0.51100000000E-03 0. -1.
         11   -1    0    0    0    0 -0.00000000000E+00 -0.00000000000E+00 -0.45593999997E+02  0.45594000000E+02  0.51100000000E-03 0.  1.
    9900012    2    1    2    0    0  0.68348800257E+00 -0.90577239543E+00 -0.32488539260E+00  0.90007690718E+02  0.89999951436E+02 0.  0.
         12    1    1    2    0    0 -0.68348800257E+00  0.90577239543E+00  0.32488539260E+00  0.11803092816E+01  0.00000000000E+00 0. -1.
         11    1    3    3    0    0  0.10136893517E+02 -0.19662324196E+02  0.32849608595E+02  0.39603792598E+02  0.51100000000E-03 0. -1.
        -11    1    3    3    0    0  0.49684023753E+01  0.61072271405E+01  0.38054752887E+01  0.87444203892E+01  0.51100000000E-03 0.  1.
        -12    1    3    3    0    0 -0.14421807890E+02  0.12649324660E+02 -0.36979969277E+02  0.41659477732E+02  0.00000000000E+00 0.  1.
</event>
<event>
 7    1  0.2404951E-015  0.9000775E+02  0.7816164E-02  0.1186339E+00
        -11   -1    0    0    0    0  0.00000000000E+00  0.00000000000E+00  0.45593999997E+02  0.45594000000E+02  0.51100000000E-03 0.  1.
         11   -1    0    0    0    0 -0.00000000000E+00 -0.00000000000E+00 -0.45593999997E+02  0.45594000000E+02  0.51100000000E-03 0. -1.
    9900012    2    1    2    0    0 -0.33111991799E+00 -0.10118275945E+01  0.50947072707E+00  0.90007747526E+02  0.90000008993E+02 0.  0.
         12    1    1    2    0    0  0.33111991799E+00  0.10118275945E+01 -0.50947072707E+00  0.11802524742E+01  0.00000000000E+00 0. -1.
         11    1    3    3    0    0 -0.73620693385E+01 -0.30589179253E+01 -0.44319887819E+01  0.91213797555E+01  0.51100000000E-03 0. -1.
        -11    1    3    3    0    0  0.76615671302E+01  0.39712288505E+02  0.12766679514E+02  0.42411715071E+02  0.51100000000E-03 0.  1.
         12    1    3    3    0    0 -0.63061770970E+00 -0.37665198174E+02 -0.78252200053E+01  0.38474652699E+02  0.00000000000E+00 0. -1.
</event>
<event>
 7    1  0.2404951E-015  0.9000750E+02  0.7816164E-02  0.1186340E+00
        -11   -1    0    0    0    0  0.00000000000E+00  0.00000000000E+00  0.45593999997E+02  0.45594000000E+02  0.51100000000E-03 0. -1.
         11   -1    0    0    0    0 -0.00000000000E+00 -0.00000000000E+00 -0.45593999997E+02  0.45594000000E+02  0.51100000000E-03 0.  1.
    9900012    2    1    2    0    0  0.64489129798E+00  0.43343005426E+00  0.88873177560E+00  0.90007495630E+02  0.89999753772E+02 0.  0.
         12    1    1    2    0    0 -0.64489129798E+00 -0.43343005426E+00 -0.88873177560E+00  0.11805043698E+01  0.00000000000E+00 0. -1.
         11    1    3    3    0    0 -0.39313404604E+01 -0.48418261835E+01 -0.71008595216E+01  0.94509748076E+01  0.51100000000E-03 0. -1.
        -11    1    3    3    0    0 -0.55162117314E+01 -0.89963040518E+01 -0.33719812090E+02  0.35332531839E+02  0.51100000000E-03 0.  1.
         12    1    3    3    0    0  0.10092443490E+02  0.14271560290E+02  0.41709403387E+02  0.45223988984E+02  0.00000000000E+00 0. -1.
</event>
<event>
 7    1  0.2404951E-015  0.9000776E+02  0.7816164E-02  0.1186339E+00
        -11   -1    0    0    0    0  0.00000000000E+00  0.00000000000E+00  0.45593999997E+02  0.45594000000E+02  0.51100000000E-03 0.  1.
         11   -1    0    0    0    0 -0.00000000000E+00 -0.00000000000E+00 -0.45593999997E+02  0.45594000000E+02  0.51100000000E-03 0. -1.
    9900012    2    1    2    0    0 -0.57761358056E+00  0.17250343869E+00 -0.10146759142E+01  0.90007761848E+02  0.90000023504E+02 0.  0.
         12    1    1    2    0    0  0.57761358056E+00 -0.17250343869E+00  0.10146759142E+01  0.11802381521E+01  0.00000000000E+00 0. -1.
         11    1    3    3    0    0 -0.64885024800E+01 -0.29465507891E+02 -0.21713839815E+02  0.37172673558E+02  0.51100000000E-03 0. -1.
        -11    1    3    3    0    0  0.98092323013E+01 -0.40751973434E+01 -0.34656822381E+01  0.11173147514E+02  0.51100000000E-03 0.  1.
        -12    1    3    3    0    0 -0.38983434018E+01  0.33713208673E+02  0.24164846139E+02  0.41661940776E+02  0.00000000000E+00 0.  1.
</event>
<event>
 7    1  0.2404951E-015  0.9000772E+02  0.7816164E-02  0.1186339E+00
        -11   -1    0    0    0    0  0.00000000000E+00  0.00000000000E+00  0.45593999997E+02  0.45594000000E+02  0.51100000000E-03 0.  1.
         11   -1    0    0    0    0 -0.00000000000E+00 -0.00000000000E+00 -0.45593999997E+02  0.45594000000E+02  0.51100000000E-03 0. -1.
    9900012    2    1    2    0    0  0.72897949381E+00 -0.28832334031E+00  0.88233523956E+00  0.90007721674E+02  0.89999982800E+02 0.  0.
         12    1    1    2    0    0 -0.72897949381E+00  0.28832334031E+00 -0.88233523956E+00  0.11802783256E+01  0.00000000000E+00 0. -1.
         11    1    3    3    0    0 -0.73175453869E+01  0.50520340840E+01  0.29294459539E+01  0.93622205023E+01  0.51100000000E-03 0. -1.
        -11    1    3    3    0    0  0.26329963517E+02  0.21444646870E+02  0.21833581149E+02  0.40371340382E+02  0.51100000000E-03 0.  1.
         12    1    3    3    0    0 -0.18283438636E+02 -0.26785004295E+02 -0.23880691864E+02  0.40274160790E+02  0.00000000000E+00 0. -1.
</event>
<event>
 7    1  0.2404951E-015  0.9000772E+02  0.7816164E-02  0.1186339E+00
        -11   -1    0    0    0    0  0.00000000000E+00  0.00000000000E+00  0.45593999997E+02  0.45594000000E+02  0.51100000000E-03 0. -1.
         11   -1    0    0    0    0 -0.00000000000E+00 -0.00000000000E+00 -0.45593999997E+02  0.45594000000E+02  0.51100000000E-03 0.  1.
    9900012    2    1    2    0    0  0.54760071338E+00  0.82717676044E+00 -0.63950145527E+00  0.90007724589E+02  0.89999985754E+02 0.  0.
         12    1    1    2    0    0 -0.54760071338E+00 -0.82717676044E+00  0.63950145527E+00  0.11802754109E+01  0.00000000000E+00 0. -1.
         11    1    3    3    0    0 -0.41844167674E+01 -0.12592547740E+02 -0.45904072954E+00  0.13277511850E+02  0.51100000000E-03 0. -1.
        -11    1    3    3    0    0 -0.68777782118E+01  0.26310463983E+02 -0.31077513312E+02  0.41295958423E+02  0.51100000000E-03 0.  1.
         12    1    3    3    0    0  0.11609795693E+02 -0.12890739482E+02  0.30897052586E+02  0.35434254316E+02  0.00000000000E+00 0. -1.
</event>
<event>
 7    1  0.2404951E-015  0.9000776E+02  0.7816164E-02  0.1186339E+00
        -11   -1    0    0    0    0  0.00000000000E+00  0.00000000000E+00  0.45593999997E+02  0.45594000000E+02  0.51100000000E-03 0. -1.
         11   -1    0    0    0    0 -0.00000000000E+00 -0.00000000000E+00 -0.45593999997E+02  0.45594000000E+02  0.51100000000E-03 0.  1.
    9900012    2    1    2    0    0 -0.66410501111E+00 -0.91415120312E+00  0.34097605464E+00  0.90007757416E+02  0.90000019014E+02 0.  0.
         12    1    1    2    0    0  0.66410501111E+00  0.91415120312E+00 -0.34097605464E+00  0.11802425843E+01  0.00000000000E+00 0. -1.
         11    1    3    3    0    0 -0.25011262312E+02 -0.46429083816E+01  0.31050327844E+02  0.40140287743E+02  0.51100000000E-03 0. -1.
        -11    1    3    3    0    0  0.54129935133E+01  0.41995447933E+01  0.56437844453E+01  0.88763155854E+01  0.51100000000E-03 0.  1.
        -12    1    3    3    0    0  0.18934163787E+02 -0.47078761479E+00 -0.36353136234E+02  0.40991154087E+02  0.00000000000E+00 0.  1.
</event>
<event>
 7    1  0.2404951E-015  0.9000774E+02  0.7816164E-02  0.1186339E+00
        -11   -1    0    0    0    0  0.00000000000E+00  0.00000000000E+00  0.45593999997E+02  0.45594000000E+02  0.51100000000E-03 0. -1.
         11   -1    0    0    0    0 -0.00000000000E+00 -0.00000000000E+00 -0.45593999997E+02  0.45594000000E+02  0.51100000000E-03 0.  1.
    9900012    2    1    2    0    0 -0.60857066905E+00  0.95412304547E+00  0.33510732750E+00  0.90007743263E+02  0.90000004674E+02 0.  0.
         12    1    1    2    0    0  0.60857066905E+00 -0.95412304547E+00 -0.33510732750E+00  0.11802567374E+01  0.00000000000E+00 0. -1.
         11    1    3    3    0    0 -0.83517540347E+01  0.19963136019E+01  0.28708912601E+01  0.90542299696E+01  0.51100000000E-03 0. -1.
        -11    1    3    3    0    0 -0.28205942790E+02 -0.23679943822E+02 -0.91774463228E+01  0.37954452564E+02  0.51100000000E-03 0.  1.
         12    1    3    3    0    0  0.35949126156E+02  0.22637753266E+02  0.66416623902E+01  0.42999060730E+02  0.00000000000E+00 0. -1.
</event>
<event>
 7    1  0.2404951E-015  0.9000764E+02  0.7816164E-02  0.1186339E+00
        -11   -1    0    0    0    0  0.00000000000E+00  0.00000000000E+00  0.45593999997E+02  0.45594000000E+02  0.51100000000E-03 0. -1.
         11   -1    0    0    0    0 -0.00000000000E+00 -0.00000000000E+00 -0.45593999997E+02  0.45594000000E+02  0.51100000000E-03 0.  1.
    9900012    2    1    2    0    0  0.18033214359E+00 -0.35502889480E+00 -0.11111687276E+01  0.90007635167E+02  0.89999895151E+02 0.  0.
         12    1    1    2    0    0 -0.18033214359E+00  0.35502889480E+00  0.11111687276E+01  0.11803648331E+01  0.00000000000E+00 0. -1.
         11    1    3    3    0    0 -0.34664545651E+02 -0.47133784988E+01  0.16072985493E+02  0.38499188628E+02  0.51100000000E-03 0. -1.
        -11    1    3    3    0    0 -0.53909515559E+01 -0.18330595156E+01  0.25843058617E+01  0.62530874705E+01  0.51100000000E-03 0.  1.
        -12    1    3    3    0    0  0.40235829350E+02  0.61914091196E+01 -0.19768460083E+02  0.45255359069E+02  0.00000000000E+00 0.  1.
</event>
<event>
 7    1  0.2404951E-015  0.9000785E+02  0.7816164E-02  0.1186339E+00
        -11   -1    0    0    0    0  0.00000000000E+00  0.00000000000E+00  0.45593999997E+02  0.45594000000E+02  0.51100000000E-03 0.  1.
         11   -1    0    0    0    0 -0.00000000000E+00 -0.00000000000E+00 -0.45593999997E+02  0.45594000000E+02  0.51100000000E-03 0. -1.
    9900012    2    1    2    0    0 -0.10545641796E+01  0.52554879288E+00  0.66739094884E-01  0.90007846938E+02  0.90000109718E+02 0.  0.
         12    1    1    2    0    0  0.10545641796E+01 -0.52554879288E+00 -0.66739094884E-01  0.11801530619E+01  0.00000000000E+00 0. -1.
         11    1    3    3    0    0  0.22381754234E+02  0.40843363736E+01 -0.27902525867E+02  0.36002439865E+02  0.51100000000E-03 0. -1.
        -11    1    3    3    0    0 -0.19991541428E+01  0.51075224397E+01 -0.89182201856E+01  0.10469864101E+02  0.51100000000E-03 0.  1.
        -12    1    3    3    0    0 -0.21437164271E+02 -0.86663100204E+01  0.36887485147E+02  0.43535542972E+02  0.00000000000E+00 0.  1.
</event>
<event>
 7    1  0.2404951E-015  0.9000774E+02  0.7816164E-02  0.1186339E+00
        -11   -1    0    0    0    0  0.00000000000E+00  0.00000000000E+00  0.45593999997E+02  0.45594000000E+02  0.51100000000E-03 0.  1.
         11   -1    0    0    0    0 -0.00000000000E+00 -0.00000000000E+00 -0.45593999997E+02  0.45594000000E+02  0.51100000000E-03 0. -1.
    9900012    2    1    2    0    0 -0.11754940555E+01  0.10550925708E+00 -0.99709908477E-02  0.90007738208E+02  0.89999999552E+02 0.  0.
         12    1    1    2    0    0  0.11754940555E+01 -0.10550925708E+00  0.99709908477E-02  0.11802617923E+01  0.00000000000E+00 0. -1.
         11    1    3    3    0    0  0.13913942938E+02  0.15458888925E+02 -0.30370235941E+02  0.36809323361E+02  0.51100000000E-03 0. -1.
        -11    1    3    3    0    0 -0.46676521447E+01  0.56385978916E+01 -0.63195404322E+01  0.96704371289E+01  0.51100000000E-03 0.  1.
        -12    1    3    3    0    0 -0.10421784849E+02 -0.20991977559E+02  0.36679805383E+02  0.43527977718E+02  0.00000000000E+00 0.  1.
</event>
<event>
 7    1  0.2404951E-015  0.9000775E+02  0.7816164E-02  0.1186339E+00
        -11   -1    0    0    0    0  0.00000000000E+00  0.00000000000E+00  0.45593999997E+02  0.45594000000E+02  0.51100000000E-03 0.  1.
         11   -1    0    0    0    0 -0.00000000000E+00 -0.00000000000E+00 -0.45593999997E+02  0.45594000000E+02  0.51100000000E-03 0. -1.
    9900012    2    1    2    0    0  0.11679147549E+01 -0.16595359979E+00 -0.37775167959E-01  0.90007748995E+02  0.90000010481E+02 0.  0.
         12    1    1    2    0    0 -0.11679147549E+01  0.16595359979E+00  0.37775167959E-01  0.11802510053E+01  0.00000000000E+00 0. -1.
         11    1    3    3    0    0 -0.23977744360E+02 -0.80850677499E+01 -0.28369682548E+02  0.38014989586E+02  0.51100000000E-03 0. -1.
        -11    1    3    3    0    0  0.70779503055E+01 -0.54511180431E+01 -0.61400775279E+01  0.10840323831E+02  0.51100000000E-03 0.  1.
        -12    1    3    3    0    0  0.18067708809E+02  0.13370232193E+02  0.34471984908E+02  0.41152435578E+02  0.00000000000E+00 0.  1.
</event>
<event>
 7    1  0.2404951E-015  0.9000772E+02  0.7816164E-02  0.1186339E+00
        -11   -1    0    0    0    0  0.00000000000E+00  0.00000000000E+00  0.45593999997E+02  0.45594000000E+02  0.51100000000E-03 0. -1.
         11   -1    0    0    0    0 -0.00000000000E+00 -0.00000000000E+00 -0.45593999997E+02  0.45594000000E+02  0.51100000000E-03 0.  1.
    9900012    2    1    2    0    0 -0.71546801654E+00  0.91423410770E+00  0.21292463053E+00  0.90007722327E+02  0.89999983462E+02 0.  0.
         12    1    1    2    0    0  0.71546801654E+00 -0.91423410770E+00 -0.21292463053E+00  0.11802776727E+01  0.00000000000E+00 0. -1.
         11    1    3    3    0    0  0.29137189938E+01 -0.57040450995E+01 -0.13096191939E+02  0.14578619017E+02  0.51100000000E-03 0. -1.
        -11    1    3    3    0    0 -0.16552686310E+02 -0.14495574112E+02 -0.22776673278E+02  0.31668437581E+02  0.51100000000E-03 0.  1.
         12    1    3    3    0    0  0.12923499300E+02  0.21113853320E+02  0.36085789848E+02  0.43760665730E+02  0.00000000000E+00 0. -1.
</event>
<event>
 7    1  0.2404951E-015  0.9000755E+02  0.7816164E-02  0.1186339E+00
        -11   -1    0    0    0    0  0.00000000000E+00  0.00000000000E+00  0.45593999997E+02  0.45594000000E+02  0.51100000000E-03 0.  1.
         11   -1    0    0    0    0 -0.00000000000E+00 -0.00000000000E+00 -0.45593999997E+02  0.45594000000E+02  0.51100000000E-03 0. -1.
    9900012    2    1    2    0    0  0.58313302081E+00 -0.89094698027E+00  0.50952961642E+00  0.90007554715E+02  0.89999813637E+02 0.  0.
         12    1    1    2    0    0 -0.58313302081E+00  0.89094698027E+00 -0.50952961642E+00  0.11804452853E+01  0.00000000000E+00 0. -1.
         11    1    3    3    0    0  0.24067632483E+02 -0.24504173480E+02 -0.18396215385E+02  0.38963138888E+02  0.51100000000E-03 0. -1.
        -11    1    3    3    0    0  0.13313511015E+00 -0.23263554750E+01 -0.70373022328E+01  0.74130478030E+01  0.51100000000E-03 0.  1.
        -12    1    3    3    0    0 -0.23617634572E+02  0.25939581974E+02  0.25943047234E+02  0.43631368024E+02  0.00000000000E+00 0.  1.
</event>
<event>
 7    1  0.2404951E-015  0.9000776E+02  0.7816164E-02  0.1186339E+00
        -11   -1    0    0    0    0  0.00000000000E+00  0.00000000000E+00  0.45593999997E+02  0.45594000000E+02  0.51100000000E-03 0. -1.
         11   -1    0    0    0    0 -0.00000000000E+00 -0.00000000000E+00 -0.45593999997E+02  0.45594000000E+02  0.51100000000E-03 0.  1.
    9900012    2    1    2    0    0 -0.52698921751E+00 -0.18191595808E+00 -0.10402698650E+01  0.90007757464E+02  0.90000019063E+02 0.  0.
         12    1    1    2    0    0  0.52698921751E+00  0.18191595808E+00  0.10402698650E+01  0.11802425358E+01  0.00000000000E+00 0. -1.
         11    1    3    3    0    0  0.52543459318E+01 -0.36722577479E+01  0.72427467763E+01  0.96721770696E+01  0.51100000000E-03 0. -1.
        -11    1    3    3    0    0 -0.11944731298E+02 -0.28253471169E+02  0.20622899145E+02  0.36962673175E+02  0.51100000000E-03 0.  1.
         12    1    3    3    0    0  0.61633961483E+01  0.31743812958E+02 -0.28905915786E+02  0.43372907219E+02  0.00000000000E+00 0. -1.
</event>
<event>
 7    1  0.2466123E-015  0.9000742E+02  0.7816164E-02  0.1186340E+00
        -11   -1    0    0    0    0  0.00000000000E+00  0.00000000000E+00  0.45593999997E+02  0.45594000000E+02  0.51100000000E-03 0. -1.
         11   -1    0    0    0    0 -0.00000000000E+00 -0.00000000000E+00 -0.45593999997E+02  0.45594000000E+02  0.51100000000E-03 0.  1.
    9900012    2    1    2    0    0  0.49592758862E+00  0.15221895961E+00 -0.10605020937E+01  0.90007415621E+02  0.89999672707E+02 0.  0.
         12    1    1    2    0    0 -0.49592758862E+00 -0.15221895961E+00  0.10605020937E+01  0.11805843788E+01  0.00000000000E+00 0. -1.
         11    1    3    3    0    0  0.15347172486E+02  0.29683296338E+02  0.13592431175E+02  0.36074755305E+02  0.51100000000E-03 0. -1.
        -11    1    3    3    0    0  0.65942589265E+01  0.45087911896E+01  0.47206534936E+01  0.92789017911E+01  0.51100000000E-03 0.  1.
        -12    1    3    3    0    0 -0.21445503824E+02 -0.34039868568E+02 -0.19373586763E+02  0.44653758525E+02  0.00000000000E+00 0.  1.
</event>
<event>
 7    1  0.2404951E-015  0.9000777E+02  0.7816164E-02  0.1186339E+00
        -11   -1    0    0    0    0  0.00000000000E+00  0.00000000000E+00  0.45593999997E+02  0.45594000000E+02  0.51100000000E-03 0.  1.
         11   -1    0    0    0    0 -0.00000000000E+00 -0.00000000000E+00 -0.45593999997E+02  0.45594000000E+02  0.51100000000E-03 0. -1.
    9900012    2    1    2    0    0 -0.78592758696E+00 -0.29618564388E+00  0.82917766714E+00  0.90007769636E+02  0.90000031396E+02 0.  0.
         12    1    1    2    0    0  0.78592758696E+00  0.29618564388E+00 -0.82917766714E+00  0.11802303637E+01  0.00000000000E+00 0. -1.
         11    1    3    3    0    0  0.27925417688E+02 -0.13006525609E+02 -0.21994352559E+02  0.37851686966E+02  0.51100000000E-03 0. -1.
        -11    1    3    3    0    0 -0.59389758616E+01 -0.11067524324E+02  0.88257425459E+00  0.12591285340E+02  0.51100000000E-03 0.  1.
        -12    1    3    3    0    0 -0.22772369413E+02  0.23777864289E+02  0.21940955971E+02  0.39564797330E+02  0.00000000000E+00 0.  1.
</event>
<event>
 7    1  0.2404951E-015  0.9000766E+02  0.7816164E-02  0.1186339E+00
        -11   -1    0    0    0    0  0.00000000000E+00  0.00000000000E+00  0.45593999997E+02  0.45594000000E+02  0.51100000000E-03 0. -1.
         11   -1    0    0    0    0 -0.00000000000E+00 -0.00000000000E+00 -0.45593999997E+02  0.45594000000E+02  0.51100000000E-03 0.  1.
    9900012    2    1    2    0    0  0.70059178540E+00  0.94992766226E+00 -0.19606699522E-02  0.90007663075E+02  0.89999923427E+02 0.  0.
         12    1    1    2    0    0 -0.70059178540E+00 -0.94992766226E+00  0.19606699522E-02  0.11803369254E+01  0.00000000000E+00 0. -1.
         11    1    3    3    0    0 -0.36754703702E+02 -0.15026905179E+02 -0.16648919928E+01  0.39742772791E+02  0.51100000000E-03 0. -1.
        -11    1    3    3    0    0  0.39665159972E+01 -0.68872333907E+01 -0.46784139476E+01  0.92225153977E+01  0.51100000000E-03 0.  1.
        -12    1    3    3    0    0  0.33488779490E+02  0.22864066232E+02  0.63413452705E+01  0.41042374886E+02  0.00000000000E+00 0.  1.
</event>
<event>
 7    1  0.2404951E-015  0.9000773E+02  0.7816164E-02  0.1186339E+00
        -11   -1    0    0    0    0  0.00000000000E+00  0.00000000000E+00  0.45593999997E+02  0.45594000000E+02  0.51100000000E-03 0.  1.
         11   -1    0    0    0    0 -0.00000000000E+00 -0.00000000000E+00 -0.45593999997E+02  0.45594000000E+02  0.51100000000E-03 0. -1.
    9900012    2    1    2    0    0 -0.73397693081E+00 -0.88523077803E+00  0.26587944197E+00  0.90007725649E+02  0.89999986828E+02 0.  0.
         12    1    1    2    0    0  0.73397693081E+00  0.88523077803E+00 -0.26587944197E+00  0.11802743507E+01  0.00000000000E+00 0. -1.
         11    1    3    3    0    0 -0.18686177639E+01  0.64685699118E+01  0.61946426362E+01  0.91491926804E+01  0.51100000000E-03 0. -1.
        -11    1    3    3    0    0  0.31949561677E+02  0.21228623002E+02  0.35896137734E+00  0.38360888669E+02  0.51100000000E-03 0.  1.
         12    1    3    3    0    0 -0.30814920844E+02 -0.28582423692E+02 -0.62877245716E+01  0.42497644300E+02  0.00000000000E+00 0. -1.
</event>
<event>
 7    1  0.2404951E-015  0.9000773E+02  0.7816164E-02  0.1186339E+00
        -11   -1    0    0    0    0  0.00000000000E+00  0.00000000000E+00  0.45593999997E+02  0.45594000000E+02  0.51100000000E-03 0. -1.
         11   -1    0    0    0    0 -0.00000000000E+00 -0.00000000000E+00 -0.45593999997E+02  0.45594000000E+02  0.51100000000E-03 0.  1.
    9900012    2    1    2    0    0 -0.99152434313E+00 -0.49528360450E-01 -0.63833694021E+00  0.90007725612E+02  0.89999986790E+02 0.  0.
         12    1    1    2    0    0  0.99152434313E+00  0.49528360450E-01  0.63833694021E+00  0.11802743879E+01  0.00000000000E+00 0. -1.
         11    1    3    3    0    0 -0.73017140278E+01  0.38596241171E+01 -0.24510375476E+01  0.86150630520E+01  0.51100000000E-03 0. -1.
        -11    1    3    3    0    0  0.39035715707E+02  0.14119393276E+01  0.19669921837E+02  0.43734271444E+02  0.51100000000E-03 0.  1.
         12    1    3    3    0    0 -0.32725526022E+02 -0.53210918052E+01 -0.17857221229E+02  0.37658391116E+02  0.00000000000E+00 0. -1.
</event>
<event>
 7    1  0.2714718E-015  0.9000808E+02  0.7816164E-02  0.1186338E+00
        -11   -1    0    0    0    0  0.00000000000E+00  0.00000000000E+00  0.45593999997E+02  0.45594000000E+02  0.51100000000E-03 0.  1.
         11   -1    0    0    0    0 -0.00000000000E+00 -0.00000000000E+00 -0.45593999997E+02  0.45594000000E+02  0.51100000000E-03 0. -1.
    9900012    2    1    2    0    0 -0.71935301751E+00 -0.33894703556E+00  0.87169506958E+00  0.90008082142E+02  0.90000348026E+02 0.  0.
         12    1    1    2    0    0  0.71935301751E+00  0.33894703556E+00 -0.87169506958E+00  0.11799178578E+01  0.00000000000E+00 0. -1.
         11    1    3    3    0    0  0.23120042295E+02  0.35660491084E+01 -0.26584829757E+02  0.35411950461E+02  0.51100000000E-03 0. -1.
        -11    1    3    3    0    0  0.68566442594E+01 -0.31294243629E+01 -0.56668195765E+01  0.94297249014E+01  0.51100000000E-03 0.  1.
        -12    1    3    3    0    0 -0.30696039572E+02 -0.77557178103E+00  0.33123344403E+02  0.45166406780E+02  0.00000000000E+00 0.  1.
</event>
<event>
 7    1  0.2404951E-015  0.9000774E+02  0.7816164E-02  0.1186339E+00
        -11   -1    0    0    0    0  0.00000000000E+00  0.00000000000E+00  0.45593999997E+02  0.45594000000E+02  0.51100000000E-03 0. -1.
         11   -1    0    0    0    0 -0.00000000000E+00 -0.00000000000E+00 -0.45593999997E+02  0.45594000000E+02  0.51100000000E-03 0.  1.
    9900012    2    1    2    0    0  0.58191674183E+00  0.19447889652E+00 -0.10082457898E+01  0.90007742101E+02  0.90000003497E+02 0.  0.
         12    1    1    2    0    0 -0.58191674183E+00 -0.19447889652E+00  0.10082457898E+01  0.11802578991E+01  0.00000000000E+00 0. -1.
         11    1    3    3    0    0 -0.47970453324E+01 -0.75088532085E+01 -0.23591797376E+01  0.92173884437E+01  0.51100000000E-03 0. -1.
        -11    1    3    3    0    0  0.27048988116E+02 -0.25620972903E+02 -0.11537750985E+02  0.39002585923E+02  0.51100000000E-03 0.  1.
         12    1    3    3    0    0 -0.21670026042E+02  0.33324305008E+02  0.12888684932E+02  0.41787767734E+02  0.00000000000E+00 0. -1.
</event>
<event>
 7    1  0.2404951E-015  0.9000772E+02  0.7816164E-02  0.1186339E+00
        -11   -1    0    0    0    0  0.00000000000E+00  0.00000000000E+00  0.45593999997E+02  0.45594000000E+02  0.51100000000E-03 0.  1.
         11   -1    0    0    0    0 -0.00000000000E+00 -0.00000000000E+00 -0.45593999997E+02  0.45594000000E+02  0.51100000000E-03 0. -1.
    9900012    2    1    2    0    0  0.75413484548E+00 -0.56052471567E+00  0.71425373396E+00  0.90007717950E+02  0.89999979027E+02 0.  0.
         12    1    1    2    0    0 -0.75413484548E+00  0.56052471567E+00 -0.71425373396E+00  0.11802820504E+01  0.00000000000E+00 0. -1.
         11    1    3    3    0    0 -0.80681143325E+01 -0.32131284031E+02 -0.21802367124E+02  0.39659262409E+02  0.51100000000E-03 0. -1.
        -11    1    3    3    0    0  0.34349171767E+01 -0.56375577378E+01  0.71540453694E+01  0.97345302232E+01  0.51100000000E-03 0.  1.
        -12    1    3    3    0    0  0.53873320012E+01  0.37208317053E+02  0.15362575489E+02  0.40613925317E+02  0.00000000000E+00 0.  1.
</event>
<event>
 7    1  0.2404951E-015  0.9000778E+02  0.7816164E-02  0.1186339E+00
        -11   -1    0    0    0    0  0.00000000000E+00  0.00000000000E+00  0.45593999997E+02  0.45594000000E+02  0.51100000000E-03 0.  1.
         11   -1    0    0    0    0 -0.00000000000E+00 -0.00000000000E+00 -0.45593999997E+02  0.45594000000E+02  0.51100000000E-03 0. -1.
    9900012    2    1    2    0    0 -0.50385274695E+00  0.96317173481E+00 -0.45972424045E+00  0.90007782326E+02  0.90000044252E+02 0.  0.
         12    1    1    2    0    0  0.50385274695E+00 -0.96317173481E+00  0.45972424045E+00  0.11802176742E+01  0.00000000000E+00 0. -1.
         11    1    3    3    0    0  0.25514629384E+01  0.11357813298E+02 -0.30912418263E+02  0.33031613481E+02  0.51100000000E-03 0. -1.
        -11    1    3    3    0    0  0.16930686845E+01 -0.27518017604E+00 -0.12487565612E+02  0.12604820541E+02  0.51100000000E-03 0.  1.
        -12    1    3    3    0    0 -0.47483843699E+01 -0.10119461387E+02  0.42940259634E+02  0.44371348304E+02  0.00000000000E+00 0.  1.
</event>
<event>
 7    1  0.2404951E-015  0.9000774E+02  0.7816164E-02  0.1186339E+00
        -11   -1    0    0    0    0  0.00000000000E+00  0.00000000000E+00  0.45593999997E+02  0.45594000000E+02  0.51100000000E-03 0.  1.
         11   -1    0    0    0    0 -0.00000000000E+00 -0.00000000000E+00 -0.45593999997E+02  0.45594000000E+02  0.51100000000E-03 0. -1.
    9900012    2    1    2    0    0 -0.16452037932E+00  0.59857587057E+00  0.10038198075E+01  0.90007739760E+02  0.90000001125E+02 0.  0.
         12    1    1    2    0    0  0.16452037932E+00 -0.59857587057E+00 -0.10038198075E+01  0.11802602399E+01  0.00000000000E+00 0. -1.
         11    1    3    3    0    0 -0.28706468522E+00  0.67959007748E+01 -0.73935242594E+01  0.10046435921E+02  0.51100000000E-03 0. -1.
        -11    1    3    3    0    0 -0.15195521962E+02  0.33361034540E+02  0.80842751506E+01  0.37539552718E+02  0.51100000000E-03 0.  1.
         12    1    3    3    0    0  0.15318066268E+02 -0.39558359444E+02  0.31306891629E+00  0.42421751122E+02  0.00000000000E+00 0. -1.
</event>
<event>
 7    1  0.2404951E-015  0.9000768E+02  0.7816164E-02  0.1186339E+00
        -11   -1    0    0    0    0  0.00000000000E+00  0.00000000000E+00  0.45593999997E+02  0.45594000000E+02  0.51100000000E-03 0.  1.
         11   -1    0    0    0    0 -0.00000000000E+00 -0.00000000000E+00 -0.45593999997E+02  0.45594000000E+02  0.51100000000E-03 0. -1.
    9900012    2    1    2    0    0  0.99551374148E+00 -0.28767448726E+00 -0.56511953265E+00  0.90007676186E+02  0.89999936711E+02 0.  0.
         12    1    1    2    0    0 -0.99551374148E+00  0.28767448726E+00  0.56511953265E+00  0.11803238142E+01  0.00000000000E+00 0. -1.
         11    1    3    3    0    0 -0.47953062107E+01 -0.29032934073E-01  0.78856359648E+01  0.92292502077E+01  0.51100000000E-03 0. -1.
        -11    1    3    3    0    0 -0.28171209639E+02 -0.24522177553E+02 -0.11076624164E+02  0.38956974313E+02  0.51100000000E-03 0.  1.
         12    1    3    3    0    0  0.33962029591E+02  0.24263536000E+02  0.26258686670E+01  0.41821451666E+02  0.00000000000E+00 0. -1.
</event>
<event>
 7    1  0.2404951E-015  0.9000754E+02  0.7816164E-02  0.1186339E+00
        -11   -1    0    0    0    0  0.00000000000E+00  0.00000000000E+00  0.45593999997E+02  0.45594000000E+02  0.51100000000E-03 0.  1.
         11   -1    0    0    0    0 -0.00000000000E+00 -0.00000000000E+00 -0.45593999997E+02  0.45594000000E+02  0.51100000000E-03 0. -1.
    9900012    2    1    2    0    0 -0.99326877993E-01  0.20963238377E+00  0.11574410083E+01  0.90007541931E+02  0.89999800684E+02 0.  0.
         12    1    1    2    0    0  0.99326877993E-01 -0.20963238377E+00 -0.11574410083E+01  0.11804580690E+01  0.00000000000E+00 0. -1.
         11    1    3    3    0    0  0.23689586252E+02 -0.29757459982E+02  0.41157144250E+01  0.38257574764E+02  0.51100000000E-03 0. -1.
        -11    1    3    3    0    0 -0.16760319296E+01 -0.68688749020E+01 -0.51239379439E+01  0.87318535124E+01  0.51100000000E-03 0.  1.
        -12    1    3    3    0    0 -0.22112881200E+02  0.36835967268E+02  0.21656645272E+01  0.43018113654E+02  0.00000000000E+00 0.  1.
</event>
<event>
 7    1  0.2404951E-015  0.9000792E+02  0.7816164E-02  0.1186339E+00
        -11   -1    0    0    0    0  0.00000000000E+00  0.00000000000E+00  0.45593999997E+02  0.45594000000E+02  0.51100000000E-03 0. -1.
         11   -1    0    0    0    0 -0.00000000000E+00 -0.00000000000E+00 -0.45593999997E+02  0.45594000000E+02  0.51100000000E-03 0.  1.
    9900012    2    1    2    0    0 -0.45452435880E-01 -0.10832797535E+00 -0.11742219205E+01  0.90007916108E+02  0.90000179800E+02 0.  0.
         12    1    1    2    0    0  0.45452435880E-01  0.10832797535E+00  0.11742219205E+01  0.11800838922E+01  0.00000000000E+00 0. -1.
         11    1    3    3    0    0  0.16340945288E+02 -0.31592419621E+02 -0.99212537537E+01  0.36926125530E+02  0.51100000000E-03 0. -1.
        -11    1    3    3    0    0 -0.95719756882E+00 -0.88731272122E+01  0.33818354327E+01  0.95438684433E+01  0.51100000000E-03 0.  1.
        -12    1    3    3    0    0 -0.15429200155E+02  0.40357218857E+02  0.53651964005E+01  0.43537922134E+02  0.00000000000E+00 0.  1.
</event>
<event>
 7    1  0.2404951E-015  0.9000759E+02  0.7816164E-02  0.1186339E+00
        -11   -1    0    0    0    0  0.00000000000E+00  0.00000000000E+00  0.45593999997E+02  0.45594000000E+02  0.51100000000E-03 0.  1.
         11   -1    0    0    0    0 -0.00000000000E+00 -0.00000000000E+00 -0.45593999997E+02  0.45594000000E+02  0.51100000000E-03 0. -1.
    9900012    2    1    2    0    0 -0.83576562632E+00  0.82257073807E+00  0.13504584332E+00  0.90007591519E+02  0.89999850927E+02 0.  0.
         12    1    1    2    0    0  0.83576562632E+00 -0.82257073807E+00 -0.13504584332E+00  0.11804084806E+01  0.00000000000E+00 0. -1.
         11    1    3    3    0    0 -0.28676513750E+02  0.25470371562E+02  0.11183955545E+00  0.38354853366E+02  0.51100000000E-03 0. -1.
        -11    1    3    3    0    0  0.39111600040E+01  0.91742636652E+01 -0.20011118975E+01  0.10171958290E+02  0.51100000000E-03 0.  1.
        -12    1    3    3    0    0  0.23929588120E+02 -0.33822064489E+02  0.20243181854E+01  0.41480779863E+02  0.00000000000E+00 0.  1.
</event>
<event>
 7    1  0.2404951E-015  0.9000773E+02  0.7816164E-02  0.1186339E+00
        -11   -1    0    0    0    0  0.00000000000E+00  0.00000000000E+00  0.45593999997E+02  0.45594000000E+02  0.51100000000E-03 0. -1.
         11   -1    0    0    0    0 -0.00000000000E+00 -0.00000000000E+00 -0.45593999997E+02  0.45594000000E+02  0.51100000000E-03 0.  1.
    9900012    2    1    2    0    0  0.11660784467E+01  0.78120751990E-01  0.16492821771E+00  0.90007727526E+02  0.89999988729E+02 0.  0.
         12    1    1    2    0    0 -0.11660784467E+01 -0.78120751990E-01 -0.16492821771E+00  0.11802724739E+01  0.00000000000E+00 0. -1.
         11    1    3    3    0    0  0.84585003795E+01  0.90965905858E+00  0.33373841994E+01  0.91384813743E+01  0.51100000000E-03 0. -1.
        -11    1    3    3    0    0  0.64332933932E+01  0.29435066336E+02  0.23536517756E+02  0.38233206280E+02  0.51100000000E-03 0.  1.
         12    1    3    3    0    0 -0.13725715326E+02 -0.30266604643E+02 -0.26708973738E+02  0.42636039872E+02  0.00000000000E+00 0. -1.
</event>
<event>
 7    1  0.2404951E-015  0.9000738E+02  0.7816164E-02  0.1186340E+00
        -11   -1    0    0    0    0  0.00000000000E+00  0.00000000000E+00  0.45593999997E+02  0.45594000000E+02  0.51100000000E-03 0. -1.
         11   -1    0    0    0    0 -0.00000000000E+00 -0.00000000000E+00 -0.45593999997E+02  0.45594000000E+02  0.51100000000E-03 0.  1.
    9900012    2    1    2    0    0 -0.10264618336E+01  0.56175608614E+00 -0.15709111585E+00  0.90007376684E+02  0.89999633255E+02 0.  0.
         12    1    1    2    0    0  0.10264618336E+01 -0.56175608614E+00  0.15709111585E+00  0.11806233163E+01  0.00000000000E+00 0. -1.
         11    1    3    3    0    0 -0.56848777074E+01  0.86188578405E+01  0.36132396785E+02  0.37578619489E+02  0.51100000000E-03 0. -1.
        -11    1    3    3    0    0 -0.24400058142E+01  0.40892576869E+00  0.71711001446E+01  0.75858767590E+01  0.51100000000E-03 0.  1.
        -12    1    3    3    0    0  0.70984216880E+01 -0.84660275231E+01 -0.43460588046E+02  0.44842880435E+02  0.00000000000E+00 0.  1.
</event>
<event>
 7    1  0.2404951E-015  0.9000769E+02  0.7816164E-02  0.1186339E+00
        -11   -1    0    0    0    0  0.00000000000E+00  0.00000000000E+00  0.45593999997E+02  0.45594000000E+02  0.51100000000E-03 0.  1.
         11   -1    0    0    0    0 -0.00000000000E+00 -0.00000000000E+00 -0.45593999997E+02  0.45594000000E+02  0.51100000000E-03 0. -1.
    9900012    2    1    2    0    0 -0.11014857825E+01 -0.36570620470E+00  0.21474725400E+00  0.90007691422E+02  0.89999952148E+02 0.  0.
         12    1    1    2    0    0  0.11014857825E+01  0.36570620470E+00 -0.21474725400E+00  0.11803085784E+01  0.00000000000E+00 0. -1.
         11    1    3    3    0    0 -0.55124806777E+00 -0.28764876942E+02 -0.73272815131E+01  0.29688568079E+02  0.51100000000E-03 0. -1.
        -11    1    3    3    0    0  0.98629065212E+01 -0.12557109426E+02 -0.41002066041E+01  0.16485436501E+02  0.51100000000E-03 0.  1.
        -12    1    3    3    0    0 -0.10413144236E+02  0.40956280163E+02  0.11642235371E+02  0.43833686842E+02  0.00000000000E+00 0.  1.
</event>
<event>
 7    1  0.2404951E-015  0.9000757E+02  0.7816164E-02  0.1186339E+00
        -11   -1    0    0    0    0  0.00000000000E+00  0.00000000000E+00  0.45593999997E+02  0.45594000000E+02  0.51100000000E-03 0. -1.
         11   -1    0    0    0    0 -0.00000000000E+00 -0.00000000000E+00 -0.45593999997E+02  0.45594000000E+02  0.51100000000E-03 0.  1.
    9900012    2    1    2    0    0 -0.54208886570E+00 -0.97650078319E+00  0.38210800678E+00  0.90007567602E+02  0.89999826694E+02 0.  0.
         12    1    1    2    0    0  0.54208886570E+00  0.97650078319E+00 -0.38210800678E+00  0.11804323982E+01  0.00000000000E+00 0. -1.
         11    1    3    3    0    0  0.25407505923E+02 -0.83984685482E+01  0.24365096586E+02  0.36190241269E+02  0.51100000000E-03 0. -1.
        -11    1    3    3    0    0  0.28414655827E+01  0.76562077235E+01  0.75466987118E+01  0.11119537089E+02  0.51100000000E-03 0.  1.
        -12    1    3    3    0    0 -0.28791060372E+02 -0.23423995845E+00 -0.31529687291E+02  0.42697789244E+02  0.00000000000E+00 0.  1.
</event>
<event>
 7    1  0.2404951E-015  0.9000775E+02  0.7816164E-02  0.1186339E+00
        -11   -1    0    0    0    0  0.00000000000E+00  0.00000000000E+00  0.45593999997E+02  0.45594000000E+02  0.51100000000E-03 0.  1.
         11   -1    0    0    0    0 -0.00000000000E+00 -0.00000000000E+00 -0.45593999997E+02  0.45594000000E+02  0.51100000000E-03 0. -1.
    9900012    2    1    2    0    0 -0.24073710846E+00  0.89097829895E+00  0.73566439227E+00  0.90007746306E+02  0.90000007757E+02 0.  0.
         12    1    1    2    0    0  0.24073710846E+00 -0.89097829895E+00 -0.73566439227E+00  0.11802536942E+01  0.00000000000E+00 0. -1.
         11    1    3    3    0    0  0.26797195784E+02 -0.11769348918E+01 -0.22247695537E+02  0.34848742224E+02  0.51100000000E-03 0. -1.
        -11    1    3    3    0    0  0.81314710126E+01  0.83101046820E+01 -0.16870480443E+01  0.11748395295E+02  0.51100000000E-03 0.  1.
        -12    1    3    3    0    0 -0.35169403905E+02 -0.62421914913E+01  0.24670407973E+02  0.43410608787E+02  0.00000000000E+00 0.  1.
</event>
<event>
 7    1  0.2404951E-015  0.9000776E+02  0.7816164E-02  0.1186339E+00
        -11   -1    0    0    0    0  0.00000000000E+00  0.00000000000E+00  0.45593999997E+02  0.45594000000E+02  0.51100000000E-03 0.  1.
         11   -1    0    0    0    0 -0.00000000000E+00 -0.00000000000E+00 -0.45593999997E+02  0.45594000000E+02  0.51100000000E-03 0. -1.
    9900012    2    1    2    0    0  0.85273320570E+00 -0.79792551659E+00 -0.17069380718E+00  0.90007756201E+02  0.90000017782E+02 0.  0.
         12    1    1    2    0    0 -0.85273320570E+00  0.79792551659E+00  0.17069380718E+00  0.11802437994E+01  0.00000000000E+00 0. -1.
         11    1    3    3    0    0 -0.16649118504E+01 -0.74157955499E+01  0.47783119891E+01  0.89776511869E+01  0.51100000000E-03 0. -1.
        -11    1    3    3    0    0  0.13175735939E+01 -0.21215526379E+01  0.37546091183E+02  0.37629057245E+02  0.51100000000E-03 0.  1.
         12    1    3    3    0    0  0.12000714622E+01  0.87394226711E+01 -0.42495096979E+02  0.43401047769E+02  0.00000000000E+00 0. -1.
</event>
<event>
 7    1  0.2404951E-015  0.9000748E+02  0.7816164E-02  0.1186340E+00
        -11   -1    0    0    0    0  0.00000000000E+00  0.00000000000E+00  0.45593999997E+02  0.45594000000E+02  0.51100000000E-03 0.  1.
         11   -1    0    0    0    0 -0.00000000000E+00 -0.00000000000E+00 -0.45593999997E+02  0.45594000000E+02  0.51100000000E-03 0. -1.
    9900012    2    1    2    0    0  0.15892255506E-01  0.11535148857E+01  0.25057414757E+00  0.90007476151E+02  0.89999734036E+02 0.  0.
         12    1    1    2    0    0 -0.15892255506E-01 -0.11535148857E+01 -0.25057414757E+00  0.11805238493E+01  0.00000000000E+00 0. -1.
         11    1    3    3    0    0 -0.21026989947E+00 -0.26200778086E+02  0.21407234565E+02  0.33834814581E+02  0.51100000000E-03 0. -1.
        -11    1    3    3    0    0  0.16759573095E+01 -0.20731011503E+01  0.11723726626E+02  0.12022992454E+02  0.51100000000E-03 0.  1.
        -12    1    3    3    0    0 -0.14497951545E+01  0.29427394122E+02 -0.32880387044E+02  0.44149669115E+02  0.00000000000E+00 0.  1.
</event>
<event>
 7    1  0.2404951E-015  0.9000775E+02  0.7816164E-02  0.1186339E+00
        -11   -1    0    0    0    0  0.00000000000E+00  0.00000000000E+00  0.45593999997E+02  0.45594000000E+02  0.51100000000E-03 0.  1.
         11   -1    0    0    0    0 -0.00000000000E+00 -0.00000000000E+00 -0.45593999997E+02  0.45594000000E+02  0.51100000000E-03 0. -1.
    9900012    2    1    2    0    0  0.13576119773E+00 -0.72551129082E+00  0.92097923419E+00  0.90007745584E+02  0.90000007026E+02 0.  0.
         12    1    1    2    0    0 -0.13576119773E+00  0.72551129082E+00 -0.92097923419E+00  0.11802544157E+01  0.00000000000E+00 0. -1.
         11    1    3    3    0    0  0.18081191437E+02  0.74744650573E+01 -0.21463374214E+02  0.29042616008E+02  0.51100000000E-03 0. -1.
        -11    1    3    3    0    0  0.46073145236E+01 -0.11077743135E+02 -0.13765473302E+02  0.18260120361E+02  0.51100000000E-03 0.  1.
        -12    1    3    3    0    0 -0.22552744763E+02  0.28777667871E+01  0.36149826751E+02  0.42705009216E+02  0.00000000000E+00 0.  1.
</event>
<event>
 7    1  0.2907091E-015  0.9000771E+02  0.7816164E-02  0.1186339E+00
        -11   -1    0    0    0    0  0.00000000000E+00  0.00000000000E+00  0.45593999997E+02  0.45594000000E+02  0.51100000000E-03 0.  1.
         11   -1    0    0    0    0 -0.00000000000E+00 -0.00000000000E+00 -0.45593999997E+02  0.45594000000E+02  0.51100000000E-03 0. -1.
    9900012    2    1    2    0    0 -0.14193254419E-01  0.11763144599E+01  0.95783453664E-01  0.90007706974E+02  0.89999967906E+02 0.  0.
         12    1    1    2    0    0  0.14193254419E-01 -0.11763144599E+01 -0.95783453664E-01  0.11802930259E+01  0.00000000000E+00 0. -1.
         11    1    3    3    0    0 -0.46848603040E+01 -0.23397358329E+02 -0.33659666481E+02  0.41259634520E+02  0.51100000000E-03 0. -1.
        -11    1    3    3    0    0 -0.41778773561E+01  0.85281936365E+01 -0.90765967381E+00  0.95398423598E+01  0.51100000000E-03 0.  1.
        -12    1    3    3    0    0  0.88485444057E+01  0.16045479153E+02  0.34663109609E+02  0.39208230094E+02  0.00000000000E+00 0.  1.
</event>
<event>
 7    1  0.2961597E-015  0.9000777E+02  0.7816164E-02  0.1186339E+00
        -11   -1    0    0    0    0  0.00000000000E+00  0.00000000000E+00  0.45593999997E+02  0.45594000000E+02  0.51100000000E-03 0. -1.
         11   -1    0    0    0    0 -0.00000000000E+00 -0.00000000000E+00 -0.45593999997E+02  0.45594000000E+02  0.51100000000E-03 0.  1.
    9900012    2    1    2    0    0  0.51856147895E+00 -0.10183107830E+01 -0.29507535914E+00  0.90007774460E+02  0.90000036283E+02 0.  0.
         12    1    1    2    0    0 -0.51856147895E+00  0.10183107830E+01  0.29507535914E+00  0.11802255402E+01  0.00000000000E+00 0. -1.
         11    1    3    3    0    0  0.22957967127E+02  0.63089383158E+01  0.33382841267E+02  0.41003476055E+02  0.51100000000E-03 0. -1.
        -11    1    3    3    0    0  0.54542986643E+00 -0.93776839178E+01 -0.16629924789E+01  0.95396013359E+01  0.51100000000E-03 0.  1.
        -12    1    3    3    0    0 -0.22984835515E+02  0.20504348191E+01 -0.32014924147E+02  0.39464697069E+02  0.00000000000E+00 0.  1.
</event>
<event>
 7    1  0.2404951E-015  0.9000770E+02  0.7816164E-02  0.1186339E+00
        -11   -1    0    0    0    0  0.00000000000E+00  0.00000000000E+00  0.45593999997E+02  0.45594000000E+02  0.51100000000E-03 0.  1.
         11   -1    0    0    0    0 -0.00000000000E+00 -0.00000000000E+00 -0.45593999997E+02  0.45594000000E+02  0.51100000000E-03 0. -1.
    9900012    2    1    2    0    0  0.28067379230E+00 -0.10661945583E+01  0.42136534690E+00  0.90007704542E+02  0.89999965441E+02 0.  0.
         12    1    1    2    0    0 -0.28067379230E+00  0.10661945583E+01 -0.42136534690E+00  0.11802954585E+01  0.00000000000E+00 0. -1.
         11    1    3    3    0    0 -0.63758823276E+01 -0.76450835111E+01 -0.65955690930E+00  0.99766824609E+01  0.51100000000E-03 0. -1.
        -11    1    3    3    0    0  0.41042688114E+02  0.84256256586E+01  0.12546368319E+02  0.43736766841E+02  0.51100000000E-03 0.  1.
         12    1    3    3    0    0 -0.34386131995E+02 -0.18467367057E+01 -0.11465446063E+02  0.36294255240E+02  0.00000000000E+00 0. -1.
</event>
<event>
 7    1  0.2784163E-015  0.9000759E+02  0.7816164E-02  0.1186339E+00
        -11   -1    0    0    0    0  0.00000000000E+00  0.00000000000E+00  0.45593999997E+02  0.45594000000E+02  0.51100000000E-03 0.  1.
         11   -1    0    0    0    0 -0.00000000000E+00 -0.00000000000E+00 -0.45593999997E+02  0.45594000000E+02  0.51100000000E-03 0. -1.
    9900012    2    1    2    0    0 -0.49595648890E+00 -0.14049232218E+00  0.10619070390E+01  0.90007594353E+02  0.89999853799E+02 0.  0.
         12    1    1    2    0    0  0.49595648890E+00  0.14049232218E+00 -0.10619070390E+01  0.11804056468E+01  0.00000000000E+00 0. -1.
         11    1    3    3    0    0  0.28791577342E+02 -0.47388547062E+01 -0.24898237017E+02  0.38357970184E+02  0.51100000000E-03 0. -1.
        -11    1    3    3    0    0  0.66695917811E+01  0.54445670909E+01  0.38604934850E+01  0.94355802971E+01  0.51100000000E-03 0.  1.
        -12    1    3    3    0    0 -0.35957125612E+02 -0.84620470679E+00  0.22099650571E+02  0.42214043873E+02  0.00000000000E+00 0.  1.
</event>
<event>
 7    1  0.2404951E-015  0.9000770E+02  0.7816164E-02  0.1186339E+00
        -11   -1    0    0    0    0  0.00000000000E+00  0.00000000000E+00  0.45593999997E+02  0.45594000000E+02  0.51100000000E-03 0.  1.
         11   -1    0    0    0    0 -0.00000000000E+00 -0.00000000000E+00 -0.45593999997E+02  0.45594000000E+02  0.51100000000E-03 0. -1.
    9900012    2    1    2    0    0  0.26299088410E+00 -0.75523667473E+00  0.86807728351E+00  0.90007701389E+02  0.89999962248E+02 0.  0.
         12    1    1    2    0    0 -0.26299088410E+00  0.75523667473E+00 -0.86807728351E+00  0.11802986106E+01  0.00000000000E+00 0. -1.
         11    1    3    3    0    0  0.41668256642E+01  0.31998714577E+02 -0.29471462872E+02  0.43701799674E+02  0.51100000000E-03 0. -1.
        -11    1    3    3    0    0  0.18076320565E+01 -0.96640481589E+01  0.34824810867E+01  0.10430198236E+02  0.51100000000E-03 0.  1.
        -12    1    3    3    0    0 -0.57114668366E+01 -0.23089903092E+02  0.26857059069E+02  0.35875703479E+02  0.00000000000E+00 0.  1.
</event>
<event>
 7    1  0.2404951E-015  0.9000660E+02  0.7816164E-02  0.1186341E+00
        -11   -1    0    0    0    0  0.00000000000E+00  0.00000000000E+00  0.45593999997E+02  0.45594000000E+02  0.51100000000E-03 0. -1.
         11   -1    0    0    0    0 -0.00000000000E+00 -0.00000000000E+00 -0.45593999997E+02  0.45594000000E+02  0.51100000000E-03 0.  1.
    9900012    2    1    2    0    0  0.10280275739E+00  0.10441873813E+01 -0.54295895071E+00  0.90006602473E+02  0.89998848818E+02 0.  0.
         12    1    1    2    0    0 -0.10280275739E+00 -0.10441873813E+01  0.54295895071E+00  0.11813975268E+01  0.00000000000E+00 0. -1.
         11    1    3    3    0    0 -0.10966510307E+02  0.21116707236E+02  0.37189473349E+02  0.44150159694E+02  0.51100000000E-03 0. -1.
        -11    1    3    3    0    0 -0.16761532084E+00 -0.28169711089E+00 -0.98929714168E+01  0.98984004704E+01  0.51100000000E-03 0.  1.
        -12    1    3    3    0    0  0.11236928385E+02 -0.19790822744E+02 -0.27839460883E+02  0.35958042308E+02  0.00000000000E+00 0.  1.
</event>
<event>
 7    1  0.2404951E-015  0.9000770E+02  0.7816164E-02  0.1186339E+00
        -11   -1    0    0    0    0  0.00000000000E+00  0.00000000000E+00  0.45593999997E+02  0.45594000000E+02  0.51100000000E-03 0.  1.
         11   -1    0    0    0    0 -0.00000000000E+00 -0.00000000000E+00 -0.45593999997E+02  0.45594000000E+02  0.51100000000E-03 0. -1.
    9900012    2    1    2    0    0 -0.11366026561E+01  0.31668906972E+00  0.30966024603E-01  0.90007696455E+02  0.89999957248E+02 0.  0.
         12    1    1    2    0    0  0.11366026561E+01 -0.31668906972E+00 -0.30966024603E-01  0.11803035455E+01  0.00000000000E+00 0. -1.
         11    1    3    3    0    0 -0.14877617708E+02  0.15610949331E+02 -0.31917348611E+02  0.38519636425E+02  0.51100000000E-03 0. -1.
        -11    1    3    3    0    0  0.54131604437E+01  0.37450985649E+01 -0.55543111775E+01  0.86126907624E+01  0.51100000000E-03 0.  1.
        -12    1    3    3    0    0  0.83278546087E+01 -0.19039358827E+02  0.37502625813E+02  0.42875369267E+02  0.00000000000E+00 0.  1.
</event>
<event>
 7    1  0.2404951E-015  0.9000735E+02  0.7816164E-02  0.1186340E+00
        -11   -1    0    0    0    0  0.00000000000E+00  0.00000000000E+00  0.45593999997E+02  0.45594000000E+02  0.51100000000E-03 0.  1.
         11   -1    0    0    0    0 -0.00000000000E+00 -0.00000000000E+00 -0.45593999997E+02  0.45594000000E+02  0.51100000000E-03 0. -1.
    9900012    2    1    2    0    0  0.27844975461E+00  0.95455021617E+00  0.63657619692E+00  0.90007352027E+02  0.89999608273E+02 0.  0.
         12    1    1    2    0    0 -0.27844975461E+00 -0.95455021617E+00 -0.63657619692E+00  0.11806479727E+01  0.00000000000E+00 0. -1.
         11    1    3    3    0    0 -0.27142581702E+02  0.11027632412E+02  0.23907238125E+02  0.37813812994E+02  0.51100000000E-03 0. -1.
        -11    1    3    3    0    0  0.49948708886E+00  0.52167319056E+01  0.70995307300E+01  0.88242345829E+01  0.51100000000E-03 0.  1.
        -12    1    3    3    0    0  0.26921544368E+02 -0.15289814101E+02 -0.30370192659E+02  0.43369304451E+02  0.00000000000E+00 0.  1.
</event>
<event>
 7    1  0.2404951E-015  0.9000775E+02  0.7816164E-02  0.1186339E+00
        -11   -1    0    0    0    0  0.00000000000E+00  0.00000000000E+00  0.45593999997E+02  0.45594000000E+02  0.51100000000E-03 0.  1.
         11   -1    0    0    0    0 -0.00000000000E+00 -0.00000000000E+00 -0.45593999997E+02  0.45594000000E+02  0.51100000000E-03 0. -1.
    9900012    2    1    2    0    0 -0.49384302235E-01 -0.10109731313E+01 -0.60703658129E+00  0.90007746259E+02  0.90000007710E+02 0.  0.
         12    1    1    2    0    0  0.49384302235E-01  0.10109731313E+01  0.60703658129E+00  0.11802537408E+01  0.00000000000E+00 0. -1.
         11    1    3    3    0    0 -0.69543323459E+01  0.41927946320E+01 -0.52911047115E+01  0.96921645949E+01  0.51100000000E-03 0. -1.
        -11    1    3    3    0    0  0.94047819701E+01  0.35359542453E+02  0.13006543490E+02  0.38831911365E+02  0.51100000000E-03 0.  1.
         12    1    3    3    0    0 -0.24998339264E+01 -0.40563310217E+02 -0.83224753602E+01  0.41483670300E+02  0.00000000000E+00 0. -1.
</event>
<event>
 7    1  0.2404951E-015  0.9000781E+02  0.7816164E-02  0.1186339E+00
        -11   -1    0    0    0    0  0.00000000000E+00  0.00000000000E+00  0.45593999997E+02  0.45594000000E+02  0.51100000000E-03 0. -1.
         11   -1    0    0    0    0 -0.00000000000E+00 -0.00000000000E+00 -0.45593999997E+02  0.45594000000E+02  0.51100000000E-03 0.  1.
    9900012    2    1    2    0    0  0.32047887057E-01  0.94419147397E+00 -0.70733730528E+00  0.90007809054E+02  0.90000071333E+02 0.  0.
         12    1    1    2    0    0 -0.32047887057E-01 -0.94419147397E+00  0.70733730528E+00  0.11801909464E+01  0.00000000000E+00 0. -1.
         11    1    3    3    0    0  0.74611881838E+01  0.38196179935E+02  0.50852103794E+01  0.39248908974E+02  0.51100000000E-03 0. -1.
        -11    1    3    3    0    0 -0.77522699297E+01  0.42958641729E+01 -0.14943721303E+01  0.89880635500E+01  0.51100000000E-03 0.  1.
        -12    1    3    3    0    0  0.32312963300E+00 -0.41547852634E+02 -0.42981755543E+01  0.41770836530E+02  0.00000000000E+00 0.  1.
</event>
<event>
 7    1  0.2404951E-015  0.9000772E+02  0.7816164E-02  0.1186339E+00
        -11   -1    0    0    0    0  0.00000000000E+00  0.00000000000E+00  0.45593999997E+02  0.45594000000E+02  0.51100000000E-03 0. -1.
         11   -1    0    0    0    0 -0.00000000000E+00 -0.00000000000E+00 -0.45593999997E+02  0.45594000000E+02  0.51100000000E-03 0.  1.
    9900012    2    1    2    0    0  0.11497538568E+01 -0.12927767993E+00  0.23328582961E+00  0.90007716590E+02  0.89999977649E+02 0.  0.
         12    1    1    2    0    0 -0.11497538568E+01  0.12927767993E+00 -0.23328582961E+00  0.11802834101E+01  0.00000000000E+00 0. -1.
         11    1    3    3    0    0  0.12627345839E+02  0.16380534639E+02 -0.10843530324E+02  0.23352814138E+02  0.51100000000E-03 0. -1.
        -11    1    3    3    0    0  0.10417373363E+02 -0.75574983479E+01 -0.22299130220E+02  0.25746624204E+02  0.51100000000E-03 0.  1.
         12    1    3    3    0    0 -0.21894965345E+02 -0.89523139714E+01  0.33375946374E+02  0.40908278248E+02  0.00000000000E+00 0. -1.
</event>
<event>
 7    1  0.2404951E-015  0.9000776E+02  0.7816164E-02  0.1186339E+00
        -11   -1    0    0    0    0  0.00000000000E+00  0.00000000000E+00  0.45593999997E+02  0.45594000000E+02  0.51100000000E-03 0.  1.
         11   -1    0    0    0    0 -0.00000000000E+00 -0.00000000000E+00 -0.45593999997E+02  0.45594000000E+02  0.51100000000E-03 0. -1.
    9900012    2    1    2    0    0 -0.82932836056E+00  0.74097335202E+00 -0.39513054978E+00  0.90007764774E+02  0.90000026469E+02 0.  0.
         12    1    1    2    0    0  0.82932836056E+00 -0.74097335202E+00  0.39513054978E+00  0.11802352263E+01  0.00000000000E+00 0. -1.
         11    1    3    3    0    0  0.27328570587E+02 -0.16336249227E+02 -0.24682499012E+02  0.40285848221E+02  0.51100000000E-03 0. -1.
        -11    1    3    3    0    0 -0.56065586172E+01 -0.40577192526E+01 -0.38548282955E+01  0.79220127815E+01  0.51100000000E-03 0.  1.
        -12    1    3    3    0    0 -0.22551340330E+02  0.21134941832E+02  0.28142196758E+02  0.41799903771E+02  0.00000000000E+00 0.  1.
</event>
<event>
 7    1  0.2404951E-015  0.9000806E+02  0.7816164E-02  0.1186338E+00
        -11   -1    0    0    0    0  0.00000000000E+00  0.00000000000E+00  0.45593999997E+02  0.45594000000E+02  0.51100000000E-03 0.  1.
         11   -1    0    0    0    0 -0.00000000000E+00 -0.00000000000E+00 -0.45593999997E+02  0.45594000000E+02  0.51100000000E-03 0. -1.
    9900012    2    1    2    0    0 -0.60879932522E+00  0.10063774733E+01  0.93953966523E-01  0.90008059499E+02  0.90000325084E+02 0.  0.
         12    1    1    2    0    0  0.60879932522E+00 -0.10063774733E+01 -0.93953966523E-01  0.11799405006E+01  0.00000000000E+00 0. -1.
         11    1    3    3    0    0  0.22565131991E+01 -0.21190377037E+01  0.10890949107E+02  0.11322320669E+02  0.51100000000E-03 0. -1.
        -11    1    3    3    0    0  0.16959748002E+02 -0.30048866138E+02  0.84314248841E+01  0.35519802002E+02  0.51100000000E-03 0.  1.
         12    1    3    3    0    0 -0.19825060526E+02  0.33174281315E+02 -0.19228420025E+02  0.43165936828E+02  0.00000000000E+00 0. -1.
</event>
<event>
 7    1  0.2404951E-015  0.9000769E+02  0.7816164E-02  0.1186339E+00
        -11   -1    0    0    0    0  0.00000000000E+00  0.00000000000E+00  0.45593999997E+02  0.45594000000E+02  0.51100000000E-03 0.  1.
         11   -1    0    0    0    0 -0.00000000000E+00 -0.00000000000E+00 -0.45593999997E+02  0.45594000000E+02  0.51100000000E-03 0. -1.
    9900012    2    1    2    0    0  0.97371113571E+00 -0.59266475572E+00  0.30620222831E+00  0.90007692967E+02  0.89999953714E+02 0.  0.
         12    1    1    2    0    0 -0.97371113571E+00  0.59266475572E+00 -0.30620222831E+00  0.11803070334E+01  0.00000000000E+00 0. -1.
         11    1    3    3    0    0  0.17598350234E+02 -0.36426619818E+01 -0.36397923187E+02  0.40592853187E+02  0.51100000000E-03 0. -1.
        -11    1    3    3    0    0 -0.47350875138E+00  0.76815229896E+01 -0.13526054153E+01  0.78140608935E+01  0.51100000000E-03 0.  1.
        -12    1    3    3    0    0 -0.16151130347E+02 -0.46315257635E+01  0.38056730831E+02  0.41600778886E+02  0.00000000000E+00 0.  1.
</event>
<event>
 7    1  0.3317362E-015  0.9000771E+02  0.7816164E-02  0.1186339E+00
        -11   -1    0    0    0    0  0.00000000000E+00  0.00000000000E+00  0.45593999997E+02  0.45594000000E+02  0.51100000000E-03 0. -1.
         11   -1    0    0    0    0 -0.00000000000E+00 -0.00000000000E+00 -0.45593999997E+02  0.45594000000E+02  0.51100000000E-03 0.  1.
    9900012    2    1    2    0    0  0.55866176545E+00 -0.26624567160E+00 -0.10050333208E+01  0.90007711179E+02  0.89999972166E+02 0.  0.
         12    1    1    2    0    0 -0.55866176545E+00  0.26624567160E+00  0.10050333208E+01  0.11802888213E+01  0.00000000000E+00 0. -1.
         11    1    3    3    0    0 -0.33923632744E+01  0.19166962801E+01  0.38693631661E+02  0.38889317101E+02  0.51100000000E-03 0. -1.
        -11    1    3    3    0    0  0.10610289629E+02  0.10774317279E+01  0.69347823637E-01  0.10665079208E+02  0.51100000000E-03 0.  1.
        -12    1    3    3    0    0 -0.66592645889E+01 -0.32603736796E+01 -0.39768012806E+02  0.40453314869E+02  0.00000000000E+00 0.  1.
</event>
<event>
 7    1  0.2404951E-015  0.9000771E+02  0.7816164E-02  0.1186339E+00
        -11   -1    0    0    0    0  0.00000000000E+00  0.00000000000E+00  0.45593999997E+02  0.45594000000E+02  0.51100000000E-03 0. -1.
         11   -1    0    0    0    0 -0.00000000000E+00 -0.00000000000E+00 -0.45593999997E+02  0.45594000000E+02  0.51100000000E-03 0.  1.
    9900012    2    1    2    0    0  0.20584432982E+00 -0.61177966642E+00 -0.98814369370E+00  0.90007714353E+02  0.89999975383E+02 0.  0.
         12    1    1    2    0    0 -0.20584432982E+00  0.61177966642E+00  0.98814369370E+00  0.11802856467E+01  0.00000000000E+00 0. -1.
         11    1    3    3    0    0  0.18596907652E+02  0.26761344409E+02  0.21901149782E+02  0.39264168027E+02  0.51100000000E-03 0. -1.
        -11    1    3    3    0    0 -0.58046393794E+01  0.20560608368E+00  0.63637094589E+01  0.86158522808E+01  0.51100000000E-03 0.  1.
        -12    1    3    3    0    0 -0.12586423943E+02 -0.27578730159E+02 -0.29253002935E+02  0.42127694045E+02  0.00000000000E+00 0.  1.
</event>
<event>
 7    1  0.2404951E-015  0.9000769E+02  0.7816164E-02  0.1186339E+00
        -11   -1    0    0    0    0  0.00000000000E+00  0.00000000000E+00  0.45593999997E+02  0.45594000000E+02  0.51100000000E-03 0.  1.
         11   -1    0    0    0    0 -0.00000000000E+00 -0.00000000000E+00 -0.45593999997E+02  0.45594000000E+02  0.51100000000E-03 0. -1.
    9900012    2    1    2    0    0  0.71985804797E+00 -0.76625118835E+00  0.53645593442E+00  0.90007694335E+02  0.89999955100E+02 0.  0.
         12    1    1    2    0    0 -0.71985804797E+00  0.76625118835E+00 -0.53645593442E+00  0.11803056648E+01  0.00000000000E+00 0. -1.
         11    1    3    3    0    0 -0.31716287054E+02  0.35151475987E+01 -0.15356969187E+02  0.35413495026E+02  0.51100000000E-03 0. -1.
        -11    1    3    3    0    0 -0.13354815957E+01  0.89536555792E+01 -0.72236336839E+01  0.11581551847E+02  0.51100000000E-03 0.  1.
        -12    1    3    3    0    0  0.33771626697E+02 -0.13235054366E+02  0.23117058806E+02  0.43012647462E+02  0.00000000000E+00 0.  1.
</event>
<event>
 7    1  0.2404951E-015  0.9000773E+02  0.7816164E-02  0.1186339E+00
        -11   -1    0    0    0    0  0.00000000000E+00  0.00000000000E+00  0.45593999997E+02  0.45594000000E+02  0.51100000000E-03 0. -1.
         11   -1    0    0    0    0 -0.00000000000E+00 -0.00000000000E+00 -0.45593999997E+02  0.45594000000E+02  0.51100000000E-03 0.  1.
    9900012    2    1    2    0    0 -0.90288963039E+00  0.48991191363E-01 -0.75857123737E+00  0.90007728784E+02  0.89999990004E+02 0.  0.
         12    1    1    2    0    0  0.90288963039E+00 -0.48991191363E-01  0.75857123737E+00  0.11802712161E+01  0.00000000000E+00 0. -1.
         11    1    3    3    0    0  0.69401671886E+01 -0.56066238233E+01 -0.34104064142E+01  0.95514932588E+01  0.51100000000E-03 0. -1.
        -11    1    3    3    0    0 -0.14783024264E+02 -0.17898712041E+02 -0.31043113046E+02  0.38763082527E+02  0.51100000000E-03 0.  1.
         12    1    3    3    0    0  0.69399674450E+01  0.23554327056E+02  0.33694948223E+02  0.41693152998E+02  0.00000000000E+00 0. -1.
</event>
<event>
 7    1  0.2404951E-015  0.9000782E+02  0.7816164E-02  0.1186339E+00
        -11   -1    0    0    0    0  0.00000000000E+00  0.00000000000E+00  0.45593999997E+02  0.45594000000E+02  0.51100000000E-03 0. -1.
         11   -1    0    0    0    0 -0.00000000000E+00 -0.00000000000E+00 -0.45593999997E+02  0.45594000000E+02  0.51100000000E-03 0.  1.
    9900012    2    1    2    0    0 -0.21213575014E+00 -0.48737554348E+00 -0.10536993666E+01  0.90007822534E+02  0.90000084991E+02 0.  0.
         12    1    1    2    0    0  0.21213575014E+00  0.48737554348E+00  0.10536993666E+01  0.11801774663E+01  0.00000000000E+00 0. -1.
         11    1    3    3    0    0 -0.42266099037E+01  0.45650994918E+01 -0.61799802435E+01  0.87690661259E+01  0.51100000000E-03 0. -1.
        -11    1    3    3    0    0 -0.15043736104E+02  0.29155830855E+02 -0.16264296368E+02  0.36618353396E+02  0.51100000000E-03 0.  1.
         12    1    3    3    0    0  0.19058210257E+02 -0.34208305890E+02  0.21390577245E+02  0.44620403012E+02  0.00000000000E+00 0. -1.
</event>
<event>
 7    1  0.2404951E-015  0.9000749E+02  0.7816164E-02  0.1186340E+00
        -11   -1    0    0    0    0  0.00000000000E+00  0.00000000000E+00  0.45593999997E+02  0.45594000000E+02  0.51100000000E-03 0. -1.
         11   -1    0    0    0    0 -0.00000000000E+00 -0.00000000000E+00 -0.45593999997E+02  0.45594000000E+02  0.51100000000E-03 0.  1.
    9900012    2    1    2    0    0  0.27574160350E+00 -0.61870872951E+00 -0.96683287847E+00  0.90007491746E+02  0.89999749836E+02 0.  0.
         12    1    1    2    0    0 -0.27574160350E+00  0.61870872951E+00  0.96683287847E+00  0.11805082544E+01  0.00000000000E+00 0. -1.
         11    1    3    3    0    0 -0.91032020279E+01 -0.25775311254E+01  0.18275164178E+01  0.96359623485E+01  0.51100000000E-03 0. -1.
        -11    1    3    3    0    0 -0.46755711590E+01 -0.37833164348E+02 -0.11393710284E+01  0.38138005413E+02  0.51100000000E-03 0.  1.
         12    1    3    3    0    0  0.14054514790E+02  0.39791986744E+02 -0.16549782678E+01  0.42233523984E+02  0.00000000000E+00 0. -1.
</event>
<event>
 7    1  0.2404951E-015  0.9000774E+02  0.7816164E-02  0.1186339E+00
        -11   -1    0    0    0    0  0.00000000000E+00  0.00000000000E+00  0.45593999997E+02  0.45594000000E+02  0.51100000000E-03 0.  1.
         11   -1    0    0    0    0 -0.00000000000E+00 -0.00000000000E+00 -0.45593999997E+02  0.45594000000E+02  0.51100000000E-03 0. -1.
    9900012    2    1    2    0    0 -0.10718748161E+01  0.53468000683E-01  0.49116473225E+00  0.90007738485E+02  0.89999999833E+02 0.  0.
         12    1    1    2    0    0  0.10718748161E+01 -0.53468000683E-01 -0.49116473225E+00  0.11802615146E+01  0.00000000000E+00 0. -1.
         11    1    3    3    0    0  0.36831386323E+00 -0.91148547881E+01  0.41740718443E+00  0.91318378177E+01  0.51100000000E-03 0. -1.
        -11    1    3    3    0    0 -0.56960904642E+01  0.36154031184E+02  0.24651744267E+02  0.44127858696E+02  0.51100000000E-03 0.  1.
         12    1    3    3    0    0  0.42559017848E+01 -0.26985708395E+02 -0.24577986719E+02  0.36748041972E+02  0.00000000000E+00 0. -1.
</event>
<event>
 7    1  0.2404951E-015  0.9000781E+02  0.7816164E-02  0.1186339E+00
        -11   -1    0    0    0    0  0.00000000000E+00  0.00000000000E+00  0.45593999997E+02  0.45594000000E+02  0.51100000000E-03 0. -1.
         11   -1    0    0    0    0 -0.00000000000E+00 -0.00000000000E+00 -0.45593999997E+02  0.45594000000E+02  0.51100000000E-03 0.  1.
    9900012    2    1    2    0    0  0.27243299656E-01  0.55185479268E+00 -0.10428637588E+01  0.90007809029E+02  0.90000071308E+02 0.  0.
         12    1    1    2    0    0 -0.27243299656E-01 -0.55185479268E+00  0.10428637588E+01  0.11801909714E+01  0.00000000000E+00 0. -1.
         11    1    3    3    0    0 -0.82193035289E+01  0.12492518202E+02  0.32912907061E+02  0.36150787169E+02  0.51100000000E-03 0. -1.
        -11    1    3    3    0    0 -0.33778874354E+01 -0.26563838605E+01  0.81427735662E+01  0.92071309512E+01  0.51100000000E-03 0.  1.
        -12    1    3    3    0    0  0.11624434264E+02 -0.92842795488E+01 -0.42098544386E+02  0.44649890908E+02  0.00000000000E+00 0.  1.
</event>
<event>
 7    1  0.2404951E-015  0.9000771E+02  0.7816164E-02  0.1186339E+00
        -11   -1    0    0    0    0  0.00000000000E+00  0.00000000000E+00  0.45593999997E+02  0.45594000000E+02  0.51100000000E-03 0. -1.
         11   -1    0    0    0    0 -0.00000000000E+00 -0.00000000000E+00 -0.45593999997E+02  0.45594000000E+02  0.51100000000E-03 0.  1.
    9900012    2    1    2    0    0  0.17967625560E+00 -0.29232968082E+00 -0.11293134959E+01  0.90007708014E+02  0.89999968960E+02 0.  0.
         12    1    1    2    0    0 -0.17967625560E+00  0.29232968082E+00  0.11293134959E+01  0.11802919855E+01  0.00000000000E+00 0. -1.
         11    1    3    3    0    0 -0.18676171882E+02 -0.22215230253E+02  0.19885079468E+02  0.35181418918E+02  0.51100000000E-03 0. -1.
        -11    1    3    3    0    0  0.79983572250E+01 -0.81459361174E+01  0.60672948287E+01  0.12928343294E+02  0.51100000000E-03 0.  1.
        -12    1    3    3    0    0  0.10857490913E+02  0.30068836690E+02 -0.27081687792E+02  0.41897945803E+02  0.00000000000E+00 0.  1.
</event>
<event>
 7    1  0.2404951E-015  0.9000787E+02  0.7816164E-02  0.1186339E+00
        -11   -1    0    0    0    0  0.00000000000E+00  0.00000000000E+00  0.45593999997E+02  0.45594000000E+02  0.51100000000E-03 0. -1.
         11   -1    0    0    0    0 -0.00000000000E+00 -0.00000000000E+00 -0.45593999997E+02  0.45594000000E+02  0.51100000000E-03 0.  1.
    9900012    2    1    2    0    0  0.57660864844E+00 -0.10205792800E+01 -0.13656232029E+00  0.90007869131E+02  0.90000132204E+02 0.  0.
         12    1    1    2    0    0 -0.57660864844E+00  0.10205792800E+01  0.13656232029E+00  0.11801308688E+01  0.00000000000E+00 0. -1.
         11    1    3    3    0    0 -0.25493020750E+02 -0.94645852113E+01 -0.44667578548E+01  0.27557656036E+02  0.51100000000E-03 0. -1.
        -11    1    3    3    0    0  0.83382210114E+01 -0.21920379261E+02  0.12173056154E+02  0.26423706268E+02  0.51100000000E-03 0.  1.
        -12    1    3    3    0    0  0.17731408387E+02  0.30364385192E+02 -0.78428606191E+01  0.36026506827E+02  0.00000000000E+00 0.  1.
</event>
<event>
 7    1  0.2404951E-015  0.9000771E+02  0.7816164E-02  0.1186339E+00
        -11   -1    0    0    0    0  0.00000000000E+00  0.00000000000E+00  0.45593999997E+02  0.45594000000E+02  0.51100000000E-03 0. -1.
         11   -1    0    0    0    0 -0.00000000000E+00 -0.00000000000E+00 -0.45593999997E+02  0.45594000000E+02  0.51100000000E-03 0.  1.
    9900012    2    1    2    0    0 -0.91383673348E-01 -0.49293722613E+00 -0.10685207511E+01  0.90007714153E+02  0.89999975180E+02 0.  0.
         12    1    1    2    0    0  0.91383673348E-01  0.49293722613E+00  0.10685207511E+01  0.11802858468E+01  0.00000000000E+00 0. -1.
         11    1    3    3    0    0  0.25120242967E+02 -0.10068865643E+02  0.26110307042E+02  0.37605276174E+02  0.51100000000E-03 0. -1.
        -11    1    3    3    0    0  0.60011193967E+01  0.11441615376E+02 -0.41540167659E+01  0.13571287779E+02  0.51100000000E-03 0.  1.
        -12    1    3    3    0    0 -0.31212746037E+02 -0.18656869592E+01 -0.23024811027E+02  0.38831150200E+02  0.00000000000E+00 0.  1.
</event>
<event>
 7    1  0.2404951E-015  0.9000778E+02  0.7816164E-02  0.1186339E+00
        -11   -1    0    0    0    0  0.00000000000E+00  0.00000000000E+00  0.45593999997E+02  0.45594000000E+02  0.51100000000E-03 0.  1.
         11   -1    0    0    0    0 -0.00000000000E+00 -0.00000000000E+00 -0.45593999997E+02  0.45594000000E+02  0.51100000000E-03 0. -1.
    9900012    2    1    2    0    0  0.18598983681E+00  0.93140390973E+00  0.70057358908E+00  0.90007784420E+02  0.90000046374E+02 0.  0.
         12    1    1    2    0    0 -0.18598983681E+00 -0.93140390973E+00 -0.70057358908E+00  0.11802155804E+01  0.00000000000E+00 0. -1.
         11    1    3    3    0    0  0.98337562512E+01  0.11495153201E+02 -0.34577380974E+02  0.37741708817E+02  0.51100000000E-03 0. -1.
        -11    1    3    3    0    0 -0.98587488021E+01 -0.91514996717E+01 -0.31468421054E+01  0.13814756230E+02  0.51100000000E-03 0.  1.
        -12    1    3    3    0    0  0.21098238769E+00 -0.14122496193E+01  0.38424796668E+02  0.38451319374E+02  0.00000000000E+00 0.  1.
</event>
<event>
 7    1  0.2404951E-015  0.9000772E+02  0.7816164E-02  0.1186339E+00
        -11   -1    0    0    0    0  0.00000000000E+00  0.00000000000E+00  0.45593999997E+02  0.45594000000E+02  0.51100000000E-03 0. -1.
         11   -1    0    0    0    0 -0.00000000000E+00 -0.00000000000E+00 -0.45593999997E+02  0.45594000000E+02  0.51100000000E-03 0.  1.
    9900012    2    1    2    0    0  0.11010810068E+01 -0.50920888968E-01 -0.42200398311E+00  0.90007720507E+02  0.89999981617E+02 0.  0.
         12    1    1    2    0    0 -0.11010810068E+01  0.50920888968E-01  0.42200398311E+00  0.11802794933E+01  0.00000000000E+00 0. -1.
         11    1    3    3    0    0  0.61676890697E+01 -0.38999869293E+00 -0.89937620264E+00  0.62451073054E+01  0.51100000000E-03 0. -1.
        -11    1    3    3    0    0  0.37216585762E+02  0.60179108016E+01 -0.11562831967E+02  0.39433343626E+02  0.51100000000E-03 0.  1.
         12    1    3    3    0    0 -0.42283193825E+02 -0.56788329976E+01  0.12040204186E+02  0.44329269575E+02  0.00000000000E+00 0. -1.
</event>
<event>
 7    1  0.2404951E-015  0.9000753E+02  0.7816164E-02  0.1186339E+00
        -11   -1    0    0    0    0  0.00000000000E+00  0.00000000000E+00  0.45593999997E+02  0.45594000000E+02  0.51100000000E-03 0.  1.
         11   -1    0    0    0    0 -0.00000000000E+00 -0.00000000000E+00 -0.45593999997E+02  0.45594000000E+02  0.51100000000E-03 0. -1.
    9900012    2    1    2    0    0  0.24954648304E+00  0.10153626720E+01 -0.54796609100E+00  0.90007533296E+02  0.89999791935E+02 0.  0.
         12    1    1    2    0    0 -0.24954648304E+00 -0.10153626720E+01  0.54796609100E+00  0.11804667042E+01  0.00000000000E+00 0. -1.
         11    1    3    3    0    0  0.13720693971E+02 -0.35394860040E+02  0.27538106545E+01  0.38060964697E+02  0.51100000000E-03 0. -1.
        -11    1    3    3    0    0 -0.54932608836E+01 -0.62518840010E+01 -0.18232598790E+01  0.85197561905E+01  0.51100000000E-03 0.  1.
        -12    1    3    3    0    0 -0.79778866045E+01  0.42662106713E+02 -0.14785168665E+01  0.43426812408E+02  0.00000000000E+00 0.  1.
</event>
<event>
 7    1  0.2404951E-015  0.9000801E+02  0.7816164E-02  0.1186339E+00
        -11   -1    0    0    0    0  0.00000000000E+00  0.00000000000E+00  0.45593999997E+02  0.45594000000E+02  0.51100000000E-03 0.  1.
         11   -1    0    0    0    0 -0.00000000000E+00 -0.00000000000E+00 -0.45593999997E+02  0.45594000000E+02  0.51100000000E-03 0. -1.
    9900012    2    1    2    0    0  0.81108421516E+00  0.71719389819E+00 -0.46919995024E+00  0.90008011320E+02  0.90000276269E+02 0.  0.
         12    1    1    2    0    0 -0.81108421516E+00 -0.71719389819E+00  0.46919995024E+00  0.11799886800E+01  0.00000000000E+00 0. -1.
         11    1    3    3    0    0 -0.99571977464E+01  0.43504005100E+01 -0.15186037778E+01  0.10971687621E+02  0.51100000000E-03 0. -1.
        -11    1    3    3    0    0 -0.14016254200E+02 -0.17269339233E+02 -0.29797117809E+02  0.37182706858E+02  0.51100000000E-03 0.  1.
         12    1    3    3    0    0  0.24784536161E+02  0.13636132621E+02  0.30846521636E+02  0.41853616841E+02  0.00000000000E+00 0. -1.
</event>
<event>
 7    1  0.2404951E-015  0.9000777E+02  0.7816164E-02  0.1186339E+00
        -11   -1    0    0    0    0  0.00000000000E+00  0.00000000000E+00  0.45593999997E+02  0.45594000000E+02  0.51100000000E-03 0.  1.
         11   -1    0    0    0    0 -0.00000000000E+00 -0.00000000000E+00 -0.45593999997E+02  0.45594000000E+02  0.51100000000E-03 0. -1.
    9900012    2    1    2    0    0  0.44654703332E-01  0.57871918589E+00  0.10276383082E+01  0.90007766789E+02  0.90000028511E+02 0.  0.
         12    1    1    2    0    0 -0.44654703332E-01 -0.57871918589E+00 -0.10276383082E+01  0.11802332105E+01  0.00000000000E+00 0. -1.
         11    1    3    3    0    0  0.45037286407E+00  0.63088773969E+01  0.52977972289E+01  0.82505409196E+01  0.51100000000E-03 0. -1.
        -11    1    3    3    0    0  0.21476752818E+02  0.17692703634E+02  0.25697225759E+02  0.37876510998E+02  0.51100000000E-03 0.  1.
         12    1    3    3    0    0 -0.21882470979E+02 -0.23422861845E+02 -0.29967384679E+02  0.43880714872E+02  0.00000000000E+00 0. -1.
</event>
<event>
 7    1  0.2404951E-015  0.9000771E+02  0.7816164E-02  0.1186339E+00
        -11   -1    0    0    0    0  0.00000000000E+00  0.00000000000E+00  0.45593999997E+02  0.45594000000E+02  0.51100000000E-03 0.  1.
         11   -1    0    0    0    0 -0.00000000000E+00 -0.00000000000E+00 -0.45593999997E+02  0.45594000000E+02  0.51100000000E-03 0. -1.
    9900012    2    1    2    0    0 -0.49473488323E+00  0.10699358956E+01 -0.59705016884E-01  0.90007707615E+02  0.89999968555E+02 0.  0.
         12    1    1    2    0    0  0.49473488323E+00 -0.10699358956E+01  0.59705016884E-01  0.11802923851E+01  0.00000000000E+00 0. -1.
         11    1    3    3    0    0 -0.99219150357E+01 -0.18887402103E+01 -0.40270980441E+02  0.41518232181E+02  0.51100000000E-03 0. -1.
        -11    1    3    3    0    0  0.78065129947E+01 -0.59512666195E+01  0.31073532999E+01  0.10296351990E+02  0.51100000000E-03 0.  1.
        -12    1    3    3    0    0  0.16206671578E+01  0.89099427253E+01  0.37103922124E+02  0.38193123444E+02  0.00000000000E+00 0.  1.
</event>
<event>
 7    1  0.2404951E-015  0.9000777E+02  0.7816164E-02  0.1186339E+00
        -11   -1    0    0    0    0  0.00000000000E+00  0.00000000000E+00  0.45593999997E+02  0.45594000000E+02  0.51100000000E-03 0.  1.
         11   -1    0    0    0    0 -0.00000000000E+00 -0.00000000000E+00 -0.45593999997E+02  0.45594000000E+02  0.51100000000E-03 0. -1.
    9900012    2    1    2    0    0  0.56534318032E+00  0.71291365119E+00 -0.75172192448E+00  0.90007769244E+02  0.90000030998E+02 0.  0.
         12    1    1    2    0    0 -0.56534318032E+00 -0.71291365119E+00  0.75172192448E+00  0.11802307560E+01  0.00000000000E+00 0. -1.
         11    1    3    3    0    0  0.76009658397E+01 -0.74340146138E+01  0.34507491892E+01  0.11177966058E+02  0.51100000000E-03 0. -1.
        -11    1    3    3    0    0  0.30234774991E+02  0.21134103194E+02 -0.11609117385E+02  0.38672516641E+02  0.51100000000E-03 0.  1.
         12    1    3    3    0    0 -0.37270397651E+02 -0.12987174929E+02  0.74066462713E+01  0.40157286545E+02  0.00000000000E+00 0. -1.
</event>
<event>
 7    1  0.2404951E-015  0.9000707E+02  0.7816164E-02  0.1186340E+00
        -11   -1    0    0    0    0  0.00000000000E+00  0.00000000000E+00  0.45593999997E+02  0.45594000000E+02  0.51100000000E-03 0.  1.
         11   -1    0    0    0    0 -0.00000000000E+00 -0.00000000000E+00 -0.45593999997E+02  0.45594000000E+02  0.51100000000E-03 0. -1.
    9900012    2    1    2    0    0 -0.10099316421E+00 -0.66883124173E+00  0.96801870299E+00  0.90007070257E+02  0.89999322782E+02 0.  0.
         12    1    1    2    0    0  0.10099316421E+00  0.66883124173E+00 -0.96801870299E+00  0.11809297432E+01  0.00000000000E+00 0. -1.
         11    1    3    3    0    0  0.53496947046E+01 -0.60556619265E+01  0.33495087152E+01  0.87469699722E+01  0.51100000000E-03 0. -1.
        -11    1    3    3    0    0  0.17866822370E+02  0.17498421229E+02  0.30324760848E+02  0.39306605143E+02  0.51100000000E-03 0.  1.
         12    1    3    3    0    0 -0.23317510239E+02 -0.12111590545E+02 -0.32706250860E+02  0.41953495142E+02  0.00000000000E+00 0. -1.
</event>
<event>
 7    1  0.2404951E-015  0.9000773E+02  0.7816164E-02  0.1186339E+00
        -11   -1    0    0    0    0  0.00000000000E+00  0.00000000000E+00  0.45593999997E+02  0.45594000000E+02  0.51100000000E-03 0.  1.
         11   -1    0    0    0    0 -0.00000000000E+00 -0.00000000000E+00 -0.45593999997E+02  0.45594000000E+02  0.51100000000E-03 0. -1.
    9900012    2    1    2    0    0  0.10229784381E+01 -0.35103791641E+00 -0.47257345674E+00  0.90007729618E+02  0.89999990849E+02 0.  0.
         12    1    1    2    0    0 -0.10229784381E+01  0.35103791641E+00  0.47257345674E+00  0.11802703824E+01  0.00000000000E+00 0. -1.
         11    1    3    3    0    0 -0.10844287834E+02  0.30272985081E+02  0.18800880416E+02  0.37249500788E+02  0.51100000000E-03 0. -1.
        -11    1    3    3    0    0 -0.92038773456E+01  0.94534937198E+00  0.16792925224E+01  0.94034603878E+01  0.51100000000E-03 0.  1.
        -12    1    3    3    0    0  0.21071143617E+02 -0.31569372369E+02 -0.20952746395E+02  0.43354768441E+02  0.00000000000E+00 0.  1.
</event>
<event>
 7    1  0.2404951E-015  0.9000681E+02  0.7816164E-02  0.1186341E+00
        -11   -1    0    0    0    0  0.00000000000E+00  0.00000000000E+00  0.45593999997E+02  0.45594000000E+02  0.51100000000E-03 0.  1.
         11   -1    0    0    0    0 -0.00000000000E+00 -0.00000000000E+00 -0.45593999997E+02  0.45594000000E+02  0.51100000000E-03 0. -1.
    9900012    2    1    2    0    0  0.32749437510E+00 -0.29696765885E-01  0.11344965815E+01  0.90006806977E+02  0.89999056024E+02 0.  0.
         12    1    1    2    0    0 -0.32749437510E+00  0.29696765885E-01 -0.11344965815E+01  0.11811930227E+01  0.00000000000E+00 0. -1.
         11    1    3    3    0    0 -0.34252241403E+01 -0.11193776684E+02  0.41662104702E+01  0.12425381556E+02  0.51100000000E-03 0. -1.
        -11    1    3    3    0    0 -0.67277193739E+01 -0.14375625172E+01  0.35262350161E+02  0.35927178196E+02  0.51100000000E-03 0.  1.
         12    1    3    3    0    0  0.10480437889E+02  0.12601642435E+02 -0.38294064050E+02  0.41654247225E+02  0.00000000000E+00 0. -1.
</event>
<event>
 7    1  0.2404951E-015  0.9000787E+02  0.7816164E-02  0.1186339E+00
        -11   -1    0    0    0    0  0.00000000000E+00  0.00000000000E+00  0.45593999997E+02  0.45594000000E+02  0.51100000000E-03 0.  1.
         11   -1    0    0    0    0 -0.00000000000E+00 -0.00000000000E+00 -0.45593999997E+02  0.45594000000E+02  0.51100000000E-03 0. -1.
    9900012    2    1    2    0    0 -0.28005027190E+00 -0.88047179003E+00 -0.73419680487E+00  0.90007871331E+02  0.90000134432E+02 0.  0.
         12    1    1    2    0    0  0.28005027190E+00  0.88047179003E+00  0.73419680487E+00  0.11801286693E+01  0.00000000000E+00 0. -1.
         11    1    3    3    0    0  0.14282611245E+02 -0.47739959501E+01  0.70285745040E+01  0.16618811062E+02  0.51100000000E-03 0. -1.
        -11    1    3    3    0    0  0.16138939664E+02 -0.17661245058E+02  0.16184237760E+02  0.28884502811E+02  0.51100000000E-03 0.  1.
        -12    1    3    3    0    0 -0.30701601181E+02  0.21554769218E+02 -0.23947009069E+02  0.44504557458E+02  0.00000000000E+00 0.  1.
</event>
<event>
 7    1  0.2404951E-015  0.9000769E+02  0.7816164E-02  0.1186339E+00
        -11   -1    0    0    0    0  0.00000000000E+00  0.00000000000E+00  0.45593999997E+02  0.45594000000E+02  0.51100000000E-03 0. -1.
         11   -1    0    0    0    0 -0.00000000000E+00 -0.00000000000E+00 -0.45593999997E+02  0.45594000000E+02  0.51100000000E-03 0.  1.
    9900012    2    1    2    0    0  0.80405443179E-01 -0.11770788900E+01  0.34074906381E-01  0.90007686123E+02  0.89999946780E+02 0.  0.
         12    1    1    2    0    0 -0.80405443179E-01  0.11770788900E+01 -0.34074906381E-01  0.11803138769E+01  0.00000000000E+00 0. -1.
         11    1    3    3    0    0  0.23056297128E+01  0.42274816939E+01 -0.92287223058E+01  0.10409459424E+02  0.51100000000E-03 0. -1.
        -11    1    3    3    0    0 -0.13898804914E+02 -0.12737196379E+02 -0.31420744211E+02  0.36642545172E+02  0.51100000000E-03 0.  1.
         12    1    3    3    0    0  0.11673580645E+02  0.73326357954E+01  0.40683541423E+02  0.42955681527E+02  0.00000000000E+00 0. -1.
</event>
<event>
 7    1  0.2404951E-015  0.9000774E+02  0.7816164E-02  0.1186339E+00
        -11   -1    0    0    0    0  0.00000000000E+00  0.00000000000E+00  0.45593999997E+02  0.45594000000E+02  0.51100000000E-03 0.  1.
         11   -1    0    0    0    0 -0.00000000000E+00 -0.00000000000E+00 -0.45593999997E+02  0.45594000000E+02  0.51100000000E-03 0. -1.
    9900012    2    1    2    0    0 -0.14882828081E+00  0.11669530548E+01 -0.95260463291E-01  0.90007744161E+02  0.90000005584E+02 0.  0.
         12    1    1    2    0    0  0.14882828081E+00 -0.11669530548E+01  0.95260463291E-01  0.11802558389E+01  0.00000000000E+00 0. -1.
         11    1    3    3    0    0  0.25740415831E+02  0.22957538824E+02  0.17677560144E+02  0.38757111979E+02  0.51100000000E-03 0. -1.
        -11    1    3    3    0    0  0.53536637008E+01 -0.52995079908E+01  0.51609450506E+01  0.91313664937E+01  0.51100000000E-03 0.  1.
        -12    1    3    3    0    0 -0.31242907813E+02 -0.16491077778E+02 -0.22933765658E+02  0.42119265689E+02  0.00000000000E+00 0.  1.
</event>
<event>
 7    1  0.2404951E-015  0.9000781E+02  0.7816164E-02  0.1186339E+00
        -11   -1    0    0    0    0  0.00000000000E+00  0.00000000000E+00  0.45593999997E+02  0.45594000000E+02  0.51100000000E-03 0.  1.
         11   -1    0    0    0    0 -0.00000000000E+00 -0.00000000000E+00 -0.45593999997E+02  0.45594000000E+02  0.51100000000E-03 0. -1.
    9900012    2    1    2    0    0 -0.12294347177E+00 -0.16976619311E+00  0.11614305110E+01  0.90007806588E+02  0.90000068835E+02 0.  0.
         12    1    1    2    0    0  0.12294347177E+00  0.16976619311E+00 -0.11614305110E+01  0.11801934119E+01  0.00000000000E+00 0. -1.
         11    1    3    3    0    0  0.62523334485E+00 -0.33535877892E+01  0.49570896832E+01  0.60174916854E+01  0.51100000000E-03 0. -1.
        -11    1    3    3    0    0  0.30508960416E+02 -0.21335884982E+02 -0.18571866069E+02  0.41604457251E+02  0.51100000000E-03 0.  1.
         12    1    3    3    0    0 -0.31257137232E+02  0.24519706578E+02  0.14776206897E+02  0.42385857652E+02  0.00000000000E+00 0. -1.
</event>
<event>
 7    1  0.2404951E-015  0.9000772E+02  0.7816164E-02  0.1186339E+00
        -11   -1    0    0    0    0  0.00000000000E+00  0.00000000000E+00  0.45593999997E+02  0.45594000000E+02  0.51100000000E-03 0.  1.
         11   -1    0    0    0    0 -0.00000000000E+00 -0.00000000000E+00 -0.45593999997E+02  0.45594000000E+02  0.51100000000E-03 0. -1.
    9900012    2    1    2    0    0  0.38536039144E+00  0.61678074352E+00  0.92959636706E+00  0.90007715914E+02  0.89999976965E+02 0.  0.
         12    1    1    2    0    0 -0.38536039144E+00 -0.61678074352E+00 -0.92959636706E+00  0.11802840855E+01  0.00000000000E+00 0. -1.
         11    1    3    3    0    0 -0.25058481664E+02 -0.13046610026E+02 -0.26595230653E+02  0.38800100905E+02  0.51100000000E-03 0. -1.
        -11    1    3    3    0    0  0.49725195973E+01 -0.48412991063E+01 -0.50000152848E+01  0.85536121780E+01  0.51100000000E-03 0.  1.
        -12    1    3    3    0    0  0.20471322458E+02  0.18504689876E+02  0.32524842305E+02  0.42654002832E+02  0.00000000000E+00 0.  1.
</event>
<event>
 7    1  0.2404951E-015  0.9000775E+02  0.7816164E-02  0.1186339E+00
        -11   -1    0    0    0    0  0.00000000000E+00  0.00000000000E+00  0.45593999997E+02  0.45594000000E+02  0.51100000000E-03 0.  1.
         11   -1    0    0    0    0 -0.00000000000E+00 -0.00000000000E+00 -0.45593999997E+02  0.45594000000E+02  0.51100000000E-03 0. -1.
    9900012    2    1    2    0    0  0.66487361958E+00 -0.97471209489E+00 -0.29509473101E-01  0.90007749430E+02  0.90000010923E+02 0.  0.
         12    1    1    2    0    0 -0.66487361958E+00  0.97471209489E+00  0.29509473101E-01  0.11802505696E+01  0.00000000000E+00 0. -1.
         11    1    3    3    0    0  0.74534471016E+01  0.19427205343E+02 -0.32804429902E+02  0.38847146647E+02  0.51100000000E-03 0. -1.
        -11    1    3    3    0    0  0.20753287028E+01 -0.94730092774E+01 -0.49563106396E+01  0.10890817665E+02  0.51100000000E-03 0.  1.
        -12    1    3    3    0    0 -0.88639021848E+01 -0.10928908160E+02  0.37731231069E+02  0.40269785118E+02  0.00000000000E+00 0.  1.
</event>
<event>
 7    1  0.2404951E-015  0.9000766E+02  0.7816164E-02  0.1186339E+00
        -11   -1    0    0    0    0  0.00000000000E+00  0.00000000000E+00  0.45593999997E+02  0.45594000000E+02  0.51100000000E-03 0. -1.
         11   -1    0    0    0    0 -0.00000000000E+00 -0.00000000000E+00 -0.45593999997E+02  0.45594000000E+02  0.51100000000E-03 0.  1.
    9900012    2    1    2    0    0 -0.26429778979E+00  0.80995235452E+00 -0.81689877963E+00  0.90007661170E+02  0.89999921497E+02 0.  0.
         12    1    1    2    0    0  0.26429778979E+00 -0.80995235452E+00  0.81689877963E+00  0.11803388304E+01  0.00000000000E+00 0. -1.
         11    1    3    3    0    0 -0.13680548570E+02  0.11696423606E+02 -0.36300722366E+02  0.40517973529E+02  0.51100000000E-03 0. -1.
        -11    1    3    3    0    0  0.58880829471E+01 -0.68171673695E+01 -0.34353467473E+01  0.96407934980E+01  0.51100000000E-03 0.  1.
        -12    1    3    3    0    0  0.75281678327E+01 -0.40693038817E+01  0.38919170333E+02  0.39848894143E+02  0.00000000000E+00 0.  1.
</event>
<event>
 7    1  0.2404951E-015  0.9000773E+02  0.7816164E-02  0.1186339E+00
        -11   -1    0    0    0    0  0.00000000000E+00  0.00000000000E+00  0.45593999997E+02  0.45594000000E+02  0.51100000000E-03 0.  1.
         11   -1    0    0    0    0 -0.00000000000E+00 -0.00000000000E+00 -0.45593999997E+02  0.45594000000E+02  0.51100000000E-03 0. -1.
    9900012    2    1    2    0    0  0.82029534679E+00  0.61424020831E+00  0.58553862948E+00  0.90007732668E+02  0.89999993939E+02 0.  0.
         12    1    1    2    0    0 -0.82029534679E+00 -0.61424020831E+00 -0.58553862948E+00  0.11802673325E+01  0.00000000000E+00 0. -1.
         11    1    3    3    0    0 -0.40170388702E+01 -0.14635509874E+02 -0.40088467503E+02  0.42865137088E+02  0.51100000000E-03 0. -1.
        -11    1    3    3    0    0  0.56299228953E+01 -0.14412593909E+01  0.46892917176E+01  0.74674438407E+01  0.51100000000E-03 0.  1.
        -12    1    3    3    0    0 -0.79258867832E+00  0.16691009473E+02  0.35984714415E+02  0.39675151739E+02  0.00000000000E+00 0.  1.
</event>
<event>
 7    1  0.2404951E-015  0.9000778E+02  0.7816164E-02  0.1186339E+00
        -11   -1    0    0    0    0  0.00000000000E+00  0.00000000000E+00  0.45593999997E+02  0.45594000000E+02  0.51100000000E-03 0.  1.
         11   -1    0    0    0    0 -0.00000000000E+00 -0.00000000000E+00 -0.45593999997E+02  0.45594000000E+02  0.51100000000E-03 0. -1.
    9900012    2    1    2    0    0  0.10415714168E+01 -0.48121946131E+00  0.27654796250E+00  0.90007778850E+02  0.90000040731E+02 0.  0.
         12    1    1    2    0    0 -0.10415714168E+01  0.48121946131E+00 -0.27654796250E+00  0.11802211496E+01  0.00000000000E+00 0. -1.
         11    1    3    3    0    0 -0.89647613784E+01 -0.70007866291E+01 -0.12194876111E+01  0.11439628940E+02  0.51100000000E-03 0. -1.
        -11    1    3    3    0    0 -0.32977589712E+02  0.10457669776E+02  0.62051369134E+01  0.35148086786E+02  0.51100000000E-03 0.  1.
         12    1    3    3    0    0  0.42983922507E+02 -0.39381026081E+01 -0.47091013398E+01  0.43420063124E+02  0.00000000000E+00 0. -1.
</event>
<event>
 7    1  0.2404951E-015  0.9000787E+02  0.7816164E-02  0.1186339E+00
        -11   -1    0    0    0    0  0.00000000000E+00  0.00000000000E+00  0.45593999997E+02  0.45594000000E+02  0.51100000000E-03 0. -1.
         11   -1    0    0    0    0 -0.00000000000E+00 -0.00000000000E+00 -0.45593999997E+02  0.45594000000E+02  0.51100000000E-03 0.  1.
    9900012    2    1    2    0    0  0.11436184402E+01  0.14245703525E+00 -0.25407592129E+00  0.90007867924E+02  0.90000130980E+02 0.  0.
         12    1    1    2    0    0 -0.11436184402E+01 -0.14245703525E+00  0.25407592129E+00  0.11801320763E+01  0.00000000000E+00 0. -1.
         11    1    3    3    0    0 -0.23747860677E+01 -0.85738157453E+01 -0.12480814317E+01  0.89837426957E+01  0.51100000000E-03 0. -1.
        -11    1    3    3    0    0  0.36091957168E+02 -0.15176872754E+02  0.81653955580E+01  0.39995506294E+02  0.51100000000E-03 0.  1.
         12    1    3    3    0    0 -0.32573552660E+02  0.23893145534E+02 -0.71713900476E+01  0.41028618934E+02  0.00000000000E+00 0. -1.
</event>
<event>
 7    1  0.2404951E-015  0.9000782E+02  0.7816164E-02  0.1186339E+00
        -11   -1    0    0    0    0  0.00000000000E+00  0.00000000000E+00  0.45593999997E+02  0.45594000000E+02  0.51100000000E-03 0. -1.
         11   -1    0    0    0    0 -0.00000000000E+00 -0.00000000000E+00 -0.45593999997E+02  0.45594000000E+02  0.51100000000E-03 0.  1.
    9900012    2    1    2    0    0 -0.44140683602E+00 -0.27835805054E+00 -0.10585366519E+01  0.90007820758E+02  0.90000083192E+02 0.  0.
         12    1    1    2    0    0  0.44140683602E+00  0.27835805054E+00  0.10585366519E+01  0.11801792418E+01  0.00000000000E+00 0. -1.
         11    1    3    3    0    0  0.53808144393E+01  0.40702514826E+02  0.58882400618E+00  0.41060864472E+02  0.51100000000E-03 0. -1.
        -11    1    3    3    0    0 -0.14838268453E+01 -0.62556034480E+00 -0.77387958437E+01  0.79045574970E+01  0.51100000000E-03 0.  1.
        -12    1    3    3    0    0 -0.43383944301E+01 -0.40355312532E+02  0.60914351856E+01  0.41042398789E+02  0.00000000000E+00 0.  1.
</event>
<event>
 7    1  0.2404951E-015  0.9000768E+02  0.7816164E-02  0.1186339E+00
        -11   -1    0    0    0    0  0.00000000000E+00  0.00000000000E+00  0.45593999997E+02  0.45594000000E+02  0.51100000000E-03 0.  1.
         11   -1    0    0    0    0 -0.00000000000E+00 -0.00000000000E+00 -0.45593999997E+02  0.45594000000E+02  0.51100000000E-03 0. -1.
    9900012    2    1    2    0    0  0.64840438996E+00 -0.46975403682E+00  0.86721292765E+00  0.90007679971E+02  0.89999940547E+02 0.  0.
         12    1    1    2    0    0 -0.64840438996E+00  0.46975403682E+00 -0.86721292765E+00  0.11803200286E+01  0.00000000000E+00 0. -1.
         11    1    3    3    0    0  0.51423445344E+01  0.35657212973E+02 -0.10138973518E+02  0.37425650676E+02  0.51100000000E-03 0. -1.
        -11    1    3    3    0    0 -0.60707383878E+01 -0.45639939311E+01 -0.11502125952E+02  0.13783425077E+02  0.51100000000E-03 0.  1.
        -12    1    3    3    0    0  0.15767982434E+01 -0.31562973078E+02  0.22508312398E+02  0.38798604218E+02  0.00000000000E+00 0.  1.
</event>
<event>
 7    1  0.2404951E-015  0.9000774E+02  0.7816164E-02  0.1186339E+00
        -11   -1    0    0    0    0  0.00000000000E+00  0.00000000000E+00  0.45593999997E+02  0.45594000000E+02  0.51100000000E-03 0.  1.
         11   -1    0    0    0    0 -0.00000000000E+00 -0.00000000000E+00 -0.45593999997E+02  0.45594000000E+02  0.51100000000E-03 0. -1.
    9900012    2    1    2    0    0 -0.64438073679E+00  0.59487884484E+00  0.78987240228E+00  0.90007743339E+02  0.90000004751E+02 0.  0.
         12    1    1    2    0    0  0.64438073679E+00 -0.59487884484E+00 -0.78987240228E+00  0.11802566610E+01  0.00000000000E+00 0. -1.
         11    1    3    3    0    0  0.11006153414E+02  0.23179601352E+01 -0.37911023373E+02  0.39544330132E+02  0.51100000000E-03 0. -1.
        -11    1    3    3    0    0  0.63037286316E+01  0.79922291681E+01  0.57209300835E+01  0.11676547564E+02  0.51100000000E-03 0.  1.
        -12    1    3    3    0    0 -0.17954262783E+02 -0.97153104584E+01  0.32979965691E+02  0.38786865643E+02  0.00000000000E+00 0.  1.
</event>
<event>
 7    1  0.2404951E-015  0.9000784E+02  0.7816164E-02  0.1186339E+00
        -11   -1    0    0    0    0  0.00000000000E+00  0.00000000000E+00  0.45593999997E+02  0.45594000000E+02  0.51100000000E-03 0. -1.
         11   -1    0    0    0    0 -0.00000000000E+00 -0.00000000000E+00 -0.45593999997E+02  0.45594000000E+02  0.51100000000E-03 0.  1.
    9900012    2    1    2    0    0 -0.71621581126E+00  0.33702006161E+00 -0.87534872065E+00  0.90007837726E+02  0.90000100384E+02 0.  0.
         12    1    1    2    0    0  0.71621581126E+00 -0.33702006161E+00  0.87534872065E+00  0.11801622740E+01  0.00000000000E+00 0. -1.
         11    1    3    3    0    0  0.43168574143E+01  0.32110266233E+00  0.81058813330E+01  0.91893240938E+01  0.51100000000E-03 0. -1.
        -11    1    3    3    0    0 -0.35139205506E+01 -0.39272579951E+02 -0.12448956512E+02  0.41348031298E+02  0.51100000000E-03 0.  1.
         12    1    3    3    0    0 -0.15191526750E+01  0.39288497351E+02  0.34677264588E+01  0.39470482335E+02  0.00000000000E+00 0. -1.
</event>
<event>
 7    1  0.2404951E-015  0.9000771E+02  0.7816164E-02  0.1186339E+00
        -11   -1    0    0    0    0  0.00000000000E+00  0.00000000000E+00  0.45593999997E+02  0.45594000000E+02  0.51100000000E-03 0. -1.
         11   -1    0    0    0    0 -0.00000000000E+00 -0.00000000000E+00 -0.45593999997E+02  0.45594000000E+02  0.51100000000E-03 0.  1.
    9900012    2    1    2    0    0  0.16896445329E+00 -0.11546123999E+01  0.17721409024E+00  0.90007710368E+02  0.89999971345E+02 0.  0.
         12    1    1    2    0    0 -0.16896445329E+00  0.11546123999E+01 -0.17721409024E+00  0.11802896316E+01  0.00000000000E+00 0. -1.
         11    1    3    3    0    0 -0.65768323522E+01  0.51402007382E+01  0.45977270349E+01  0.95297157128E+01  0.51100000000E-03 0. -1.
        -11    1    3    3    0    0  0.33486419478E+02  0.20820178171E+02 -0.12852749546E+02  0.41473042807E+02  0.51100000000E-03 0.  1.
         12    1    3    3    0    0 -0.26740622673E+02 -0.27114991309E+02  0.84322366011E+01  0.39004951848E+02  0.00000000000E+00 0. -1.
</event>
<event>
 7    1  0.4506397E-015  0.9000776E+02  0.7816164E-02  0.1186339E+00
        -11   -1    0    0    0    0  0.00000000000E+00  0.00000000000E+00  0.45593999997E+02  0.45594000000E+02  0.51100000000E-03 0.  1.
         11   -1    0    0    0    0 -0.00000000000E+00 -0.00000000000E+00 -0.45593999997E+02  0.45594000000E+02  0.51100000000E-03 0. -1.
    9900012    2    1    2    0    0  0.70855683664E-01  0.11561964761E+01  0.22618384751E+00  0.90007758520E+02  0.90000020132E+02 0.  0.
         12    1    1    2    0    0 -0.70855683664E-01 -0.11561964761E+01 -0.22618384751E+00  0.11802414804E+01  0.00000000000E+00 0. -1.
         11    1    3    3    0    0 -0.12932745261E+02  0.28321570295E+01 -0.36987753540E+02  0.39285759833E+02  0.51100000000E-03 0. -1.
        -11    1    3    3    0    0  0.38990959384E+01  0.87244099551E+01 -0.14464412353E+01  0.96649092448E+01  0.51100000000E-03 0.  1.
        -12    1    3    3    0    0  0.91045050066E+01 -0.10400370509E+02  0.38660378623E+02  0.41057089442E+02  0.00000000000E+00 0.  1.
</event>
<event>
 7    1  0.2404951E-015  0.9000755E+02  0.7816164E-02  0.1186339E+00
        -11   -1    0    0    0    0  0.00000000000E+00  0.00000000000E+00  0.45593999997E+02  0.45594000000E+02  0.51100000000E-03 0. -1.
         11   -1    0    0    0    0 -0.00000000000E+00 -0.00000000000E+00 -0.45593999997E+02  0.45594000000E+02  0.51100000000E-03 0.  1.
    9900012    2    1    2    0    0 -0.93642056935E-01  0.38320521399E-01 -0.11761093091E+01  0.90007546526E+02  0.89999805340E+02 0.  0.
         12    1    1    2    0    0  0.93642056935E-01 -0.38320521399E-01  0.11761093091E+01  0.11804534739E+01  0.00000000000E+00 0. -1.
         11    1    3    3    0    0  0.33087261754E+02 -0.11354304153E+02  0.58867792270E+01  0.35473106477E+02  0.51100000000E-03 0. -1.
        -11    1    3    3    0    0  0.75246475069E+01  0.21001466916E+01  0.69872722069E+01  0.10481073866E+02  0.51100000000E-03 0.  1.
        -12    1    3    3    0    0 -0.40705551318E+02  0.92924779831E+01 -0.14050160743E+02  0.44053366183E+02  0.00000000000E+00 0.  1.
</event>
<event>
 7    1  0.2404951E-015  0.9000748E+02  0.7816164E-02  0.1186340E+00
        -11   -1    0    0    0    0  0.00000000000E+00  0.00000000000E+00  0.45593999997E+02  0.45594000000E+02  0.51100000000E-03 0.  1.
         11   -1    0    0    0    0 -0.00000000000E+00 -0.00000000000E+00 -0.45593999997E+02  0.45594000000E+02  0.51100000000E-03 0. -1.
    9900012    2    1    2    0    0  0.94213287614E+00 -0.68962266893E+00 -0.17447065133E+00  0.90007477323E+02  0.89999735224E+02 0.  0.
         12    1    1    2    0    0 -0.94213287614E+00  0.68962266893E+00  0.17447065133E+00  0.11805226766E+01  0.00000000000E+00 0. -1.
         11    1    3    3    0    0  0.36923872697E+02 -0.35221849678E+01 -0.10894793816E+02  0.38658436264E+02  0.51100000000E-03 0. -1.
        -11    1    3    3    0    0  0.30894481095E+01 -0.73938812579E+01  0.72611767137E+01  0.10813827130E+02  0.51100000000E-03 0.  1.
        -12    1    3    3    0    0 -0.39071187930E+02  0.10226443557E+02  0.34591464506E+01  0.40535213929E+02  0.00000000000E+00 0.  1.
</event>
<event>
 7    1  0.2404951E-015  0.9000775E+02  0.7816164E-02  0.1186339E+00
        -11   -1    0    0    0    0  0.00000000000E+00  0.00000000000E+00  0.45593999997E+02  0.45594000000E+02  0.51100000000E-03 0. -1.
         11   -1    0    0    0    0 -0.00000000000E+00 -0.00000000000E+00 -0.45593999997E+02  0.45594000000E+02  0.51100000000E-03 0.  1.
    9900012    2    1    2    0    0  0.63206523144E+00 -0.95637320433E+00  0.28078616667E+00  0.90007747047E+02  0.90000008508E+02 0.  0.
         12    1    1    2    0    0 -0.63206523144E+00  0.95637320433E+00 -0.28078616667E+00  0.11802529535E+01  0.00000000000E+00 0. -1.
         11    1    3    3    0    0  0.76524105326E+01 -0.32462364612E+02  0.27774413821E+02  0.43402564055E+02  0.51100000000E-03 0. -1.
        -11    1    3    3    0    0  0.14295138951E+01  0.73489240109E+00  0.23943850479E+01  0.28838614454E+01  0.51100000000E-03 0.  1.
        -12    1    3    3    0    0 -0.84498591963E+01  0.30771099006E+02 -0.29888012702E+02  0.43721321547E+02  0.00000000000E+00 0.  1.
</event>
<event>
 7    1  0.2404951E-015  0.9000773E+02  0.7816164E-02  0.1186339E+00
        -11   -1    0    0    0    0  0.00000000000E+00  0.00000000000E+00  0.45593999997E+02  0.45594000000E+02  0.51100000000E-03 0.  1.
         11   -1    0    0    0    0 -0.00000000000E+00 -0.00000000000E+00 -0.45593999997E+02  0.45594000000E+02  0.51100000000E-03 0. -1.
    9900012    2    1    2    0    0  0.86006943456E+00 -0.70364926498E-01  0.80520691120E+00  0.90007733579E+02  0.89999994862E+02 0.  0.
         12    1    1    2    0    0 -0.86006943456E+00  0.70364926498E-01 -0.80520691120E+00  0.11802664212E+01  0.00000000000E+00 0. -1.
         11    1    3    3    0    0 -0.10045638001E+02 -0.77581634087E+01  0.14815418392E+02  0.19508986768E+02  0.51100000000E-03 0. -1.
        -11    1    3    3    0    0 -0.20052597926E+02  0.24754544307E+02  0.15049017093E+01  0.31892928321E+02  0.51100000000E-03 0.  1.
         12    1    3    3    0    0  0.30958305362E+02 -0.17066745825E+02 -0.15515113190E+02  0.38605818490E+02  0.00000000000E+00 0. -1.
</event>
<event>
 7    1  0.2404951E-015  0.9000790E+02  0.7816164E-02  0.1186339E+00
        -11   -1    0    0    0    0  0.00000000000E+00  0.00000000000E+00  0.45593999997E+02  0.45594000000E+02  0.51100000000E-03 0.  1.
         11   -1    0    0    0    0 -0.00000000000E+00 -0.00000000000E+00 -0.45593999997E+02  0.45594000000E+02  0.51100000000E-03 0. -1.
    9900012    2    1    2    0    0 -0.32325725002E+00 -0.87451483559E+00  0.72344612448E+00  0.90007895876E+02  0.90000159302E+02 0.  0.
         12    1    1    2    0    0  0.32325725002E+00  0.87451483559E+00 -0.72344612448E+00  0.11801041235E+01  0.00000000000E+00 0. -1.
         11    1    3    3    0    0  0.35010147172E+02 -0.52603577643E+01 -0.16412692593E+02  0.39022535120E+02  0.51100000000E-03 0. -1.
        -11    1    3    3    0    0  0.27897945631E+01 -0.74305356855E+01  0.44814064174E+01  0.91147582534E+01  0.51100000000E-03 0.  1.
        -12    1    3    3    0    0 -0.38123198985E+02  0.11816378614E+02  0.12654732300E+02  0.41870602503E+02  0.00000000000E+00 0.  1.
</event>
<event>
 7    1  0.2404951E-015  0.9000775E+02  0.7816164E-02  0.1186339E+00
        -11   -1    0    0    0    0  0.00000000000E+00  0.00000000000E+00  0.45593999997E+02  0.45594000000E+02  0.51100000000E-03 0.  1.
         11   -1    0    0    0    0 -0.00000000000E+00 -0.00000000000E+00 -0.45593999997E+02  0.45594000000E+02  0.51100000000E-03 0. -1.
    9900012    2    1    2    0    0 -0.17412398113E+00  0.27311445488E+00  0.11349376205E+01  0.90007748303E+02  0.90000009780E+02 0.  0.
         12    1    1    2    0    0  0.17412398113E+00 -0.27311445488E+00 -0.11349376205E+01  0.11802516972E+01  0.00000000000E+00 0. -1.
         11    1    3    3    0    0 -0.16006838818E+01  0.12109311514E+02 -0.80796574353E+01  0.14645083775E+02  0.51100000000E-03 0. -1.
        -11    1    3    3    0    0  0.20329792525E+02  0.24599851086E+02 -0.41776023353E+01  0.32185485845E+02  0.51100000000E-03 0.  1.
         12    1    3    3    0    0 -0.18903232624E+02 -0.36436048145E+02  0.13392197391E+02  0.43177178683E+02  0.00000000000E+00 0. -1.
</event>
<event>
 7    1  0.2404951E-015  0.9000766E+02  0.7816164E-02  0.1186339E+00
        -11   -1    0    0    0    0  0.00000000000E+00  0.00000000000E+00  0.45593999997E+02  0.45594000000E+02  0.51100000000E-03 0. -1.
         11   -1    0    0    0    0 -0.00000000000E+00 -0.00000000000E+00 -0.45593999997E+02  0.45594000000E+02  0.51100000000E-03 0.  1.
    9900012    2    1    2    0    0  0.68838825167E+00  0.34488127916E-01 -0.95819397812E+00  0.90007659576E+02  0.89999919883E+02 0.  0.
         12    1    1    2    0    0 -0.68838825167E+00 -0.34488127916E-01  0.95819397812E+00  0.11803404237E+01  0.00000000000E+00 0. -1.
         11    1    3    3    0    0 -0.12778193987E+02 -0.32263998970E+02  0.30673284121E+01  0.34837571312E+02  0.51100000000E-03 0. -1.
        -11    1    3    3    0    0 -0.68248128918E+01 -0.75383366397E+01  0.81724593112E+00  0.10201592105E+02  0.51100000000E-03 0.  1.
        -12    1    3    3    0    0  0.20291395130E+02  0.39836823737E+02 -0.48427683213E+01  0.44968496159E+02  0.00000000000E+00 0.  1.
</event>
<event>
 7    1  0.2404951E-015  0.9000736E+02  0.7816164E-02  0.1186340E+00
        -11   -1    0    0    0    0  0.00000000000E+00  0.00000000000E+00  0.45593999997E+02  0.45594000000E+02  0.51100000000E-03 0.  1.
         11   -1    0    0    0    0 -0.00000000000E+00 -0.00000000000E+00 -0.45593999997E+02  0.45594000000E+02  0.51100000000E-03 0. -1.
    9900012    2    1    2    0    0  0.86794477121E+00 -0.44953739481E+00  0.66219429791E+00  0.90007358952E+02  0.89999615290E+02 0.  0.
         12    1    1    2    0    0 -0.86794477121E+00  0.44953739481E+00 -0.66219429791E+00  0.11806410477E+01  0.00000000000E+00 0. -1.
         11    1    3    3    0    0 -0.52240196607E+01 -0.34079567686E+01  0.70201022947E+01  0.93907607382E+01  0.51100000000E-03 0. -1.
        -11    1    3    3    0    0 -0.16316000027E+02  0.25399622447E+02  0.22569014043E+02  0.37692347664E+02  0.51100000000E-03 0.  1.
         12    1    3    3    0    0  0.22407964459E+02 -0.22441203073E+02 -0.28926922040E+02  0.42924250550E+02  0.00000000000E+00 0. -1.
</event>
<event>
 7    1  0.2404951E-015  0.9000773E+02  0.7816164E-02  0.1186339E+00
        -11   -1    0    0    0    0  0.00000000000E+00  0.00000000000E+00  0.45593999997E+02  0.45594000000E+02  0.51100000000E-03 0.  1.
         11   -1    0    0    0    0 -0.00000000000E+00 -0.00000000000E+00 -0.45593999997E+02  0.45594000000E+02  0.51100000000E-03 0. -1.
    9900012    2    1    2    0    0 -0.30454078620E+00  0.11346910918E+01 -0.11301890162E+00  0.90007727897E+02  0.89999989106E+02 0.  0.
         12    1    1    2    0    0  0.30454078620E+00 -0.11346910918E+01  0.11301890162E+00  0.11802721027E+01  0.00000000000E+00 0. -1.
         11    1    3    3    0    0  0.85068494260E+01 -0.32887776417E+00 -0.10798967248E+01  0.85814232466E+01  0.51100000000E-03 0. -1.
        -11    1    3    3    0    0  0.35274506776E+02 -0.69648193099E+01 -0.43937416833E+01  0.36222983071E+02  0.51100000000E-03 0.  1.
         12    1    3    3    0    0 -0.44085896988E+02  0.84283881658E+01  0.53606195064E+01  0.45203321580E+02  0.00000000000E+00 0. -1.
</event>
<event>
 7    1  0.2404951E-015  0.9000790E+02  0.7816164E-02  0.1186339E+00
        -11   -1    0    0    0    0  0.00000000000E+00  0.00000000000E+00  0.45593999997E+02  0.45594000000E+02  0.51100000000E-03 0. -1.
         11   -1    0    0    0    0 -0.00000000000E+00 -0.00000000000E+00 -0.45593999997E+02  0.45594000000E+02  0.51100000000E-03 0.  1.
    9900012    2    1    2    0    0 -0.10748026482E+01 -0.40248881026E+00 -0.27466753457E+00  0.90007898212E+02  0.90000161668E+02 0.  0.
         12    1    1    2    0    0  0.10748026482E+01  0.40248881026E+00  0.27466753457E+00  0.11801017878E+01  0.00000000000E+00 0. -1.
         11    1    3    3    0    0 -0.16688624917E+01 -0.65293746316E+01 -0.66745815988E+01  0.94851396867E+01  0.51100000000E-03 0. -1.
        -11    1    3    3    0    0 -0.25914358096E+01 -0.21426451035E+02 -0.28622215586E+02  0.35847448568E+02  0.51100000000E-03 0.  1.
         12    1    3    3    0    0  0.31854956531E+01  0.27553336857E+02  0.35022129651E+02  0.44675309957E+02  0.00000000000E+00 0. -1.
</event>
<event>
 7    1  0.2661517E-015  0.9000772E+02  0.7816164E-02  0.1186339E+00
        -11   -1    0    0    0    0  0.00000000000E+00  0.00000000000E+00  0.45593999997E+02  0.45594000000E+02  0.51100000000E-03 0. -1.
         11   -1    0    0    0    0 -0.00000000000E+00 -0.00000000000E+00 -0.45593999997E+02  0.45594000000E+02  0.51100000000E-03 0.  1.
    9900012    2    1    2    0    0 -0.83149067055E+00  0.78824110659E+00  0.28348685802E+00  0.90007718010E+02  0.89999979088E+02 0.  0.
         12    1    1    2    0    0  0.83149067055E+00 -0.78824110659E+00 -0.28348685802E+00  0.11802819900E+01  0.00000000000E+00 0. -1.
         11    1    3    3    0    0  0.36499130296E+02 -0.44015044034E+01  0.15515707721E+02  0.39903595574E+02  0.51100000000E-03 0. -1.
        -11    1    3    3    0    0  0.12232854104E+01 -0.52818613954E+01 -0.77509979151E+01  0.94589881032E+01  0.51100000000E-03 0.  1.
        -12    1    3    3    0    0 -0.38553906377E+02  0.10471606905E+02 -0.74812229481E+01  0.40645134333E+02  0.00000000000E+00 0.  1.
</event>
<event>
 7    1  0.2404951E-015  0.9000779E+02  0.7816164E-02  0.1186339E+00
        -11   -1    0    0    0    0  0.00000000000E+00  0.00000000000E+00  0.45593999997E+02  0.45594000000E+02  0.51100000000E-03 0. -1.
         11   -1    0    0    0    0 -0.00000000000E+00 -0.00000000000E+00 -0.45593999997E+02  0.45594000000E+02  0.51100000000E-03 0.  1.
    9900012    2    1    2    0    0 -0.78173283553E+00  0.88394486316E+00 -0.20885878181E-01  0.90007787745E+02  0.90000049743E+02 0.  0.
         12    1    1    2    0    0  0.78173283553E+00 -0.88394486316E+00  0.20885878181E-01  0.11802122551E+01  0.00000000000E+00 0. -1.
         11    1    3    3    0    0 -0.33944163616E+02 -0.94877422904E+00 -0.13514280560E+02  0.36547806986E+02  0.51100000000E-03 0. -1.
        -11    1    3    3    0    0  0.36259142823E+01  0.17691342963E+02  0.66460512062E+01  0.19243203141E+02  0.51100000000E-03 0.  1.
        -12    1    3    3    0    0  0.29536516498E+02 -0.15858623871E+02  0.68473434756E+01  0.34216777619E+02  0.00000000000E+00 0.  1.
</event>
<event>
 7    1  0.2404951E-015  0.9000777E+02  0.7816164E-02  0.1186339E+00
        -11   -1    0    0    0    0  0.00000000000E+00  0.00000000000E+00  0.45593999997E+02  0.45594000000E+02  0.51100000000E-03 0.  1.
         11   -1    0    0    0    0 -0.00000000000E+00 -0.00000000000E+00 -0.45593999997E+02  0.45594000000E+02  0.51100000000E-03 0. -1.
    9900012    2    1    2    0    0  0.96114448027E+00  0.46586712284E+00 -0.50210718409E+00  0.90007770144E+02  0.90000031910E+02 0.  0.
         12    1    1    2    0    0 -0.96114448027E+00 -0.46586712284E+00  0.50210718409E+00  0.11802298558E+01  0.00000000000E+00 0. -1.
         11    1    3    3    0    0 -0.19605232505E+02  0.31047334864E+02 -0.18479333359E+02  0.41107029879E+02  0.51100000000E-03 0. -1.
        -11    1    3    3    0    0  0.87685436510E+01 -0.55296350689E+01 -0.62522889838E+01  0.12106004277E+02  0.51100000000E-03 0.  1.
        -12    1    3    3    0    0  0.11797833335E+02 -0.25051832673E+02  0.24229515159E+02  0.36794735989E+02  0.00000000000E+00 0.  1.
</event>
<event>
 7    1  0.2404951E-015  0.9000783E+02  0.7816164E-02  0.1186339E+00
        -11   -1    0    0    0    0  0.00000000000E+00  0.00000000000E+00  0.45593999997E+02  0.45594000000E+02  0.51100000000E-03 0.  1.
         11   -1    0    0    0    0 -0.00000000000E+00 -0.00000000000E+00 -0.45593999997E+02  0.45594000000E+02  0.51100000000E-03 0. -1.
    9900012    2    1    2    0    0 -0.60019130534E+00  0.35736323367E+00  0.95124715398E+00  0.90007826609E+02  0.90000089121E+02 0.  0.
         12    1    1    2    0    0  0.60019130534E+00 -0.35736323367E+00 -0.95124715398E+00  0.11801733905E+01  0.00000000000E+00 0. -1.
         11    1    3    3    0    0  0.18220226164E+02 -0.36208845382E+02 -0.16681073280E+02  0.43832811128E+02  0.51100000000E-03 0. -1.
        -11    1    3    3    0    0 -0.87099461681E+00  0.86309743631E+01  0.21065495602E+00  0.86773686017E+01  0.51100000000E-03 0.  1.
        -12    1    3    3    0    0 -0.17949422852E+02  0.27935234253E+02  0.17421665478E+02  0.37497646880E+02  0.00000000000E+00 0.  1.
</event>
<event>
 7    1  0.2404951E-015  0.9000757E+02  0.7816164E-02  0.1186339E+00
        -11   -1    0    0    0    0  0.00000000000E+00  0.00000000000E+00  0.45593999997E+02  0.45594000000E+02  0.51100000000E-03 0.  1.
         11   -1    0    0    0    0 -0.00000000000E+00 -0.00000000000E+00 -0.45593999997E+02  0.45594000000E+02  0.51100000000E-03 0. -1.
    9900012    2    1    2    0    0  0.55834683764E+00  0.70307316688E+00  0.76639453512E+00  0.90007566329E+02  0.89999825404E+02 0.  0.
         12    1    1    2    0    0 -0.55834683764E+00 -0.70307316688E+00 -0.76639453512E+00  0.11804336714E+01  0.00000000000E+00 0. -1.
         11    1    3    3    0    0  0.10346541782E+01 -0.36452725377E+02 -0.16880563379E+02  0.40184886673E+02  0.51100000000E-03 0. -1.
        -11    1    3    3    0    0  0.69630586090E+01 -0.14691512951E+01  0.13390676332E+01  0.72412494162E+01  0.51100000000E-03 0.  1.
        -12    1    3    3    0    0 -0.74393659496E+01  0.38624949839E+02  0.16307890281E+02  0.42581430239E+02  0.00000000000E+00 0.  1.
</event>
<event>
 7    1  0.2404951E-015  0.9000778E+02  0.7816164E-02  0.1186339E+00
        -11   -1    0    0    0    0  0.00000000000E+00  0.00000000000E+00  0.45593999997E+02  0.45594000000E+02  0.51100000000E-03 0. -1.
         11   -1    0    0    0    0 -0.00000000000E+00 -0.00000000000E+00 -0.45593999997E+02  0.45594000000E+02  0.51100000000E-03 0.  1.
    9900012    2    1    2    0    0 -0.75135920107E+00  0.43212331629E+00 -0.80103301492E+00  0.90007777521E+02  0.90000039384E+02 0.  0.
         12    1    1    2    0    0  0.75135920107E+00 -0.43212331629E+00  0.80103301492E+00  0.11802224792E+01  0.00000000000E+00 0. -1.
         11    1    3    3    0    0 -0.30832561518E+00 -0.81886851778E+01 -0.28837205155E+01  0.86870866174E+01  0.51100000000E-03 0. -1.
        -11    1    3    3    0    0 -0.16386908290E+02 -0.11436204762E+02 -0.32577692509E+02  0.38218105554E+02  0.51100000000E-03 0.  1.
         12    1    3    3    0    0  0.15943874704E+02  0.20057013256E+02  0.34660380010E+02  0.43102585349E+02  0.00000000000E+00 0. -1.
</event>
<event>
 7    1  0.2404951E-015  0.9000781E+02  0.7816164E-02  0.1186339E+00
        -11   -1    0    0    0    0  0.00000000000E+00  0.00000000000E+00  0.45593999997E+02  0.45594000000E+02  0.51100000000E-03 0.  1.
         11   -1    0    0    0    0 -0.00000000000E+00 -0.00000000000E+00 -0.45593999997E+02  0.45594000000E+02  0.51100000000E-03 0. -1.
    9900012    2    1    2    0    0 -0.18314621787E+00 -0.10759790502E+01  0.44898269457E+00  0.90007805561E+02  0.90000067795E+02 0.  0.
         12    1    1    2    0    0  0.18314621787E+00  0.10759790502E+01 -0.44898269457E+00  0.11801944389E+01  0.00000000000E+00 0. -1.
         11    1    3    3    0    0 -0.31461706918E+02  0.16382342586E+02 -0.13139061868E+02  0.37826645342E+02  0.51100000000E-03 0. -1.
        -11    1    3    3    0    0 -0.20563380162E+01  0.42713311144E+01 -0.61482809482E+01  0.77636431142E+01  0.51100000000E-03 0.  1.
        -12    1    3    3    0    0  0.33334898716E+02 -0.21729652751E+02  0.19736325511E+02  0.44417517105E+02  0.00000000000E+00 0.  1.
</event>
<event>
 7    1  0.2404951E-015  0.9000774E+02  0.7816164E-02  0.1186339E+00
        -11   -1    0    0    0    0  0.00000000000E+00  0.00000000000E+00  0.45593999997E+02  0.45594000000E+02  0.51100000000E-03 0. -1.
         11   -1    0    0    0    0 -0.00000000000E+00 -0.00000000000E+00 -0.45593999997E+02  0.45594000000E+02  0.51100000000E-03 0.  1.
    9900012    2    1    2    0    0 -0.74352075317E+00 -0.90863118836E+00 -0.12076796040E+00  0.90007737891E+02  0.89999999231E+02 0.  0.
         12    1    1    2    0    0  0.74352075317E+00  0.90863118836E+00  0.12076796040E+00  0.11802621095E+01  0.00000000000E+00 0. -1.
         11    1    3    3    0    0  0.12447266971E+02 -0.10933201933E+02  0.31797157748E+02  0.35854268932E+02  0.51100000000E-03 0. -1.
        -11    1    3    3    0    0  0.30339086848E+01 -0.10392490306E+01  0.85721575007E+01  0.91524054179E+01  0.51100000000E-03 0.  1.
        -12    1    3    3    0    0 -0.16224696409E+02  0.11063819775E+02 -0.40490083209E+02  0.45001063541E+02  0.00000000000E+00 0.  1.
</event>
<event>
 7    1  0.2404951E-015  0.9000772E+02  0.7816164E-02  0.1186339E+00
        -11   -1    0    0    0    0  0.00000000000E+00  0.00000000000E+00  0.45593999997E+02  0.45594000000E+02  0.51100000000E-03 0.  1.
         11   -1    0    0    0    0 -0.00000000000E+00 -0.00000000000E+00 -0.45593999997E+02  0.45594000000E+02  0.51100000000E-03 0. -1.
    9900012    2    1    2    0    0 -0.73416536479E+00  0.57872778429E+00 -0.72050698759E+00  0.90007722511E+02  0.89999983648E+02 0.  0.
         12    1    1    2    0    0  0.73416536479E+00 -0.57872778429E+00  0.72050698759E+00  0.11802774887E+01  0.00000000000E+00 0. -1.
         11    1    3    3    0    0 -0.85803472644E+01  0.41853855137E+02 -0.43657789803E+01  0.42946799361E+02  0.51100000000E-03 0. -1.
        -11    1    3    3    0    0 -0.63993635798E+01 -0.65327619891E+01 -0.11079000909E+01  0.92117466479E+01  0.51100000000E-03 0.  1.
        -12    1    3    3    0    0  0.14245545479E+02 -0.34742365363E+02  0.47531720836E+01  0.37849176502E+02  0.00000000000E+00 0.  1.
</event>
<event>
 7    1  0.2404951E-015  0.9000769E+02  0.7816164E-02  0.1186339E+00
        -11   -1    0    0    0    0  0.00000000000E+00  0.00000000000E+00  0.45593999997E+02  0.45594000000E+02  0.51100000000E-03 0. -1.
         11   -1    0    0    0    0 -0.00000000000E+00 -0.00000000000E+00 -0.45593999997E+02  0.45594000000E+02  0.51100000000E-03 0.  1.
    9900012    2    1    2    0    0 -0.41310722548E+00 -0.10314157149E+01 -0.39831630390E+00  0.90007689941E+02  0.89999950649E+02 0.  0.
         12    1    1    2    0    0  0.41310722548E+00  0.10314157149E+01  0.39831630390E+00  0.11803100587E+01  0.00000000000E+00 0. -1.
         11    1    3    3    0    0  0.67710160108E+01  0.82886645860E+01 -0.28441185297E+00  0.10706517118E+02  0.51100000000E-03 0. -1.
        -11    1    3    3    0    0  0.85312373829E+01  0.16414089751E+02 -0.31023364320E+02  0.36119987371E+02  0.51100000000E-03 0.  1.
         12    1    3    3    0    0 -0.15715360619E+02 -0.25734170052E+02  0.30909459869E+02  0.43181185453E+02  0.00000000000E+00 0. -1.
</event>
<event>
 7    1  0.2404951E-015  0.9000777E+02  0.7816164E-02  0.1186339E+00
        -11   -1    0    0    0    0  0.00000000000E+00  0.00000000000E+00  0.45593999997E+02  0.45594000000E+02  0.51100000000E-03 0. -1.
         11   -1    0    0    0    0 -0.00000000000E+00 -0.00000000000E+00 -0.45593999997E+02  0.45594000000E+02  0.51100000000E-03 0.  1.
    9900012    2    1    2    0    0 -0.27121437435E+00  0.34336713016E+00 -0.10961228382E+01  0.90007769726E+02  0.90000031487E+02 0.  0.
         12    1    1    2    0    0  0.27121437435E+00 -0.34336713016E+00  0.10961228382E+01  0.11802302738E+01  0.00000000000E+00 0. -1.
         11    1    3    3    0    0  0.13577115447E+01  0.98318323758E+00 -0.71956769835E+01  0.73883555294E+01  0.51100000000E-03 0. -1.
        -11    1    3    3    0    0  0.23643418169E+02 -0.33276615523E+02 -0.46148477519E+00  0.40823489952E+02  0.51100000000E-03 0.  1.
         12    1    3    3    0    0 -0.25272344088E+02  0.32636799416E+02  0.65610389205E+01  0.41795924245E+02  0.00000000000E+00 0. -1.
</event>
<event>
 7    1  0.2404951E-015  0.9000789E+02  0.7816164E-02  0.1186339E+00
        -11   -1    0    0    0    0  0.00000000000E+00  0.00000000000E+00  0.45593999997E+02  0.45594000000E+02  0.51100000000E-03 0.  1.
         11   -1    0    0    0    0 -0.00000000000E+00 -0.00000000000E+00 -0.45593999997E+02  0.45594000000E+02  0.51100000000E-03 0. -1.
    9900012    2    1    2    0    0 -0.86415236126E+00 -0.67046118291E+00 -0.44314920736E+00  0.90007890377E+02  0.90000153730E+02 0.  0.
         12    1    1    2    0    0  0.86415236126E+00  0.67046118291E+00  0.44314920736E+00  0.11801096226E+01  0.00000000000E+00 0. -1.
         11    1    3    3    0    0  0.82395739989E+01  0.31324725529E+02 -0.25036594429E+02  0.40938491301E+02  0.51100000000E-03 0. -1.
        -11    1    3    3    0    0  0.47391906690E+01  0.19748662940E+01  0.61502977762E+01  0.80116283035E+01  0.51100000000E-03 0.  1.
        -12    1    3    3    0    0 -0.13842917029E+02 -0.33970053006E+02  0.18443147446E+02  0.41057770773E+02  0.00000000000E+00 0.  1.
</event>
<event>
 7    1  0.2643954E-015  0.9000776E+02  0.7816164E-02  0.1186339E+00
        -11   -1    0    0    0    0  0.00000000000E+00  0.00000000000E+00  0.45593999997E+02  0.45594000000E+02  0.51100000000E-03 0.  1.
         11   -1    0    0    0    0 -0.00000000000E+00 -0.00000000000E+00 -0.45593999997E+02  0.45594000000E+02  0.51100000000E-03 0. -1.
    9900012    2    1    2    0    0  0.29562037555E+00 -0.10893534733E+01  0.34478309418E+00  0.90007763677E+02  0.90000025357E+02 0.  0.
         12    1    1    2    0    0 -0.29562037555E+00  0.10893534733E+01 -0.34478309418E+00  0.11802363230E+01  0.00000000000E+00 0. -1.
         11    1    3    3    0    0  0.43657390876E+01 -0.33149117271E+02 -0.15113154785E+02  0.36692384788E+02  0.51100000000E-03 0. -1.
        -11    1    3    3    0    0 -0.19117339844E+01 -0.42589575561E+01 -0.85387349968E+01  0.97315693441E+01  0.51100000000E-03 0.  1.
        -12    1    3    3    0    0 -0.21583847277E+01  0.36318721353E+02  0.23996672876E+02  0.43583809545E+02  0.00000000000E+00 0.  1.
</event>
<event>
 7    1  0.2404951E-015  0.9000773E+02  0.7816164E-02  0.1186339E+00
        -11   -1    0    0    0    0  0.00000000000E+00  0.00000000000E+00  0.45593999997E+02  0.45594000000E+02  0.51100000000E-03 0. -1.
         11   -1    0    0    0    0 -0.00000000000E+00 -0.00000000000E+00 -0.45593999997E+02  0.45594000000E+02  0.51100000000E-03 0.  1.
    9900012    2    1    2    0    0  0.32506034109E-01  0.77943577083E+00 -0.88569748656E+00  0.90007730200E+02  0.89999991439E+02 0.  0.
         12    1    1    2    0    0 -0.32506034109E-01 -0.77943577083E+00  0.88569748656E+00  0.11802698000E+01  0.00000000000E+00 0. -1.
         11    1    3    3    0    0 -0.75217121183E+01 -0.61532405304E+01 -0.27425024660E+01  0.10097516638E+02  0.51100000000E-03 0. -1.
        -11    1    3    3    0    0 -0.20877665281E+02 -0.18353937146E+02 -0.21606498988E+02  0.35207736581E+02  0.51100000000E-03 0.  1.
         12    1    3    3    0    0  0.28431883434E+02  0.25286613447E+02  0.23463303968E+02  0.44702476981E+02  0.00000000000E+00 0. -1.
</event>
<event>
 7    1  0.2404951E-015  0.9000772E+02  0.7816164E-02  0.1186339E+00
        -11   -1    0    0    0    0  0.00000000000E+00  0.00000000000E+00  0.45593999997E+02  0.45594000000E+02  0.51100000000E-03 0.  1.
         11   -1    0    0    0    0 -0.00000000000E+00 -0.00000000000E+00 -0.45593999997E+02  0.45594000000E+02  0.51100000000E-03 0. -1.
    9900012    2    1    2    0    0  0.32743355759E+00 -0.10258628203E+01  0.48317759059E+00  0.90007717049E+02  0.89999978114E+02 0.  0.
         12    1    1    2    0    0 -0.32743355759E+00  0.10258628203E+01 -0.48317759059E+00  0.11802829511E+01  0.00000000000E+00 0. -1.
         11    1    3    3    0    0 -0.19385679303E+02 -0.23302211788E+02 -0.13016837063E+02  0.32988417416E+02  0.51100000000E-03 0. -1.
        -11    1    3    3    0    0  0.18380802549E+01 -0.55108724187E+01 -0.13276163827E+02  0.14491541673E+02  0.51100000000E-03 0.  1.
        -12    1    3    3    0    0  0.17875032606E+02  0.27787221386E+02  0.26776178481E+02  0.42527757959E+02  0.00000000000E+00 0.  1.
</event>
<event>
 7    1  0.2404951E-015  0.9000750E+02  0.7816164E-02  0.1186340E+00
        -11   -1    0    0    0    0  0.00000000000E+00  0.00000000000E+00  0.45593999997E+02  0.45594000000E+02  0.51100000000E-03 0. -1.
         11   -1    0    0    0    0 -0.00000000000E+00 -0.00000000000E+00 -0.45593999997E+02  0.45594000000E+02  0.51100000000E-03 0.  1.
    9900012    2    1    2    0    0  0.28199320902E-01  0.76036061741E+00 -0.90256669858E+00  0.90007504292E+02  0.89999762549E+02 0.  0.
         12    1    1    2    0    0 -0.28199320902E-01 -0.76036061741E+00  0.90256669858E+00  0.11804957076E+01  0.00000000000E+00 0. -1.
         11    1    3    3    0    0 -0.58298623694E+01  0.36118249250E+01 -0.57455762886E+01  0.89467436357E+01  0.51100000000E-03 0. -1.
        -11    1    3    3    0    0 -0.29595444602E+02  0.12858086153E+02 -0.17085273414E+02  0.36512015674E+02  0.51100000000E-03 0.  1.
         12    1    3    3    0    0  0.35453506292E+02 -0.15709550460E+02  0.21928283004E+02  0.44548744983E+02  0.00000000000E+00 0. -1.
</event>
<event>
 7    1  0.2404951E-015  0.9000777E+02  0.7816164E-02  0.1186339E+00
        -11   -1    0    0    0    0  0.00000000000E+00  0.00000000000E+00  0.45593999997E+02  0.45594000000E+02  0.51100000000E-03 0.  1.
         11   -1    0    0    0    0 -0.00000000000E+00 -0.00000000000E+00 -0.45593999997E+02  0.45594000000E+02  0.51100000000E-03 0. -1.
    9900012    2    1    2    0    0  0.11767041632E+01  0.50598185818E-01 -0.75803470292E-01  0.90007771619E+02  0.90000033405E+02 0.  0.
         12    1    1    2    0    0 -0.11767041632E+01 -0.50598185818E-01  0.75803470292E-01  0.11802283805E+01  0.00000000000E+00 0. -1.
         11    1    3    3    0    0 -0.83551815045E+01 -0.33745234752E+02 -0.68310814943E+01  0.35428993792E+02  0.51100000000E-03 0. -1.
        -11    1    3    3    0    0  0.17420835139E+01 -0.92028774820E+01  0.55007636520E+01  0.10862145733E+02  0.51100000000E-03 0.  1.
        -12    1    3    3    0    0  0.77898021538E+01  0.42998710420E+02  0.12545143720E+01  0.43716632094E+02  0.00000000000E+00 0.  1.
</event>
<event>
 7    1  0.2404951E-015  0.9000773E+02  0.7816164E-02  0.1186339E+00
        -11   -1    0    0    0    0  0.00000000000E+00  0.00000000000E+00  0.45593999997E+02  0.45594000000E+02  0.51100000000E-03 0.  1.
         11   -1    0    0    0    0 -0.00000000000E+00 -0.00000000000E+00 -0.45593999997E+02  0.45594000000E+02  0.51100000000E-03 0. -1.
    9900012    2    1    2    0    0 -0.22427771347E-02  0.10543318558E+01  0.53049355914E+00  0.90007727104E+02  0.89999988302E+02 0.  0.
         12    1    1    2    0    0  0.22427771346E-02 -0.10543318558E+01 -0.53049355914E+00  0.11802728958E+01  0.00000000000E+00 0. -1.
         11    1    3    3    0    0  0.19349794040E+02  0.92959026444E+01 -0.34620446782E+02  0.40735778758E+02  0.51100000000E-03 0. -1.
        -11    1    3    3    0    0  0.54848320973E+01  0.75248383268E+00  0.30379868187E+00  0.55445386601E+01  0.51100000000E-03 0.  1.
        -12    1    3    3    0    0 -0.24836868915E+02 -0.89940546212E+01  0.34847141659E+02  0.43727409686E+02  0.00000000000E+00 0.  1.
</event>
<event>
 7    1  0.2404951E-015  0.9000849E+02  0.7816164E-02  0.1186338E+00
        -11   -1    0    0    0    0  0.00000000000E+00  0.00000000000E+00  0.45593999997E+02  0.45594000000E+02  0.51100000000E-03 0.  1.
         11   -1    0    0    0    0 -0.00000000000E+00 -0.00000000000E+00 -0.45593999997E+02  0.45594000000E+02  0.51100000000E-03 0. -1.
    9900012    2    1    2    0    0 -0.10334900361E+01 -0.52952266889E+00 -0.20675106504E+00  0.90008490816E+02  0.90000762092E+02 0.  0.
         12    1    1    2    0    0  0.10334900361E+01  0.52952266889E+00  0.20675106504E+00  0.11795091837E+01  0.00000000000E+00 0. -1.
         11    1    3    3    0    0  0.13682521760E+02 -0.32277260119E+00 -0.67445716425E+01  0.15257943203E+02  0.51100000000E-03 0. -1.
        -11    1    3    3    0    0  0.54815573226E+01  0.30704298399E+02  0.18095893104E+02  0.36059156373E+02  0.51100000000E-03 0.  1.
         12    1    3    3    0    0 -0.20197569119E+02 -0.30911048466E+02 -0.11558072527E+02  0.38691391241E+02  0.00000000000E+00 0. -1.
</event>
<event>
 7    1  0.2404951E-015  0.9000780E+02  0.7816164E-02  0.1186339E+00
        -11   -1    0    0    0    0  0.00000000000E+00  0.00000000000E+00  0.45593999997E+02  0.45594000000E+02  0.51100000000E-03 0. -1.
         11   -1    0    0    0    0 -0.00000000000E+00 -0.00000000000E+00 -0.45593999997E+02  0.45594000000E+02  0.51100000000E-03 0.  1.
    9900012    2    1    2    0    0  0.13983460054E+00 -0.10025674715E+01 -0.60677274352E+00  0.90007801537E+02  0.90000063717E+02 0.  0.
         12    1    1    2    0    0 -0.13983460054E+00  0.10025674715E+01  0.60677274352E+00  0.11801984632E+01  0.00000000000E+00 0. -1.
         11    1    3    3    0    0 -0.82565033009E+01  0.32989141673E+02 -0.11110393401E+02  0.35775608407E+02  0.51100000000E-03 0. -1.
        -11    1    3    3    0    0 -0.80175897973E+01  0.56481784411E+01  0.49021815093E+01  0.10964262386E+02  0.51100000000E-03 0.  1.
        -12    1    3    3    0    0  0.16413927699E+02 -0.39639887586E+02  0.56014391480E+01  0.43267930744E+02  0.00000000000E+00 0.  1.
</event>
<event>
 7    1  0.2404951E-015  0.9000775E+02  0.7816164E-02  0.1186339E+00
        -11   -1    0    0    0    0  0.00000000000E+00  0.00000000000E+00  0.45593999997E+02  0.45594000000E+02  0.51100000000E-03 0.  1.
         11   -1    0    0    0    0 -0.00000000000E+00 -0.00000000000E+00 -0.45593999997E+02  0.45594000000E+02  0.51100000000E-03 0. -1.
    9900012    2    1    2    0    0  0.33309027307E+00  0.26611438665E+00 -0.11005529375E+01  0.90007753091E+02  0.90000014632E+02 0.  0.
         12    1    1    2    0    0 -0.33309027307E+00 -0.26611438665E+00  0.11005529375E+01  0.11802469085E+01  0.00000000000E+00 0. -1.
         11    1    3    3    0    0 -0.28994601519E+02  0.50178809996E+00 -0.21981751193E+02  0.36388680855E+02  0.51100000000E-03 0. -1.
        -11    1    3    3    0    0 -0.96837827797E+01  0.30306049225E+01  0.30031834778E+01  0.10582028463E+02  0.51100000000E-03 0.  1.
        -12    1    3    3    0    0  0.39011474572E+02 -0.32662786358E+01  0.17878014778E+02  0.43037043774E+02  0.00000000000E+00 0.  1.
</event>
<event>
 7    1  0.2404951E-015  0.9000764E+02  0.7816164E-02  0.1186339E+00
        -11   -1    0    0    0    0  0.00000000000E+00  0.00000000000E+00  0.45593999997E+02  0.45594000000E+02  0.51100000000E-03 0. -1.
         11   -1    0    0    0    0 -0.00000000000E+00 -0.00000000000E+00 -0.45593999997E+02  0.45594000000E+02  0.51100000000E-03 0.  1.
    9900012    2    1    2    0    0 -0.20145620359E-01 -0.11486569062E+01 -0.27099249668E+00  0.90007637570E+02  0.89999897585E+02 0.  0.
         12    1    1    2    0    0  0.20145620359E-01  0.11486569062E+01  0.27099249668E+00  0.11803624305E+01  0.00000000000E+00 0. -1.
         11    1    3    3    0    0 -0.28900396780E+02 -0.22635056598E+02 -0.75309281612E+01  0.37473905594E+02  0.51100000000E-03 0. -1.
        -11    1    3    3    0    0 -0.69500960736E+01 -0.15550257256E+01  0.69238596069E+01  0.99328632607E+01  0.51100000000E-03 0.  1.
        -12    1    3    3    0    0  0.35830347234E+02  0.23041425417E+02  0.33607605771E+00  0.42600868715E+02  0.00000000000E+00 0.  1.
</event>
<event>
 7    1  0.2404951E-015  0.9000768E+02  0.7816164E-02  0.1186339E+00
        -11   -1    0    0    0    0  0.00000000000E+00  0.00000000000E+00  0.45593999997E+02  0.45594000000E+02  0.51100000000E-03 0. -1.
         11   -1    0    0    0    0 -0.00000000000E+00 -0.00000000000E+00 -0.45593999997E+02  0.45594000000E+02  0.51100000000E-03 0.  1.
    9900012    2    1    2    0    0  0.66732991074E+00 -0.38180193625E-01 -0.97282050942E+00  0.90007675180E+02  0.89999935692E+02 0.  0.
         12    1    1    2    0    0 -0.66732991074E+00  0.38180193625E-01  0.97282050942E+00  0.11803248199E+01  0.00000000000E+00 0. -1.
         11    1    3    3    0    0 -0.10065512021E+02  0.21202971997E+02  0.15824040587E+02  0.28306904008E+02  0.51100000000E-03 0. -1.
        -11    1    3    3    0    0  0.12785837969E+02  0.16853029336E+02 -0.73982240539E+01  0.22410621807E+02  0.51100000000E-03 0.  1.
        -12    1    3    3    0    0 -0.20529960367E+01 -0.38094181527E+02 -0.93986370422E+01  0.39290149365E+02  0.00000000000E+00 0.  1.
</event>
<event>
 7    1  0.2404951E-015  0.9000757E+02  0.7816164E-02  0.1186339E+00
        -11   -1    0    0    0    0  0.00000000000E+00  0.00000000000E+00  0.45593999997E+02  0.45594000000E+02  0.51100000000E-03 0.  1.
         11   -1    0    0    0    0 -0.00000000000E+00 -0.00000000000E+00 -0.45593999997E+02  0.45594000000E+02  0.51100000000E-03 0. -1.
    9900012    2    1    2    0    0 -0.13166206905E-01 -0.96310515004E+00  0.68240701837E+00  0.90007566089E+02  0.89999825161E+02 0.  0.
         12    1    1    2    0    0  0.13166206905E-01  0.96310515004E+00 -0.68240701837E+00  0.11804339108E+01  0.00000000000E+00 0. -1.
         11    1    3    3    0    0 -0.12802154654E+01  0.42312702978E+01 -0.81166837196E+01  0.92424647598E+01  0.51100000000E-03 0. -1.
        -11    1    3    3    0    0 -0.36795063364E+02 -0.15258329433E+02 -0.21794902833E+01  0.39892900161E+02  0.51100000000E-03 0.  1.
         12    1    3    3    0    0  0.38062112623E+02  0.10063953985E+02  0.10978581021E+02  0.40872201169E+02  0.00000000000E+00 0. -1.
</event>
<event>
 7    1  0.2404951E-015  0.9000781E+02  0.7816164E-02  0.1186339E+00
        -11   -1    0    0    0    0  0.00000000000E+00  0.00000000000E+00  0.45593999997E+02  0.45594000000E+02  0.51100000000E-03 0.  1.
         11   -1    0    0    0    0 -0.00000000000E+00 -0.00000000000E+00 -0.45593999997E+02  0.45594000000E+02  0.51100000000E-03 0. -1.
    9900012    2    1    2    0    0 -0.21793328998E-02  0.11197303703E+00  0.11748607569E+01  0.90007813359E+02  0.90000075695E+02 0.  0.
         12    1    1    2    0    0  0.21793328998E-02 -0.11197303703E+00 -0.11748607569E+01  0.11801866415E+01  0.00000000000E+00 0. -1.
         11    1    3    3    0    0 -0.92181923594E+01 -0.94710800704E+00  0.70212497365E+01  0.11626264752E+02  0.51100000000E-03 0. -1.
        -11    1    3    3    0    0 -0.31202380275E+01  0.37562462027E+02 -0.11569032943E+02  0.39427363117E+02  0.51100000000E-03 0.  1.
         12    1    3    3    0    0  0.12336251054E+02 -0.36503380983E+02  0.57226439638E+01  0.38954185490E+02  0.00000000000E+00 0. -1.
</event>
<event>
 8    1  0.2404951E-015  0.9000770E+02  0.7816164E-02  0.1186339E+00
        -11   -1    0    0    0    0  0.00000000000E+00  0.00000000000E+00  0.45593999997E+02  0.45594000000E+02  0.51100000000E-03 0.  1.
         11   -1    0    0    0    0 -0.00000000000E+00 -0.00000000000E+00 -0.45593999997E+02  0.45594000000E+02  0.51100000000E-03 0. -1.
    9900012    2    1    2    0    0 -0.95620616290E+00  0.68983360542E+00  0.53842326530E-01  0.90007703586E+02  0.89999964473E+02 0.  0.
         23    2    3    3    0    0  0.23063628828E+02 -0.59461126483E+01  0.12041875825E+02  0.62354472258E+02  0.56354114374E+02 0.  0.
         12    1    1    2    0    0  0.95620616290E+00 -0.68983360542E+00 -0.53842326530E-01  0.11802964142E+01  0.00000000000E+00 0. -1.
         11    1    4    4    0    0  0.68143202878E-01  0.20383884587E+02 -0.81856742870E+01  0.21966170767E+02  0.51100000000E-03 0. -1.
        -11    1    4    4    0    0  0.22995485626E+02 -0.26329997235E+02  0.20227550112E+02  0.40388301492E+02  0.51100000000E-03 0.  1.
         12    1    3    3    0    0 -0.24019834991E+02  0.66359462537E+01 -0.11988033499E+02  0.27653231328E+02  0.00000000000E+00 0. -1.
</event>
<event>
 7    1  0.2404951E-015  0.9000781E+02  0.7816164E-02  0.1186339E+00
        -11   -1    0    0    0    0  0.00000000000E+00  0.00000000000E+00  0.45593999997E+02  0.45594000000E+02  0.51100000000E-03 0.  1.
         11   -1    0    0    0    0 -0.00000000000E+00 -0.00000000000E+00 -0.45593999997E+02  0.45594000000E+02  0.51100000000E-03 0. -1.
    9900012    2    1    2    0    0 -0.88178372925E+00  0.11995913906E+00  0.77518362799E+00  0.90007812558E+02  0.90000074884E+02 0.  0.
         12    1    1    2    0    0  0.88178372925E+00 -0.11995913906E+00 -0.77518362799E+00  0.11801874416E+01  0.00000000000E+00 0. -1.
         11    1    3    3    0    0 -0.59705163552E+01  0.40373720095E+01 -0.13279860903E+01  0.73287779068E+01  0.51100000000E-03 0. -1.
        -11    1    3    3    0    0 -0.35143860598E+02 -0.15586157392E+02 -0.87015659992E+01  0.39417464290E+02  0.51100000000E-03 0.  1.
         12    1    3    3    0    0  0.40232593224E+02  0.11668744522E+02  0.10804735718E+02  0.43261570361E+02  0.00000000000E+00 0. -1.
</event>
<event>
 7    1  0.2404951E-015  0.9000758E+02  0.7816164E-02  0.1186339E+00
        -11   -1    0    0    0    0  0.00000000000E+00  0.00000000000E+00  0.45593999997E+02  0.45594000000E+02  0.51100000000E-03 0. -1.
         11   -1    0    0    0    0 -0.00000000000E+00 -0.00000000000E+00 -0.45593999997E+02  0.45594000000E+02  0.51100000000E-03 0.  1.
    9900012    2    1    2    0    0 -0.57636758523E+00  0.80714796681E+00 -0.64007402672E+00  0.90007583890E+02  0.89999843197E+02 0.  0.
         12    1    1    2    0    0  0.57636758523E+00 -0.80714796681E+00  0.64007402672E+00  0.11804161102E+01  0.00000000000E+00 0. -1.
         11    1    3    3    0    0 -0.19634021635E+02 -0.21457479350E+02 -0.27268084812E+02  0.39868116023E+02  0.51100000000E-03 0. -1.
        -11    1    3    3    0    0  0.17697389933E+01 -0.75943817398E+01  0.67929643093E+01  0.10341710423E+02  0.51100000000E-03 0.  1.
        -12    1    3    3    0    0  0.17287915056E+02  0.29859009056E+02  0.19835046476E+02  0.39797757444E+02  0.00000000000E+00 0.  1.
</event>
<event>
 7    1  0.2404951E-015  0.9000806E+02  0.7816164E-02  0.1186338E+00
        -11   -1    0    0    0    0  0.00000000000E+00  0.00000000000E+00  0.45593999997E+02  0.45594000000E+02  0.51100000000E-03 0.  1.
         11   -1    0    0    0    0 -0.00000000000E+00 -0.00000000000E+00 -0.45593999997E+02  0.45594000000E+02  0.51100000000E-03 0. -1.
    9900012    2    1    2    0    0 -0.41283161447E+00  0.44573002913E-01  0.11044667125E+01  0.90008057877E+02  0.90000323440E+02 0.  0.
         12    1    1    2    0    0  0.41283161447E+00 -0.44573002913E-01 -0.11044667125E+01  0.11799421229E+01  0.00000000000E+00 0. -1.
         11    1    3    3    0    0  0.23947811629E+02 -0.48035203983E+01 -0.28345435917E+02  0.37417044613E+02  0.51100000000E-03 0. -1.
        -11    1    3    3    0    0  0.90222260385E+01 -0.75367036734E-01  0.23806733712E+01  0.93313369268E+01  0.51100000000E-03 0.  1.
        -12    1    3    3    0    0 -0.33382869282E+02  0.49234604380E+01  0.27069229258E+02  0.43259676337E+02  0.00000000000E+00 0.  1.
</event>
<event>
 7    1  0.2404951E-015  0.9000779E+02  0.7816164E-02  0.1186339E+00
        -11   -1    0    0    0    0  0.00000000000E+00  0.00000000000E+00  0.45593999997E+02  0.45594000000E+02  0.51100000000E-03 0. -1.
         11   -1    0    0    0    0 -0.00000000000E+00 -0.00000000000E+00 -0.45593999997E+02  0.45594000000E+02  0.51100000000E-03 0.  1.
    9900012    2    1    2    0    0 -0.10997294632E+01  0.35012293686E+00  0.24676558410E+00  0.90007794841E+02  0.90000056933E+02 0.  0.
         12    1    1    2    0    0  0.10997294632E+01 -0.35012293686E+00 -0.24676558410E+00  0.11802051587E+01  0.00000000000E+00 0. -1.
         11    1    3    3    0    0 -0.31853354103E+02  0.13129426372E+02  0.51704498291E+01  0.34838937357E+02  0.51100000000E-03 0. -1.
        -11    1    3    3    0    0 -0.95823605289E+01  0.16487119846E+01 -0.74597263942E+01  0.12255097007E+02  0.51100000000E-03 0.  1.
        -12    1    3    3    0    0  0.40335985169E+02 -0.14428015420E+02  0.25360421492E+01  0.42913760477E+02  0.00000000000E+00 0.  1.
</event>
<event>
 7    1  0.2404951E-015  0.9000773E+02  0.7816164E-02  0.1186339E+00
        -11   -1    0    0    0    0  0.00000000000E+00  0.00000000000E+00  0.45593999997E+02  0.45594000000E+02  0.51100000000E-03 0.  1.
         11   -1    0    0    0    0 -0.00000000000E+00 -0.00000000000E+00 -0.45593999997E+02  0.45594000000E+02  0.51100000000E-03 0. -1.
    9900012    2    1    2    0    0  0.98855679809E+00  0.39867781362E+00 -0.50680809220E+00  0.90007727580E+02  0.89999988784E+02 0.  0.
         12    1    1    2    0    0 -0.98855679809E+00 -0.39867781362E+00  0.50680809220E+00  0.11802724196E+01  0.00000000000E+00 0. -1.
         11    1    3    3    0    0  0.67754720882E+01 -0.38313171189E+01 -0.20018164905E+01  0.80369946128E+01  0.51100000000E-03 0. -1.
        -11    1    3    3    0    0 -0.19126199351E+02 -0.25360930674E+02  0.26203440239E+02  0.41177768114E+02  0.51100000000E-03 0.  1.
         12    1    3    3    0    0  0.13339284061E+02  0.29590925607E+02 -0.24708431840E+02  0.40792964853E+02  0.00000000000E+00 0. -1.
</event>
<event>
 7    1  0.2404951E-015  0.9000766E+02  0.7816164E-02  0.1186339E+00
        -11   -1    0    0    0    0  0.00000000000E+00  0.00000000000E+00  0.45593999997E+02  0.45594000000E+02  0.51100000000E-03 0.  1.
         11   -1    0    0    0    0 -0.00000000000E+00 -0.00000000000E+00 -0.45593999997E+02  0.45594000000E+02  0.51100000000E-03 0. -1.
    9900012    2    1    2    0    0 -0.16551656070E-01  0.90065742112E-01  0.11767828485E+01  0.90007659512E+02  0.89999919817E+02 0.  0.
         12    1    1    2    0    0  0.16551656070E-01 -0.90065742112E-01 -0.11767828485E+01  0.11803404881E+01  0.00000000000E+00 0. -1.
         11    1    3    3    0    0  0.75663724010E+01  0.15410610815E+01 -0.15988729788E+01  0.78855092183E+01  0.51100000000E-03 0. -1.
        -11    1    3    3    0    0  0.25622874966E+02  0.27082539534E+02 -0.51269494984E+01  0.37633512732E+02  0.51100000000E-03 0.  1.
         12    1    3    3    0    0 -0.33205799023E+02 -0.28533534874E+02  0.79026053257E+01  0.44488637561E+02  0.00000000000E+00 0. -1.
</event>
<event>
 7    1  0.2404951E-015  0.9000769E+02  0.7816164E-02  0.1186339E+00
        -11   -1    0    0    0    0  0.00000000000E+00  0.00000000000E+00  0.45593999997E+02  0.45594000000E+02  0.51100000000E-03 0. -1.
         11   -1    0    0    0    0 -0.00000000000E+00 -0.00000000000E+00 -0.45593999997E+02  0.45594000000E+02  0.51100000000E-03 0.  1.
    9900012    2    1    2    0    0  0.95626928933E-01  0.15199979731E+00 -0.11665738253E+01  0.90007685238E+02  0.89999945883E+02 0.  0.
         12    1    1    2    0    0 -0.95626928933E-01 -0.15199979731E+00  0.11665738253E+01  0.11803147622E+01  0.00000000000E+00 0. -1.
         11    1    3    3    0    0 -0.60278563387E+01 -0.49611681952E+01  0.25944745293E+02  0.27093874778E+02  0.51100000000E-03 0. -1.
        -11    1    3    3    0    0  0.37106059171E+01 -0.21100887749E+01  0.17318105596E+02  0.17836419277E+02  0.51100000000E-03 0.  1.
        -12    1    3    3    0    0  0.24128773506E+01  0.72232567674E+01 -0.44429424714E+02  0.45077391183E+02  0.00000000000E+00 0.  1.
</event>
<event>
 7    1  0.2404951E-015  0.9000772E+02  0.7816164E-02  0.1186339E+00
        -11   -1    0    0    0    0  0.00000000000E+00  0.00000000000E+00  0.45593999997E+02  0.45594000000E+02  0.51100000000E-03 0.  1.
         11   -1    0    0    0    0 -0.00000000000E+00 -0.00000000000E+00 -0.45593999997E+02  0.45594000000E+02  0.51100000000E-03 0. -1.
    9900012    2    1    2    0    0  0.68841452094E+00  0.49757217247E+00  0.81949604423E+00  0.90007717667E+02  0.89999978740E+02 0.  0.
         12    1    1    2    0    0 -0.68841452094E+00 -0.49757217247E+00 -0.81949604423E+00  0.11802823332E+01  0.00000000000E+00 0. -1.
         11    1    3    3    0    0  0.34127434995E+02 -0.11067133771E+01 -0.52047003477E+01  0.34539767512E+02  0.51100000000E-03 0. -1.
        -11    1    3    3    0    0  0.89719988197E+01  0.27764070502E+01 -0.62735884971E+01  0.11294384083E+02  0.51100000000E-03 0.  1.
        -12    1    3    3    0    0 -0.42411019293E+02 -0.11721215007E+01  0.12297784889E+02  0.44173566072E+02  0.00000000000E+00 0.  1.
</event>
<event>
 7    1  0.2404951E-015  0.9000784E+02  0.7816164E-02  0.1186339E+00
        -11   -1    0    0    0    0  0.00000000000E+00  0.00000000000E+00  0.45593999997E+02  0.45594000000E+02  0.51100000000E-03 0.  1.
         11   -1    0    0    0    0 -0.00000000000E+00 -0.00000000000E+00 -0.45593999997E+02  0.45594000000E+02  0.51100000000E-03 0. -1.
    9900012    2    1    2    0    0 -0.39754558545E+00 -0.10780134048E+00  0.11059455279E+01  0.90007839362E+02  0.90000102041E+02 0.  0.
         12    1    1    2    0    0  0.39754558545E+00  0.10780134048E+00 -0.11059455279E+01  0.11801606383E+01  0.00000000000E+00 0. -1.
         11    1    3    3    0    0 -0.26260700817E+02  0.26853668675E+02  0.61600493121E+01  0.38061662293E+02  0.51100000000E-03 0. -1.
        -11    1    3    3    0    0  0.16124808800E+01  0.57741242832E+01 -0.92162360310E+01  0.10994526487E+02  0.51100000000E-03 0.  1.
        -12    1    3    3    0    0  0.24250674351E+02 -0.32735594299E+02  0.41621322469E+01  0.40951650582E+02  0.00000000000E+00 0.  1.
</event>
<event>
 7    1  0.2404951E-015  0.9000773E+02  0.7816164E-02  0.1186339E+00
        -11   -1    0    0    0    0  0.00000000000E+00  0.00000000000E+00  0.45593999997E+02  0.45594000000E+02  0.51100000000E-03 0. -1.
         11   -1    0    0    0    0 -0.00000000000E+00 -0.00000000000E+00 -0.45593999997E+02  0.45594000000E+02  0.51100000000E-03 0.  1.
    9900012    2    1    2    0    0 -0.43117755711E+00 -0.10596906305E+01  0.29015507379E+00  0.90007725335E+02  0.89999986509E+02 0.  0.
         12    1    1    2    0    0  0.43117755711E+00  0.10596906305E+01 -0.29015507379E+00  0.11802746650E+01  0.00000000000E+00 0. -1.
         11    1    3    3    0    0 -0.44819932891E+01  0.20373037438E+02  0.10097258815E+02  0.23175494690E+02  0.51100000000E-03 0. -1.
        -11    1    3    3    0    0  0.90337602011E+01  0.21074878387E+02 -0.23062307062E-01  0.22929453865E+02  0.51100000000E-03 0.  1.
        -12    1    3    3    0    0 -0.49829444691E+01 -0.42507606456E+02 -0.97840414339E+01  0.43902776780E+02  0.00000000000E+00 0.  1.
</event>
<event>
 7    1  0.2404951E-015  0.9000785E+02  0.7816164E-02  0.1186339E+00
        -11   -1    0    0    0    0  0.00000000000E+00  0.00000000000E+00  0.45593999997E+02  0.45594000000E+02  0.51100000000E-03 0. -1.
         11   -1    0    0    0    0 -0.00000000000E+00 -0.00000000000E+00 -0.45593999997E+02  0.45594000000E+02  0.51100000000E-03 0.  1.
    9900012    2    1    2    0    0 -0.49018430638E+00  0.62607257198E+00 -0.87207315592E+00  0.90007847845E+02  0.90000110637E+02 0.  0.
         12    1    1    2    0    0  0.49018430638E+00 -0.62607257198E+00  0.87207315592E+00  0.11801521550E+01  0.00000000000E+00 0. -1.
         11    1    3    3    0    0  0.67370036112E+01 -0.69361993633E+01 -0.29516944943E+01  0.10109924822E+02  0.51100000000E-03 0. -1.
        -11    1    3    3    0    0  0.12371443861E+02  0.26002315951E+02  0.29678046446E+02  0.41351656546E+02  0.51100000000E-03 0.  1.
         12    1    3    3    0    0 -0.19598631779E+02 -0.18440044015E+02 -0.27598425107E+02  0.38546266477E+02  0.00000000000E+00 0. -1.
</event>
<event>
 7    1  0.2404951E-015  0.9000771E+02  0.7816164E-02  0.1186339E+00
        -11   -1    0    0    0    0  0.00000000000E+00  0.00000000000E+00  0.45593999997E+02  0.45594000000E+02  0.51100000000E-03 0. -1.
         11   -1    0    0    0    0 -0.00000000000E+00 -0.00000000000E+00 -0.45593999997E+02  0.45594000000E+02  0.51100000000E-03 0.  1.
    9900012    2    1    2    0    0  0.30536475029E+00  0.37934918862E+00 -0.10751399196E+01  0.90007712203E+02  0.89999973204E+02 0.  0.
         12    1    1    2    0    0 -0.30536475029E+00 -0.37934918862E+00  0.10751399196E+01  0.11802877972E+01  0.00000000000E+00 0. -1.
         11    1    3    3    0    0 -0.34069878647E+01  0.48752893976E+01  0.38014542668E+01  0.70588290689E+01  0.51100000000E-03 0. -1.
        -11    1    3    3    0    0 -0.30228117321E+01  0.18404485115E+02 -0.37877158675E+02  0.42220156474E+02  0.51100000000E-03 0.  1.
         12    1    3    3    0    0  0.67351643471E+01 -0.22900425324E+02  0.33000564489E+02  0.40728726660E+02  0.00000000000E+00 0. -1.
</event>
<event>
 7    1  0.2404951E-015  0.9000780E+02  0.7816164E-02  0.1186339E+00
        -11   -1    0    0    0    0  0.00000000000E+00  0.00000000000E+00  0.45593999997E+02  0.45594000000E+02  0.51100000000E-03 0.  1.
         11   -1    0    0    0    0 -0.00000000000E+00 -0.00000000000E+00 -0.45593999997E+02  0.45594000000E+02  0.51100000000E-03 0. -1.
    9900012    2    1    2    0    0 -0.62094197304E+00  0.89846035982E+00  0.44729997801E+00  0.90007797804E+02  0.90000059935E+02 0.  0.
         12    1    1    2    0    0  0.62094197304E+00 -0.89846035982E+00 -0.44729997801E+00  0.11802021955E+01  0.00000000000E+00 0. -1.
         11    1    3    3    0    0  0.10348396861E+02 -0.30128186353E+02 -0.18150498356E+02  0.36663844879E+02  0.51100000000E-03 0. -1.
        -11    1    3    3    0    0 -0.25504430255E+01  0.43472610734E+01 -0.11315341209E+02  0.12387105611E+02  0.51100000000E-03 0.  1.
        -12    1    3    3    0    0 -0.84188958080E+01  0.26679385639E+02  0.29913139543E+02  0.40956847315E+02  0.00000000000E+00 0.  1.
</event>
<event>
 7    1  0.2404951E-015  0.9000757E+02  0.7816164E-02  0.1186339E+00
        -11   -1    0    0    0    0  0.00000000000E+00  0.00000000000E+00  0.45593999997E+02  0.45594000000E+02  0.51100000000E-03 0. -1.
         11   -1    0    0    0    0 -0.00000000000E+00 -0.00000000000E+00 -0.45593999997E+02  0.45594000000E+02  0.51100000000E-03 0.  1.
    9900012    2    1    2    0    0 -0.17974957689E+00  0.11012045318E+01 -0.38529468851E+00  0.90007570702E+02  0.89999829835E+02 0.  0.
         12    1    1    2    0    0  0.17974957689E+00 -0.11012045318E+01  0.38529468851E+00  0.11804292982E+01  0.00000000000E+00 0. -1.
         11    1    3    3    0    0  0.32820961223E+02  0.24672827435E+02 -0.51834042934E+01  0.41386369611E+02  0.51100000000E-03 0. -1.
        -11    1    3    3    0    0 -0.19474399476E+01 -0.11015295575E+02 -0.68981499984E+01  0.13142059679E+02  0.51100000000E-03 0.  1.
        -12    1    3    3    0    0 -0.31053270852E+02 -0.12556327329E+02  0.11696259603E+02  0.35479141412E+02  0.00000000000E+00 0.  1.
</event>
<event>
 7    1  0.2404951E-015  0.9000761E+02  0.7816164E-02  0.1186339E+00
        -11   -1    0    0    0    0  0.00000000000E+00  0.00000000000E+00  0.45593999997E+02  0.45594000000E+02  0.51100000000E-03 0.  1.
         11   -1    0    0    0    0 -0.00000000000E+00 -0.00000000000E+00 -0.45593999997E+02  0.45594000000E+02  0.51100000000E-03 0. -1.
    9900012    2    1    2    0    0  0.57250479991E+00 -0.26177563444E+00  0.99851781064E+00  0.90007607672E+02  0.89999867294E+02 0.  0.
         12    1    1    2    0    0 -0.57250479991E+00  0.26177563444E+00 -0.99851781064E+00  0.11803923275E+01  0.00000000000E+00 0. -1.
         11    1    3    3    0    0  0.10741376603E+02  0.36998947202E+01 -0.11151492339E+01  0.11415338380E+02  0.51100000000E-03 0. -1.
        -11    1    3    3    0    0  0.14986004985E+02 -0.30773278164E+01  0.34403115275E+02  0.37651356321E+02  0.51100000000E-03 0.  1.
         12    1    3    3    0    0 -0.25154876788E+02 -0.88434253822E+00 -0.32289448230E+02  0.40940912972E+02  0.00000000000E+00 0. -1.
</event>
<event>
 7    1  0.2404951E-015  0.9000752E+02  0.7816164E-02  0.1186339E+00
        -11   -1    0    0    0    0  0.00000000000E+00  0.00000000000E+00  0.45593999997E+02  0.45594000000E+02  0.51100000000E-03 0.  1.
         11   -1    0    0    0    0 -0.00000000000E+00 -0.00000000000E+00 -0.45593999997E+02  0.45594000000E+02  0.51100000000E-03 0. -1.
    9900012    2    1    2    0    0  0.10713969442E+01  0.28809868614E+00  0.40327499689E+00  0.90007524253E+02  0.89999782773E+02 0.  0.
         12    1    1    2    0    0 -0.10713969442E+01 -0.28809868614E+00 -0.40327499689E+00  0.11804757465E+01  0.00000000000E+00 0. -1.
         11    1    3    3    0    0  0.13178675940E+01 -0.96265343343E+00 -0.76047535935E+01  0.77779016519E+01  0.51100000000E-03 0. -1.
        -11    1    3    3    0    0  0.63690371649E+00 -0.39045412169E+02  0.13992747401E+02  0.41481885660E+02  0.51100000000E-03 0.  1.
         12    1    3    3    0    0 -0.88337436626E+00  0.40296164289E+02 -0.59847188107E+01  0.40747736942E+02  0.00000000000E+00 0. -1.
</event>
<event>
 7    1  0.2404951E-015  0.9000770E+02  0.7816164E-02  0.1186339E+00
        -11   -1    0    0    0    0  0.00000000000E+00  0.00000000000E+00  0.45593999997E+02  0.45594000000E+02  0.51100000000E-03 0. -1.
         11   -1    0    0    0    0 -0.00000000000E+00 -0.00000000000E+00 -0.45593999997E+02  0.45594000000E+02  0.51100000000E-03 0.  1.
    9900012    2    1    2    0    0  0.88060441904E+00 -0.11412858430E+00 -0.77756825427E+00  0.90007702636E+02  0.89999963511E+02 0.  0.
         12    1    1    2    0    0 -0.88060441904E+00  0.11412858430E+00  0.77756825427E+00  0.11802973637E+01  0.00000000000E+00 0. -1.
         11    1    3    3    0    0 -0.98235174653E+01 -0.19572102492E+01 -0.15408086519E-01  0.10016606462E+02  0.51100000000E-03 0. -1.
        -11    1    3    3    0    0 -0.60227099493E+01 -0.32694407373E+02  0.17414137510E+02  0.37529315129E+02  0.51100000000E-03 0.  1.
         12    1    3    3    0    0  0.16726831834E+02  0.34537489038E+02 -0.18176297678E+02  0.42461781045E+02  0.00000000000E+00 0. -1.
</event>
<event>
 7    1  0.2404951E-015  0.9000768E+02  0.7816164E-02  0.1186339E+00
        -11   -1    0    0    0    0  0.00000000000E+00  0.00000000000E+00  0.45593999997E+02  0.45594000000E+02  0.51100000000E-03 0.  1.
         11   -1    0    0    0    0 -0.00000000000E+00 -0.00000000000E+00 -0.45593999997E+02  0.45594000000E+02  0.51100000000E-03 0. -1.
    9900012    2    1    2    0    0 -0.50444434244E+00  0.23615687882E+00  0.10406300161E+01  0.90007684366E+02  0.89999944999E+02 0.  0.
         12    1    1    2    0    0  0.50444434244E+00 -0.23615687882E+00 -0.10406300161E+01  0.11803156343E+01  0.00000000000E+00 0. -1.
         11    1    3    3    0    0 -0.92924596389E+01 -0.91693473141E+01  0.60166540758E+01  0.14374521308E+02  0.51100000000E-03 0. -1.
        -11    1    3    3    0    0  0.20587020922E+02  0.60978240124E+01  0.30953603167E+02  0.37671400789E+02  0.51100000000E-03 0.  1.
         12    1    3    3    0    0 -0.11799005625E+02  0.33076801805E+01 -0.35929627227E+02  0.37961762269E+02  0.00000000000E+00 0. -1.
</event>
<event>
 7    1  0.2404951E-015  0.9000778E+02  0.7816164E-02  0.1186339E+00
        -11   -1    0    0    0    0  0.00000000000E+00  0.00000000000E+00  0.45593999997E+02  0.45594000000E+02  0.51100000000E-03 0.  1.
         11   -1    0    0    0    0 -0.00000000000E+00 -0.00000000000E+00 -0.45593999997E+02  0.45594000000E+02  0.51100000000E-03 0. -1.
    9900012    2    1    2    0    0  0.68555961045E+00 -0.27258092836E-01  0.96030105071E+00  0.90007782609E+02  0.90000044539E+02 0.  0.
         12    1    1    2    0    0 -0.68555961045E+00  0.27258092836E-01 -0.96030105071E+00  0.11802173915E+01  0.00000000000E+00 0. -1.
         11    1    3    3    0    0  0.56488418383E+01 -0.67687191119E+01 -0.50508232524E+01  0.10160501381E+02  0.51100000000E-03 0. -1.
        -11    1    3    3    0    0  0.13075257595E+02 -0.27977219725E+02 -0.16183462682E+02  0.34865335927E+02  0.51100000000E-03 0.  1.
         12    1    3    3    0    0 -0.18038539823E+02  0.34718680744E+02  0.22194586985E+02  0.44981945300E+02  0.00000000000E+00 0. -1.
</event>
<event>
 7    1  0.2404951E-015  0.9000774E+02  0.7816164E-02  0.1186339E+00
        -11   -1    0    0    0    0  0.00000000000E+00  0.00000000000E+00  0.45593999997E+02  0.45594000000E+02  0.51100000000E-03 0.  1.
         11   -1    0    0    0    0 -0.00000000000E+00 -0.00000000000E+00 -0.45593999997E+02  0.45594000000E+02  0.51100000000E-03 0. -1.
    9900012    2    1    2    0    0  0.42896507504E-02 -0.32632329692E+00  0.11342476359E+01  0.90007736049E+02  0.89999997365E+02 0.  0.
         12    1    1    2    0    0 -0.42896507504E-02  0.32632329692E+00 -0.11342476359E+01  0.11802639513E+01  0.00000000000E+00 0. -1.
         11    1    3    3    0    0  0.40921434349E+01  0.25646437033E+01 -0.87646631156E+01  0.10007115219E+02  0.51100000000E-03 0. -1.
        -11    1    3    3    0    0 -0.43916074200E+00 -0.40501330258E+02 -0.15010021074E+01  0.40531513942E+02  0.51100000000E-03 0.  1.
         12    1    3    3    0    0 -0.36486930421E+01  0.37610363258E+02  0.11399912859E+02  0.39469106888E+02  0.00000000000E+00 0. -1.
</event>
<event>
 7    1  0.2404951E-015  0.9000762E+02  0.7816164E-02  0.1186339E+00
        -11   -1    0    0    0    0  0.00000000000E+00  0.00000000000E+00  0.45593999997E+02  0.45594000000E+02  0.51100000000E-03 0.  1.
         11   -1    0    0    0    0 -0.00000000000E+00 -0.00000000000E+00 -0.45593999997E+02  0.45594000000E+02  0.51100000000E-03 0. -1.
    9900012    2    1    2    0    0  0.11757494330E+01  0.66547601735E-01  0.80476397651E-01  0.90007622195E+02  0.89999882008E+02 0.  0.
         12    1    1    2    0    0 -0.11757494330E+01 -0.66547601735E-01 -0.80476397651E-01  0.11803778052E+01  0.00000000000E+00 0. -1.
         11    1    3    3    0    0  0.10166169992E+02 -0.83100128389E+01  0.16798893239E+02  0.21321588590E+02  0.51100000000E-03 0. -1.
        -11    1    3    3    0    0  0.23681624648E+02  0.16094035459E+01  0.10181161282E+02  0.25827612569E+02  0.51100000000E-03 0.  1.
         12    1    3    3    0    0 -0.32672045207E+02  0.67671568947E+01 -0.26899578123E+02  0.42858421035E+02  0.00000000000E+00 0. -1.
</event>
<event>
 7    1  0.2404951E-015  0.9000763E+02  0.7816164E-02  0.1186339E+00
        -11   -1    0    0    0    0  0.00000000000E+00  0.00000000000E+00  0.45593999997E+02  0.45594000000E+02  0.51100000000E-03 0.  1.
         11   -1    0    0    0    0 -0.00000000000E+00 -0.00000000000E+00 -0.45593999997E+02  0.45594000000E+02  0.51100000000E-03 0. -1.
    9900012    2    1    2    0    0  0.14694542803E+00 -0.84758326462E+00  0.80826045221E+00  0.90007629165E+02  0.89999889070E+02 0.  0.
         12    1    1    2    0    0 -0.14694542803E+00  0.84758326462E+00 -0.80826045221E+00  0.11803708349E+01  0.00000000000E+00 0. -1.
         11    1    3    3    0    0  0.19846225831E+02 -0.27772234132E+02  0.38076142218E+01  0.34346289389E+02  0.51100000000E-03 0. -1.
        -11    1    3    3    0    0  0.72817357085E+01 -0.77883218918E+01  0.34914984840E+01  0.11219277817E+02  0.51100000000E-03 0.  1.
        -12    1    3    3    0    0 -0.26981016112E+02  0.34712972759E+02 -0.64908522536E+01  0.44442061959E+02  0.00000000000E+00 0.  1.
</event>
<event>
 7    1  0.2771284E-015  0.9000772E+02  0.7816164E-02  0.1186339E+00
        -11   -1    0    0    0    0  0.00000000000E+00  0.00000000000E+00  0.45593999997E+02  0.45594000000E+02  0.51100000000E-03 0. -1.
         11   -1    0    0    0    0 -0.00000000000E+00 -0.00000000000E+00 -0.45593999997E+02  0.45594000000E+02  0.51100000000E-03 0.  1.
    9900012    2    1    2    0    0 -0.10548341347E+01 -0.15784865074E+00 -0.50544359960E+00  0.90007718474E+02  0.89999979558E+02 0.  0.
         12    1    1    2    0    0  0.10548341347E+01  0.15784865074E+00  0.50544359960E+00  0.11802815260E+01  0.00000000000E+00 0. -1.
         11    1    3    3    0    0  0.98095966371E+00 -0.37635311169E+02  0.17914113555E+02  0.41692857822E+02  0.51100000000E-03 0. -1.
        -11    1    3    3    0    0  0.62149428393E+01  0.18040049298E+01 -0.79126003435E+01  0.10221995536E+02  0.51100000000E-03 0.  1.
        -12    1    3    3    0    0 -0.82507366377E+01  0.35673457588E+02 -0.10506956811E+02  0.38092865116E+02  0.00000000000E+00 0.  1.
</event>
<event>
 7    1  0.2404951E-015  0.9000772E+02  0.7816164E-02  0.1186339E+00
        -11   -1    0    0    0    0  0.00000000000E+00  0.00000000000E+00  0.45593999997E+02  0.45594000000E+02  0.51100000000E-03 0.  1.
         11   -1    0    0    0    0 -0.00000000000E+00 -0.00000000000E+00 -0.45593999997E+02  0.45594000000E+02  0.51100000000E-03 0. -1.
    9900012    2    1    2    0    0 -0.11087224588E+01 -0.51719767938E-01  0.40141276476E+00  0.90007715021E+02  0.89999976059E+02 0.  0.
         12    1    1    2    0    0  0.11087224588E+01  0.51719767938E-01 -0.40141276476E+00  0.11802849795E+01  0.00000000000E+00 0. -1.
         11    1    3    3    0    0  0.30723541032E+02 -0.85343333778E+01 -0.22929935579E+02  0.39275345519E+02  0.51100000000E-03 0. -1.
        -11    1    3    3    0    0  0.52532170277E+01 -0.14865040254E+01  0.73065566296E+01  0.91209513430E+01  0.51100000000E-03 0.  1.
        -12    1    3    3    0    0 -0.37085480518E+02  0.99691176353E+01  0.16024791714E+02  0.41611418159E+02  0.00000000000E+00 0.  1.
</event>
<event>
 7    1  0.2404951E-015  0.9000777E+02  0.7816164E-02  0.1186339E+00
        -11   -1    0    0    0    0  0.00000000000E+00  0.00000000000E+00  0.45593999997E+02  0.45594000000E+02  0.51100000000E-03 0. -1.
         11   -1    0    0    0    0 -0.00000000000E+00 -0.00000000000E+00 -0.45593999997E+02  0.45594000000E+02  0.51100000000E-03 0.  1.
    9900012    2    1    2    0    0  0.11633078691E+01  0.48175141498E-01 -0.19321402508E+00  0.90007772182E+02  0.90000033975E+02 0.  0.
         12    1    1    2    0    0 -0.11633078691E+01 -0.48175141498E-01  0.19321402508E+00  0.11802278179E+01  0.00000000000E+00 0. -1.
         11    1    3    3    0    0  0.13272256728E+02  0.41167288924E+01 -0.64895126150E+01  0.15336689006E+02  0.51100000000E-03 0. -1.
        -11    1    3    3    0    0  0.24388709050E+02 -0.15577210384E+02  0.18684679053E+02  0.34446710206E+02  0.51100000000E-03 0.  1.
         12    1    3    3    0    0 -0.36497657909E+02  0.11508656633E+02 -0.12388380463E+02  0.40224372970E+02  0.00000000000E+00 0. -1.
</event>
<event>
 7    1  0.2404951E-015  0.9000776E+02  0.7816164E-02  0.1186339E+00
        -11   -1    0    0    0    0  0.00000000000E+00  0.00000000000E+00  0.45593999997E+02  0.45594000000E+02  0.51100000000E-03 0.  1.
         11   -1    0    0    0    0 -0.00000000000E+00 -0.00000000000E+00 -0.45593999997E+02  0.45594000000E+02  0.51100000000E-03 0. -1.
    9900012    2    1    2    0    0  0.97249861426E+00 -0.15570659702E+00  0.65035110746E+00  0.90007764997E+02  0.90000026695E+02 0.  0.
         12    1    1    2    0    0 -0.97249861426E+00  0.15570659702E+00 -0.65035110746E+00  0.11802350029E+01  0.00000000000E+00 0. -1.
         11    1    3    3    0    0 -0.97418829558E-01  0.36911399939E+02 -0.12053060072E+02  0.38829591721E+02  0.51100000000E-03 0. -1.
        -11    1    3    3    0    0  0.25679934588E+01  0.55642357425E+01 -0.13310784516E+01  0.62711306722E+01  0.51100000000E-03 0.  1.
        -12    1    3    3    0    0 -0.14980760149E+01 -0.42631342278E+02  0.14034489631E+02  0.44907042604E+02  0.00000000000E+00 0.  1.
</event>
<event>
 7    1  0.2404951E-015  0.9000771E+02  0.7816164E-02  0.1186339E+00
        -11   -1    0    0    0    0  0.00000000000E+00  0.00000000000E+00  0.45593999997E+02  0.45594000000E+02  0.51100000000E-03 0. -1.
         11   -1    0    0    0    0 -0.00000000000E+00 -0.00000000000E+00 -0.45593999997E+02  0.45594000000E+02  0.51100000000E-03 0.  1.
    9900012    2    1    2    0    0  0.21055277161E+00 -0.64186395478E-03 -0.11613545672E+01  0.90007713038E+02  0.89999974050E+02 0.  0.
         12    1    1    2    0    0 -0.21055277161E+00  0.64186395478E-03  0.11613545672E+01  0.11802869619E+01  0.00000000000E+00 0. -1.
         11    1    3    3    0    0  0.71454284729E+00  0.12601160544E+01  0.95522453982E+01  0.96614624338E+01  0.51100000000E-03 0. -1.
        -11    1    3    3    0    0 -0.11669058632E+02  0.30791531354E+02  0.16510423603E+02  0.36835844232E+02  0.51100000000E-03 0.  1.
         12    1    3    3    0    0  0.11165068556E+02 -0.32052289273E+02 -0.27224023568E+02  0.43510406372E+02  0.00000000000E+00 0. -1.
</event>
<event>
 7    1  0.2404951E-015  0.9000777E+02  0.7816164E-02  0.1186339E+00
        -11   -1    0    0    0    0  0.00000000000E+00  0.00000000000E+00  0.45593999997E+02  0.45594000000E+02  0.51100000000E-03 0. -1.
         11   -1    0    0    0    0 -0.00000000000E+00 -0.00000000000E+00 -0.45593999997E+02  0.45594000000E+02  0.51100000000E-03 0.  1.
    9900012    2    1    2    0    0 -0.14870659754E+00 -0.68159492668E+00 -0.95198122213E+00  0.90007765471E+02  0.90000027175E+02 0.  0.
         12    1    1    2    0    0  0.14870659754E+00  0.68159492668E+00  0.95198122213E+00  0.11802345290E+01  0.00000000000E+00 0. -1.
         11    1    3    3    0    0  0.42563318970E+01  0.44143683021E+01 -0.80765165623E+01  0.10140667077E+02  0.51100000000E-03 0. -1.
        -11    1    3    3    0    0 -0.27727835008E+02 -0.20076968188E+01 -0.26779109327E+02  0.38600315768E+02  0.51100000000E-03 0.  1.
         12    1    3    3    0    0  0.23322796513E+02 -0.30882664100E+01  0.33903644667E+02  0.41266782626E+02  0.00000000000E+00 0. -1.
</event>
<event>
 7    1  0.2404951E-015  0.9000775E+02  0.7816164E-02  0.1186339E+00
        -11   -1    0    0    0    0  0.00000000000E+00  0.00000000000E+00  0.45593999997E+02  0.45594000000E+02  0.51100000000E-03 0.  1.
         11   -1    0    0    0    0 -0.00000000000E+00 -0.00000000000E+00 -0.45593999997E+02  0.45594000000E+02  0.51100000000E-03 0. -1.
    9900012    2    1    2    0    0 -0.58606925195E+00  0.36443189757E+00  0.95744163692E+00  0.90007753304E+02  0.90000014847E+02 0.  0.
         12    1    1    2    0    0  0.58606925195E+00 -0.36443189757E+00 -0.95744163692E+00  0.11802466963E+01  0.00000000000E+00 0. -1.
         11    1    3    3    0    0  0.18284152618E+02  0.21431008271E+02 -0.18430008740E+02  0.33663980378E+02  0.51100000000E-03 0. -1.
        -11    1    3    3    0    0  0.12286166732E+02  0.28061725542E+01  0.83542347633E-01  0.12602836068E+02  0.51100000000E-03 0.  1.
        -12    1    3    3    0    0 -0.31156388601E+02 -0.23872748928E+02  0.19303908029E+02  0.43740936858E+02  0.00000000000E+00 0.  1.
</event>
<event>
 7    1  0.2404951E-015  0.9000771E+02  0.7816164E-02  0.1186339E+00
        -11   -1    0    0    0    0  0.00000000000E+00  0.00000000000E+00  0.45593999997E+02  0.45594000000E+02  0.51100000000E-03 0. -1.
         11   -1    0    0    0    0 -0.00000000000E+00 -0.00000000000E+00 -0.45593999997E+02  0.45594000000E+02  0.51100000000E-03 0.  1.
    9900012    2    1    2    0    0  0.52707313675E+00  0.10499738239E+01 -0.11332143758E+00  0.90007706447E+02  0.89999967372E+02 0.  0.
         12    1    1    2    0    0 -0.52707313675E+00 -0.10499738239E+01  0.11332143758E+00  0.11802935527E+01  0.00000000000E+00 0. -1.
         11    1    3    3    0    0 -0.38366233780E+01  0.37284181410E+00  0.91260152905E+01  0.99067070869E+01  0.51100000000E-03 0. -1.
        -11    1    3    3    0    0 -0.14677879174E+02  0.23441369043E+02 -0.32295154915E+02  0.42519583146E+02  0.51100000000E-03 0.  1.
         12    1    3    3    0    0  0.19041575688E+02 -0.22764237033E+02  0.23055818187E+02  0.37581416214E+02  0.00000000000E+00 0. -1.
</event>
<event>
 7    1  0.2404951E-015  0.9000778E+02  0.7816164E-02  0.1186339E+00
        -11   -1    0    0    0    0  0.00000000000E+00  0.00000000000E+00  0.45593999997E+02  0.45594000000E+02  0.51100000000E-03 0.  1.
         11   -1    0    0    0    0 -0.00000000000E+00 -0.00000000000E+00 -0.45593999997E+02  0.45594000000E+02  0.51100000000E-03 0. -1.
    9900012    2    1    2    0    0  0.27637154915E+00 -0.10845405579E+00  0.11422670161E+01  0.90007780761E+02  0.90000042667E+02 0.  0.
         12    1    1    2    0    0 -0.27637154915E+00  0.10845405579E+00 -0.11422670161E+01  0.11802192387E+01  0.00000000000E+00 0. -1.
         11    1    3    3    0    0  0.27781129122E+02 -0.66884615801E+01 -0.23421983416E+02  0.36947475705E+02  0.51100000000E-03 0. -1.
        -11    1    3    3    0    0  0.55998340367E+01  0.99296136197E+01 -0.48760975014E+00  0.11410220480E+02  0.51100000000E-03 0.  1.
        -12    1    3    3    0    0 -0.33104591609E+02 -0.33496060953E+01  0.25051860182E+02  0.41650084576E+02  0.00000000000E+00 0.  1.
</event>
<event>
 7    1  0.3407038E-015  0.9000770E+02  0.7816164E-02  0.1186339E+00
        -11   -1    0    0    0    0  0.00000000000E+00  0.00000000000E+00  0.45593999997E+02  0.45594000000E+02  0.51100000000E-03 0. -1.
         11   -1    0    0    0    0 -0.00000000000E+00 -0.00000000000E+00 -0.45593999997E+02  0.45594000000E+02  0.51100000000E-03 0.  1.
    9900012    2    1    2    0    0 -0.83769484290E+00 -0.35363482786E+00 -0.75253374607E+00  0.90007704579E+02  0.89999965480E+02 0.  0.
         12    1    1    2    0    0  0.83769484290E+00  0.35363482786E+00  0.75253374607E+00  0.11802954208E+01  0.00000000000E+00 0. -1.
         11    1    3    3    0    0 -0.23004860305E+02 -0.89100496897E+01  0.25779173513E+02  0.35681625109E+02  0.51100000000E-03 0. -1.
        -11    1    3    3    0    0 -0.37455297053E+01 -0.28469869563E+01  0.82388479419E+01  0.94875151211E+01  0.51100000000E-03 0.  1.
        -12    1    3    3    0    0  0.25912695168E+02  0.11403401818E+02 -0.34770555201E+02  0.44838564349E+02  0.00000000000E+00 0.  1.
</event>
<event>
 7    1  0.2404951E-015  0.9000779E+02  0.7816164E-02  0.1186339E+00
        -11   -1    0    0    0    0  0.00000000000E+00  0.00000000000E+00  0.45593999997E+02  0.45594000000E+02  0.51100000000E-03 0.  1.
         11   -1    0    0    0    0 -0.00000000000E+00 -0.00000000000E+00 -0.45593999997E+02  0.45594000000E+02  0.51100000000E-03 0. -1.
    9900012    2    1    2    0    0  0.50430693965E+00 -0.27535980386E+00  0.10308945485E+01  0.90007791509E+02  0.90000053557E+02 0.  0.
         12    1    1    2    0    0 -0.50430693965E+00  0.27535980386E+00 -0.10308945485E+01  0.11802084905E+01  0.00000000000E+00 0. -1.
         11    1    3    3    0    0 -0.26977863734E+02 -0.24096565392E+02 -0.21950355911E+02  0.42311555399E+02  0.51100000000E-03 0. -1.
        -11    1    3    3    0    0  0.74185842394E+01 -0.29013471834E+01  0.72144353034E+01  0.10747152395E+02  0.51100000000E-03 0.  1.
        -12    1    3    3    0    0  0.20063586434E+02  0.26722552772E+02  0.15766815157E+02  0.36949083716E+02  0.00000000000E+00 0.  1.
</event>
<event>
 7    1  0.2404951E-015  0.9000804E+02  0.7816164E-02  0.1186338E+00
        -11   -1    0    0    0    0  0.00000000000E+00  0.00000000000E+00  0.45593999997E+02  0.45594000000E+02  0.51100000000E-03 0. -1.
         11   -1    0    0    0    0 -0.00000000000E+00 -0.00000000000E+00 -0.45593999997E+02  0.45594000000E+02  0.51100000000E-03 0.  1.
    9900012    2    1    2    0    0 -0.52590331543E+00 -0.68245938975E+00 -0.80621078619E+00  0.90008041972E+02  0.90000307326E+02 0.  0.
         12    1    1    2    0    0  0.52590331543E+00  0.68245938975E+00  0.80621078619E+00  0.11799580279E+01  0.00000000000E+00 0. -1.
         11    1    3    3    0    0  0.21768930523E+01  0.59625510491E+01 -0.77011913486E+01  0.99799412235E+01  0.51100000000E-03 0. -1.
        -11    1    3    3    0    0  0.37014158793E+02 -0.58011788447E+01 -0.66598532315E+01  0.38053321438E+02  0.51100000000E-03 0.  1.
         12    1    3    3    0    0 -0.39716955161E+02 -0.84383159420E+00  0.13554833794E+02  0.41974779311E+02  0.00000000000E+00 0. -1.
</event>
<event>
 7    1  0.2530238E-015  0.9000775E+02  0.7816164E-02  0.1186339E+00
        -11   -1    0    0    0    0  0.00000000000E+00  0.00000000000E+00  0.45593999997E+02  0.45594000000E+02  0.51100000000E-03 0. -1.
         11   -1    0    0    0    0 -0.00000000000E+00 -0.00000000000E+00 -0.45593999997E+02  0.45594000000E+02  0.51100000000E-03 0.  1.
    9900012    2    1    2    0    0  0.83361679522E+00  0.64168027980E+00  0.53508230573E+00  0.90007752731E+02  0.90000014267E+02 0.  0.
         12    1    1    2    0    0 -0.83361679522E+00 -0.64168027980E+00 -0.53508230573E+00  0.11802472693E+01  0.00000000000E+00 0. -1.
         11    1    3    3    0    0  0.17074422669E+02  0.29969381899E+02 -0.13243938531E+02  0.36947282294E+02  0.51100000000E-03 0. -1.
        -11    1    3    3    0    0 -0.32674459161E+01  0.58297060532E+01 -0.74356816228E+01  0.99975515471E+01  0.51100000000E-03 0.  1.
        -12    1    3    3    0    0 -0.12973359958E+02 -0.35157407672E+02  0.21214702460E+02  0.43062918889E+02  0.00000000000E+00 0.  1.
</event>
<event>
 7    1  0.2404951E-015  0.9000766E+02  0.7816164E-02  0.1186339E+00
        -11   -1    0    0    0    0  0.00000000000E+00  0.00000000000E+00  0.45593999997E+02  0.45594000000E+02  0.51100000000E-03 0. -1.
         11   -1    0    0    0    0 -0.00000000000E+00 -0.00000000000E+00 -0.45593999997E+02  0.45594000000E+02  0.51100000000E-03 0.  1.
    9900012    2    1    2    0    0 -0.92831666604E+00  0.72884929676E+00 -0.14253423761E-01  0.90007662637E+02  0.89999922984E+02 0.  0.
         12    1    1    2    0    0  0.92831666604E+00 -0.72884929676E+00  0.14253423761E-01  0.11803373628E+01  0.00000000000E+00 0. -1.
         11    1    3    3    0    0  0.85551980465E+01 -0.11637271410E+02  0.33935973217E+02  0.36881808225E+02  0.51100000000E-03 0. -1.
        -11    1    3    3    0    0 -0.17423925412E+01  0.85708888402E+01  0.70469959850E+01  0.11231928595E+02  0.51100000000E-03 0.  1.
        -12    1    3    3    0    0 -0.77411221714E+01  0.37952318667E+01 -0.40997222626E+02  0.41893925818E+02  0.00000000000E+00 0.  1.
</event>
<event>
 7    1  0.2404951E-015  0.9000763E+02  0.7816164E-02  0.1186339E+00
        -11   -1    0    0    0    0  0.00000000000E+00  0.00000000000E+00  0.45593999997E+02  0.45594000000E+02  0.51100000000E-03 0.  1.
         11   -1    0    0    0    0 -0.00000000000E+00 -0.00000000000E+00 -0.45593999997E+02  0.45594000000E+02  0.51100000000E-03 0. -1.
    9900012    2    1    2    0    0  0.28194834382E+00  0.99729004225E+00  0.56496816608E+00  0.90007630852E+02  0.89999890779E+02 0.  0.
         12    1    1    2    0    0 -0.28194834382E+00 -0.99729004225E+00 -0.56496816608E+00  0.11803691480E+01  0.00000000000E+00 0. -1.
         11    1    3    3    0    0 -0.25404025743E+01  0.82520985163E+01  0.77642522606E+01  0.11611821071E+02  0.51100000000E-03 0. -1.
        -11    1    3    3    0    0  0.19021662695E+02 -0.30812899804E+01  0.31109462842E+02  0.36593943190E+02  0.51100000000E-03 0.  1.
         12    1    3    3    0    0 -0.16199311777E+02 -0.41735184936E+01 -0.38308746936E+02  0.41801866591E+02  0.00000000000E+00 0. -1.
</event>
<event>
 7    1  0.2404951E-015  0.9000751E+02  0.7816164E-02  0.1186339E+00
        -11   -1    0    0    0    0  0.00000000000E+00  0.00000000000E+00  0.45593999997E+02  0.45594000000E+02  0.51100000000E-03 0. -1.
         11   -1    0    0    0    0 -0.00000000000E+00 -0.00000000000E+00 -0.45593999997E+02  0.45594000000E+02  0.51100000000E-03 0.  1.
    9900012    2    1    2    0    0 -0.99745795185E+00 -0.60126000173E+00  0.19264998442E+00  0.90007512824E+02  0.89999771193E+02 0.  0.
         12    1    1    2    0    0  0.99745795185E+00  0.60126000173E+00 -0.19264998442E+00  0.11804871757E+01  0.00000000000E+00 0. -1.
         11    1    3    3    0    0  0.36261787297E+01 -0.92351823979E+01 -0.14706105617E+01  0.10029978155E+02  0.51100000000E-03 0. -1.
        -11    1    3    3    0    0  0.11715846848E+02  0.31522784869E+02  0.26219437382E+02  0.42642771136E+02  0.51100000000E-03 0.  1.
         12    1    3    3    0    0 -0.16339483529E+02 -0.22888862473E+02 -0.24556176836E+02  0.37334763534E+02  0.00000000000E+00 0. -1.
</event>
<event>
 7    1  0.2404951E-015  0.9000775E+02  0.7816164E-02  0.1186339E+00
        -11   -1    0    0    0    0  0.00000000000E+00  0.00000000000E+00  0.45593999997E+02  0.45594000000E+02  0.51100000000E-03 0.  1.
         11   -1    0    0    0    0 -0.00000000000E+00 -0.00000000000E+00 -0.45593999997E+02  0.45594000000E+02  0.51100000000E-03 0. -1.
    9900012    2    1    2    0    0  0.36830308074E+00  0.11028182096E+01  0.20284375541E+00  0.90007745472E+02  0.90000006912E+02 0.  0.
         12    1    1    2    0    0 -0.36830308074E+00 -0.11028182096E+01 -0.20284375541E+00  0.11802545284E+01  0.00000000000E+00 0. -1.
         11    1    3    3    0    0  0.67675888243E+01  0.86644931616E+01 -0.23156034330E+01  0.11235467047E+02  0.51100000000E-03 0. -1.
        -11    1    3    3    0    0 -0.22214881943E+02  0.29218771999E+02 -0.75854558935E+01  0.37480351629E+02  0.51100000000E-03 0.  1.
         12    1    3    3    0    0  0.15815596199E+02 -0.36780446951E+02  0.10103903082E+02  0.41291926796E+02  0.00000000000E+00 0. -1.
</event>
<event>
 7    1  0.2404951E-015  0.9000781E+02  0.7816164E-02  0.1186339E+00
        -11   -1    0    0    0    0  0.00000000000E+00  0.00000000000E+00  0.45593999997E+02  0.45594000000E+02  0.51100000000E-03 0.  1.
         11   -1    0    0    0    0 -0.00000000000E+00 -0.00000000000E+00 -0.45593999997E+02  0.45594000000E+02  0.51100000000E-03 0. -1.
    9900012    2    1    2    0    0  0.83543905012E-01  0.83694403722E+00  0.82788137313E+00  0.90007812526E+02  0.90000074851E+02 0.  0.
         12    1    1    2    0    0 -0.83543905012E-01 -0.83694403722E+00 -0.82788137313E+00  0.11801874739E+01  0.00000000000E+00 0. -1.
         11    1    3    3    0    0  0.30586732993E+02  0.13386872844E+02 -0.93464600117E+01  0.34671500036E+02  0.51100000000E-03 0. -1.
        -11    1    3    3    0    0  0.73328418520E+01  0.76244753205E+01 -0.19936662875E+01  0.10764659728E+02  0.51100000000E-03 0.  1.
        -12    1    3    3    0    0 -0.37836030940E+02 -0.20174404128E+02  0.12168007672E+02  0.44571652762E+02  0.00000000000E+00 0.  1.
</event>
<event>
 7    1  0.2404951E-015  0.9000819E+02  0.7816164E-02  0.1186338E+00
        -11   -1    0    0    0    0  0.00000000000E+00  0.00000000000E+00  0.45593999997E+02  0.45594000000E+02  0.51100000000E-03 0. -1.
         11   -1    0    0    0    0 -0.00000000000E+00 -0.00000000000E+00 -0.45593999997E+02  0.45594000000E+02  0.51100000000E-03 0.  1.
    9900012    2    1    2    0    0  0.10671476533E+01 -0.58092268465E-01 -0.49978262308E+00  0.90008185821E+02  0.90000453073E+02 0.  0.
         12    1    1    2    0    0 -0.10671476533E+01  0.58092268465E-01  0.49978262308E+00  0.11798141785E+01  0.00000000000E+00 0. -1.
         11    1    3    3    0    0  0.98177580906E+01 -0.17240269041E+00 -0.61539785810E+00  0.98385370558E+01  0.51100000000E-03 0. -1.
        -11    1    3    3    0    0 -0.17584438754E+02  0.37669002112E+02 -0.80449905065E+00  0.41579002218E+02  0.51100000000E-03 0.  1.
         12    1    3    3    0    0  0.88338283164E+01 -0.37554691691E+02  0.92011428567E+00  0.38590646548E+02  0.00000000000E+00 0. -1.
</event>
<event>
 7    1  0.2404951E-015  0.9000778E+02  0.7816164E-02  0.1186339E+00
        -11   -1    0    0    0    0  0.00000000000E+00  0.00000000000E+00  0.45593999997E+02  0.45594000000E+02  0.51100000000E-03 0.  1.
         11   -1    0    0    0    0 -0.00000000000E+00 -0.00000000000E+00 -0.45593999997E+02  0.45594000000E+02  0.51100000000E-03 0. -1.
    9900012    2    1    2    0    0  0.25353845816E+00  0.35005844703E+00  0.10982196079E+01  0.90007784353E+02  0.90000046307E+02 0.  0.
         12    1    1    2    0    0 -0.25353845816E+00 -0.35005844703E+00 -0.10982196079E+01  0.11802156469E+01  0.00000000000E+00 0. -1.
         11    1    3    3    0    0 -0.29627911032E+02  0.20373308942E+02 -0.19114377893E+02  0.40721545549E+02  0.51100000000E-03 0. -1.
        -11    1    3    3    0    0  0.13118592366E+01  0.43385574455E+01  0.90405050031E+01  0.10113099739E+02  0.51100000000E-03 0.  1.
        -12    1    3    3    0    0  0.28569590254E+02 -0.24361807941E+02  0.11172092498E+02  0.39173139065E+02  0.00000000000E+00 0.  1.
</event>
<event>
 7    1  0.2404951E-015  0.9000736E+02  0.7816164E-02  0.1186340E+00
        -11   -1    0    0    0    0  0.00000000000E+00  0.00000000000E+00  0.45593999997E+02  0.45594000000E+02  0.51100000000E-03 0. -1.
         11   -1    0    0    0    0 -0.00000000000E+00 -0.00000000000E+00 -0.45593999997E+02  0.45594000000E+02  0.51100000000E-03 0.  1.
    9900012    2    1    2    0    0 -0.61925432327E+00 -0.93275847701E+00 -0.37470727868E+00  0.90007356176E+02  0.89999612477E+02 0.  0.
         12    1    1    2    0    0  0.61925432327E+00  0.93275847701E+00  0.37470727868E+00  0.11806438235E+01  0.00000000000E+00 0. -1.
         11    1    3    3    0    0  0.22507613223E+02 -0.12559965828E+02  0.23633292225E+02  0.34969671091E+02  0.51100000000E-03 0. -1.
        -11    1    3    3    0    0  0.17962419223E+01 -0.32453463147E+01  0.98012372123E+01  0.10479647365E+02  0.51100000000E-03 0.  1.
        -12    1    3    3    0    0 -0.24923109468E+02  0.14872553665E+02 -0.33809236716E+02  0.44558037720E+02  0.00000000000E+00 0.  1.
</event>
<event>
 7    1  0.3037107E-015  0.9000778E+02  0.7816164E-02  0.1186339E+00
        -11   -1    0    0    0    0  0.00000000000E+00  0.00000000000E+00  0.45593999997E+02  0.45594000000E+02  0.51100000000E-03 0.  1.
         11   -1    0    0    0    0 -0.00000000000E+00 -0.00000000000E+00 -0.45593999997E+02  0.45594000000E+02  0.51100000000E-03 0. -1.
    9900012    2    1    2    0    0  0.11501506930E+01  0.18956447068E+00  0.18474787632E+00  0.90007782612E+02  0.90000044542E+02 0.  0.
         12    1    1    2    0    0 -0.11501506930E+01 -0.18956447068E+00 -0.18474787632E+00  0.11802173880E+01  0.00000000000E+00 0. -1.
         11    1    3    3    0    0 -0.32149067141E+01  0.10625259208E+02 -0.38671663303E+02  0.40233435117E+02  0.51100000000E-03 0. -1.
        -11    1    3    3    0    0 -0.14182607166E+01 -0.97387616020E+01 -0.62899463012E+00  0.98615706409E+01  0.51100000000E-03 0.  1.
        -12    1    3    3    0    0  0.57833181237E+01 -0.69693313502E+00  0.39485405809E+02  0.39912776855E+02  0.00000000000E+00 0.  1.
</event>
<event>
 7    1  0.2404951E-015  0.9000761E+02  0.7816164E-02  0.1186339E+00
        -11   -1    0    0    0    0  0.00000000000E+00  0.00000000000E+00  0.45593999997E+02  0.45594000000E+02  0.51100000000E-03 0.  1.
         11   -1    0    0    0    0 -0.00000000000E+00 -0.00000000000E+00 -0.45593999997E+02  0.45594000000E+02  0.51100000000E-03 0. -1.
    9900012    2    1    2    0    0  0.81444455736E+00 -0.28265655850E+00  0.80628704798E+00  0.90007613000E+02  0.89999872691E+02 0.  0.
         12    1    1    2    0    0 -0.81444455736E+00  0.28265655850E+00 -0.80628704798E+00  0.11803870004E+01  0.00000000000E+00 0. -1.
         11    1    3    3    0    0 -0.24663510490E+02 -0.21605893617E+02  0.19452679499E+02  0.38124927917E+02  0.51100000000E-03 0. -1.
        -11    1    3    3    0    0 -0.70860055375E+01 -0.30661624613E+01 -0.33709723861E+01  0.84247422397E+01  0.51100000000E-03 0.  1.
        -12    1    3    3    0    0  0.32563960585E+02  0.24389399520E+02 -0.15275420065E+02  0.43457942843E+02  0.00000000000E+00 0.  1.
</event>
<event>
 7    1  0.2404951E-015  0.9000763E+02  0.7816164E-02  0.1186339E+00
        -11   -1    0    0    0    0  0.00000000000E+00  0.00000000000E+00  0.45593999997E+02  0.45594000000E+02  0.51100000000E-03 0.  1.
         11   -1    0    0    0    0 -0.00000000000E+00 -0.00000000000E+00 -0.45593999997E+02  0.45594000000E+02  0.51100000000E-03 0. -1.
    9900012    2    1    2    0    0 -0.11685148006E+01 -0.12747389793E+00 -0.10763758338E+00  0.90007634682E+02  0.89999894660E+02 0.  0.
         12    1    1    2    0    0  0.11685148006E+01  0.12747389793E+00  0.10763758338E+00  0.11803653177E+01  0.00000000000E+00 0. -1.
         11    1    3    3    0    0  0.16908906152E+01  0.44426136269E+01  0.59046670342E+01  0.75803047403E+01  0.51100000000E-03 0. -1.
        -11    1    3    3    0    0 -0.17324158292E+01 -0.16820130998E+02  0.35397530079E+02  0.39228856819E+02  0.51100000000E-03 0.  1.
         12    1    3    3    0    0 -0.11269895866E+01  0.12250043473E+02 -0.41409834696E+02  0.43198473123E+02  0.00000000000E+00 0. -1.
</event>
<event>
 7    1  0.2404951E-015  0.9000777E+02  0.7816164E-02  0.1186339E+00
        -11   -1    0    0    0    0  0.00000000000E+00  0.00000000000E+00  0.45593999997E+02  0.45594000000E+02  0.51100000000E-03 0.  1.
         11   -1    0    0    0    0 -0.00000000000E+00 -0.00000000000E+00 -0.45593999997E+02  0.45594000000E+02  0.51100000000E-03 0. -1.
    9900012    2    1    2    0    0  0.37370367047E+00  0.37908029241E+00  0.10533708838E+01  0.90007768446E+02  0.90000030190E+02 0.  0.
         12    1    1    2    0    0 -0.37370367047E+00 -0.37908029241E+00 -0.10533708838E+01  0.11802315537E+01  0.00000000000E+00 0. -1.
         11    1    3    3    0    0 -0.22881787562E+01 -0.34193616929E+01 -0.77069900146E+01  0.87364461741E+01  0.51100000000E-03 0. -1.
        -11    1    3    3    0    0 -0.31339448872E+00  0.38289065227E+02 -0.12935018384E+02  0.40416153119E+02  0.51100000000E-03 0.  1.
         12    1    3    3    0    0  0.29752769154E+01 -0.34490623242E+02  0.21695379282E+02  0.40855169153E+02  0.00000000000E+00 0. -1.
</event>
<event>
 7    1  0.2404951E-015  0.9000777E+02  0.7816164E-02  0.1186339E+00
        -11   -1    0    0    0    0  0.00000000000E+00  0.00000000000E+00  0.45593999997E+02  0.45594000000E+02  0.51100000000E-03 0.  1.
         11   -1    0    0    0    0 -0.00000000000E+00 -0.00000000000E+00 -0.45593999997E+02  0.45594000000E+02  0.51100000000E-03 0. -1.
    9900012    2    1    2    0    0 -0.25659544435E+00 -0.10231002457E+01  0.52949451347E+00  0.90007771304E+02  0.90000033085E+02 0.  0.
         12    1    1    2    0    0  0.25659544435E+00  0.10231002457E+01 -0.52949451347E+00  0.11802286959E+01  0.00000000000E+00 0. -1.
         11    1    3    3    0    0 -0.13863330760E+02  0.25634916327E+02 -0.26068237041E+02  0.39101072333E+02  0.51100000000E-03 0. -1.
        -11    1    3    3    0    0 -0.13813964466E+01  0.62661809279E+01  0.79235124974E+01  0.10195848671E+02  0.51100000000E-03 0.  1.
        -12    1    3    3    0    0  0.14988131762E+02 -0.32924197501E+02  0.18674219057E+02  0.40710850301E+02  0.00000000000E+00 0.  1.
</event>
<event>
 7    1  0.2404951E-015  0.9000749E+02  0.7816164E-02  0.1186340E+00
        -11   -1    0    0    0    0  0.00000000000E+00  0.00000000000E+00  0.45593999997E+02  0.45594000000E+02  0.51100000000E-03 0. -1.
         11   -1    0    0    0    0 -0.00000000000E+00 -0.00000000000E+00 -0.45593999997E+02  0.45594000000E+02  0.51100000000E-03 0.  1.
    9900012    2    1    2    0    0  0.84503317792E+00 -0.59249693416E+00 -0.57311775669E+00  0.90007492629E+02  0.89999750732E+02 0.  0.
         12    1    1    2    0    0 -0.84503317792E+00  0.59249693416E+00  0.57311775669E+00  0.11805073705E+01  0.00000000000E+00 0. -1.
         11    1    3    3    0    0 -0.86862747047E+01 -0.40256653987E+01  0.37073447544E+01  0.10266535713E+02  0.51100000000E-03 0. -1.
        -11    1    3    3    0    0  0.39392723540E+01  0.41196353514E+02 -0.38572120596E+01  0.41563631875E+02  0.51100000000E-03 0.  1.
         12    1    3    3    0    0  0.55920355286E+01 -0.37763185049E+02 -0.42325045144E+00  0.38177325042E+02  0.00000000000E+00 0. -1.
</event>
<event>
 7    1  0.3424355E-015  0.9000776E+02  0.7816164E-02  0.1186339E+00
        -11   -1    0    0    0    0  0.00000000000E+00  0.00000000000E+00  0.45593999997E+02  0.45594000000E+02  0.51100000000E-03 0.  1.
         11   -1    0    0    0    0 -0.00000000000E+00 -0.00000000000E+00 -0.45593999997E+02  0.45594000000E+02  0.51100000000E-03 0. -1.
    9900012    2    1    2    0    0  0.10601775422E+01  0.18932675692E+00  0.48285932103E+00  0.90007756735E+02  0.90000018323E+02 0.  0.
         12    1    1    2    0    0 -0.10601775422E+01 -0.18932675692E+00 -0.48285932103E+00  0.11802432655E+01  0.00000000000E+00 0. -1.
         11    1    3    3    0    0 -0.46832821146E+01  0.70593947744E+01 -0.36075806619E+02  0.37057145187E+02  0.51100000000E-03 0. -1.
        -11    1    3    3    0    0 -0.70763357879E+01  0.31104764467E+01 -0.43950814300E+01  0.88919251541E+01  0.51100000000E-03 0.  1.
        -12    1    3    3    0    0  0.12819795445E+02 -0.99805444642E+01  0.40953747370E+02  0.44058686393E+02  0.00000000000E+00 0.  1.
</event>
<event>
 7    1  0.2404951E-015  0.9000775E+02  0.7816164E-02  0.1186339E+00
        -11   -1    0    0    0    0  0.00000000000E+00  0.00000000000E+00  0.45593999997E+02  0.45594000000E+02  0.51100000000E-03 0. -1.
         11   -1    0    0    0    0 -0.00000000000E+00 -0.00000000000E+00 -0.45593999997E+02  0.45594000000E+02  0.51100000000E-03 0.  1.
    9900012    2    1    2    0    0 -0.61677182176E+00 -0.99589359558E+00  0.14418312797E+00  0.90007745660E+02  0.90000007102E+02 0.  0.
         12    1    1    2    0    0  0.61677182176E+00  0.99589359558E+00 -0.14418312797E+00  0.11802543405E+01  0.00000000000E+00 0. -1.
         11    1    3    3    0    0  0.22311475883E+02  0.25851992909E+02  0.33886041074E+01  0.34316324563E+02  0.51100000000E-03 0. -1.
        -11    1    3    3    0    0  0.98167436966E+01  0.15989557046E+01 -0.69862773009E+01  0.12154554164E+02  0.51100000000E-03 0.  1.
        -12    1    3    3    0    0 -0.32744991401E+02 -0.28446842209E+02  0.37418563215E+01  0.43536866932E+02  0.00000000000E+00 0.  1.
</event>
<event>
 7    1  0.2404951E-015  0.9000775E+02  0.7816164E-02  0.1186339E+00
        -11   -1    0    0    0    0  0.00000000000E+00  0.00000000000E+00  0.45593999997E+02  0.45594000000E+02  0.51100000000E-03 0. -1.
         11   -1    0    0    0    0 -0.00000000000E+00 -0.00000000000E+00 -0.45593999997E+02  0.45594000000E+02  0.51100000000E-03 0.  1.
    9900012    2    1    2    0    0 -0.43871928668E+00  0.90130926260E+00 -0.62302065647E+00  0.90007750985E+02  0.90000012498E+02 0.  0.
         12    1    1    2    0    0  0.43871928668E+00 -0.90130926260E+00  0.62302065647E+00  0.11802490151E+01  0.00000000000E+00 0. -1.
         11    1    3    3    0    0  0.15248945562E+01 -0.98868013285E+01  0.26542867532E+01  0.10349849388E+02  0.51100000000E-03 0. -1.
        -11    1    3    3    0    0  0.37927049496E+02  0.58467887605E+01  0.47522476195E+01  0.38668202440E+02  0.51100000000E-03 0.  1.
         12    1    3    3    0    0 -0.39890663339E+02  0.49413218307E+01 -0.80295550292E+01  0.40989699157E+02  0.00000000000E+00 0. -1.
</event>
<event>
 7    1  0.2404951E-015  0.9000776E+02  0.7816164E-02  0.1186339E+00
        -11   -1    0    0    0    0  0.00000000000E+00  0.00000000000E+00  0.45593999997E+02  0.45594000000E+02  0.51100000000E-03 0. -1.
         11   -1    0    0    0    0 -0.00000000000E+00 -0.00000000000E+00 -0.45593999997E+02  0.45594000000E+02  0.51100000000E-03 0.  1.
    9900012    2    1    2    0    0 -0.57629273486E+00 -0.83313200914E+00 -0.60559182348E+00  0.90007761161E+02  0.90000022808E+02 0.  0.
         12    1    1    2    0    0  0.57629273486E+00  0.83313200914E+00  0.60559182348E+00  0.11802388392E+01  0.00000000000E+00 0. -1.
         11    1    3    3    0    0 -0.66901738538E+01  0.86287746211E+01  0.39409058542E+02  0.40893618978E+02  0.51100000000E-03 0. -1.
        -11    1    3    3    0    0 -0.80078586876E+01 -0.10341530755E+00 -0.32667301415E+01  0.86491630558E+01  0.51100000000E-03 0.  1.
        -12    1    3    3    0    0  0.14121739807E+02 -0.93584913227E+01 -0.36747920224E+02  0.40464979127E+02  0.00000000000E+00 0.  1.
</event>
<event>
 7    1  0.2404951E-015  0.9000780E+02  0.7816164E-02  0.1186339E+00
        -11   -1    0    0    0    0  0.00000000000E+00  0.00000000000E+00  0.45593999997E+02  0.45594000000E+02  0.51100000000E-03 0.  1.
         11   -1    0    0    0    0 -0.00000000000E+00 -0.00000000000E+00 -0.45593999997E+02  0.45594000000E+02  0.51100000000E-03 0. -1.
    9900012    2    1    2    0    0  0.32614295665E+00 -0.98110230552E+00  0.56916221312E+00  0.90007798074E+02  0.90000060208E+02 0.  0.
         12    1    1    2    0    0 -0.32614295665E+00  0.98110230552E+00 -0.56916221312E+00  0.11802019263E+01  0.00000000000E+00 0. -1.
         11    1    3    3    0    0 -0.53058293449E+01  0.85941437109E+01  0.16896770870E+01  0.10240416988E+02  0.51100000000E-03 0. -1.
        -11    1    3    3    0    0  0.31769198818E+02  0.13931630090E+02  0.18702891949E+02  0.39410283912E+02  0.51100000000E-03 0.  1.
         12    1    3    3    0    0 -0.26137226516E+02 -0.23506876106E+02 -0.19823406823E+02  0.40357097174E+02  0.00000000000E+00 0. -1.
</event>
<event>
 7    1  0.2404951E-015  0.9000784E+02  0.7816164E-02  0.1186339E+00
        -11   -1    0    0    0    0  0.00000000000E+00  0.00000000000E+00  0.45593999997E+02  0.45594000000E+02  0.51100000000E-03 0.  1.
         11   -1    0    0    0    0 -0.00000000000E+00 -0.00000000000E+00 -0.45593999997E+02  0.45594000000E+02  0.51100000000E-03 0. -1.
    9900012    2    1    2    0    0 -0.43386331884E+00 -0.10508201851E+01  0.31672007456E+00  0.90007842364E+02  0.90000105083E+02 0.  0.
         12    1    1    2    0    0  0.43386331884E+00  0.10508201851E+01 -0.31672007456E+00  0.11801576362E+01  0.00000000000E+00 0. -1.
         11    1    3    3    0    0  0.31992575473E+02  0.17563992517E+02 -0.16846156101E+02  0.40197160275E+02  0.51100000000E-03 0. -1.
        -11    1    3    3    0    0 -0.55386975046E+01  0.43869967630E+00 -0.70073675224E+01  0.89427527813E+01  0.51100000000E-03 0.  1.
        -12    1    3    3    0    0 -0.26887741287E+02 -0.19053512378E+02  0.24170243698E+02  0.40867929308E+02  0.00000000000E+00 0.  1.
</event>
<event>
 7    1  0.2404951E-015  0.9000773E+02  0.7816164E-02  0.1186339E+00
        -11   -1    0    0    0    0  0.00000000000E+00  0.00000000000E+00  0.45593999997E+02  0.45594000000E+02  0.51100000000E-03 0.  1.
         11   -1    0    0    0    0 -0.00000000000E+00 -0.00000000000E+00 -0.45593999997E+02  0.45594000000E+02  0.51100000000E-03 0. -1.
    9900012    2    1    2    0    0 -0.11800123659E+01 -0.20880057249E-01  0.13007168059E-01  0.90007731240E+02  0.89999992492E+02 0.  0.
         12    1    1    2    0    0  0.11800123659E+01  0.20880057249E-01 -0.13007168059E-01  0.11802687605E+01  0.00000000000E+00 0. -1.
         11    1    3    3    0    0 -0.79647244015E+01 -0.37897383038E+02  0.19666096459E+02  0.43432750616E+02  0.51100000000E-03 0. -1.
        -11    1    3    3    0    0 -0.54826937066E+01  0.82667970147E+01 -0.25294836911E+01  0.10237096813E+02  0.51100000000E-03 0.  1.
        -12    1    3    3    0    0  0.12267405742E+02  0.29609705966E+02 -0.17123605600E+02  0.36337883810E+02  0.00000000000E+00 0.  1.
</event>
<event>
 7    1  0.2404951E-015  0.9000778E+02  0.7816164E-02  0.1186339E+00
        -11   -1    0    0    0    0  0.00000000000E+00  0.00000000000E+00  0.45593999997E+02  0.45594000000E+02  0.51100000000E-03 0. -1.
         11   -1    0    0    0    0 -0.00000000000E+00 -0.00000000000E+00 -0.45593999997E+02  0.45594000000E+02  0.51100000000E-03 0.  1.
    9900012    2    1    2    0    0  0.89516009427E+00 -0.46094152429E+00 -0.61574844391E+00  0.90007777636E+02  0.90000039500E+02 0.  0.
         12    1    1    2    0    0 -0.89516009427E+00  0.46094152429E+00  0.61574844391E+00  0.11802223644E+01  0.00000000000E+00 0. -1.
         11    1    3    3    0    0 -0.20043782994E+02 -0.34336979798E+02  0.10183590393E+02  0.41042501531E+02  0.51100000000E-03 0. -1.
        -11    1    3    3    0    0 -0.27205186562E+01  0.11787676906E+01 -0.79736832936E+01  0.85070759109E+01  0.51100000000E-03 0.  1.
        -12    1    3    3    0    0  0.23659461745E+02  0.32697270583E+02 -0.28256555435E+01  0.40458200193E+02  0.00000000000E+00 0.  1.
</event>
<event>
 7    1  0.2404951E-015  0.9000775E+02  0.7816164E-02  0.1186339E+00
        -11   -1    0    0    0    0  0.00000000000E+00  0.00000000000E+00  0.45593999997E+02  0.45594000000E+02  0.51100000000E-03 0.  1.
         11   -1    0    0    0    0 -0.00000000000E+00 -0.00000000000E+00 -0.45593999997E+02  0.45594000000E+02  0.51100000000E-03 0. -1.
    9900012    2    1    2    0    0 -0.81248735020E+00 -0.71908797213E+00  0.46450383459E+00  0.90007751290E+02  0.90000012807E+02 0.  0.
         12    1    1    2    0    0  0.81248735020E+00  0.71908797213E+00 -0.46450383459E+00  0.11802487103E+01  0.00000000000E+00 0. -1.
         11    1    3    3    0    0 -0.62411174490E+01  0.58381171376E+01 -0.39512346018E+01  0.94152755596E+01  0.51100000000E-03 0. -1.
        -11    1    3    3    0    0  0.14124252910E+02 -0.26171464933E+02  0.33277223407E+02  0.44629740028E+02  0.51100000000E-03 0.  1.
         12    1    3    3    0    0 -0.86956228115E+01  0.19614259823E+02 -0.28861484971E+02  0.35962735702E+02  0.00000000000E+00 0. -1.
</event>
<event>
 7    1  0.2404951E-015  0.9000772E+02  0.7816164E-02  0.1186339E+00
        -11   -1    0    0    0    0  0.00000000000E+00  0.00000000000E+00  0.45593999997E+02  0.45594000000E+02  0.51100000000E-03 0. -1.
         11   -1    0    0    0    0 -0.00000000000E+00 -0.00000000000E+00 -0.45593999997E+02  0.45594000000E+02  0.51100000000E-03 0.  1.
    9900012    2    1    2    0    0  0.74589724618E+00  0.65764456041E+00 -0.63577778564E+00  0.90007715093E+02  0.89999976132E+02 0.  0.
         12    1    1    2    0    0 -0.74589724618E+00 -0.65764456041E+00  0.63577778564E+00  0.11802849073E+01  0.00000000000E+00 0. -1.
         11    1    3    3    0    0  0.12770958978E+02  0.31683282059E+02  0.10411152508E+02  0.35711620687E+02  0.51100000000E-03 0. -1.
        -11    1    3    3    0    0  0.16979011593E+01  0.86727874895E+01  0.39710863402E+01  0.96886344841E+01  0.51100000000E-03 0.  1.
        -12    1    3    3    0    0 -0.13722962891E+02 -0.39698424988E+02 -0.15018016634E+02  0.44607459922E+02  0.00000000000E+00 0.  1.
</event>
<event>
 7    1  0.2404951E-015  0.9000766E+02  0.7816164E-02  0.1186339E+00
        -11   -1    0    0    0    0  0.00000000000E+00  0.00000000000E+00  0.45593999997E+02  0.45594000000E+02  0.51100000000E-03 0. -1.
         11   -1    0    0    0    0 -0.00000000000E+00 -0.00000000000E+00 -0.45593999997E+02  0.45594000000E+02  0.51100000000E-03 0.  1.
    9900012    2    1    2    0    0  0.45438025194E+00  0.10886175780E+01 -0.40542423376E-01  0.90007663890E+02  0.89999924253E+02 0.  0.
         12    1    1    2    0    0 -0.45438025194E+00 -0.10886175780E+01  0.40542423376E-01  0.11803361100E+01  0.00000000000E+00 0. -1.
         11    1    3    3    0    0  0.31431984258E+02  0.16649551319E+01  0.15987959678E+02  0.35303775505E+02  0.51100000000E-03 0. -1.
        -11    1    3    3    0    0  0.42917361759E+01  0.13592460947E+02 -0.53313147422E+01  0.15218308419E+02  0.51100000000E-03 0.  1.
        -12    1    3    3    0    0 -0.35269340182E+02 -0.14168798501E+02 -0.10697187359E+02  0.39485579966E+02  0.00000000000E+00 0.  1.
</event>
<event>
 7    1  0.2670711E-015  0.9000785E+02  0.7816164E-02  0.1186339E+00
        -11   -1    0    0    0    0  0.00000000000E+00  0.00000000000E+00  0.45593999997E+02  0.45594000000E+02  0.51100000000E-03 0. -1.
         11   -1    0    0    0    0 -0.00000000000E+00 -0.00000000000E+00 -0.45593999997E+02  0.45594000000E+02  0.51100000000E-03 0.  1.
    9900012    2    1    2    0    0 -0.88340930780E-01 -0.27818160393E+00 -0.11434883384E+01  0.90007849711E+02  0.90000112527E+02 0.  0.
         12    1    1    2    0    0  0.88340930780E-01  0.27818160393E+00  0.11434883384E+01  0.11801502891E+01  0.00000000000E+00 0. -1.
         11    1    3    3    0    0  0.20063336506E+02 -0.84007259174E+01  0.32030585697E+02  0.38717800661E+02  0.51100000000E-03 0. -1.
        -11    1    3    3    0    0  0.30207153371E+01  0.96975035926E+01  0.74138737141E+00  0.10184102934E+02  0.51100000000E-03 0.  1.
        -12    1    3    3    0    0 -0.23172392774E+02 -0.15749592792E+01 -0.33915461407E+02  0.41105946115E+02  0.00000000000E+00 0.  1.
</event>
<event>
 7    1  0.2404951E-015  0.9000777E+02  0.7816164E-02  0.1186339E+00
        -11   -1    0    0    0    0  0.00000000000E+00  0.00000000000E+00  0.45593999997E+02  0.45594000000E+02  0.51100000000E-03 0.  1.
         11   -1    0    0    0    0 -0.00000000000E+00 -0.00000000000E+00 -0.45593999997E+02  0.45594000000E+02  0.51100000000E-03 0. -1.
    9900012    2    1    2    0    0  0.30886498674E+00 -0.86593739516E+00  0.74005835266E+00  0.90007774802E+02  0.90000036630E+02 0.  0.
         12    1    1    2    0    0 -0.30886498674E+00  0.86593739516E+00 -0.74005835266E+00  0.11802251979E+01  0.00000000000E+00 0. -1.
         11    1    3    3    0    0  0.26923425600E+02  0.26184554955E+02 -0.21526743407E+01  0.37618290383E+02  0.51100000000E-03 0. -1.
        -11    1    3    3    0    0  0.86821312905E+01 -0.39234101418E+01 -0.24940511299E+01  0.98484944121E+01  0.51100000000E-03 0.  1.
        -12    1    3    3    0    0 -0.35296691904E+02 -0.23127082209E+02  0.53867838233E+01  0.42540990007E+02  0.00000000000E+00 0.  1.
</event>
<event>
 7    1  0.2404951E-015  0.9000789E+02  0.7816164E-02  0.1186339E+00
        -11   -1    0    0    0    0  0.00000000000E+00  0.00000000000E+00  0.45593999997E+02  0.45594000000E+02  0.51100000000E-03 0.  1.
         11   -1    0    0    0    0 -0.00000000000E+00 -0.00000000000E+00 -0.45593999997E+02  0.45594000000E+02  0.51100000000E-03 0. -1.
    9900012    2    1    2    0    0  0.51672363958E+00  0.45803016389E+00  0.95700396280E+00  0.90007893422E+02  0.90000156815E+02 0.  0.
         12    1    1    2    0    0 -0.51672363958E+00 -0.45803016389E+00 -0.95700396280E+00  0.11801065780E+01  0.00000000000E+00 0. -1.
         11    1    3    3    0    0 -0.13607194823E+01 -0.36969185692E+02  0.12942813224E+02  0.39192967005E+02  0.51100000000E-03 0. -1.
        -11    1    3    3    0    0 -0.43044587020E+01 -0.28802955367E+01 -0.84136222007E+01  0.98799547516E+01  0.51100000000E-03 0.  1.
        -12    1    3    3    0    0  0.61819018239E+01  0.40307511393E+02 -0.35721870602E+01  0.40934971665E+02  0.00000000000E+00 0.  1.
</event>
<event>
 7    1  0.2404951E-015  0.9000764E+02  0.7816164E-02  0.1186339E+00
        -11   -1    0    0    0    0  0.00000000000E+00  0.00000000000E+00  0.45593999997E+02  0.45594000000E+02  0.51100000000E-03 0.  1.
         11   -1    0    0    0    0 -0.00000000000E+00 -0.00000000000E+00 -0.45593999997E+02  0.45594000000E+02  0.51100000000E-03 0. -1.
    9900012    2    1    2    0    0 -0.12131628668E+00  0.18744875717E+00  0.11590507370E+01  0.90007638492E+02  0.89999898520E+02 0.  0.
         12    1    1    2    0    0  0.12131628668E+00 -0.18744875717E+00 -0.11590507370E+01  0.11803615077E+01  0.00000000000E+00 0. -1.
         11    1    3    3    0    0 -0.82788175151E+01 -0.18891018506E+01 -0.39089023246E+01  0.93481037058E+01  0.51100000000E-03 0. -1.
        -11    1    3    3    0    0  0.25365447612E+02  0.34131665252E+02 -0.52372445188E+01  0.42846297808E+02  0.51100000000E-03 0.  1.
         12    1    3    3    0    0 -0.17207946384E+02 -0.32055114644E+02  0.10305197580E+02  0.37813236978E+02  0.00000000000E+00 0. -1.
</event>
<event>
 7    1  0.2404951E-015  0.9000779E+02  0.7816164E-02  0.1186339E+00
        -11   -1    0    0    0    0  0.00000000000E+00  0.00000000000E+00  0.45593999997E+02  0.45594000000E+02  0.51100000000E-03 0. -1.
         11   -1    0    0    0    0 -0.00000000000E+00 -0.00000000000E+00 -0.45593999997E+02  0.45594000000E+02  0.51100000000E-03 0.  1.
    9900012    2    1    2    0    0 -0.95678057404E+00  0.45232966658E+00 -0.52236724978E+00  0.90007788689E+02  0.90000050700E+02 0.  0.
         12    1    1    2    0    0  0.95678057404E+00 -0.45232966658E+00  0.52236724978E+00  0.11802113106E+01  0.00000000000E+00 0. -1.
         11    1    3    3    0    0  0.28153276015E+01 -0.32501286399E+01 -0.80892187072E+01  0.91610515354E+01  0.51100000000E-03 0. -1.
        -11    1    3    3    0    0 -0.12955830143E+02 -0.27735253483E+02 -0.21215603752E+02  0.37245129390E+02  0.51100000000E-03 0.  1.
         12    1    3    3    0    0  0.91837219674E+01  0.31437711789E+02  0.28782455209E+02  0.43601607764E+02  0.00000000000E+00 0. -1.
</event>
<event>
 7    1  0.2404951E-015  0.9000785E+02  0.7816164E-02  0.1186339E+00
        -11   -1    0    0    0    0  0.00000000000E+00  0.00000000000E+00  0.45593999997E+02  0.45594000000E+02  0.51100000000E-03 0.  1.
         11   -1    0    0    0    0 -0.00000000000E+00 -0.00000000000E+00 -0.45593999997E+02  0.45594000000E+02  0.51100000000E-03 0. -1.
    9900012    2    1    2    0    0  0.14430534433E+00 -0.10706779981E+01  0.47495752961E+00  0.90007847441E+02  0.90000110227E+02 0.  0.
         12    1    1    2    0    0 -0.14430534433E+00  0.10706779981E+01 -0.47495752961E+00  0.11801525592E+01  0.00000000000E+00 0. -1.
         11    1    3    3    0    0  0.35041888204E+02 -0.13931481511E+02 -0.45589736092E+01  0.37984264461E+02  0.51100000000E-03 0. -1.
        -11    1    3    3    0    0  0.56440146078E+01  0.28023088606E+01  0.79578607143E+01  0.10150634623E+02  0.51100000000E-03 0.  1.
        -12    1    3    3    0    0 -0.40541597468E+02  0.10058494652E+02 -0.29239295755E+01  0.41872948357E+02  0.00000000000E+00 0.  1.
</event>
<event>
 7    1  0.2404951E-015  0.9000778E+02  0.7816164E-02  0.1186339E+00
        -11   -1    0    0    0    0  0.00000000000E+00  0.00000000000E+00  0.45593999997E+02  0.45594000000E+02  0.51100000000E-03 0. -1.
         11   -1    0    0    0    0 -0.00000000000E+00 -0.00000000000E+00 -0.45593999997E+02  0.45594000000E+02  0.51100000000E-03 0.  1.
    9900012    2    1    2    0    0  0.44780437164E+00 -0.74120922663E+00  0.80187801467E+00  0.90007776198E+02  0.90000038044E+02 0.  0.
         12    1    1    2    0    0 -0.44780437164E+00  0.74120922663E+00 -0.80187801467E+00  0.11802238022E+01  0.00000000000E+00 0. -1.
         11    1    3    3    0    0  0.21567024445E+02 -0.71635511710E+01  0.35997240978E+02  0.42570581005E+02  0.51100000000E-03 0. -1.
        -11    1    3    3    0    0 -0.49176546390E+00 -0.70821129550E+01 -0.67778210199E+01  0.98151421395E+01  0.51100000000E-03 0.  1.
        -12    1    3    3    0    0 -0.20627454610E+02  0.13504454899E+02 -0.28417541944E+02  0.37622053053E+02  0.00000000000E+00 0.  1.
</event>
<event>
 7    1  0.2404951E-015  0.9000780E+02  0.7816164E-02  0.1186339E+00
        -11   -1    0    0    0    0  0.00000000000E+00  0.00000000000E+00  0.45593999997E+02  0.45594000000E+02  0.51100000000E-03 0.  1.
         11   -1    0    0    0    0 -0.00000000000E+00 -0.00000000000E+00 -0.45593999997E+02  0.45594000000E+02  0.51100000000E-03 0. -1.
    9900012    2    1    2    0    0  0.10424292268E+01  0.46248744594E+00  0.30385082714E+00  0.90007797197E+02  0.90000059320E+02 0.  0.
         12    1    1    2    0    0 -0.10424292268E+01 -0.46248744594E+00 -0.30385082714E+00  0.11802028028E+01  0.00000000000E+00 0. -1.
         11    1    3    3    0    0 -0.75649431420E+00 -0.28334350062E+01 -0.66900626599E+01  0.73046270430E+01  0.51100000000E-03 0. -1.
        -11    1    3    3    0    0 -0.83807444413E+01  0.30861322900E+01  0.43704028313E+02  0.44607209966E+02  0.51100000000E-03 0.  1.
         12    1    3    3    0    0  0.10179667982E+02  0.20979016219E+00 -0.36710114826E+02  0.38095960188E+02  0.00000000000E+00 0. -1.
</event>
<event>
 7    1  0.2404951E-015  0.9000771E+02  0.7816164E-02  0.1186339E+00
        -11   -1    0    0    0    0  0.00000000000E+00  0.00000000000E+00  0.45593999997E+02  0.45594000000E+02  0.51100000000E-03 0. -1.
         11   -1    0    0    0    0 -0.00000000000E+00 -0.00000000000E+00 -0.45593999997E+02  0.45594000000E+02  0.51100000000E-03 0.  1.
    9900012    2    1    2    0    0 -0.11701190433E+01 -0.14815586284E+00 -0.44342803919E-01  0.90007705537E+02  0.89999966450E+02 0.  0.
         12    1    1    2    0    0  0.11701190433E+01  0.14815586284E+00  0.44342803919E-01  0.11802944630E+01  0.00000000000E+00 0. -1.
         11    1    3    3    0    0  0.95215962773E+00 -0.75792584093E+01  0.34211817514E+02  0.35054246873E+02  0.51100000000E-03 0. -1.
        -11    1    3    3    0    0 -0.12945282561E+02  0.37830897451E+01  0.47583612942E+01  0.14301542262E+02  0.51100000000E-03 0.  1.
        -12    1    3    3    0    0  0.10823003890E+02  0.36480128014E+01 -0.39014521612E+02  0.40651916402E+02  0.00000000000E+00 0.  1.
</event>
<event>
 7    1  0.2404951E-015  0.9000819E+02  0.7816164E-02  0.1186338E+00
        -11   -1    0    0    0    0  0.00000000000E+00  0.00000000000E+00  0.45593999997E+02  0.45594000000E+02  0.51100000000E-03 0.  1.
         11   -1    0    0    0    0 -0.00000000000E+00 -0.00000000000E+00 -0.45593999997E+02  0.45594000000E+02  0.51100000000E-03 0. -1.
    9900012    2    1    2    0    0  0.11474406383E+01  0.27444221984E+00  0.14081903536E-02  0.90008194705E+02  0.90000462074E+02 0.  0.
         12    1    1    2    0    0 -0.11474406383E+01 -0.27444221984E+00 -0.14081903536E-02  0.11798052947E+01  0.00000000000E+00 0. -1.
         11    1    3    3    0    0 -0.39671652176E+01 -0.75466884481E+01  0.11488259857E+01  0.86029476229E+01  0.51100000000E-03 0. -1.
        -11    1    3    3    0    0  0.14945472369E+02 -0.27784928368E+02  0.21406059891E+02  0.38125959517E+02  0.51100000000E-03 0.  1.
         12    1    3    3    0    0 -0.98308665136E+01  0.35606059036E+02 -0.22553477686E+02  0.43279287566E+02  0.00000000000E+00 0. -1.
</event>
<event>
 7    1  0.2404951E-015  0.9000778E+02  0.7816164E-02  0.1186339E+00
        -11   -1    0    0    0    0  0.00000000000E+00  0.00000000000E+00  0.45593999997E+02  0.45594000000E+02  0.51100000000E-03 0. -1.
         11   -1    0    0    0    0 -0.00000000000E+00 -0.00000000000E+00 -0.45593999997E+02  0.45594000000E+02  0.51100000000E-03 0.  1.
    9900012    2    1    2    0    0  0.75296346265E+00 -0.46397092323E+00 -0.78146813284E+00  0.90007781615E+02  0.90000043532E+02 0.  0.
         12    1    1    2    0    0 -0.75296346265E+00  0.46397092323E+00  0.78146813284E+00  0.11802183850E+01  0.00000000000E+00 0. -1.
         11    1    3    3    0    0  0.26073344627E+00  0.39604278961E+02  0.22527895956E+01  0.39669156219E+02  0.51100000000E-03 0. -1.
        -11    1    3    3    0    0 -0.65355148322E+01  0.24160048029E+01 -0.20603310047E+01  0.72660166143E+01  0.51100000000E-03 0.  1.
        -12    1    3    3    0    0  0.70277448486E+01 -0.42484254687E+02 -0.97392672377E+00  0.43072608781E+02  0.00000000000E+00 0.  1.
</event>
<event>
 7    1  0.2404951E-015  0.9000778E+02  0.7816164E-02  0.1186339E+00
        -11   -1    0    0    0    0  0.00000000000E+00  0.00000000000E+00  0.45593999997E+02  0.45594000000E+02  0.51100000000E-03 0.  1.
         11   -1    0    0    0    0 -0.00000000000E+00 -0.00000000000E+00 -0.45593999997E+02  0.45594000000E+02  0.51100000000E-03 0. -1.
    9900012    2    1    2    0    0 -0.31040574418E+00  0.10803109900E+01 -0.35984470194E+00  0.90007783168E+02  0.90000045106E+02 0.  0.
         12    1    1    2    0    0  0.31040574418E+00 -0.10803109900E+01  0.35984470194E+00  0.11802168321E+01  0.00000000000E+00 0. -1.
         11    1    3    3    0    0 -0.27100085224E+02  0.15444583231E+02 -0.22574955012E+02  0.38504264236E+02  0.51100000000E-03 0. -1.
        -11    1    3    3    0    0  0.35957217975E+01 -0.29487876253E+01 -0.95062243016E+01  0.10582668115E+02  0.51100000000E-03 0.  1.
        -12    1    3    3    0    0  0.23193957682E+02 -0.11415484616E+02  0.31721334612E+02  0.40920850816E+02  0.00000000000E+00 0.  1.
</event>
<event>
 7    1  0.2404951E-015  0.9000774E+02  0.7816164E-02  0.1186339E+00
        -11   -1    0    0    0    0  0.00000000000E+00  0.00000000000E+00  0.45593999997E+02  0.45594000000E+02  0.51100000000E-03 0. -1.
         11   -1    0    0    0    0 -0.00000000000E+00 -0.00000000000E+00 -0.45593999997E+02  0.45594000000E+02  0.51100000000E-03 0.  1.
    9900012    2    1    2    0    0  0.20231063383E-02 -0.39364995464E+00 -0.11126788135E+01  0.90007737944E+02  0.89999999284E+02 0.  0.
         12    1    1    2    0    0 -0.20231063383E-02  0.39364995464E+00  0.11126788135E+01  0.11802620564E+01  0.00000000000E+00 0. -1.
         11    1    3    3    0    0  0.22705905029E+02  0.31642317324E+02 -0.12070540081E+02  0.40773671737E+02  0.51100000000E-03 0. -1.
        -11    1    3    3    0    0 -0.79045345876E+01  0.40201567019E+01  0.35972798170E+01  0.95699398795E+01  0.51100000000E-03 0.  1.
        -12    1    3    3    0    0 -0.14799347335E+02 -0.36056123980E+02  0.73605814506E+01  0.39664126327E+02  0.00000000000E+00 0.  1.
</event>
<event>
 7    1  0.2404951E-015  0.9000781E+02  0.7816164E-02  0.1186339E+00
        -11   -1    0    0    0    0  0.00000000000E+00  0.00000000000E+00  0.45593999997E+02  0.45594000000E+02  0.51100000000E-03 0.  1.
         11   -1    0    0    0    0 -0.00000000000E+00 -0.00000000000E+00 -0.45593999997E+02  0.45594000000E+02  0.51100000000E-03 0. -1.
    9900012    2    1    2    0    0 -0.50350405956E+00 -0.96684232155E+00 -0.45225784780E+00  0.90007814602E+02  0.90000076955E+02 0.  0.
         12    1    1    2    0    0  0.50350405956E+00  0.96684232155E+00  0.45225784780E+00  0.11801853980E+01  0.00000000000E+00 0. -1.
         11    1    3    3    0    0 -0.95686931894E+01  0.53167262982E+01  0.36760233388E+01  0.11547320717E+02  0.51100000000E-03 0. -1.
        -11    1    3    3    0    0 -0.21649074956E+02 -0.27417306939E+02  0.13203660128E+02  0.37346054775E+02  0.51100000000E-03 0.  1.
         12    1    3    3    0    0  0.30714264086E+02  0.21133738319E+02 -0.17331941314E+02  0.41114439111E+02  0.00000000000E+00 0. -1.
</event>
<event>
 7    1  0.2404951E-015  0.9000776E+02  0.7816164E-02  0.1186339E+00
        -11   -1    0    0    0    0  0.00000000000E+00  0.00000000000E+00  0.45593999997E+02  0.45594000000E+02  0.51100000000E-03 0. -1.
         11   -1    0    0    0    0 -0.00000000000E+00 -0.00000000000E+00 -0.45593999997E+02  0.45594000000E+02  0.51100000000E-03 0.  1.
    9900012    2    1    2    0    0 -0.57547329335E+00  0.66174676143E+00 -0.78987243723E+00  0.90007755638E+02  0.90000017212E+02 0.  0.
         12    1    1    2    0    0  0.57547329335E+00 -0.66174676143E+00  0.78987243723E+00  0.11802443623E+01  0.00000000000E+00 0. -1.
         11    1    3    3    0    0 -0.26848301115E+02  0.12356545895E+02 -0.17426930936E+02  0.34310543879E+02  0.51100000000E-03 0. -1.
        -11    1    3    3    0    0  0.43820625945E+01  0.16017966709E+02 -0.12127343948E+00  0.16606999656E+02  0.51100000000E-03 0.  1.
        -12    1    3    3    0    0  0.21890765227E+02 -0.27712765843E+02  0.16758331938E+02  0.39090212102E+02  0.00000000000E+00 0.  1.
</event>
<event>
 7    1  0.2404951E-015  0.9000773E+02  0.7816164E-02  0.1186339E+00
        -11   -1    0    0    0    0  0.00000000000E+00  0.00000000000E+00  0.45593999997E+02  0.45594000000E+02  0.51100000000E-03 0.  1.
         11   -1    0    0    0    0 -0.00000000000E+00 -0.00000000000E+00 -0.45593999997E+02  0.45594000000E+02  0.51100000000E-03 0. -1.
    9900012    2    1    2    0    0  0.84589719448E-01  0.11682494303E+01 -0.14514778701E+00  0.90007733067E+02  0.89999994344E+02 0.  0.
         12    1    1    2    0    0 -0.84589719448E-01 -0.11682494303E+01  0.14514778701E+00  0.11802669325E+01  0.00000000000E+00 0. -1.
         11    1    3    3    0    0 -0.25451627092E+02  0.70984361916E+01 -0.14673230169E+02  0.30223778748E+02  0.51100000000E-03 0. -1.
        -11    1    3    3    0    0 -0.15726741733E+02  0.97175474109E+00  0.89361965473E+00  0.15782055290E+02  0.51100000000E-03 0.  1.
        -12    1    3    3    0    0  0.41262958544E+02 -0.69019415024E+01  0.13634462727E+02  0.44001899029E+02  0.00000000000E+00 0.  1.
</event>
<event>
 7    1  0.2404951E-015  0.9000768E+02  0.7816164E-02  0.1186339E+00
        -11   -1    0    0    0    0  0.00000000000E+00  0.00000000000E+00  0.45593999997E+02  0.45594000000E+02  0.51100000000E-03 0.  1.
         11   -1    0    0    0    0 -0.00000000000E+00 -0.00000000000E+00 -0.45593999997E+02  0.45594000000E+02  0.51100000000E-03 0. -1.
    9900012    2    1    2    0    0  0.56508583689E+00 -0.14865705843E+00  0.10255387848E+01  0.90007681940E+02  0.89999942541E+02 0.  0.
         12    1    1    2    0    0 -0.56508583689E+00  0.14865705843E+00 -0.10255387848E+01  0.11803180602E+01  0.00000000000E+00 0. -1.
         11    1    3    3    0    0 -0.52284064663E+01 -0.64522093159E+01 -0.20966816619E+01  0.85652386706E+01  0.51100000000E-03 0. -1.
        -11    1    3    3    0    0 -0.22177108399E+02 -0.18455224622E+02  0.24979901906E+02  0.38163005022E+02  0.51100000000E-03 0.  1.
         12    1    3    3    0    0  0.27970600702E+02  0.24758776880E+02 -0.21857681459E+02  0.43279438247E+02  0.00000000000E+00 0. -1.
</event>
<event>
 7    1  0.2404951E-015  0.9000795E+02  0.7816164E-02  0.1186339E+00
        -11   -1    0    0    0    0  0.00000000000E+00  0.00000000000E+00  0.45593999997E+02  0.45594000000E+02  0.51100000000E-03 0. -1.
         11   -1    0    0    0    0 -0.00000000000E+00 -0.00000000000E+00 -0.45593999997E+02  0.45594000000E+02  0.51100000000E-03 0.  1.
    9900012    2    1    2    0    0 -0.10577150192E+01  0.49085667369E+00 -0.18114911449E+00  0.90007950705E+02  0.90000214854E+02 0.  0.
         12    1    1    2    0    0  0.10577150192E+01 -0.49085667369E+00  0.18114911449E+00  0.11800492946E+01  0.00000000000E+00 0. -1.
         11    1    3    3    0    0  0.32046572076E+01 -0.88318132284E-01 -0.89313264329E+01  0.94892686769E+01  0.51100000000E-03 0. -1.
        -11    1    3    3    0    0  0.21698985253E+02 -0.10147822993E+02 -0.26317886915E+02  0.35587293300E+02  0.51100000000E-03 0.  1.
         12    1    3    3    0    0 -0.25961357480E+02  0.10726997799E+02  0.35068064233E+02  0.44931388728E+02  0.00000000000E+00 0. -1.
</event>
<event>
 7    1  0.2404951E-015  0.9000783E+02  0.7816164E-02  0.1186339E+00
        -11   -1    0    0    0    0  0.00000000000E+00  0.00000000000E+00  0.45593999997E+02  0.45594000000E+02  0.51100000000E-03 0.  1.
         11   -1    0    0    0    0 -0.00000000000E+00 -0.00000000000E+00 -0.45593999997E+02  0.45594000000E+02  0.51100000000E-03 0. -1.
    9900012    2    1    2    0    0 -0.87635217916E+00  0.36202679595E+00  0.70267370344E+00  0.90007827607E+02  0.90000090132E+02 0.  0.
         12    1    1    2    0    0  0.87635217916E+00 -0.36202679595E+00 -0.70267370344E+00  0.11801723927E+01  0.00000000000E+00 0. -1.
         11    1    3    3    0    0 -0.16573888499E+02  0.16294009454E+02 -0.35084012322E+02  0.42084159074E+02  0.51100000000E-03 0. -1.
        -11    1    3    3    0    0 -0.55790401108E+01 -0.46685916302E+01  0.49344749163E+01  0.87903628667E+01  0.51100000000E-03 0.  1.
        -12    1    3    3    0    0  0.21276576431E+02 -0.11263391027E+02  0.30852211110E+02  0.39133305667E+02  0.00000000000E+00 0.  1.
</event>
<event>
 7    1  0.2404951E-015  0.9000762E+02  0.7816164E-02  0.1186339E+00
        -11   -1    0    0    0    0  0.00000000000E+00  0.00000000000E+00  0.45593999997E+02  0.45594000000E+02  0.51100000000E-03 0. -1.
         11   -1    0    0    0    0 -0.00000000000E+00 -0.00000000000E+00 -0.45593999997E+02  0.45594000000E+02  0.51100000000E-03 0.  1.
    9900012    2    1    2    0    0 -0.36054039944E+00 -0.86522207937E+00  0.71743188985E+00  0.90007615680E+02  0.89999875407E+02 0.  0.
         12    1    1    2    0    0  0.36054039944E+00  0.86522207937E+00 -0.71743188985E+00  0.11803843200E+01  0.00000000000E+00 0. -1.
         11    1    3    3    0    0  0.33455936923E+01 -0.21784193146E+01  0.87429642298E+01  0.96113439044E+01  0.51100000000E-03 0. -1.
        -11    1    3    3    0    0 -0.22664145415E+02  0.27875978462E+02 -0.24846958714E+02  0.43681861456E+02  0.51100000000E-03 0.  1.
         12    1    3    3    0    0  0.18958011323E+02 -0.26562781227E+02  0.16821426374E+02  0.36714410320E+02  0.00000000000E+00 0. -1.
</event>
<event>
 7    1  0.2404951E-015  0.9000775E+02  0.7816164E-02  0.1186339E+00
        -11   -1    0    0    0    0  0.00000000000E+00  0.00000000000E+00  0.45593999997E+02  0.45594000000E+02  0.51100000000E-03 0.  1.
         11   -1    0    0    0    0 -0.00000000000E+00 -0.00000000000E+00 -0.45593999997E+02  0.45594000000E+02  0.51100000000E-03 0. -1.
    9900012    2    1    2    0    0 -0.57945776873E+00  0.48330231179E+00  0.90754265253E+00  0.90007751680E+02  0.90000013202E+02 0.  0.
         12    1    1    2    0    0  0.57945776873E+00 -0.48330231179E+00 -0.90754265253E+00  0.11802483198E+01  0.00000000000E+00 0. -1.
         11    1    3    3    0    0  0.10165994914E+02  0.41882996633E+01 -0.36645055052E+02  0.38258977596E+02  0.51100000000E-03 0. -1.
        -11    1    3    3    0    0  0.84905342464E+00  0.10273091757E+02  0.30845731897E+00  0.10312732525E+02  0.51100000000E-03 0.  1.
        -12    1    3    3    0    0 -0.11594506108E+02 -0.13978089108E+02  0.37244140385E+02  0.41436041559E+02  0.00000000000E+00 0.  1.
</event>
<event>
 7    1  0.2404951E-015  0.9000783E+02  0.7816164E-02  0.1186339E+00
        -11   -1    0    0    0    0  0.00000000000E+00  0.00000000000E+00  0.45593999997E+02  0.45594000000E+02  0.51100000000E-03 0. -1.
         11   -1    0    0    0    0 -0.00000000000E+00 -0.00000000000E+00 -0.45593999997E+02  0.45594000000E+02  0.51100000000E-03 0.  1.
    9900012    2    1    2    0    0  0.62097415660E+00  0.44168632383E+00  0.90117239237E+00  0.90007827389E+02  0.90000089910E+02 0.  0.
         12    1    1    2    0    0 -0.62097415660E+00 -0.44168632383E+00 -0.90117239237E+00  0.11801726114E+01  0.00000000000E+00 0. -1.
         11    1    3    3    0    0  0.24895951057E+01 -0.53335549087E+01  0.19209300372E+01  0.61915155030E+01  0.51100000000E-03 0. -1.
        -11    1    3    3    0    0  0.39128077167E+01 -0.37828621539E+02  0.81288507130E+01  0.38889495830E+02  0.51100000000E-03 0.  1.
         12    1    3    3    0    0 -0.57814286658E+01  0.43603862771E+02 -0.91486083579E+01  0.44926816055E+02  0.00000000000E+00 0. -1.
</event>
<event>
 7    1  0.2404951E-015  0.9000779E+02  0.7816164E-02  0.1186339E+00
        -11   -1    0    0    0    0  0.00000000000E+00  0.00000000000E+00  0.45593999997E+02  0.45594000000E+02  0.51100000000E-03 0.  1.
         11   -1    0    0    0    0 -0.00000000000E+00 -0.00000000000E+00 -0.45593999997E+02  0.45594000000E+02  0.51100000000E-03 0. -1.
    9900012    2    1    2    0    0  0.25927911450E+00  0.11459439159E+01 -0.11171201753E+00  0.90007791251E+02  0.90000053295E+02 0.  0.
         12    1    1    2    0    0 -0.25927911450E+00 -0.11459439159E+01  0.11171201753E+00  0.11802087495E+01  0.00000000000E+00 0. -1.
         11    1    3    3    0    0  0.81642397482E+01  0.22686686245E+02 -0.29627443210E+02  0.38198506972E+02  0.51100000000E-03 0. -1.
        -11    1    3    3    0    0  0.93076682986E+01 -0.88337670769E+01 -0.27221943739E+01  0.13117868440E+02  0.51100000000E-03 0.  1.
        -12    1    3    3    0    0 -0.17212628932E+02 -0.12706975253E+02  0.32237925566E+02  0.38691415839E+02  0.00000000000E+00 0.  1.
</event>
<event>
 7    1  0.2404951E-015  0.9000793E+02  0.7816164E-02  0.1186339E+00
        -11   -1    0    0    0    0  0.00000000000E+00  0.00000000000E+00  0.45593999997E+02  0.45594000000E+02  0.51100000000E-03 0.  1.
         11   -1    0    0    0    0 -0.00000000000E+00 -0.00000000000E+00 -0.45593999997E+02  0.45594000000E+02  0.51100000000E-03 0. -1.
    9900012    2    1    2    0    0 -0.89346834940E+00  0.49889952606E+00  0.58768216168E+00  0.90007933582E+02  0.90000197505E+02 0.  0.
         12    1    1    2    0    0  0.89346834940E+00 -0.49889952606E+00 -0.58768216168E+00  0.11800664183E+01  0.00000000000E+00 0. -1.
         11    1    3    3    0    0 -0.27122845514E+02 -0.12036579785E+02 -0.21280527776E+02  0.36515597549E+02  0.51100000000E-03 0. -1.
        -11    1    3    3    0    0 -0.81370140764E+01  0.87769155235E+00 -0.38188834567E+01  0.90313460601E+01  0.51100000000E-03 0.  1.
        -12    1    3    3    0    0  0.34366391241E+02  0.11657787758E+02  0.25687093394E+02  0.44460989973E+02  0.00000000000E+00 0.  1.
</event>
<event>
 7    1  0.2404951E-015  0.9000772E+02  0.7816164E-02  0.1186339E+00
        -11   -1    0    0    0    0  0.00000000000E+00  0.00000000000E+00  0.45593999997E+02  0.45594000000E+02  0.51100000000E-03 0.  1.
         11   -1    0    0    0    0 -0.00000000000E+00 -0.00000000000E+00 -0.45593999997E+02  0.45594000000E+02  0.51100000000E-03 0. -1.
    9900012    2    1    2    0    0 -0.85482483211E+00  0.71693595848E+00 -0.38514381329E+00  0.90007721042E+02  0.89999982160E+02 0.  0.
         12    1    1    2    0    0  0.85482483211E+00 -0.71693595848E+00  0.38514381329E+00  0.11802789582E+01  0.00000000000E+00 0. -1.
         11    1    3    3    0    0 -0.62181145970E+01  0.25594961896E+02  0.12224610467E+02  0.29038046162E+02  0.51100000000E-03 0. -1.
        -11    1    3    3    0    0 -0.55688200643E+01  0.86418092655E+01  0.13592037487E+02  0.17042186115E+02  0.51100000000E-03 0.  1.
        -12    1    3    3    0    0  0.10932109829E+02 -0.33519835203E+02 -0.26201791767E+02  0.43927488764E+02  0.00000000000E+00 0.  1.
</event>
<event>
 7    1  0.2404951E-015  0.9000783E+02  0.7816164E-02  0.1186339E+00
        -11   -1    0    0    0    0  0.00000000000E+00  0.00000000000E+00  0.45593999997E+02  0.45594000000E+02  0.51100000000E-03 0.  1.
         11   -1    0    0    0    0 -0.00000000000E+00 -0.00000000000E+00 -0.45593999997E+02  0.45594000000E+02  0.51100000000E-03 0. -1.
    9900012    2    1    2    0    0 -0.81390523276E+00 -0.81824421553E+00  0.24663143482E+00  0.90007833745E+02  0.90000096351E+02 0.  0.
         12    1    1    2    0    0  0.81390523276E+00  0.81824421553E+00 -0.24663143482E+00  0.11801662547E+01  0.00000000000E+00 0. -1.
         11    1    3    3    0    0 -0.10842609535E+02 -0.12705515832E+02  0.11566423631E+02  0.20316851872E+02  0.51100000000E-03 0. -1.
        -11    1    3    3    0    0  0.24875841679E+02 -0.32289935477E+01  0.19859082974E+02  0.31994016244E+02  0.51100000000E-03 0.  1.
         12    1    3    3    0    0 -0.14847137376E+02  0.15116265164E+02 -0.31178875171E+02  0.37696965630E+02  0.00000000000E+00 0. -1.
</event>
<event>
 7    1  0.2404951E-015  0.9000773E+02  0.7816164E-02  0.1186339E+00
        -11   -1    0    0    0    0  0.00000000000E+00  0.00000000000E+00  0.45593999997E+02  0.45594000000E+02  0.51100000000E-03 0.  1.
         11   -1    0    0    0    0 -0.00000000000E+00 -0.00000000000E+00 -0.45593999997E+02  0.45594000000E+02  0.51100000000E-03 0. -1.
    9900012    2    1    2    0    0  0.82830881347E+00  0.52566217196E+00  0.65621911068E+00  0.90007728959E+02  0.89999990181E+02 0.  0.
         12    1    1    2    0    0 -0.82830881347E+00 -0.52566217196E+00 -0.65621911068E+00  0.11802710412E+01  0.00000000000E+00 0. -1.
         11    1    3    3    0    0  0.39193782867E+02  0.16893321130E+01 -0.98256896343E+00  0.39242475718E+02  0.51100000000E-03 0. -1.
        -11    1    3    3    0    0  0.36090298495E+01 -0.68830961829E+01  0.31254834548E+01  0.83767987086E+01  0.51100000000E-03 0.  1.
        -12    1    3    3    0    0 -0.41974503903E+02  0.57194262418E+01 -0.14866953807E+01  0.42388454532E+02  0.00000000000E+00 0.  1.
</event>
<event>
 7    1  0.2404951E-015  0.9000775E+02  0.7816164E-02  0.1186339E+00
        -11   -1    0    0    0    0  0.00000000000E+00  0.00000000000E+00  0.45593999997E+02  0.45594000000E+02  0.51100000000E-03 0. -1.
         11   -1    0    0    0    0 -0.00000000000E+00 -0.00000000000E+00 -0.45593999997E+02  0.45594000000E+02  0.51100000000E-03 0.  1.
    9900012    2    1    2    0    0  0.15575192975E+00  0.11105537734E+01 -0.36797477070E+00  0.90007748426E+02  0.90000009905E+02 0.  0.
         12    1    1    2    0    0 -0.15575192975E+00 -0.11105537734E+01  0.36797477070E+00  0.11802515745E+01  0.00000000000E+00 0. -1.
         11    1    3    3    0    0 -0.71825024021E+00 -0.11657155530E+02 -0.15033887891E+01  0.11775624678E+02  0.51100000000E-03 0. -1.
        -11    1    3    3    0    0  0.16391688403E+02  0.84191697855E+00 -0.34146084066E+02  0.37886030806E+02  0.51100000000E-03 0.  1.
         12    1    3    3    0    0 -0.15517686233E+02  0.11925792325E+02  0.35281498084E+02  0.40346092942E+02  0.00000000000E+00 0. -1.
</event>
<event>
 7    1  0.2404951E-015  0.9000774E+02  0.7816164E-02  0.1186339E+00
        -11   -1    0    0    0    0  0.00000000000E+00  0.00000000000E+00  0.45593999997E+02  0.45594000000E+02  0.51100000000E-03 0.  1.
         11   -1    0    0    0    0 -0.00000000000E+00 -0.00000000000E+00 -0.45593999997E+02  0.45594000000E+02  0.51100000000E-03 0. -1.
    9900012    2    1    2    0    0 -0.85203182207E+00 -0.79947315793E+00 -0.16702713647E+00  0.90007740020E+02  0.90000001388E+02 0.  0.
         12    1    1    2    0    0  0.85203182207E+00  0.79947315793E+00  0.16702713647E+00  0.11802599800E+01  0.00000000000E+00 0. -1.
         11    1    3    3    0    0 -0.20668447733E+01 -0.82266114834E+01  0.42125722682E+01  0.94707311857E+01  0.51100000000E-03 0. -1.
        -11    1    3    3    0    0  0.25802866013E+02 -0.24338004865E+02  0.11580894243E+02  0.37312779139E+02  0.51100000000E-03 0.  1.
         12    1    3    3    0    0 -0.24588053062E+02  0.31765143191E+02 -0.15960493647E+02  0.43224229696E+02  0.00000000000E+00 0. -1.
</event>
<event>
 7    1  0.2404951E-015  0.9000767E+02  0.7816164E-02  0.1186339E+00
        -11   -1    0    0    0    0  0.00000000000E+00  0.00000000000E+00  0.45593999997E+02  0.45594000000E+02  0.51100000000E-03 0.  1.
         11   -1    0    0    0    0 -0.00000000000E+00 -0.00000000000E+00 -0.45593999997E+02  0.45594000000E+02  0.51100000000E-03 0. -1.
    9900012    2    1    2    0    0  0.50004609746E+00  0.10857856678E+00  0.10636506265E+01  0.90007666123E+02  0.89999926516E+02 0.  0.
         12    1    1    2    0    0 -0.50004609746E+00 -0.10857856678E+00 -0.10636506265E+01  0.11803338765E+01  0.00000000000E+00 0. -1.
         11    1    3    3    0    0  0.13680230397E+02 -0.13443581300E+02 -0.11657461553E+01  0.19215554799E+02  0.51100000000E-03 0. -1.
        -11    1    3    3    0    0 -0.32255908233E+00  0.50766000317E+00  0.34061408514E+02  0.34066718558E+02  0.51100000000E-03 0.  1.
         12    1    3    3    0    0 -0.12857625217E+02  0.13044499864E+02 -0.31832011733E+02  0.36725392767E+02  0.00000000000E+00 0. -1.
</event>
<event>
 7    1  0.2404951E-015  0.9000785E+02  0.7816164E-02  0.1186339E+00
        -11   -1    0    0    0    0  0.00000000000E+00  0.00000000000E+00  0.45593999997E+02  0.45594000000E+02  0.51100000000E-03 0.  1.
         11   -1    0    0    0    0 -0.00000000000E+00 -0.00000000000E+00 -0.45593999997E+02  0.45594000000E+02  0.51100000000E-03 0. -1.
    9900012    2    1    2    0    0 -0.10816585777E+00  0.69528107262E+00  0.94743337204E+00  0.90007853561E+02  0.90000116428E+02 0.  0.
         12    1    1    2    0    0  0.10816585777E+00 -0.69528107262E+00 -0.94743337204E+00  0.11801464389E+01  0.00000000000E+00 0. -1.
         11    1    3    3    0    0  0.16966358525E+02 -0.15632585711E+02 -0.29789234921E+02  0.37678025095E+02  0.51100000000E-03 0. -1.
        -11    1    3    3    0    0  0.83122935086E+01 -0.30177368178E+01  0.13527689580E+01  0.89460015085E+01  0.51100000000E-03 0.  1.
        -12    1    3    3    0    0 -0.25386817892E+02  0.19345603602E+02  0.29383899335E+02  0.43383826958E+02  0.00000000000E+00 0.  1.
</event>
<event>
 7    1  0.2404951E-015  0.9000769E+02  0.7816164E-02  0.1186339E+00
        -11   -1    0    0    0    0  0.00000000000E+00  0.00000000000E+00  0.45593999997E+02  0.45594000000E+02  0.51100000000E-03 0.  1.
         11   -1    0    0    0    0 -0.00000000000E+00 -0.00000000000E+00 -0.45593999997E+02  0.45594000000E+02  0.51100000000E-03 0. -1.
    9900012    2    1    2    0    0  0.17165093896E+00  0.10331630375E+01  0.54427241902E+00  0.90007693949E+02  0.89999954710E+02 0.  0.
         12    1    1    2    0    0 -0.17165093896E+00 -0.10331630375E+01 -0.54427241902E+00  0.11803060506E+01  0.00000000000E+00 0. -1.
         11    1    3    3    0    0 -0.74643366235E+01  0.61418756685E+00  0.79157652904E+01  0.10897379868E+02  0.51100000000E-03 0. -1.
        -11    1    3    3    0    0 -0.31664546612E+02 -0.35152796410E+00  0.13708750488E+02  0.34506476555E+02  0.51100000000E-03 0.  1.
         12    1    3    3    0    0  0.39300534175E+02  0.77050343481E+00 -0.21080243359E+02  0.44603837526E+02  0.00000000000E+00 0. -1.
</event>
<event>
 7    1  0.2404951E-015  0.9000825E+02  0.7816164E-02  0.1186338E+00
        -11   -1    0    0    0    0  0.00000000000E+00  0.00000000000E+00  0.45593999997E+02  0.45594000000E+02  0.51100000000E-03 0.  1.
         11   -1    0    0    0    0 -0.00000000000E+00 -0.00000000000E+00 -0.45593999997E+02  0.45594000000E+02  0.51100000000E-03 0. -1.
    9900012    2    1    2    0    0  0.25429607023E+00 -0.11506749308E+01 -0.55696607898E-01  0.90008245195E+02  0.90000513230E+02 0.  0.
         12    1    1    2    0    0 -0.25429607023E+00  0.11506749308E+01  0.55696607898E-01  0.11797548050E+01  0.00000000000E+00 0. -1.
         11    1    3    3    0    0  0.17675531286E+01 -0.94000698287E+01 -0.50068265484E+01  0.10796011726E+02  0.51100000000E-03 0. -1.
        -11    1    3    3    0    0  0.12627008860E+01 -0.29871145384E+02 -0.17737911818E+02  0.34763677251E+02  0.51100000000E-03 0.  1.
         12    1    3    3    0    0 -0.27759579444E+01  0.38120540282E+02  0.22689041759E+02  0.44448556218E+02  0.00000000000E+00 0. -1.
</event>
<event>
 7    1  0.2404951E-015  0.9000769E+02  0.7816164E-02  0.1186339E+00
        -11   -1    0    0    0    0  0.00000000000E+00  0.00000000000E+00  0.45593999997E+02  0.45594000000E+02  0.51100000000E-03 0.  1.
         11   -1    0    0    0    0 -0.00000000000E+00 -0.00000000000E+00 -0.45593999997E+02  0.45594000000E+02  0.51100000000E-03 0. -1.
    9900012    2    1    2    0    0 -0.87746023385E+00  0.16547677119E+00  0.77189442755E+00  0.90007686469E+02  0.89999947131E+02 0.  0.
         12    1    1    2    0    0  0.87746023385E+00 -0.16547677119E+00 -0.77189442755E+00  0.11803135308E+01  0.00000000000E+00 0. -1.
         11    1    3    3    0    0  0.68587068500E+01  0.69014292086E+01 -0.10253227911E+01  0.97838066141E+01  0.51100000000E-03 0. -1.
        -11    1    3    3    0    0  0.31117522559E+02  0.15807868792E+02  0.46608897522E+01  0.35212395822E+02  0.51100000000E-03 0.  1.
         12    1    3    3    0    0 -0.38853689643E+02 -0.22543821229E+02 -0.28636725336E+01  0.45011484033E+02  0.00000000000E+00 0. -1.
</event>
<event>
 7    1  0.2404951E-015  0.9000772E+02  0.7816164E-02  0.1186339E+00
        -11   -1    0    0    0    0  0.00000000000E+00  0.00000000000E+00  0.45593999997E+02  0.45594000000E+02  0.51100000000E-03 0. -1.
         11   -1    0    0    0    0 -0.00000000000E+00 -0.00000000000E+00 -0.45593999997E+02  0.45594000000E+02  0.51100000000E-03 0.  1.
    9900012    2    1    2    0    0 -0.10692761848E+01  0.38102561743E+00 -0.32329863476E+00  0.90007722877E+02  0.89999984019E+02 0.  0.
         12    1    1    2    0    0  0.10692761848E+01 -0.38102561743E+00  0.32329863476E+00  0.11802771233E+01  0.00000000000E+00 0. -1.
         11    1    3    3    0    0  0.70003155764E+01  0.42941609024E+01 -0.14305196486E+01  0.83361035713E+01  0.51100000000E-03 0. -1.
        -11    1    3    3    0    0 -0.16967034248E+01 -0.53413494049E+01 -0.39827146177E+02  0.40219527457E+02  0.51100000000E-03 0.  1.
         12    1    3    3    0    0 -0.63728883363E+01  0.14282141199E+01  0.40934367191E+02  0.41452091849E+02  0.00000000000E+00 0. -1.
</event>
<event>
 7    1  0.2404951E-015  0.9000769E+02  0.7816164E-02  0.1186339E+00
        -11   -1    0    0    0    0  0.00000000000E+00  0.00000000000E+00  0.45593999997E+02  0.45594000000E+02  0.51100000000E-03 0.  1.
         11   -1    0    0    0    0 -0.00000000000E+00 -0.00000000000E+00 -0.45593999997E+02  0.45594000000E+02  0.51100000000E-03 0. -1.
    9900012    2    1    2    0    0  0.79217285558E+00  0.46464359002E+00  0.74141308101E+00  0.90007692898E+02  0.89999953644E+02 0.  0.
         12    1    1    2    0    0 -0.79217285558E+00 -0.46464359002E+00 -0.74141308101E+00  0.11803071022E+01  0.00000000000E+00 0. -1.
         11    1    3    3    0    0 -0.38037250590E+02 -0.48469153062E+01  0.19141850104E+02  0.42857151633E+02  0.51100000000E-03 0. -1.
        -11    1    3    3    0    0  0.44923727423E+00 -0.39064610632E+01 -0.19313539316E+01  0.43809109140E+01  0.51100000000E-03 0.  1.
        -12    1    3    3    0    0  0.38380186171E+02  0.92180199594E+01 -0.16469083091E+02  0.42769630351E+02  0.00000000000E+00 0.  1.
</event>
<event>
 7    1  0.2404951E-015  0.9000775E+02  0.7816164E-02  0.1186339E+00
        -11   -1    0    0    0    0  0.00000000000E+00  0.00000000000E+00  0.45593999997E+02  0.45594000000E+02  0.51100000000E-03 0. -1.
         11   -1    0    0    0    0 -0.00000000000E+00 -0.00000000000E+00 -0.45593999997E+02  0.45594000000E+02  0.51100000000E-03 0.  1.
    9900012    2    1    2    0    0 -0.46834352798E+00  0.91448203842E+00 -0.58082705736E+00  0.90007752937E+02  0.90000014476E+02 0.  0.
         12    1    1    2    0    0  0.46834352798E+00 -0.91448203842E+00  0.58082705736E+00  0.11802470628E+01  0.00000000000E+00 0. -1.
         11    1    3    3    0    0  0.76415839553E+01  0.67293368146E+01 -0.21688514157E+01  0.10410653007E+02  0.51100000000E-03 0. -1.
        -11    1    3    3    0    0 -0.34986131729E+02  0.20923423959E+02  0.68018255093E+01  0.41328971849E+02  0.51100000000E-03 0.  1.
         12    1    3    3    0    0  0.26876204246E+02 -0.26738278735E+02 -0.52138011509E+01  0.38268128081E+02  0.00000000000E+00 0. -1.
</event>
<event>
 7    1  0.2404951E-015  0.9000778E+02  0.7816164E-02  0.1186339E+00
        -11   -1    0    0    0    0  0.00000000000E+00  0.00000000000E+00  0.45593999997E+02  0.45594000000E+02  0.51100000000E-03 0.  1.
         11   -1    0    0    0    0 -0.00000000000E+00 -0.00000000000E+00 -0.45593999997E+02  0.45594000000E+02  0.51100000000E-03 0. -1.
    9900012    2    1    2    0    0  0.10953078419E+01  0.38045305823E+00  0.22018482871E+00  0.90007777497E+02  0.90000039360E+02 0.  0.
         12    1    1    2    0    0 -0.10953078419E+01 -0.38045305823E+00 -0.22018482871E+00  0.11802225031E+01  0.00000000000E+00 0. -1.
         11    1    3    3    0    0  0.21372137349E+02  0.13962651476E+02  0.26423803350E+02  0.36741546984E+02  0.51100000000E-03 0. -1.
        -11    1    3    3    0    0  0.42528871010E+01 -0.10196051142E+02  0.60560977655E+01  0.12598524834E+02  0.51100000000E-03 0.  1.
        -12    1    3    3    0    0 -0.24529716608E+02 -0.33861472748E+01 -0.32259716287E+02  0.40667705678E+02  0.00000000000E+00 0.  1.
</event>
<event>
 7    1  0.2404951E-015  0.9000769E+02  0.7816164E-02  0.1186339E+00
        -11   -1    0    0    0    0  0.00000000000E+00  0.00000000000E+00  0.45593999997E+02  0.45594000000E+02  0.51100000000E-03 0.  1.
         11   -1    0    0    0    0 -0.00000000000E+00 -0.00000000000E+00 -0.45593999997E+02  0.45594000000E+02  0.51100000000E-03 0. -1.
    9900012    2    1    2    0    0 -0.39725445078E+00  0.38235312119E+00  0.10436141741E+01  0.90007688366E+02  0.89999949053E+02 0.  0.
         12    1    1    2    0    0  0.39725445078E+00 -0.38235312119E+00 -0.10436141741E+01  0.11803116336E+01  0.00000000000E+00 0. -1.
         11    1    3    3    0    0  0.85765896860E+01 -0.35507510230E+02  0.34151499839E+01  0.36687932935E+02  0.51100000000E-03 0. -1.
        -11    1    3    3    0    0  0.88100514517E+01 -0.27292095017E+01 -0.54127310288E+01  0.10694075394E+02  0.51100000000E-03 0.  1.
        -12    1    3    3    0    0 -0.17783895589E+02  0.38619072853E+02  0.30411952190E+01  0.42625680037E+02  0.00000000000E+00 0.  1.
</event>
<event>
 7    1  0.2404951E-015  0.9000772E+02  0.7816164E-02  0.1186339E+00
        -11   -1    0    0    0    0  0.00000000000E+00  0.00000000000E+00  0.45593999997E+02  0.45594000000E+02  0.51100000000E-03 0.  1.
         11   -1    0    0    0    0 -0.00000000000E+00 -0.00000000000E+00 -0.45593999997E+02  0.45594000000E+02  0.51100000000E-03 0. -1.
    9900012    2    1    2    0    0 -0.42622887803E+00  0.10298625205E+01  0.38828561746E+00  0.90007723088E+02  0.89999984233E+02 0.  0.
         12    1    1    2    0    0  0.42622887803E+00 -0.10298625205E+01 -0.38828561746E+00  0.11802769117E+01  0.00000000000E+00 0. -1.
         11    1    3    3    0    0 -0.56710537501E+00  0.59363596014E+00  0.90632136292E+01  0.91003216266E+01  0.51100000000E-03 0. -1.
        -11    1    3    3    0    0 -0.21407126525E+02 -0.33715307991E+02 -0.65449904296E+01  0.40470037793E+02  0.51100000000E-03 0.  1.
         12    1    3    3    0    0  0.21548003022E+02  0.34151534551E+02 -0.21299375821E+01  0.40437363669E+02  0.00000000000E+00 0. -1.
</event>
<event>
 7    1  0.2404951E-015  0.9000777E+02  0.7816164E-02  0.1186339E+00
        -11   -1    0    0    0    0  0.00000000000E+00  0.00000000000E+00  0.45593999997E+02  0.45594000000E+02  0.51100000000E-03 0.  1.
         11   -1    0    0    0    0 -0.00000000000E+00 -0.00000000000E+00 -0.45593999997E+02  0.45594000000E+02  0.51100000000E-03 0. -1.
    9900012    2    1    2    0    0  0.93866833695E+00 -0.37337509814E+00  0.61027330219E+00  0.90007770906E+02  0.90000032682E+02 0.  0.
         12    1    1    2    0    0 -0.93866833695E+00  0.37337509814E+00 -0.61027330219E+00  0.11802290939E+01  0.00000000000E+00 0. -1.
         11    1    3    3    0    0 -0.20231517798E+02 -0.17994431193E+02 -0.25415922548E+02  0.37136006593E+02  0.51100000000E-03 0. -1.
        -11    1    3    3    0    0 -0.93405398432E+01 -0.17473513018E+01  0.27767770363E+01  0.98999703083E+01  0.51100000000E-03 0.  1.
        -12    1    3    3    0    0  0.30510725979E+02  0.19368407397E+02  0.23249418814E+02  0.42971794005E+02  0.00000000000E+00 0.  1.
</event>
<event>
 7    1  0.2404951E-015  0.9000774E+02  0.7816164E-02  0.1186339E+00
        -11   -1    0    0    0    0  0.00000000000E+00  0.00000000000E+00  0.45593999997E+02  0.45594000000E+02  0.51100000000E-03 0.  1.
         11   -1    0    0    0    0 -0.00000000000E+00 -0.00000000000E+00 -0.45593999997E+02  0.45594000000E+02  0.51100000000E-03 0. -1.
    9900012    2    1    2    0    0  0.73673106407E+00 -0.84323734460E+00 -0.37308925423E+00  0.90007738388E+02  0.89999999735E+02 0.  0.
         12    1    1    2    0    0 -0.73673106407E+00  0.84323734460E+00  0.37308925423E+00  0.11802616116E+01  0.00000000000E+00 0. -1.
         11    1    3    3    0    0  0.55368880752E+01 -0.74418651202E+01  0.35009797188E+01  0.99144009036E+01  0.51100000000E-03 0. -1.
        -11    1    3    3    0    0 -0.10240029287E+02 -0.26215472497E+02  0.23773364434E+02  0.36841309081E+02  0.51100000000E-03 0.  1.
         12    1    3    3    0    0  0.54398722754E+01  0.32814100272E+02 -0.27647433407E+02  0.43252028404E+02  0.00000000000E+00 0. -1.
</event>
<event>
 7    1  0.2404951E-015  0.9000768E+02  0.7816164E-02  0.1186339E+00
        -11   -1    0    0    0    0  0.00000000000E+00  0.00000000000E+00  0.45593999997E+02  0.45594000000E+02  0.51100000000E-03 0.  1.
         11   -1    0    0    0    0 -0.00000000000E+00 -0.00000000000E+00 -0.45593999997E+02  0.45594000000E+02  0.51100000000E-03 0. -1.
    9900012    2    1    2    0    0  0.55559972195E+00  0.89103784519E+00  0.53899194500E+00  0.90007681480E+02  0.89999942075E+02 0.  0.
         12    1    1    2    0    0 -0.55559972195E+00 -0.89103784519E+00 -0.53899194500E+00  0.11803185203E+01  0.00000000000E+00 0. -1.
         11    1    3    3    0    0 -0.89812824078E+00  0.13232941040E+01 -0.93858688028E+01  0.95211488312E+01  0.51100000000E-03 0. -1.
        -11    1    3    3    0    0  0.37248339644E+02 -0.15565324290E+02 -0.29535609284E-01  0.40369778289E+02  0.51100000000E-03 0.  1.
         12    1    3    3    0    0 -0.35794611682E+02  0.15133068031E+02  0.99543963570E+01  0.40116754359E+02  0.00000000000E+00 0. -1.
</event>
<event>
 7    1  0.2404951E-015  0.9000769E+02  0.7816164E-02  0.1186339E+00
        -11   -1    0    0    0    0  0.00000000000E+00  0.00000000000E+00  0.45593999997E+02  0.45594000000E+02  0.51100000000E-03 0.  1.
         11   -1    0    0    0    0 -0.00000000000E+00 -0.00000000000E+00 -0.45593999997E+02  0.45594000000E+02  0.51100000000E-03 0. -1.
    9900012    2    1    2    0    0  0.69741637133E+00  0.61453175973E+00  0.72738653352E+00  0.90007690698E+02  0.89999951415E+02 0.  0.
         12    1    1    2    0    0 -0.69741637133E+00 -0.61453175973E+00 -0.72738653352E+00  0.11803093018E+01  0.00000000000E+00 0. -1.
         11    1    3    3    0    0  0.59896373748E+00  0.85066757784E+01  0.70894820521E+00  0.85571547945E+01  0.51100000000E-03 0. -1.
        -11    1    3    3    0    0 -0.32235250911E+02  0.62757633672E+01  0.22308311173E+02  0.39700848288E+02  0.51100000000E-03 0.  1.
         12    1    3    3    0    0  0.32333703545E+02 -0.14167907386E+02 -0.22289872845E+02  0.41749687616E+02  0.00000000000E+00 0. -1.
</event>
<event>
 7    1  0.2404951E-015  0.9000763E+02  0.7816164E-02  0.1186339E+00
        -11   -1    0    0    0    0  0.00000000000E+00  0.00000000000E+00  0.45593999997E+02  0.45594000000E+02  0.51100000000E-03 0.  1.
         11   -1    0    0    0    0 -0.00000000000E+00 -0.00000000000E+00 -0.45593999997E+02  0.45594000000E+02  0.51100000000E-03 0. -1.
    9900012    2    1    2    0    0  0.47038533642E+00 -0.86827942086E+00  0.64661693744E+00  0.90007625068E+02  0.89999884918E+02 0.  0.
         12    1    1    2    0    0 -0.47038533642E+00  0.86827942086E+00 -0.64661693744E+00  0.11803749325E+01  0.00000000000E+00 0. -1.
         11    1    3    3    0    0  0.61862876190E+00 -0.47629876133E+01  0.11279078405E+02  0.12259133839E+02  0.51100000000E-03 0. -1.
        -11    1    3    3    0    0 -0.88439340145E+01 -0.14939342885E+02  0.28549591458E+02  0.33413744288E+02  0.51100000000E-03 0.  1.
         12    1    3    3    0    0  0.86956905890E+01  0.18834051077E+02 -0.39182052926E+02  0.44334746940E+02  0.00000000000E+00 0. -1.
</event>
<event>
 7    1  0.2404951E-015  0.9000764E+02  0.7816164E-02  0.1186339E+00
        -11   -1    0    0    0    0  0.00000000000E+00  0.00000000000E+00  0.45593999997E+02  0.45594000000E+02  0.51100000000E-03 0.  1.
         11   -1    0    0    0    0 -0.00000000000E+00 -0.00000000000E+00 -0.45593999997E+02  0.45594000000E+02  0.51100000000E-03 0. -1.
    9900012    2    1    2    0    0 -0.11749314811E+01  0.39887207140E-01  0.10579249424E+00  0.90007641145E+02  0.89999901208E+02 0.  0.
         12    1    1    2    0    0  0.11749314811E+01 -0.39887207140E-01 -0.10579249424E+00  0.11803588549E+01  0.00000000000E+00 0. -1.
         11    1    3    3    0    0  0.62756118322E+01 -0.15461672175E+02 -0.37542487947E+02  0.41083877761E+02  0.51100000000E-03 0. -1.
        -11    1    3    3    0    0 -0.49851141029E+01 -0.66880845431E+01  0.63743916742E+01  0.10498319244E+02  0.51100000000E-03 0.  1.
        -12    1    3    3    0    0 -0.24654292104E+01  0.22189643926E+02  0.31273888767E+02  0.38425444140E+02  0.00000000000E+00 0.  1.
</event>
<event>
 7    1  0.2404951E-015  0.9000782E+02  0.7816164E-02  0.1186339E+00
        -11   -1    0    0    0    0  0.00000000000E+00  0.00000000000E+00  0.45593999997E+02  0.45594000000E+02  0.51100000000E-03 0.  1.
         11   -1    0    0    0    0 -0.00000000000E+00 -0.00000000000E+00 -0.45593999997E+02  0.45594000000E+02  0.51100000000E-03 0. -1.
    9900012    2    1    2    0    0 -0.87523981757E+00 -0.55173107441E+00  0.56777323375E+00  0.90007822741E+02  0.90000085202E+02 0.  0.
         12    1    1    2    0    0  0.87523981757E+00  0.55173107441E+00 -0.56777323375E+00  0.11801772586E+01  0.00000000000E+00 0. -1.
         11    1    3    3    0    0  0.60756895545E+00  0.81876794277E+01 -0.43324916068E+01  0.92831954752E+01  0.51100000000E-03 0. -1.
        -11    1    3    3    0    0 -0.36197634517E+02  0.14129991659E+02  0.48052947549E+01  0.39153751632E+02  0.51100000000E-03 0.  1.
         12    1    3    3    0    0  0.34714825744E+02 -0.22869402161E+02  0.94970085742E-01  0.41570875634E+02  0.00000000000E+00 0. -1.
</event>
<event>
 7    1  0.2404951E-015  0.9000755E+02  0.7816164E-02  0.1186339E+00
        -11   -1    0    0    0    0  0.00000000000E+00  0.00000000000E+00  0.45593999997E+02  0.45594000000E+02  0.51100000000E-03 0.  1.
         11   -1    0    0    0    0 -0.00000000000E+00 -0.00000000000E+00 -0.45593999997E+02  0.45594000000E+02  0.51100000000E-03 0. -1.
    9900012    2    1    2    0    0  0.54899060196E+00  0.97778000955E+00 -0.36879412962E+00  0.90007553670E+02  0.89999812578E+02 0.  0.
         12    1    1    2    0    0 -0.54899060196E+00 -0.97778000955E+00  0.36879412962E+00  0.11804463301E+01  0.00000000000E+00 0. -1.
         11    1    3    3    0    0  0.24126225478E+02 -0.19381248286E+02 -0.20372034416E+02  0.37050335051E+02  0.51100000000E-03 0. -1.
        -11    1    3    3    0    0  0.10054155136E+01 -0.90810857953E+01 -0.10637253640E+01  0.91982874215E+01  0.51100000000E-03 0.  1.
        -12    1    3    3    0    0 -0.24582650389E+02  0.29440114091E+02  0.21066965650E+02  0.43758931197E+02  0.00000000000E+00 0.  1.
</event>
<event>
 7    1  0.2404951E-015  0.9000773E+02  0.7816164E-02  0.1186339E+00
        -11   -1    0    0    0    0  0.00000000000E+00  0.00000000000E+00  0.45593999997E+02  0.45594000000E+02  0.51100000000E-03 0.  1.
         11   -1    0    0    0    0 -0.00000000000E+00 -0.00000000000E+00 -0.45593999997E+02  0.45594000000E+02  0.51100000000E-03 0. -1.
    9900012    2    1    2    0    0 -0.24363071513E+00  0.40247615094E+00  0.10824478890E+01  0.90007730366E+02  0.89999991606E+02 0.  0.
         12    1    1    2    0    0  0.24363071513E+00 -0.40247615094E+00 -0.10824478890E+01  0.11802696343E+01  0.00000000000E+00 0. -1.
         11    1    3    3    0    0 -0.23247893488E+02  0.20767460438E+02 -0.29320410474E+02  0.42795308567E+02  0.51100000000E-03 0. -1.
        -11    1    3    3    0    0  0.88011505354E+01 -0.48288720812E+01 -0.23330766440E+00  0.10041548140E+02  0.51100000000E-03 0.  1.
        -12    1    3    3    0    0  0.14203112237E+02 -0.15536112206E+02  0.30636166027E+02  0.37170873659E+02  0.00000000000E+00 0.  1.
</event>
<event>
 7    1  0.2404951E-015  0.9000781E+02  0.7816164E-02  0.1186339E+00
        -11   -1    0    0    0    0  0.00000000000E+00  0.00000000000E+00  0.45593999997E+02  0.45594000000E+02  0.51100000000E-03 0. -1.
         11   -1    0    0    0    0 -0.00000000000E+00 -0.00000000000E+00 -0.45593999997E+02  0.45594000000E+02  0.51100000000E-03 0.  1.
    9900012    2    1    2    0    0 -0.83207034972E+00  0.64960537235E+00 -0.52774986154E+00  0.90007810133E+02  0.90000072426E+02 0.  0.
         12    1    1    2    0    0  0.83207034972E+00 -0.64960537235E+00  0.52774986154E+00  0.11801898674E+01  0.00000000000E+00 0. -1.
         11    1    3    3    0    0 -0.41085197449E+02 -0.32535274632E+01  0.57467866038E+01  0.41612551555E+02  0.51100000000E-03 0. -1.
        -11    1    3    3    0    0  0.16146956360E+01 -0.31561830273E+01 -0.83407484571E+01  0.90629365211E+01  0.51100000000E-03 0.  1.
        -12    1    3    3    0    0  0.38638431463E+02  0.70593158628E+01  0.20662119918E+01  0.39332322057E+02  0.00000000000E+00 0.  1.
</event>
<event>
 7    1  0.3529391E-015  0.9000788E+02  0.7816164E-02  0.1186339E+00
        -11   -1    0    0    0    0  0.00000000000E+00  0.00000000000E+00  0.45593999997E+02  0.45594000000E+02  0.51100000000E-03 0.  1.
         11   -1    0    0    0    0 -0.00000000000E+00 -0.00000000000E+00 -0.45593999997E+02  0.45594000000E+02  0.51100000000E-03 0. -1.
    9900012    2    1    2    0    0 -0.10256897849E+01 -0.33386150985E+00  0.47871976320E+00  0.90007883203E+02  0.90000146461E+02 0.  0.
         12    1    1    2    0    0  0.10256897849E+01  0.33386150985E+00 -0.47871976320E+00  0.11801167969E+01  0.00000000000E+00 0. -1.
         11    1    3    3    0    0  0.28222714227E+02 -0.82167345997E+00 -0.27277450904E+02  0.39258834339E+02  0.51100000000E-03 0. -1.
        -11    1    3    3    0    0 -0.37078232569E+01  0.65580210508E+01 -0.47956608341E+01  0.89305070686E+01  0.51100000000E-03 0.  1.
        -12    1    3    3    0    0 -0.25540580755E+02 -0.60702091007E+01  0.32551831501E+02  0.41818541795E+02  0.00000000000E+00 0.  1.
</event>
<event>
 7    1  0.2404951E-015  0.9000775E+02  0.7816164E-02  0.1186339E+00
        -11   -1    0    0    0    0  0.00000000000E+00  0.00000000000E+00  0.45593999997E+02  0.45594000000E+02  0.51100000000E-03 0. -1.
         11   -1    0    0    0    0 -0.00000000000E+00 -0.00000000000E+00 -0.45593999997E+02  0.45594000000E+02  0.51100000000E-03 0.  1.
    9900012    2    1    2    0    0 -0.11104950247E+01 -0.39955293041E+00  0.12405342288E-01  0.90007747639E+02  0.90000009107E+02 0.  0.
         12    1    1    2    0    0  0.11104950247E+01  0.39955293041E+00 -0.12405342288E-01  0.11802523614E+01  0.00000000000E+00 0. -1.
         11    1    3    3    0    0  0.12461938826E+02 -0.24031246831E+01  0.41613617264E+02  0.43505954415E+02  0.51100000000E-03 0. -1.
        -11    1    3    3    0    0  0.21852292954E+01  0.42713527496E+01 -0.81975256339E+01  0.94983739748E+01  0.51100000000E-03 0.  1.
        -12    1    3    3    0    0 -0.15757663146E+02 -0.22677809970E+01 -0.33403686288E+02  0.37003419248E+02  0.00000000000E+00 0.  1.
</event>
<event>
 7    1  0.2404951E-015  0.9000777E+02  0.7816164E-02  0.1186339E+00
        -11   -1    0    0    0    0  0.00000000000E+00  0.00000000000E+00  0.45593999997E+02  0.45594000000E+02  0.51100000000E-03 0.  1.
         11   -1    0    0    0    0 -0.00000000000E+00 -0.00000000000E+00 -0.45593999997E+02  0.45594000000E+02  0.51100000000E-03 0. -1.
    9900012    2    1    2    0    0  0.86346097065E+00 -0.72815969323E+00  0.34230041029E+00  0.90007766566E+02  0.90000028285E+02 0.  0.
         12    1    1    2    0    0 -0.86346097065E+00  0.72815969323E+00 -0.34230041029E+00  0.11802334335E+01  0.00000000000E+00 0. -1.
         11    1    3    3    0    0 -0.95654841589E+01  0.34654722717E+02 -0.60177488625E+01  0.36450810627E+02  0.51100000000E-03 0. -1.
        -11    1    3    3    0    0  0.14581707850E+01  0.73236434479E+01 -0.43248065450E+01  0.86293665644E+01  0.51100000000E-03 0.  1.
        -12    1    3    3    0    0  0.89707743446E+01 -0.42706525858E+02  0.10684855818E+02  0.44927589375E+02  0.00000000000E+00 0.  1.
</event>
<event>
 7    1  0.2404951E-015  0.9000777E+02  0.7816164E-02  0.1186339E+00
        -11   -1    0    0    0    0  0.00000000000E+00  0.00000000000E+00  0.45593999997E+02  0.45594000000E+02  0.51100000000E-03 0.  1.
         11   -1    0    0    0    0 -0.00000000000E+00 -0.00000000000E+00 -0.45593999997E+02  0.45594000000E+02  0.51100000000E-03 0. -1.
    9900012    2    1    2    0    0 -0.94881912759E+00  0.10599226625E+00 -0.69386946477E+00  0.90007768272E+02  0.90000030013E+02 0.  0.
         12    1    1    2    0    0  0.94881912759E+00 -0.10599226625E+00  0.69386946477E+00  0.11802317279E+01  0.00000000000E+00 0. -1.
         11    1    3    3    0    0  0.19561346382E+00 -0.12646735059E+01 -0.84635655619E+01  0.85597667016E+01  0.51100000000E-03 0. -1.
        -11    1    3    3    0    0  0.38700695846E+02 -0.48591814326E+01  0.12219973312E+02  0.40873992357E+02  0.51100000000E-03 0.  1.
         12    1    3    3    0    0 -0.39845128438E+02  0.62298472048E+01 -0.44502772144E+01  0.40574009214E+02  0.00000000000E+00 0. -1.
</event>
<event>
 7    1  0.2404951E-015  0.9000783E+02  0.7816164E-02  0.1186339E+00
        -11   -1    0    0    0    0  0.00000000000E+00  0.00000000000E+00  0.45593999997E+02  0.45594000000E+02  0.51100000000E-03 0.  1.
         11   -1    0    0    0    0 -0.00000000000E+00 -0.00000000000E+00 -0.45593999997E+02  0.45594000000E+02  0.51100000000E-03 0. -1.
    9900012    2    1    2    0    0 -0.11265858142E+01  0.96988558306E-01 -0.33793450651E+00  0.90007829628E+02  0.90000092179E+02 0.  0.
         12    1    1    2    0    0  0.11265858142E+01 -0.96988558306E-01  0.33793450651E+00  0.11801703724E+01  0.00000000000E+00 0. -1.
         11    1    3    3    0    0 -0.76660903410E+01  0.79826679655E+01  0.94876736445E+00  0.11108199167E+02  0.51100000000E-03 0. -1.
        -11    1    3    3    0    0 -0.11483725273E+02  0.48476554261E+01  0.34596687872E+02  0.36773720525E+02  0.51100000000E-03 0.  1.
         12    1    3    3    0    0  0.18023229800E+02 -0.12733334833E+02 -0.35883389743E+02  0.42125909935E+02  0.00000000000E+00 0. -1.
</event>
<event>
 7    1  0.2404951E-015  0.9000776E+02  0.7816164E-02  0.1186339E+00
        -11   -1    0    0    0    0  0.00000000000E+00  0.00000000000E+00  0.45593999997E+02  0.45594000000E+02  0.51100000000E-03 0. -1.
         11   -1    0    0    0    0 -0.00000000000E+00 -0.00000000000E+00 -0.45593999997E+02  0.45594000000E+02  0.51100000000E-03 0.  1.
    9900012    2    1    2    0    0  0.21575443109E+00  0.10575486619E+01 -0.47749005341E+00  0.90007764473E+02  0.90000026165E+02 0.  0.
         12    1    1    2    0    0 -0.21575443109E+00 -0.10575486619E+01  0.47749005341E+00  0.11802355265E+01  0.00000000000E+00 0. -1.
         11    1    3    3    0    0 -0.21556231336E+01 -0.74650920833E+01  0.24332252184E+01  0.81421677784E+01  0.51100000000E-03 0. -1.
        -11    1    3    3    0    0  0.39446459076E+02 -0.44522723150E+01 -0.12148155142E+02  0.41514136581E+02  0.51100000000E-03 0.  1.
         12    1    3    3    0    0 -0.37075081512E+02  0.12974913060E+02  0.92374398702E+01  0.40351460114E+02  0.00000000000E+00 0. -1.
</event>
<event>
 7    1  0.2404951E-015  0.9000784E+02  0.7816164E-02  0.1186339E+00
        -11   -1    0    0    0    0  0.00000000000E+00  0.00000000000E+00  0.45593999997E+02  0.45594000000E+02  0.51100000000E-03 0.  1.
         11   -1    0    0    0    0 -0.00000000000E+00 -0.00000000000E+00 -0.45593999997E+02  0.45594000000E+02  0.51100000000E-03 0. -1.
    9900012    2    1    2    0    0  0.72344305345E+00 -0.21863481279E+00  0.90642637425E+00  0.90007839077E+02  0.90000101752E+02 0.  0.
         12    1    1    2    0    0 -0.72344305345E+00  0.21863481279E+00 -0.90642637425E+00  0.11801609233E+01  0.00000000000E+00 0. -1.
         11    1    3    3    0    0 -0.15268339551E+01 -0.86925985431E+01 -0.41841355037E+01  0.97672658166E+01  0.51100000000E-03 0. -1.
        -11    1    3    3    0    0 -0.15038894866E+02 -0.30079345234E+02  0.15029201127E+02  0.36834932540E+02  0.51100000000E-03 0.  1.
         12    1    3    3    0    0  0.17289171874E+02  0.38553308964E+02 -0.99386392494E+01  0.43405640720E+02  0.00000000000E+00 0. -1.
</event>
<event>
 7    1  0.2404951E-015  0.9000787E+02  0.7816164E-02  0.1186339E+00
        -11   -1    0    0    0    0  0.00000000000E+00  0.00000000000E+00  0.45593999997E+02  0.45594000000E+02  0.51100000000E-03 0.  1.
         11   -1    0    0    0    0 -0.00000000000E+00 -0.00000000000E+00 -0.45593999997E+02  0.45594000000E+02  0.51100000000E-03 0. -1.
    9900012    2    1    2    0    0  0.59329162686E-01  0.24160329188E+00  0.11536110565E+01  0.90007868410E+02  0.90000131473E+02 0.  0.
         12    1    1    2    0    0 -0.59329162686E-01 -0.24160329188E+00 -0.11536110565E+01  0.11801315901E+01  0.00000000000E+00 0. -1.
         11    1    3    3    0    0  0.50103100835E+01 -0.15697802334E+02 -0.11820836646E+02  0.20279457204E+02  0.51100000000E-03 0. -1.
        -11    1    3    3    0    0  0.55576493930E+01 -0.13699466545E+01 -0.25562319141E+02  0.26195350365E+02  0.51100000000E-03 0.  1.
        -12    1    3    3    0    0 -0.10508630314E+02  0.17309352280E+02  0.38536766843E+02  0.43533060841E+02  0.00000000000E+00 0.  1.
</event>
<event>
 7    1  0.2534620E-015  0.9000777E+02  0.7816164E-02  0.1186339E+00
        -11   -1    0    0    0    0  0.00000000000E+00  0.00000000000E+00  0.45593999997E+02  0.45594000000E+02  0.51100000000E-03 0. -1.
         11   -1    0    0    0    0 -0.00000000000E+00 -0.00000000000E+00 -0.45593999997E+02  0.45594000000E+02  0.51100000000E-03 0.  1.
    9900012    2    1    2    0    0 -0.31119620479E+00 -0.94990754158E+00 -0.62751657222E+00  0.90007769318E+02  0.90000031073E+02 0.  0.
         12    1    1    2    0    0  0.31119620479E+00  0.94990754158E+00  0.62751657222E+00  0.11802306825E+01  0.00000000000E+00 0. -1.
         11    1    3    3    0    0  0.22154417459E+02  0.25510427517E+02  0.12723823995E+02  0.36103958541E+02  0.51100000000E-03 0. -1.
        -11    1    3    3    0    0  0.47997754741E+01  0.68614211810E+01 -0.58136262806E+01  0.10193880322E+02  0.51100000000E-03 0.  1.
        -12    1    3    3    0    0 -0.27265389138E+02 -0.33321756239E+02 -0.75377142861E+01  0.43709930455E+02  0.00000000000E+00 0.  1.
</event>
<event>
 7    1  0.2404951E-015  0.9000801E+02  0.7816164E-02  0.1186339E+00
        -11   -1    0    0    0    0  0.00000000000E+00  0.00000000000E+00  0.45593999997E+02  0.45594000000E+02  0.51100000000E-03 0.  1.
         11   -1    0    0    0    0 -0.00000000000E+00 -0.00000000000E+00 -0.45593999997E+02  0.45594000000E+02  0.51100000000E-03 0. -1.
    9900012    2    1    2    0    0 -0.22540684864E+00 -0.69566608162E+00  0.92607471902E+00  0.90008011047E+02  0.90000275992E+02 0.  0.
         12    1    1    2    0    0  0.22540684864E+00  0.69566608162E+00 -0.92607471902E+00  0.11799889532E+01  0.00000000000E+00 0. -1.
         11    1    3    3    0    0  0.25118659251E+02 -0.15052779145E+01 -0.31248259882E+02  0.40120651168E+02  0.51100000000E-03 0. -1.
        -11    1    3    3    0    0 -0.90501399485E+01 -0.18869039190E+01 -0.40368517167E+01  0.10087696047E+02  0.51100000000E-03 0.  1.
        -12    1    3    3    0    0 -0.16293926151E+02  0.26965157519E+01  0.36211186318E+02  0.39799663833E+02  0.00000000000E+00 0.  1.
</event>
<event>
 7    1  0.2404951E-015  0.9000774E+02  0.7816164E-02  0.1186339E+00
        -11   -1    0    0    0    0  0.00000000000E+00  0.00000000000E+00  0.45593999997E+02  0.45594000000E+02  0.51100000000E-03 0.  1.
         11   -1    0    0    0    0 -0.00000000000E+00 -0.00000000000E+00 -0.45593999997E+02  0.45594000000E+02  0.51100000000E-03 0. -1.
    9900012    2    1    2    0    0 -0.68402089777E+00  0.63834036691E+00  0.71947624958E+00  0.90007741941E+02  0.90000003334E+02 0.  0.
         12    1    1    2    0    0  0.68402089777E+00 -0.63834036691E+00 -0.71947624958E+00  0.11802580592E+01  0.00000000000E+00 0. -1.
         11    1    3    3    0    0  0.30137247892E+02 -0.12914479380E+02  0.48978074420E+01  0.33151561142E+02  0.51100000000E-03 0. -1.
        -11    1    3    3    0    0  0.11012747888E+02 -0.27795966210E+01 -0.36963086620E+01  0.11944432653E+02  0.51100000000E-03 0.  1.
        -12    1    3    3    0    0 -0.41834016678E+02  0.16332416368E+02 -0.48202253047E+00  0.44911748146E+02  0.00000000000E+00 0.  1.
</event>
<event>
 7    1  0.2404951E-015  0.9000784E+02  0.7816164E-02  0.1186339E+00
        -11   -1    0    0    0    0  0.00000000000E+00  0.00000000000E+00  0.45593999997E+02  0.45594000000E+02  0.51100000000E-03 0. -1.
         11   -1    0    0    0    0 -0.00000000000E+00 -0.00000000000E+00 -0.45593999997E+02  0.45594000000E+02  0.51100000000E-03 0.  1.
    9900012    2    1    2    0    0 -0.77196645937E+00 -0.85978943660E+00  0.24002190789E+00  0.90007838737E+02  0.90000101409E+02 0.  0.
         12    1    1    2    0    0  0.77196645937E+00  0.85978943660E+00 -0.24002190789E+00  0.11801612627E+01  0.00000000000E+00 0. -1.
         11    1    3    3    0    0 -0.18399160301E+01 -0.14526727223E+02  0.35733764798E+02  0.38617522470E+02  0.51100000000E-03 0. -1.
        -11    1    3    3    0    0  0.37129592579E+01  0.68008684070E+01  0.56526874001E+01  0.95911809828E+01  0.51100000000E-03 0.  1.
        -12    1    3    3    0    0 -0.26450096872E+01  0.68660693796E+01 -0.41146430290E+02  0.41799135285E+02  0.00000000000E+00 0.  1.
</event>
<event>
 7    1  0.2404951E-015  0.9000781E+02  0.7816164E-02  0.1186339E+00
        -11   -1    0    0    0    0  0.00000000000E+00  0.00000000000E+00  0.45593999997E+02  0.45594000000E+02  0.51100000000E-03 0. -1.
         11   -1    0    0    0    0 -0.00000000000E+00 -0.00000000000E+00 -0.45593999997E+02  0.45594000000E+02  0.51100000000E-03 0.  1.
    9900012    2    1    2    0    0 -0.10949911870E+01 -0.33299507506E-01 -0.43902379620E+00  0.90007806605E+02  0.90000068852E+02 0.  0.
         12    1    1    2    0    0  0.10949911870E+01  0.33299507506E-01  0.43902379620E+00  0.11801933953E+01  0.00000000000E+00 0. -1.
         11    1    3    3    0    0  0.70493020105E+01  0.43662551748E+00 -0.58927298498E+01  0.91982371149E+01  0.51100000000E-03 0. -1.
        -11    1    3    3    0    0  0.30650197977E+02 -0.16175769979E+02  0.15189018575E+02  0.37839086352E+02  0.51100000000E-03 0.  1.
         12    1    3    3    0    0 -0.38794491174E+02  0.15705844954E+02 -0.97353125217E+01  0.42970483138E+02  0.00000000000E+00 0. -1.
</event>
<event>
 7    1  0.2404951E-015  0.9000775E+02  0.7816164E-02  0.1186339E+00
        -11   -1    0    0    0    0  0.00000000000E+00  0.00000000000E+00  0.45593999997E+02  0.45594000000E+02  0.51100000000E-03 0.  1.
         11   -1    0    0    0    0 -0.00000000000E+00 -0.00000000000E+00 -0.45593999997E+02  0.45594000000E+02  0.51100000000E-03 0. -1.
    9900012    2    1    2    0    0 -0.10248705450E+01  0.67398707848E-03  0.58533664584E+00  0.90007754654E+02  0.90000016215E+02 0.  0.
         12    1    1    2    0    0  0.10248705450E+01 -0.67398707848E-03 -0.58533664584E+00  0.11802453462E+01  0.00000000000E+00 0. -1.
         11    1    3    3    0    0 -0.16341942338E+02 -0.30127822684E+02 -0.61310810620E+01  0.34818600407E+02  0.51100000000E-03 0. -1.
        -11    1    3    3    0    0 -0.23138965330E+01 -0.10058852650E+02 -0.18228513738E+01  0.10481289099E+02  0.51100000000E-03 0.  1.
        -12    1    3    3    0    0  0.17630968326E+02  0.40187349321E+02  0.85392690816E+01  0.44707865147E+02  0.00000000000E+00 0.  1.
</event>
<event>
 7    1  0.2404951E-015  0.9000790E+02  0.7816164E-02  0.1186339E+00
        -11   -1    0    0    0    0  0.00000000000E+00  0.00000000000E+00  0.45593999997E+02  0.45594000000E+02  0.51100000000E-03 0.  1.
         11   -1    0    0    0    0 -0.00000000000E+00 -0.00000000000E+00 -0.45593999997E+02  0.45594000000E+02  0.51100000000E-03 0. -1.
    9900012    2    1    2    0    0  0.51314271325E+00  0.65936783233E-01  0.10606424463E+01  0.90007904452E+02  0.90000167991E+02 0.  0.
         12    1    1    2    0    0 -0.51314271325E+00 -0.65936783233E-01 -0.10606424463E+01  0.11800955481E+01  0.00000000000E+00 0. -1.
         11    1    3    3    0    0  0.89203134438E+01 -0.56426130503E+01 -0.40588815298E+01  0.11308651268E+02  0.51100000000E-03 0. -1.
        -11    1    3    3    0    0 -0.17751273657E+02 -0.29147938586E+02 -0.15116166087E+02  0.37325708535E+02  0.51100000000E-03 0.  1.
         12    1    3    3    0    0  0.93441029264E+01  0.34856488419E+02  0.20235690063E+02  0.41373544648E+02  0.00000000000E+00 0. -1.
</event>
<event>
 7    1  0.2404951E-015  0.9000774E+02  0.7816164E-02  0.1186339E+00
        -11   -1    0    0    0    0  0.00000000000E+00  0.00000000000E+00  0.45593999997E+02  0.45594000000E+02  0.51100000000E-03 0.  1.
         11   -1    0    0    0    0 -0.00000000000E+00 -0.00000000000E+00 -0.45593999997E+02  0.45594000000E+02  0.51100000000E-03 0. -1.
    9900012    2    1    2    0    0  0.13593536234E+00 -0.21939047400E+00  0.11516959513E+01  0.90007739788E+02  0.90000001154E+02 0.  0.
         12    1    1    2    0    0 -0.13593536234E+00  0.21939047400E+00 -0.11516959513E+01  0.11802602116E+01  0.00000000000E+00 0. -1.
         11    1    3    3    0    0 -0.97383082989E+01 -0.92793490144E+00 -0.16078310060E+01  0.99136689732E+01  0.51100000000E-03 0. -1.
        -11    1    3    3    0    0  0.79870960896E+00 -0.14178741480E+02  0.38114197486E+02  0.40673906835E+02  0.51100000000E-03 0.  1.
         12    1    3    3    0    0  0.90755340522E+01  0.14887285907E+02 -0.35354670529E+02  0.39420163980E+02  0.00000000000E+00 0. -1.
</event>
<event>
 7    1  0.2404951E-015  0.9000778E+02  0.7816164E-02  0.1186339E+00
        -11   -1    0    0    0    0  0.00000000000E+00  0.00000000000E+00  0.45593999997E+02  0.45594000000E+02  0.51100000000E-03 0.  1.
         11   -1    0    0    0    0 -0.00000000000E+00 -0.00000000000E+00 -0.45593999997E+02  0.45594000000E+02  0.51100000000E-03 0. -1.
    9900012    2    1    2    0    0 -0.97367839002E+00  0.66400036445E+00  0.63043310265E-01  0.90007779449E+02  0.90000041337E+02 0.  0.
         12    1    1    2    0    0  0.97367839002E+00 -0.66400036445E+00 -0.63043310265E-01  0.11802205515E+01  0.00000000000E+00 0. -1.
         11    1    3    3    0    0 -0.94549365184E+01  0.26660312751E+02 -0.24650826706E+02  0.37521078850E+02  0.51100000000E-03 0. -1.
        -11    1    3    3    0    0 -0.78318489361E+01  0.52895405284E+01  0.73569208544E-01  0.94510586417E+01  0.51100000000E-03 0.  1.
        -12    1    3    3    0    0  0.16313107064E+02 -0.31285852915E+02  0.24640300808E+02  0.43035641956E+02  0.00000000000E+00 0.  1.
</event>
<event>
 7    1  0.2404951E-015  0.9000773E+02  0.7816164E-02  0.1186339E+00
        -11   -1    0    0    0    0  0.00000000000E+00  0.00000000000E+00  0.45593999997E+02  0.45594000000E+02  0.51100000000E-03 0. -1.
         11   -1    0    0    0    0 -0.00000000000E+00 -0.00000000000E+00 -0.45593999997E+02  0.45594000000E+02  0.51100000000E-03 0.  1.
    9900012    2    1    2    0    0  0.80019238303E-01 -0.78861427559E+00 -0.87448425844E+00  0.90007729577E+02  0.89999990807E+02 0.  0.
         12    1    1    2    0    0 -0.80019238303E-01  0.78861427559E+00  0.87448425844E+00  0.11802704234E+01  0.00000000000E+00 0. -1.
         11    1    3    3    0    0 -0.84020450040E+01 -0.63064037131E+01  0.17506959019E-01  0.10505493553E+02  0.51100000000E-03 0. -1.
        -11    1    3    3    0    0 -0.55682426320E+01 -0.11588425723E+02 -0.35871871125E+02  0.38106273434E+02  0.51100000000E-03 0.  1.
         12    1    3    3    0    0  0.14050306874E+02  0.17106215161E+02  0.34979879907E+02  0.41395962590E+02  0.00000000000E+00 0. -1.
</event>
<event>
 7    1  0.2404951E-015  0.9000772E+02  0.7816164E-02  0.1186339E+00
        -11   -1    0    0    0    0  0.00000000000E+00  0.00000000000E+00  0.45593999997E+02  0.45594000000E+02  0.51100000000E-03 0.  1.
         11   -1    0    0    0    0 -0.00000000000E+00 -0.00000000000E+00 -0.45593999997E+02  0.45594000000E+02  0.51100000000E-03 0. -1.
    9900012    2    1    2    0    0 -0.50670505604E+00 -0.34558102206E+00  0.10084117804E+01  0.90007715892E+02  0.89999976942E+02 0.  0.
         12    1    1    2    0    0  0.50670505604E+00  0.34558102206E+00 -0.10084117804E+01  0.11802841080E+01  0.00000000000E+00 0. -1.
         11    1    3    3    0    0  0.10299890670E+02  0.30863320112E+02 -0.16798115451E+02  0.36617058308E+02  0.51100000000E-03 0. -1.
        -11    1    3    3    0    0 -0.44785792980E+01  0.23125364083E+01  0.18597055486E+02  0.19268003793E+02  0.51100000000E-03 0.  1.
        -12    1    3    3    0    0 -0.63280164285E+01 -0.33521437542E+02 -0.79052825474E+00  0.34122653791E+02  0.00000000000E+00 0.  1.
</event>
<event>
 7    1  0.2404951E-015  0.9000762E+02  0.7816164E-02  0.1186339E+00
        -11   -1    0    0    0    0  0.00000000000E+00  0.00000000000E+00  0.45593999997E+02  0.45594000000E+02  0.51100000000E-03 0. -1.
         11   -1    0    0    0    0 -0.00000000000E+00 -0.00000000000E+00 -0.45593999997E+02  0.45594000000E+02  0.51100000000E-03 0.  1.
    9900012    2    1    2    0    0 -0.15756031547E+00  0.89527483861E+00  0.75296299501E+00  0.90007620586E+02  0.89999880377E+02 0.  0.
         12    1    1    2    0    0  0.15756031547E+00 -0.89527483861E+00 -0.75296299501E+00  0.11803794142E+01  0.00000000000E+00 0. -1.
         11    1    3    3    0    0  0.35618957283E+02 -0.12982251934E+02 -0.10634782949E+01  0.37925980139E+02  0.51100000000E-03 0. -1.
        -11    1    3    3    0    0  0.59027104411E+01 -0.17279974347E+01 -0.37908358295E+01  0.72248461737E+01  0.51100000000E-03 0.  1.
        -12    1    3    3    0    0 -0.41679228039E+02  0.15605524208E+02  0.56072771194E+01  0.44856794273E+02  0.00000000000E+00 0.  1.
</event>
<event>
 7    1  0.2404951E-015  0.9000773E+02  0.7816164E-02  0.1186339E+00
        -11   -1    0    0    0    0  0.00000000000E+00  0.00000000000E+00  0.45593999997E+02  0.45594000000E+02  0.51100000000E-03 0. -1.
         11   -1    0    0    0    0 -0.00000000000E+00 -0.00000000000E+00 -0.45593999997E+02  0.45594000000E+02  0.51100000000E-03 0.  1.
    9900012    2    1    2    0    0 -0.11113503709E+01  0.28863480908E-01 -0.39637654133E+00  0.90007725833E+02  0.89999987014E+02 0.  0.
         12    1    1    2    0    0  0.11113503709E+01 -0.28863480908E-01  0.39637654133E+00  0.11802741672E+01  0.00000000000E+00 0. -1.
         11    1    3    3    0    0 -0.12851540377E+02  0.12045150679E+02  0.28283415090E+02  0.33319653575E+02  0.51100000000E-03 0. -1.
        -11    1    3    3    0    0  0.18271496475E+01 -0.11639985347E+02  0.10798580516E+02  0.15982398948E+02  0.51100000000E-03 0.  1.
        -12    1    3    3    0    0  0.99130403587E+01 -0.37630185092E+00 -0.39478372147E+02  0.40705673310E+02  0.00000000000E+00 0.  1.
</event>
<event>
 7    1  0.2404951E-015  0.9000770E+02  0.7816164E-02  0.1186339E+00
        -11   -1    0    0    0    0  0.00000000000E+00  0.00000000000E+00  0.45593999997E+02  0.45594000000E+02  0.51100000000E-03 0.  1.
         11   -1    0    0    0    0 -0.00000000000E+00 -0.00000000000E+00 -0.45593999997E+02  0.45594000000E+02  0.51100000000E-03 0. -1.
    9900012    2    1    2    0    0 -0.24658724416E+00  0.35593760528E+00  0.10980075373E+01  0.90007696056E+02  0.89999956844E+02 0.  0.
         12    1    1    2    0    0  0.24658724416E+00 -0.35593760528E+00 -0.10980075373E+01  0.11803039438E+01  0.00000000000E+00 0. -1.
         11    1    3    3    0    0 -0.12283950003E+02 -0.61423650515E+01  0.63702764471E+01  0.15139501260E+02  0.51100000000E-03 0. -1.
        -11    1    3    3    0    0  0.29786733606E+02 -0.71661006848E+01  0.23351660764E+02  0.38521455822E+02  0.51100000000E-03 0.  1.
         12    1    3    3    0    0 -0.17749370847E+02  0.13664403342E+02 -0.28623929674E+02  0.36346738975E+02  0.00000000000E+00 0. -1.
</event>
<event>
 7    1  0.2404951E-015  0.9000776E+02  0.7816164E-02  0.1186339E+00
        -11   -1    0    0    0    0  0.00000000000E+00  0.00000000000E+00  0.45593999997E+02  0.45594000000E+02  0.51100000000E-03 0.  1.
         11   -1    0    0    0    0 -0.00000000000E+00 -0.00000000000E+00 -0.45593999997E+02  0.45594000000E+02  0.51100000000E-03 0. -1.
    9900012    2    1    2    0    0  0.74695942904E-01 -0.37675534063E+00  0.11159923190E+01  0.90007761496E+02  0.90000023148E+02 0.  0.
         12    1    1    2    0    0 -0.74695942904E-01  0.37675534063E+00 -0.11159923190E+01  0.11802385041E+01  0.00000000000E+00 0. -1.
         11    1    3    3    0    0  0.13034383567E+02 -0.11350115857E+01 -0.10767371298E+01  0.13127938505E+02  0.51100000000E-03 0. -1.
        -11    1    3    3    0    0  0.21889455624E+01  0.12730031355E+02  0.35834262553E+02  0.38091200480E+02  0.51100000000E-03 0.  1.
         12    1    3    3    0    0 -0.15148633186E+02 -0.11971775110E+02 -0.33641533105E+02  0.38788622512E+02  0.00000000000E+00 0. -1.
</event>
<event>
 7    1  0.2404951E-015  0.9000804E+02  0.7816164E-02  0.1186338E+00
        -11   -1    0    0    0    0  0.00000000000E+00  0.00000000000E+00  0.45593999997E+02  0.45594000000E+02  0.51100000000E-03 0.  1.
         11   -1    0    0    0    0 -0.00000000000E+00 -0.00000000000E+00 -0.45593999997E+02  0.45594000000E+02  0.51100000000E-03 0. -1.
    9900012    2    1    2    0    0 -0.73737380232E+00  0.82628532087E+00  0.40723554619E+00  0.90008038837E+02  0.90000304149E+02 0.  0.
         12    1    1    2    0    0  0.73737380232E+00 -0.82628532087E+00 -0.40723554619E+00  0.11799611629E+01  0.00000000000E+00 0. -1.
         11    1    3    3    0    0  0.10132407655E+02  0.28896412015E+02 -0.30194026540E+02  0.43004041103E+02  0.51100000000E-03 0. -1.
        -11    1    3    3    0    0  0.52945560099E+01 -0.40799526767E+01  0.68992323329E+01  0.96061305545E+01  0.51100000000E-03 0.  1.
        -12    1    3    3    0    0 -0.16164337468E+02 -0.23990174018E+02  0.23702029753E+02  0.37397867180E+02  0.00000000000E+00 0.  1.
</event>
<event>
 7    1  0.2404951E-015  0.9000775E+02  0.7816164E-02  0.1186339E+00
        -11   -1    0    0    0    0  0.00000000000E+00  0.00000000000E+00  0.45593999997E+02  0.45594000000E+02  0.51100000000E-03 0.  1.
         11   -1    0    0    0    0 -0.00000000000E+00 -0.00000000000E+00 -0.45593999997E+02  0.45594000000E+02  0.51100000000E-03 0. -1.
    9900012    2    1    2    0    0 -0.79372804387E+00  0.81411588738E+00  0.31653641205E+00  0.90007752490E+02  0.90000014022E+02 0.  0.
         12    1    1    2    0    0  0.79372804387E+00 -0.81411588738E+00 -0.31653641205E+00  0.11802475104E+01  0.00000000000E+00 0. -1.
         11    1    3    3    0    0  0.55196729009E+01 -0.59151780000E+01  0.64542185928E+01  0.10349543836E+02  0.51100000000E-03 0. -1.
        -11    1    3    3    0    0 -0.17662745359E+02  0.85593752257E+01  0.33258958414E+02  0.38618567981E+02  0.51100000000E-03 0.  1.
         12    1    3    3    0    0  0.11349344414E+02 -0.18300813383E+01 -0.39396640595E+02  0.41039640672E+02  0.00000000000E+00 0. -1.
</event>
<event>
 7    1  0.2404951E-015  0.9000779E+02  0.7816164E-02  0.1186339E+00
        -11   -1    0    0    0    0  0.00000000000E+00  0.00000000000E+00  0.45593999997E+02  0.45594000000E+02  0.51100000000E-03 0.  1.
         11   -1    0    0    0    0 -0.00000000000E+00 -0.00000000000E+00 -0.45593999997E+02  0.45594000000E+02  0.51100000000E-03 0. -1.
    9900012    2    1    2    0    0  0.85631454288E+00 -0.66354659899E+00 -0.46831296568E+00  0.90007794205E+02  0.90000056288E+02 0.  0.
         12    1    1    2    0    0 -0.85631454288E+00  0.66354659899E+00  0.46831296568E+00  0.11802057953E+01  0.00000000000E+00 0. -1.
         11    1    3    3    0    0 -0.23502171487E+02 -0.39181929616E+01  0.12845506980E+01  0.23861147739E+02  0.51100000000E-03 0. -1.
        -11    1    3    3    0    0 -0.20675784000E+02  0.39114978575E+01 -0.16546366180E+01  0.21107479293E+02  0.51100000000E-03 0.  1.
         12    1    3    3    0    0  0.45034270030E+02 -0.65685149486E+00 -0.98227045708E-01  0.45039167172E+02  0.00000000000E+00 0. -1.
</event>
<event>
 7    1  0.2404951E-015  0.9000775E+02  0.7816164E-02  0.1186339E+00
        -11   -1    0    0    0    0  0.00000000000E+00  0.00000000000E+00  0.45593999997E+02  0.45594000000E+02  0.51100000000E-03 0.  1.
         11   -1    0    0    0    0 -0.00000000000E+00 -0.00000000000E+00 -0.45593999997E+02  0.45594000000E+02  0.51100000000E-03 0. -1.
    9900012    2    1    2    0    0 -0.10600604113E+01 -0.44594736620E+00  0.26533623049E+00  0.90007745602E+02  0.90000007044E+02 0.  0.
         12    1    1    2    0    0  0.10600604113E+01  0.44594736620E+00 -0.26533623049E+00  0.11802543981E+01  0.00000000000E+00 0. -1.
         11    1    3    3    0    0 -0.10586375914E+02 -0.32816050876E+01  0.31445210090E+01  0.11520776865E+02  0.51100000000E-03 0. -1.
        -11    1    3    3    0    0 -0.60872302371E+01  0.22186171784E+02  0.29659299737E+02  0.37536044698E+02  0.51100000000E-03 0.  1.
         12    1    3    3    0    0  0.15613545739E+02 -0.19350514063E+02 -0.32538484516E+02  0.40950924039E+02  0.00000000000E+00 0. -1.
</event>
<event>
 7    1  0.2404951E-015  0.9000688E+02  0.7816164E-02  0.1186341E+00
        -11   -1    0    0    0    0  0.00000000000E+00  0.00000000000E+00  0.45593999997E+02  0.45594000000E+02  0.51100000000E-03 0. -1.
         11   -1    0    0    0    0 -0.00000000000E+00 -0.00000000000E+00 -0.45593999997E+02  0.45594000000E+02  0.51100000000E-03 0.  1.
    9900012    2    1    2    0    0  0.93204505690E+00  0.46718427476E+00  0.55504297008E+00  0.90006881110E+02  0.89999131136E+02 0.  0.
         12    1    1    2    0    0 -0.93204505690E+00 -0.46718427476E+00 -0.55504297008E+00  0.11811188904E+01  0.00000000000E+00 0. -1.
         11    1    3    3    0    0 -0.99872050657E+01 -0.57742585011E+00  0.25773439207E+01  0.10330556015E+02  0.51100000000E-03 0. -1.
        -11    1    3    3    0    0 -0.22952529818E+02  0.13618792553E+02 -0.25236394408E+02  0.36730991528E+02  0.51100000000E-03 0.  1.
         12    1    3    3    0    0  0.33871779940E+02 -0.12574182428E+02  0.23214093458E+02  0.42945333566E+02  0.00000000000E+00 0. -1.
</event>
<event>
 7    1  0.2404951E-015  0.9000772E+02  0.7816164E-02  0.1186339E+00
        -11   -1    0    0    0    0  0.00000000000E+00  0.00000000000E+00  0.45593999997E+02  0.45594000000E+02  0.51100000000E-03 0.  1.
         11   -1    0    0    0    0 -0.00000000000E+00 -0.00000000000E+00 -0.45593999997E+02  0.45594000000E+02  0.51100000000E-03 0. -1.
    9900012    2    1    2    0    0 -0.72903760105E+00  0.83814563847E+00  0.39885742697E+00  0.90007715635E+02  0.89999976681E+02 0.  0.
         12    1    1    2    0    0  0.72903760105E+00 -0.83814563847E+00 -0.39885742697E+00  0.11802843649E+01  0.00000000000E+00 0. -1.
         11    1    3    3    0    0  0.27773604716E+02  0.26872727184E+02 -0.10351584872E+02  0.40008397804E+02  0.51100000000E-03 0. -1.
        -11    1    3    3    0    0 -0.38732570830E+01  0.59752728470E+01  0.60391530732E+01  0.93368825702E+01  0.51100000000E-03 0.  1.
        -12    1    3    3    0    0 -0.24629385234E+02 -0.32009854392E+02  0.47112892258E+01  0.40662435261E+02  0.00000000000E+00 0.  1.
</event>
<event>
 7    1  0.2404951E-015  0.9000775E+02  0.7816164E-02  0.1186339E+00
        -11   -1    0    0    0    0  0.00000000000E+00  0.00000000000E+00  0.45593999997E+02  0.45594000000E+02  0.51100000000E-03 0. -1.
         11   -1    0    0    0    0 -0.00000000000E+00 -0.00000000000E+00 -0.45593999997E+02  0.45594000000E+02  0.51100000000E-03 0.  1.
    9900012    2    1    2    0    0 -0.27369609659E+00  0.34470700420E+00  0.10951021197E+01  0.90007753786E+02  0.90000015336E+02 0.  0.
         12    1    1    2    0    0  0.27369609659E+00 -0.34470700420E+00 -0.10951021197E+01  0.11802462135E+01  0.00000000000E+00 0. -1.
         11    1    3    3    0    0  0.31486598688E+01  0.35392011771E+02 -0.26137412462E+01  0.35627800938E+02  0.51100000000E-03 0. -1.
        -11    1    3    3    0    0 -0.46000465460E+01  0.66900738338E+01 -0.76005863461E+01  0.11121440068E+02  0.51100000000E-03 0.  1.
        -12    1    3    3    0    0  0.11776905806E+01 -0.41737378600E+02  0.11309429712E+02  0.43258512780E+02  0.00000000000E+00 0.  1.
</event>
<event>
 7    1  0.2404951E-015  0.9000730E+02  0.7816164E-02  0.1186340E+00
        -11   -1    0    0    0    0  0.00000000000E+00  0.00000000000E+00  0.45593999997E+02  0.45594000000E+02  0.51100000000E-03 0.  1.
         11   -1    0    0    0    0 -0.00000000000E+00 -0.00000000000E+00 -0.45593999997E+02  0.45594000000E+02  0.51100000000E-03 0. -1.
    9900012    2    1    2    0    0  0.10084899263E+01 -0.51852095874E+00 -0.32882640149E+00  0.90007304138E+02  0.89999559752E+02 0.  0.
         12    1    1    2    0    0 -0.10084899263E+01  0.51852095874E+00  0.32882640149E+00  0.11806958619E+01  0.00000000000E+00 0. -1.
         11    1    3    3    0    0 -0.20082545587E+02 -0.81188366906E+01 -0.30396320098E+02  0.37325064263E+02  0.51100000000E-03 0. -1.
        -11    1    3    3    0    0  0.32683259128E+01  0.38713458681E+01 -0.85776553532E+01  0.99622007971E+01  0.51100000000E-03 0.  1.
        -12    1    3    3    0    0  0.17822709601E+02  0.37289698638E+01  0.38645149050E+02  0.42720039078E+02  0.00000000000E+00 0.  1.
</event>
<event>
 7    1  0.2404951E-015  0.9000786E+02  0.7816164E-02  0.1186339E+00
        -11   -1    0    0    0    0  0.00000000000E+00  0.00000000000E+00  0.45593999997E+02  0.45594000000E+02  0.51100000000E-03 0.  1.
         11   -1    0    0    0    0 -0.00000000000E+00 -0.00000000000E+00 -0.45593999997E+02  0.45594000000E+02  0.51100000000E-03 0. -1.
    9900012    2    1    2    0    0  0.48886546568E+00 -0.49747357920E+00  0.95197816814E+00  0.90007859399E+02  0.90000122343E+02 0.  0.
         12    1    1    2    0    0 -0.48886546568E+00  0.49747357920E+00 -0.95197816814E+00  0.11801406010E+01  0.00000000000E+00 0. -1.
         11    1    3    3    0    0  0.25380982463E+02 -0.20424988901E+02  0.14398252277E+02  0.35618592214E+02  0.51100000000E-03 0. -1.
        -11    1    3    3    0    0  0.77144421091E+01 -0.45879632338E+01  0.42388831488E+01  0.99262356560E+01  0.51100000000E-03 0.  1.
        -12    1    3    3    0    0 -0.32606559106E+02  0.24515478556E+02 -0.17685157257E+02  0.44463031529E+02  0.00000000000E+00 0.  1.
</event>
<event>
 7    1  0.3352605E-015  0.9000776E+02  0.7816164E-02  0.1186339E+00
        -11   -1    0    0    0    0  0.00000000000E+00  0.00000000000E+00  0.45593999997E+02  0.45594000000E+02  0.51100000000E-03 0. -1.
         11   -1    0    0    0    0 -0.00000000000E+00 -0.00000000000E+00 -0.45593999997E+02  0.45594000000E+02  0.51100000000E-03 0.  1.
    9900012    2    1    2    0    0  0.23562578670E+00 -0.48336006984E+00 -0.10506277475E+01  0.90007756325E+02  0.90000017909E+02 0.  0.
         12    1    1    2    0    0 -0.23562578670E+00  0.48336006984E+00  0.10506277475E+01  0.11802436749E+01  0.00000000000E+00 0. -1.
         11    1    3    3    0    0  0.30005842988E+01 -0.29656763804E+02  0.21366403536E+02  0.36674928027E+02  0.51100000000E-03 0. -1.
        -11    1    3    3    0    0 -0.14628322416E+01 -0.77582954410E+00  0.94428471360E+01  0.95869260946E+01  0.51100000000E-03 0.  1.
        -12    1    3    3    0    0 -0.13021262705E+01  0.29949233278E+02 -0.31859878419E+02  0.43745902204E+02  0.00000000000E+00 0.  1.
</event>
<event>
 7    1  0.2404951E-015  0.9000772E+02  0.7816164E-02  0.1186339E+00
        -11   -1    0    0    0    0  0.00000000000E+00  0.00000000000E+00  0.45593999997E+02  0.45594000000E+02  0.51100000000E-03 0.  1.
         11   -1    0    0    0    0 -0.00000000000E+00 -0.00000000000E+00 -0.45593999997E+02  0.45594000000E+02  0.51100000000E-03 0. -1.
    9900012    2    1    2    0    0  0.77815832261E+00  0.43683653411E+00  0.77246960442E+00  0.90007717906E+02  0.89999978982E+02 0.  0.
         12    1    1    2    0    0 -0.77815832261E+00 -0.43683653411E+00 -0.77246960442E+00  0.11802820944E+01  0.00000000000E+00 0. -1.
         11    1    3    3    0    0 -0.59739951811E+00  0.45586805081E+01 -0.57177105803E+01  0.73369386463E+01  0.51100000000E-03 0. -1.
        -11    1    3    3    0    0  0.39645916195E+02  0.78653316933E+01 -0.55517900990E+01  0.40798094161E+02  0.51100000000E-03 0.  1.
         12    1    3    3    0    0 -0.38270358354E+02 -0.11987175667E+02  0.12041970284E+02  0.41872685098E+02  0.00000000000E+00 0. -1.
</event>
<event>
 7    1  0.2404951E-015  0.9000771E+02  0.7816164E-02  0.1186339E+00
        -11   -1    0    0    0    0  0.00000000000E+00  0.00000000000E+00  0.45593999997E+02  0.45594000000E+02  0.51100000000E-03 0. -1.
         11   -1    0    0    0    0 -0.00000000000E+00 -0.00000000000E+00 -0.45593999997E+02  0.45594000000E+02  0.51100000000E-03 0.  1.
    9900012    2    1    2    0    0  0.10959177913E+00 -0.11609500019E+01 -0.18240673821E+00  0.90007708730E+02  0.89999969685E+02 0.  0.
         12    1    1    2    0    0 -0.10959177913E+00  0.11609500019E+01  0.18240673821E+00  0.11802912704E+01  0.00000000000E+00 0. -1.
         11    1    3    3    0    0  0.98776443908E+01 -0.15248503244E+01  0.55700858671E+00  0.10010159142E+02  0.51100000000E-03 0. -1.
        -11    1    3    3    0    0  0.34683419137E+02  0.40216494527E+01  0.40025611428E+01  0.35144469313E+02  0.51100000000E-03 0.  1.
         12    1    3    3    0    0 -0.44451471748E+02 -0.36577491302E+01 -0.47419764677E+01  0.44853080274E+02  0.00000000000E+00 0. -1.
</event>
<event>
 7    1  0.2404951E-015  0.9000776E+02  0.7816164E-02  0.1186339E+00
        -11   -1    0    0    0    0  0.00000000000E+00  0.00000000000E+00  0.45593999997E+02  0.45594000000E+02  0.51100000000E-03 0.  1.
         11   -1    0    0    0    0 -0.00000000000E+00 -0.00000000000E+00 -0.45593999997E+02  0.45594000000E+02  0.51100000000E-03 0. -1.
    9900012    2    1    2    0    0 -0.94271659285E+00  0.58306975005E+00  0.40531040375E+00  0.90007762129E+02  0.90000023789E+02 0.  0.
         12    1    1    2    0    0  0.94271659285E+00 -0.58306975005E+00 -0.40531040375E+00  0.11802378706E+01  0.00000000000E+00 0. -1.
         11    1    3    3    0    0  0.90955273208E+01 -0.16979266540E+01 -0.33592182873E+01  0.98435725186E+01  0.51100000000E-03 0. -1.
        -11    1    3    3    0    0  0.34916346572E+02 -0.58108941957E+00  0.37180930873E+01  0.35118558332E+02  0.51100000000E-03 0.  1.
         12    1    3    3    0    0 -0.44954590486E+02  0.28620858236E+01  0.46435603702E-01  0.45045631279E+02  0.00000000000E+00 0. -1.
</event>
<event>
 7    1  0.2404951E-015  0.9000748E+02  0.7816164E-02  0.1186340E+00
        -11   -1    0    0    0    0  0.00000000000E+00  0.00000000000E+00  0.45593999997E+02  0.45594000000E+02  0.51100000000E-03 0.  1.
         11   -1    0    0    0    0 -0.00000000000E+00 -0.00000000000E+00 -0.45593999997E+02  0.45594000000E+02  0.51100000000E-03 0. -1.
    9900012    2    1    2    0    0  0.95603712168E+00 -0.24892920839E+00  0.64625902617E+00  0.90007481700E+02  0.89999739658E+02 0.  0.
         12    1    1    2    0    0 -0.95603712168E+00  0.24892920839E+00 -0.64625902617E+00  0.11805183005E+01  0.00000000000E+00 0. -1.
         11    1    3    3    0    0  0.36942453294E+01 -0.17192834404E+02 -0.32337294351E+02  0.36809531505E+02  0.51100000000E-03 0. -1.
        -11    1    3    3    0    0  0.17989682694E+01 -0.62081739560E+01 -0.52122721393E+01  0.83033422077E+01  0.51100000000E-03 0.  1.
        -12    1    3    3    0    0 -0.45371764771E+01  0.23152079151E+02  0.38195825517E+02  0.44894607987E+02  0.00000000000E+00 0.  1.
</event>
<event>
 7    1  0.2404951E-015  0.9000791E+02  0.7816164E-02  0.1186339E+00
        -11   -1    0    0    0    0  0.00000000000E+00  0.00000000000E+00  0.45593999997E+02  0.45594000000E+02  0.51100000000E-03 0.  1.
         11   -1    0    0    0    0 -0.00000000000E+00 -0.00000000000E+00 -0.45593999997E+02  0.45594000000E+02  0.51100000000E-03 0. -1.
    9900012    2    1    2    0    0 -0.24453358203E+00 -0.97059983005E+00  0.62509957888E+00  0.90007910941E+02  0.90000174566E+02 0.  0.
         12    1    1    2    0    0  0.24453358203E+00  0.97059983005E+00 -0.62509957888E+00  0.11800890586E+01  0.00000000000E+00 0. -1.
         11    1    3    3    0    0  0.34051059209E+01  0.35703781736E+01  0.73085761511E+01  0.88180288190E+01  0.51100000000E-03 0. -1.
        -11    1    3    3    0    0 -0.11122614614E+02 -0.36119988391E+02  0.16570843149E+02  0.41266923318E+02  0.51100000000E-03 0.  1.
         12    1    3    3    0    0  0.74729751114E+01  0.31579010387E+02 -0.23254319721E+02  0.39922958805E+02  0.00000000000E+00 0. -1.
</event>
<event>
 7    1  0.2404951E-015  0.9000771E+02  0.7816164E-02  0.1186339E+00
        -11   -1    0    0    0    0  0.00000000000E+00  0.00000000000E+00  0.45593999997E+02  0.45594000000E+02  0.51100000000E-03 0.  1.
         11   -1    0    0    0    0 -0.00000000000E+00 -0.00000000000E+00 -0.45593999997E+02  0.45594000000E+02  0.51100000000E-03 0. -1.
    9900012    2    1    2    0    0 -0.54962597600E+00 -0.36538614730E+00  0.97851900437E+00  0.90007705464E+02  0.89999966376E+02 0.  0.
         12    1    1    2    0    0  0.54962597600E+00  0.36538614730E+00 -0.97851900437E+00  0.11802945361E+01  0.00000000000E+00 0. -1.
         11    1    3    3    0    0 -0.44443601131E+01  0.37414925370E+00  0.42333962983E+01  0.61493063803E+01  0.51100000000E-03 0. -1.
        -11    1    3    3    0    0 -0.16176203920E+02  0.34543452032E+02  0.12760090798E+02  0.40221133362E+02  0.51100000000E-03 0.  1.
         12    1    3    3    0    0  0.20070938057E+02 -0.35282987433E+02 -0.16014968092E+02  0.43637265721E+02  0.00000000000E+00 0. -1.
</event>
<event>
 7    1  0.2404951E-015  0.9000768E+02  0.7816164E-02  0.1186339E+00
        -11   -1    0    0    0    0  0.00000000000E+00  0.00000000000E+00  0.45593999997E+02  0.45594000000E+02  0.51100000000E-03 0.  1.
         11   -1    0    0    0    0 -0.00000000000E+00 -0.00000000000E+00 -0.45593999997E+02  0.45594000000E+02  0.51100000000E-03 0. -1.
    9900012    2    1    2    0    0  0.13248403826E+00 -0.52182039630E+00  0.10503862473E+01  0.90007678088E+02  0.89999938639E+02 0.  0.
         12    1    1    2    0    0 -0.13248403826E+00  0.52182039630E+00 -0.10503862473E+01  0.11803219116E+01  0.00000000000E+00 0. -1.
         11    1    3    3    0    0 -0.14927190925E+02 -0.30371847969E+02  0.21964697608E+02  0.40344988774E+02  0.51100000000E-03 0. -1.
        -11    1    3    3    0    0  0.33253489517E+00 -0.52155064140E+01 -0.78859683703E+01  0.94604748300E+01  0.51100000000E-03 0.  1.
        -12    1    3    3    0    0  0.14727140068E+02  0.35065533986E+02 -0.13028342990E+02  0.40202214484E+02  0.00000000000E+00 0.  1.
</event>
<event>
 7    1  0.2404951E-015  0.9000759E+02  0.7816164E-02  0.1186339E+00
        -11   -1    0    0    0    0  0.00000000000E+00  0.00000000000E+00  0.45593999997E+02  0.45594000000E+02  0.51100000000E-03 0. -1.
         11   -1    0    0    0    0 -0.00000000000E+00 -0.00000000000E+00 -0.45593999997E+02  0.45594000000E+02  0.51100000000E-03 0.  1.
    9900012    2    1    2    0    0 -0.69697464837E+00  0.73018574277E+00 -0.61189722313E+00  0.90007591981E+02  0.89999851395E+02 0.  0.
         12    1    1    2    0    0  0.69697464837E+00 -0.73018574277E+00  0.61189722313E+00  0.11804080189E+01  0.00000000000E+00 0. -1.
         11    1    3    3    0    0 -0.88613766390E+01 -0.31403942240E+01 -0.38278184845E+01  0.10150776642E+02  0.51100000000E-03 0. -1.
        -11    1    3    3    0    0 -0.32924736082E+02 -0.11603967866E+02 -0.47568364678E+01  0.35232340396E+02  0.51100000000E-03 0.  1.
         12    1    3    3    0    0  0.41089138073E+02  0.15474547833E+02  0.79727577291E+01  0.44624474944E+02  0.00000000000E+00 0. -1.
</event>
<event>
 7    1  0.2404951E-015  0.9000773E+02  0.7816164E-02  0.1186339E+00
        -11   -1    0    0    0    0  0.00000000000E+00  0.00000000000E+00  0.45593999997E+02  0.45594000000E+02  0.51100000000E-03 0. -1.
         11   -1    0    0    0    0 -0.00000000000E+00 -0.00000000000E+00 -0.45593999997E+02  0.45594000000E+02  0.51100000000E-03 0.  1.
    9900012    2    1    2    0    0 -0.46163870005E+00  0.92897699577E+00  0.56295827245E+00  0.90007732842E+02  0.89999994115E+02 0.  0.
         12    1    1    2    0    0  0.46163870005E+00 -0.92897699577E+00 -0.56295827245E+00  0.11802671581E+01  0.00000000000E+00 0. -1.
         11    1    3    3    0    0 -0.69097190215E+01  0.76909988738E+00 -0.68016042465E+01  0.97261272961E+01  0.51100000000E-03 0. -1.
        -11    1    3    3    0    0 -0.15951402677E+02  0.32823050781E+02 -0.87415369621E+01  0.37526182575E+02  0.51100000000E-03 0.  1.
         12    1    3    3    0    0  0.22399482998E+02 -0.32663173672E+02  0.16106099481E+02  0.42755422971E+02  0.00000000000E+00 0. -1.
</event>
<event>
 7    1  0.2404951E-015  0.9000774E+02  0.7816164E-02  0.1186339E+00
        -11   -1    0    0    0    0  0.00000000000E+00  0.00000000000E+00  0.45593999997E+02  0.45594000000E+02  0.51100000000E-03 0. -1.
         11   -1    0    0    0    0 -0.00000000000E+00 -0.00000000000E+00 -0.45593999997E+02  0.45594000000E+02  0.51100000000E-03 0.  1.
    9900012    2    1    2    0    0  0.45894488717E+00 -0.82982689983E+00 -0.70268760440E+00  0.90007740299E+02  0.90000001671E+02 0.  0.
         12    1    1    2    0    0 -0.45894488717E+00  0.82982689983E+00  0.70268760440E+00  0.11802597013E+01  0.00000000000E+00 0. -1.
         11    1    3    3    0    0 -0.21492721825E+02 -0.12140431402E+00  0.29726681007E+02  0.36682794256E+02  0.51100000000E-03 0. -1.
        -11    1    3    3    0    0 -0.82663876288E+01 -0.78374257308E+01 -0.27220812892E+01  0.11711880008E+02  0.51100000000E-03 0.  1.
        -12    1    3    3    0    0  0.30218054341E+02  0.71290031450E+01 -0.27707287322E+02  0.41613066035E+02  0.00000000000E+00 0.  1.
</event>
<event>
 7    1  0.2404951E-015  0.9000776E+02  0.7816164E-02  0.1186339E+00
        -11   -1    0    0    0    0  0.00000000000E+00  0.00000000000E+00  0.45593999997E+02  0.45594000000E+02  0.51100000000E-03 0.  1.
         11   -1    0    0    0    0 -0.00000000000E+00 -0.00000000000E+00 -0.45593999997E+02  0.45594000000E+02  0.51100000000E-03 0. -1.
    9900012    2    1    2    0    0  0.72805197975E+00 -0.46356543123E+00  0.80499025983E+00  0.90007761925E+02  0.90000023583E+02 0.  0.
         12    1    1    2    0    0 -0.72805197975E+00  0.46356543123E+00 -0.80499025983E+00  0.11802380746E+01  0.00000000000E+00 0. -1.
         11    1    3    3    0    0  0.25572601047E+02 -0.10835371124E+02 -0.23193529002E+02  0.36184291889E+02  0.51100000000E-03 0. -1.
        -11    1    3    3    0    0  0.78908346917E+01 -0.63302790234E+01  0.35049548229E+00  0.10122279980E+02  0.51100000000E-03 0.  1.
        -12    1    3    3    0    0 -0.32735383758E+02  0.16702084717E+02  0.23648023779E+02  0.43701190057E+02  0.00000000000E+00 0.  1.
</event>
<event>
 7    1  0.2404951E-015  0.9000767E+02  0.7816164E-02  0.1186339E+00
        -11   -1    0    0    0    0  0.00000000000E+00  0.00000000000E+00  0.45593999997E+02  0.45594000000E+02  0.51100000000E-03 0.  1.
         11   -1    0    0    0    0 -0.00000000000E+00 -0.00000000000E+00 -0.45593999997E+02  0.45594000000E+02  0.51100000000E-03 0. -1.
    9900012    2    1    2    0    0 -0.28494042176E-01  0.56126036358E+00  0.10379524103E+01  0.90007673642E+02  0.89999934134E+02 0.  0.
         12    1    1    2    0    0  0.28494042176E-01 -0.56126036358E+00 -0.10379524103E+01  0.11803263584E+01  0.00000000000E+00 0. -1.
         11    1    3    3    0    0 -0.71356791538E+01  0.24992345203E+01 -0.34068847797E+02  0.34897714548E+02  0.51100000000E-03 0. -1.
        -11    1    3    3    0    0 -0.15317385786E+01  0.10105882274E+01 -0.94506119287E+01  0.96271271793E+01  0.51100000000E-03 0.  1.
        -12    1    3    3    0    0  0.86389236903E+01 -0.29485623841E+01  0.44557412136E+02  0.45482831914E+02  0.00000000000E+00 0.  1.
</event>
<event>
 7    1  0.2459671E-015  0.9000777E+02  0.7816164E-02  0.1186339E+00
        -11   -1    0    0    0    0  0.00000000000E+00  0.00000000000E+00  0.45593999997E+02  0.45594000000E+02  0.51100000000E-03 0. -1.
         11   -1    0    0    0    0 -0.00000000000E+00 -0.00000000000E+00 -0.45593999997E+02  0.45594000000E+02  0.51100000000E-03 0.  1.
    9900012    2    1    2    0    0  0.36888398555E+00  0.36281183666E+00 -0.10607727199E+01  0.90007768418E+02  0.90000030161E+02 0.  0.
         12    1    1    2    0    0 -0.36888398555E+00 -0.36281183666E+00  0.10607727199E+01  0.11802315819E+01  0.00000000000E+00 0. -1.
         11    1    3    3    0    0  0.26845215037E+02 -0.21738997731E+01  0.28830693094E+02  0.39453773902E+02  0.51100000000E-03 0. -1.
        -11    1    3    3    0    0  0.62992915250E+01  0.47017534126E+01 -0.69066143932E+01  0.10463693493E+02  0.51100000000E-03 0.  1.
        -12    1    3    3    0    0 -0.32775622577E+02 -0.21650418028E+01 -0.22984851420E+02  0.40090301023E+02  0.00000000000E+00 0.  1.
</event>
<event>
 7    1  0.2404951E-015  0.9000775E+02  0.7816164E-02  0.1186339E+00
        -11   -1    0    0    0    0  0.00000000000E+00  0.00000000000E+00  0.45593999997E+02  0.45594000000E+02  0.51100000000E-03 0.  1.
         11   -1    0    0    0    0 -0.00000000000E+00 -0.00000000000E+00 -0.45593999997E+02  0.45594000000E+02  0.51100000000E-03 0. -1.
    9900012    2    1    2    0    0  0.10161408421E+01 -0.50332558882E+00  0.32727346391E+00  0.90007751391E+02  0.90000012909E+02 0.  0.
         12    1    1    2    0    0 -0.10161408421E+01  0.50332558882E+00 -0.32727346391E+00  0.11802486092E+01  0.00000000000E+00 0. -1.
         11    1    3    3    0    0  0.35287985932E+02 -0.10004860288E+02 -0.23911363027E+01  0.36756723379E+02  0.51100000000E-03 0. -1.
        -11    1    3    3    0    0  0.24517371523E+01  0.14150012396E+02  0.70209003803E+01  0.15985209047E+02  0.51100000000E-03 0.  1.
        -12    1    3    3    0    0 -0.36723582242E+02 -0.46484776969E+01 -0.43024906137E+01  0.37265818964E+02  0.00000000000E+00 0.  1.
</event>
<event>
 7    1  0.2404951E-015  0.9000783E+02  0.7816164E-02  0.1186339E+00
        -11   -1    0    0    0    0  0.00000000000E+00  0.00000000000E+00  0.45593999997E+02  0.45594000000E+02  0.51100000000E-03 0.  1.
         11   -1    0    0    0    0 -0.00000000000E+00 -0.00000000000E+00 -0.45593999997E+02  0.45594000000E+02  0.51100000000E-03 0. -1.
    9900012    2    1    2    0    0  0.53257502374E+00  0.85737913918E+00 -0.61161633535E+00  0.90007826417E+02  0.90000088926E+02 0.  0.
         12    1    1    2    0    0 -0.53257502374E+00 -0.85737913918E+00  0.61161633535E+00  0.11801735829E+01  0.00000000000E+00 0. -1.
         11    1    3    3    0    0  0.90531348929E+01  0.28860942671E+02 -0.24640791758E+02  0.39013867816E+02  0.51100000000E-03 0. -1.
        -11    1    3    3    0    0  0.63043501962E+01 -0.32798620787E+01 -0.60485948800E+01  0.93320858834E+01  0.51100000000E-03 0.  1.
        -12    1    3    3    0    0 -0.14824910065E+02 -0.24723701453E+02  0.30077770303E+02  0.41661872718E+02  0.00000000000E+00 0.  1.
</event>
<event>
 7    1  0.2404951E-015  0.9000772E+02  0.7816164E-02  0.1186339E+00
        -11   -1    0    0    0    0  0.00000000000E+00  0.00000000000E+00  0.45593999997E+02  0.45594000000E+02  0.51100000000E-03 0. -1.
         11   -1    0    0    0    0 -0.00000000000E+00 -0.00000000000E+00 -0.45593999997E+02  0.45594000000E+02  0.51100000000E-03 0.  1.
    9900012    2    1    2    0    0 -0.90062231421E+00 -0.43062741660E+00 -0.62967752133E+00  0.90007722784E+02  0.89999983925E+02 0.  0.
         12    1    1    2    0    0  0.90062231421E+00  0.43062741660E+00  0.62967752133E+00  0.11802772156E+01  0.00000000000E+00 0. -1.
         11    1    3    3    0    0  0.29690846937E+02  0.22405918255E+02  0.16970058184E+02  0.40884647971E+02  0.51100000000E-03 0. -1.
        -11    1    3    3    0    0 -0.17634206795E+01 -0.48195278149E+01  0.58822744011E+01  0.78063213642E+01  0.51100000000E-03 0.  1.
        -12    1    3    3    0    0 -0.28828048572E+02 -0.18017017857E+02 -0.23482010106E+02  0.41316753449E+02  0.00000000000E+00 0.  1.
</event>
<event>
 7    1  0.2404951E-015  0.9000769E+02  0.7816164E-02  0.1186339E+00
        -11   -1    0    0    0    0  0.00000000000E+00  0.00000000000E+00  0.45593999997E+02  0.45594000000E+02  0.51100000000E-03 0.  1.
         11   -1    0    0    0    0 -0.00000000000E+00 -0.00000000000E+00 -0.45593999997E+02  0.45594000000E+02  0.51100000000E-03 0. -1.
    9900012    2    1    2    0    0 -0.74180113305E+00  0.91676647882E+00  0.49060125436E-01  0.90007687925E+02  0.89999948606E+02 0.  0.
         12    1    1    2    0    0  0.74180113305E+00 -0.91676647882E+00 -0.49060125436E-01  0.11803120747E+01  0.00000000000E+00 0. -1.
         11    1    3    3    0    0  0.13619102989E+01 -0.32818722457E+02 -0.17515666884E+02  0.37225286164E+02  0.51100000000E-03 0. -1.
        -11    1    3    3    0    0  0.11570443191E+02  0.14328634881E+02 -0.59631581825E+01  0.19358310592E+02  0.51100000000E-03 0.  1.
        -12    1    3    3    0    0 -0.13674154623E+02  0.19406854054E+02  0.23527885191E+02  0.33424091170E+02  0.00000000000E+00 0.  1.
</event>
<event>
 7    1  0.2404951E-015  0.9000818E+02  0.7816164E-02  0.1186338E+00
        -11   -1    0    0    0    0  0.00000000000E+00  0.00000000000E+00  0.45593999997E+02  0.45594000000E+02  0.51100000000E-03 0.  1.
         11   -1    0    0    0    0 -0.00000000000E+00 -0.00000000000E+00 -0.45593999997E+02  0.45594000000E+02  0.51100000000E-03 0. -1.
    9900012    2    1    2    0    0 -0.36566173265E+00  0.88701770518E-01  0.11182073703E+01  0.90008184663E+02  0.90000451899E+02 0.  0.
         12    1    1    2    0    0  0.36566173265E+00 -0.88701770518E-01 -0.11182073703E+01  0.11798153372E+01  0.00000000000E+00 0. -1.
         11    1    3    3    0    0 -0.85242119660E+01  0.23814543079E+01  0.19023831680E+01  0.90527662204E+01  0.51100000000E-03 0. -1.
        -11    1    3    3    0    0 -0.18245208708E+02  0.28022495926E+01  0.32978123081E+02  0.37792814738E+02  0.51100000000E-03 0.  1.
         12    1    3    3    0    0  0.26403758942E+02 -0.50950021300E+01 -0.33762298879E+02  0.43162603704E+02  0.00000000000E+00 0. -1.
</event>
<event>
 7    1  0.2404951E-015  0.9000768E+02  0.7816164E-02  0.1186339E+00
        -11   -1    0    0    0    0  0.00000000000E+00  0.00000000000E+00  0.45593999997E+02  0.45594000000E+02  0.51100000000E-03 0. -1.
         11   -1    0    0    0    0 -0.00000000000E+00 -0.00000000000E+00 -0.45593999997E+02  0.45594000000E+02  0.51100000000E-03 0.  1.
    9900012    2    1    2    0    0  0.14768415649E+00 -0.10924561166E+01  0.42175022283E+00  0.90007684692E+02  0.89999945330E+02 0.  0.
         12    1    1    2    0    0 -0.14768415649E+00  0.10924561166E+01 -0.42175022283E+00  0.11803153084E+01  0.00000000000E+00 0. -1.
         11    1    3    3    0    0 -0.19566397983E+01  0.27653815703E+02  0.22676088323E+02  0.35815735985E+02  0.51100000000E-03 0. -1.
        -11    1    3    3    0    0 -0.29510009238E+01  0.79403614298E+01  0.34136793594E+01  0.91329597129E+01  0.51100000000E-03 0.  1.
        -12    1    3    3    0    0  0.50553248786E+01 -0.36686633249E+02 -0.25668017460E+02  0.45058988994E+02  0.00000000000E+00 0.  1.
</event>
<event>
 7    1  0.2404951E-015  0.9000770E+02  0.7816164E-02  0.1186339E+00
        -11   -1    0    0    0    0  0.00000000000E+00  0.00000000000E+00  0.45593999997E+02  0.45594000000E+02  0.51100000000E-03 0.  1.
         11   -1    0    0    0    0 -0.00000000000E+00 -0.00000000000E+00 -0.45593999997E+02  0.45594000000E+02  0.51100000000E-03 0. -1.
    9900012    2    1    2    0    0 -0.60502266129E+00  0.72763551594E+00  0.70540158125E+00  0.90007704590E+02  0.89999965490E+02 0.  0.
         12    1    1    2    0    0  0.60502266129E+00 -0.72763551594E+00 -0.70540158125E+00  0.11802954103E+01  0.00000000000E+00 0. -1.
         11    1    3    3    0    0 -0.90097987027E+01 -0.22201193151E+01  0.65657714964E+00  0.93024994625E+01  0.51100000000E-03 0. -1.
        -11    1    3    3    0    0 -0.25608042853E+02 -0.25252304044E+02  0.47337338407E+01  0.36274770222E+02  0.51100000000E-03 0.  1.
         12    1    3    3    0    0  0.34012818895E+02  0.28200058875E+02 -0.46849094091E+01  0.44430434905E+02  0.00000000000E+00 0. -1.
</event>
<event>
 7    1  0.2404951E-015  0.9000775E+02  0.7816164E-02  0.1186339E+00
        -11   -1    0    0    0    0  0.00000000000E+00  0.00000000000E+00  0.45593999997E+02  0.45594000000E+02  0.51100000000E-03 0.  1.
         11   -1    0    0    0    0 -0.00000000000E+00 -0.00000000000E+00 -0.45593999997E+02  0.45594000000E+02  0.51100000000E-03 0. -1.
    9900012    2    1    2    0    0 -0.35300554144E+00  0.14942811414E+00  0.11162635721E+01  0.90007751706E+02  0.90000013228E+02 0.  0.
         12    1    1    2    0    0  0.35300554144E+00 -0.14942811414E+00 -0.11162635721E+01  0.11802482942E+01  0.00000000000E+00 0. -1.
         11    1    3    3    0    0 -0.13172846488E+02  0.19764532315E+01 -0.19448884777E+01  0.13461531987E+02  0.51100000000E-03 0. -1.
        -11    1    3    3    0    0 -0.26564466200E+02 -0.19785862250E+02  0.30192757779E+01  0.33260595845E+02  0.51100000000E-03 0.  1.
         12    1    3    3    0    0  0.39384307147E+02  0.17958837133E+02  0.41876272003E-01  0.43285623874E+02  0.00000000000E+00 0. -1.
</event>
<event>
 7    1  0.2404951E-015  0.9000778E+02  0.7816164E-02  0.1186339E+00
        -11   -1    0    0    0    0  0.00000000000E+00  0.00000000000E+00  0.45593999997E+02  0.45594000000E+02  0.51100000000E-03 0. -1.
         11   -1    0    0    0    0 -0.00000000000E+00 -0.00000000000E+00 -0.45593999997E+02  0.45594000000E+02  0.51100000000E-03 0.  1.
    9900012    2    1    2    0    0 -0.96442061752E-01 -0.47162102639E+00 -0.10775858929E+01  0.90007780181E+02  0.90000042080E+02 0.  0.
         12    1    1    2    0    0  0.96442061752E-01  0.47162102639E+00  0.10775858929E+01  0.11802198187E+01  0.00000000000E+00 0. -1.
         11    1    3    3    0    0 -0.63168434743E+01 -0.65236308281E+01 -0.24965656852E+01  0.94177020096E+01  0.51100000000E-03 0. -1.
        -11    1    3    3    0    0 -0.24645841360E+02  0.12183301126E+02 -0.26747005504E+02  0.38356911064E+02  0.51100000000E-03 0.  1.
         12    1    3    3    0    0  0.30866242773E+02 -0.61312913244E+01  0.28165985297E+02  0.42233167108E+02  0.00000000000E+00 0. -1.
</event>
<event>
 7    1  0.2404951E-015  0.9000781E+02  0.7816164E-02  0.1186339E+00
        -11   -1    0    0    0    0  0.00000000000E+00  0.00000000000E+00  0.45593999997E+02  0.45594000000E+02  0.51100000000E-03 0.  1.
         11   -1    0    0    0    0 -0.00000000000E+00 -0.00000000000E+00 -0.45593999997E+02  0.45594000000E+02  0.51100000000E-03 0. -1.
    9900012    2    1    2    0    0  0.87485644122E+00 -0.73835263840E+00  0.28689113824E+00  0.90007811483E+02  0.90000073794E+02 0.  0.
         12    1    1    2    0    0 -0.87485644122E+00  0.73835263840E+00 -0.28689113824E+00  0.11801885174E+01  0.00000000000E+00 0. -1.
         11    1    3    3    0    0  0.62852514903E+01 -0.42940422784E+01  0.60376700263E+01  0.97157935853E+01  0.51100000000E-03 0. -1.
        -11    1    3    3    0    0 -0.96436541868E+01 -0.34391437267E+02  0.12669636282E+02  0.37898426183E+02  0.51100000000E-03 0.  1.
         12    1    3    3    0    0  0.42332591377E+01  0.37947126907E+02 -0.18420415170E+02  0.42393591714E+02  0.00000000000E+00 0. -1.
</event>
<event>
 7    1  0.2404951E-015  0.9000774E+02  0.7816164E-02  0.1186339E+00
        -11   -1    0    0    0    0  0.00000000000E+00  0.00000000000E+00  0.45593999997E+02  0.45594000000E+02  0.51100000000E-03 0. -1.
         11   -1    0    0    0    0 -0.00000000000E+00 -0.00000000000E+00 -0.45593999997E+02  0.45594000000E+02  0.51100000000E-03 0.  1.
    9900012    2    1    2    0    0  0.83209708206E+00  0.58184054352E+00  0.60173879450E+00  0.90007740050E+02  0.90000001419E+02 0.  0.
         12    1    1    2    0    0 -0.83209708206E+00 -0.58184054352E+00 -0.60173879450E+00  0.11802599497E+01  0.00000000000E+00 0. -1.
         11    1    3    3    0    0 -0.85673111409E+00  0.47508103466E+01 -0.10643415947E+02  0.11687022309E+02  0.51100000000E-03 0. -1.
        -11    1    3    3    0    0  0.69176630723E+01  0.24568472464E+02 -0.22262863233E+02  0.33868849718E+02  0.51100000000E-03 0.  1.
         12    1    3    3    0    0 -0.52288348761E+01 -0.28737442267E+02  0.33508017975E+02  0.44451868024E+02  0.00000000000E+00 0. -1.
</event>
<event>
 7    1  0.2404951E-015  0.9000779E+02  0.7816164E-02  0.1186339E+00
        -11   -1    0    0    0    0  0.00000000000E+00  0.00000000000E+00  0.45593999997E+02  0.45594000000E+02  0.51100000000E-03 0.  1.
         11   -1    0    0    0    0 -0.00000000000E+00 -0.00000000000E+00 -0.45593999997E+02  0.45594000000E+02  0.51100000000E-03 0. -1.
    9900012    2    1    2    0    0 -0.15566623025E-01  0.11350666862E+01 -0.32291941275E+00  0.90007789998E+02  0.90000052026E+02 0.  0.
         12    1    1    2    0    0  0.15566623025E-01 -0.11350666862E+01  0.32291941275E+00  0.11802100021E+01  0.00000000000E+00 0. -1.
         11    1    3    3    0    0  0.48594592592E+00  0.10709023972E+02  0.51636186608E+01  0.11898835902E+02  0.51100000000E-03 0. -1.
        -11    1    3    3    0    0  0.14144171776E+02 -0.19106285370E+02  0.30164374926E+02  0.38405692948E+02  0.51100000000E-03 0.  1.
         12    1    3    3    0    0 -0.14645684325E+02  0.95323280842E+01 -0.35650913000E+02  0.39703261148E+02  0.00000000000E+00 0. -1.
</event>
<event>
 7    1  0.2404951E-015  0.9000773E+02  0.7816164E-02  0.1186339E+00
        -11   -1    0    0    0    0  0.00000000000E+00  0.00000000000E+00  0.45593999997E+02  0.45594000000E+02  0.51100000000E-03 0.  1.
         11   -1    0    0    0    0 -0.00000000000E+00 -0.00000000000E+00 -0.45593999997E+02  0.45594000000E+02  0.51100000000E-03 0. -1.
    9900012    2    1    2    0    0  0.11488952184E+01 -0.11132411980E+00 -0.24631772963E+00  0.90007734900E+02  0.89999996201E+02 0.  0.
         12    1    1    2    0    0 -0.11488952184E+01  0.11132411980E+00  0.24631772963E+00  0.11802651001E+01  0.00000000000E+00 0. -1.
         11    1    3    3    0    0  0.61254066888E+01 -0.22013531100E+01  0.59533164074E+01  0.88209148690E+01  0.51100000000E-03 0. -1.
        -11    1    3    3    0    0  0.24564572740E+02 -0.20158251328E+02  0.18448216536E+02  0.36743843350E+02  0.51100000000E-03 0.  1.
         12    1    3    3    0    0 -0.29541084210E+02  0.22248280318E+02 -0.24647850673E+02  0.44442976681E+02  0.00000000000E+00 0. -1.
</event>
<event>
 7    1  0.2404951E-015  0.9000775E+02  0.7816164E-02  0.1186339E+00
        -11   -1    0    0    0    0  0.00000000000E+00  0.00000000000E+00  0.45593999997E+02  0.45594000000E+02  0.51100000000E-03 0.  1.
         11   -1    0    0    0    0 -0.00000000000E+00 -0.00000000000E+00 -0.45593999997E+02  0.45594000000E+02  0.51100000000E-03 0. -1.
    9900012    2    1    2    0    0 -0.58964100099E+00 -0.10000312845E+01 -0.21271303361E+00  0.90007751757E+02  0.90000013280E+02 0.  0.
         12    1    1    2    0    0  0.58964100099E+00  0.10000312845E+01  0.21271303361E+00  0.11802482428E+01  0.00000000000E+00 0. -1.
         11    1    3    3    0    0  0.74933659441E+01  0.22959178037E+01  0.52220641331E-01  0.78373783238E+01  0.51100000000E-03 0. -1.
        -11    1    3    3    0    0  0.51753418399E+01  0.27606714009E+02  0.26938475378E+02  0.38917814398E+02  0.51100000000E-03 0.  1.
         12    1    3    3    0    0 -0.13258348785E+02 -0.30902663098E+02 -0.27203409053E+02  0.43252559036E+02  0.00000000000E+00 0. -1.
</event>
<event>
 7    1  0.2404951E-015  0.9000770E+02  0.7816164E-02  0.1186339E+00
        -11   -1    0    0    0    0  0.00000000000E+00  0.00000000000E+00  0.45593999997E+02  0.45594000000E+02  0.51100000000E-03 0. -1.
         11   -1    0    0    0    0 -0.00000000000E+00 -0.00000000000E+00 -0.45593999997E+02  0.45594000000E+02  0.51100000000E-03 0.  1.
    9900012    2    1    2    0    0 -0.80767033451E+00 -0.66394213704E-01 -0.85811297214E+00  0.90007704514E+02  0.89999965414E+02 0.  0.
         12    1    1    2    0    0  0.80767033451E+00  0.66394213704E-01  0.85811297214E+00  0.11802954858E+01  0.00000000000E+00 0. -1.
         11    1    3    3    0    0  0.67589810474E+01  0.10429603715E+02  0.30885114808E+02  0.33291902550E+02  0.51100000000E-03 0. -1.
        -11    1    3    3    0    0  0.80522557044E+00  0.58894863646E+01  0.96971286011E+01  0.11374038035E+02  0.51100000000E-03 0.  1.
        -12    1    3    3    0    0 -0.83718769524E+01 -0.16385484293E+02 -0.41440356381E+02  0.45341763929E+02  0.00000000000E+00 0.  1.
</event>
<event>
 7    1  0.2404951E-015  0.9000777E+02  0.7816164E-02  0.1186339E+00
        -11   -1    0    0    0    0  0.00000000000E+00  0.00000000000E+00  0.45593999997E+02  0.45594000000E+02  0.51100000000E-03 0.  1.
         11   -1    0    0    0    0 -0.00000000000E+00 -0.00000000000E+00 -0.45593999997E+02  0.45594000000E+02  0.51100000000E-03 0. -1.
    9900012    2    1    2    0    0  0.96796676402E+00 -0.63320160963E-01  0.67228842603E+00  0.90007770858E+02  0.90000032634E+02 0.  0.
         12    1    1    2    0    0 -0.96796676402E+00  0.63320160963E-01 -0.67228842603E+00  0.11802291417E+01  0.00000000000E+00 0. -1.
         11    1    3    3    0    0 -0.41375381856E+01  0.85625638651E+01  0.24819796300E+01  0.98283745007E+01  0.51100000000E-03 0. -1.
        -11    1    3    3    0    0  0.28793107495E+02  0.23676709176E+02  0.96669719924E+01  0.38510776990E+02  0.51100000000E-03 0.  1.
         12    1    3    3    0    0 -0.23687602545E+02 -0.32302593202E+02 -0.11476663196E+02  0.41668619368E+02  0.00000000000E+00 0. -1.
</event>
<event>
 7    1  0.2404951E-015  0.9000774E+02  0.7816164E-02  0.1186339E+00
        -11   -1    0    0    0    0  0.00000000000E+00  0.00000000000E+00  0.45593999997E+02  0.45594000000E+02  0.51100000000E-03 0.  1.
         11   -1    0    0    0    0 -0.00000000000E+00 -0.00000000000E+00 -0.45593999997E+02  0.45594000000E+02  0.51100000000E-03 0. -1.
    9900012    2    1    2    0    0 -0.53737223277E+00  0.69566603057E+00  0.78758122721E+00  0.90007743955E+02  0.90000005375E+02 0.  0.
         12    1    1    2    0    0  0.53737223277E+00 -0.69566603057E+00 -0.78758122721E+00  0.11802560451E+01  0.00000000000E+00 0. -1.
         11    1    3    3    0    0 -0.25246617339E+02  0.25224956366E+02  0.17075053511E+02  0.39563209721E+02  0.51100000000E-03 0. -1.
        -11    1    3    3    0    0  0.63645532827E+01  0.54143006274E+01  0.46475813612E+01  0.95614958318E+01  0.51100000000E-03 0.  1.
        -12    1    3    3    0    0  0.18344691824E+02 -0.29943590963E+02 -0.20935053645E+02  0.40883038402E+02  0.00000000000E+00 0.  1.
</event>
<event>
 7    1  0.2404951E-015  0.9000777E+02  0.7816164E-02  0.1186339E+00
        -11   -1    0    0    0    0  0.00000000000E+00  0.00000000000E+00  0.45593999997E+02  0.45594000000E+02  0.51100000000E-03 0.  1.
         11   -1    0    0    0    0 -0.00000000000E+00 -0.00000000000E+00 -0.45593999997E+02  0.45594000000E+02  0.51100000000E-03 0. -1.
    9900012    2    1    2    0    0  0.61070556507E+00 -0.22899211254E+00  0.98363338259E+00  0.90007774044E+02  0.90000035862E+02 0.  0.
         12    1    1    2    0    0 -0.61070556507E+00  0.22899211254E+00 -0.98363338259E+00  0.11802259555E+01  0.00000000000E+00 0. -1.
         11    1    3    3    0    0  0.43219598650E+01 -0.78350416834E+01 -0.34644245693E+01  0.95952828574E+01  0.51100000000E-03 0. -1.
        -11    1    3    3    0    0  0.96049424046E+01 -0.27489097102E+02 -0.20260293829E+02  0.35473721039E+02  0.51100000000E-03 0.  1.
         12    1    3    3    0    0 -0.13316196705E+02  0.35095146673E+02  0.24708351781E+02  0.44938770148E+02  0.00000000000E+00 0. -1.
</event>
<event>
 7    1  0.2404951E-015  0.9000776E+02  0.7816164E-02  0.1186339E+00
        -11   -1    0    0    0    0  0.00000000000E+00  0.00000000000E+00  0.45593999997E+02  0.45594000000E+02  0.51100000000E-03 0. -1.
         11   -1    0    0    0    0 -0.00000000000E+00 -0.00000000000E+00 -0.45593999997E+02  0.45594000000E+02  0.51100000000E-03 0.  1.
    9900012    2    1    2    0    0  0.92846464062E+00 -0.19555152930E+00  0.70191054715E+00  0.90007760446E+02  0.90000022084E+02 0.  0.
         12    1    1    2    0    0 -0.92846464062E+00  0.19555152930E+00 -0.70191054715E+00  0.11802395544E+01  0.00000000000E+00 0. -1.
         11    1    3    3    0    0 -0.24534582637E+02 -0.80197061194E+01  0.23297497116E+02  0.34771177770E+02  0.51100000000E-03 0. -1.
        -11    1    3    3    0    0 -0.67304393829E+01 -0.34111781938E+01  0.68450128509E+01  0.10187696116E+02  0.51100000000E-03 0.  1.
        -12    1    3    3    0    0  0.32193486660E+02  0.11235332784E+02 -0.29440599419E+02  0.45048886560E+02  0.00000000000E+00 0.  1.
</event>
<event>
 7    1  0.2547850E-015  0.9000778E+02  0.7816164E-02  0.1186339E+00
        -11   -1    0    0    0    0  0.00000000000E+00  0.00000000000E+00  0.45593999997E+02  0.45594000000E+02  0.51100000000E-03 0.  1.
         11   -1    0    0    0    0 -0.00000000000E+00 -0.00000000000E+00 -0.45593999997E+02  0.45594000000E+02  0.51100000000E-03 0. -1.
    9900012    2    1    2    0    0 -0.44305803249E+00  0.10434453053E+01  0.32838017640E+00  0.90007783043E+02  0.90000044979E+02 0.  0.
         12    1    1    2    0    0  0.44305803249E+00 -0.10434453053E+01 -0.32838017640E+00  0.11802169570E+01  0.00000000000E+00 0. -1.
         11    1    3    3    0    0  0.58672288518E+01 -0.21741552892E+02 -0.35950526594E+02  0.42421219445E+02  0.51100000000E-03 0. -1.
        -11    1    3    3    0    0  0.64922064922E+01  0.31695355833E+01  0.66711936632E+01  0.98335917194E+01  0.51100000000E-03 0.  1.
        -12    1    3    3    0    0 -0.12802493376E+02  0.19615462615E+02  0.29607713107E+02  0.37752971879E+02  0.00000000000E+00 0.  1.
</event>
<event>
 7    1  0.2404951E-015  0.9000785E+02  0.7816164E-02  0.1186339E+00
        -11   -1    0    0    0    0  0.00000000000E+00  0.00000000000E+00  0.45593999997E+02  0.45594000000E+02  0.51100000000E-03 0.  1.
         11   -1    0    0    0    0 -0.00000000000E+00 -0.00000000000E+00 -0.45593999997E+02  0.45594000000E+02  0.51100000000E-03 0. -1.
    9900012    2    1    2    0    0  0.41910619639E+00  0.10516728922E+01 -0.33330034533E+00  0.90007849587E+02  0.90000112402E+02 0.  0.
         12    1    1    2    0    0 -0.41910619639E+00 -0.10516728922E+01  0.33330034533E+00  0.11801504125E+01  0.00000000000E+00 0. -1.
         11    1    3    3    0    0 -0.97422196633E+01 -0.68861972939E+01  0.24312439478E+01  0.12175446790E+02  0.51100000000E-03 0. -1.
        -11    1    3    3    0    0 -0.26393677226E+02 -0.18874748937E+02 -0.95910903229E+00  0.32462320240E+02  0.51100000000E-03 0.  1.
         12    1    3    3    0    0  0.36555003085E+02  0.26812619123E+02 -0.18054352609E+01  0.45370082558E+02  0.00000000000E+00 0. -1.
</event>
<event>
 7    1  0.2404951E-015  0.9000772E+02  0.7816164E-02  0.1186339E+00
        -11   -1    0    0    0    0  0.00000000000E+00  0.00000000000E+00  0.45593999997E+02  0.45594000000E+02  0.51100000000E-03 0.  1.
         11   -1    0    0    0    0 -0.00000000000E+00 -0.00000000000E+00 -0.45593999997E+02  0.45594000000E+02  0.51100000000E-03 0. -1.
    9900012    2    1    2    0    0  0.85755886487E+00 -0.53650734431E-01 -0.80917538809E+00  0.90007724432E+02  0.89999985594E+02 0.  0.
         12    1    1    2    0    0 -0.85755886487E+00  0.53650734431E-01  0.80917538809E+00  0.11802755681E+01  0.00000000000E+00 0. -1.
         11    1    3    3    0    0  0.97717990795E+01  0.70415325073E+01 -0.13533596129E+01  0.12120347347E+02  0.51100000000E-03 0. -1.
        -11    1    3    3    0    0 -0.37345482448E+02  0.16332706100E+02  0.36069062698E+01  0.40920069904E+02  0.51100000000E-03 0.  1.
         12    1    3    3    0    0  0.28431242233E+02 -0.23427889341E+02 -0.30627220450E+01  0.36967307182E+02  0.00000000000E+00 0. -1.
</event>
<event>
 7    1  0.2404951E-015  0.9000762E+02  0.7816164E-02  0.1186339E+00
        -11   -1    0    0    0    0  0.00000000000E+00  0.00000000000E+00  0.45593999997E+02  0.45594000000E+02  0.51100000000E-03 0. -1.
         11   -1    0    0    0    0 -0.00000000000E+00 -0.00000000000E+00 -0.45593999997E+02  0.45594000000E+02  0.51100000000E-03 0.  1.
    9900012    2    1    2    0    0  0.26268003420E+00 -0.22801150309E+00 -0.11279642549E+01  0.90007621499E+02  0.89999881302E+02 0.  0.
         12    1    1    2    0    0 -0.26268003420E+00  0.22801150309E+00  0.11279642549E+01  0.11803785012E+01  0.00000000000E+00 0. -1.
         11    1    3    3    0    0  0.90533851104E+00 -0.34035861047E+01  0.99907184881E+01  0.10593323008E+02  0.51100000000E-03 0. -1.
        -11    1    3    3    0    0  0.24893153597E+02  0.41479996687E+01 -0.35856931216E+02  0.43847400308E+02  0.51100000000E-03 0.  1.
         12    1    3    3    0    0 -0.25535812074E+02 -0.97242506708E+00  0.24738248473E+02  0.35566898182E+02  0.00000000000E+00 0. -1.
</event>
<event>
 7    1  0.2404951E-015  0.9000777E+02  0.7816164E-02  0.1186339E+00
        -11   -1    0    0    0    0  0.00000000000E+00  0.00000000000E+00  0.45593999997E+02  0.45594000000E+02  0.51100000000E-03 0.  1.
         11   -1    0    0    0    0 -0.00000000000E+00 -0.00000000000E+00 -0.45593999997E+02  0.45594000000E+02  0.51100000000E-03 0. -1.
    9900012    2    1    2    0    0 -0.69959881649E+00 -0.56823272127E+00  0.76197428878E+00  0.90007774705E+02  0.90000036531E+02 0.  0.
         12    1    1    2    0    0  0.69959881649E+00  0.56823272127E+00 -0.76197428878E+00  0.11802252947E+01  0.00000000000E+00 0. -1.
         11    1    3    3    0    0 -0.22271033531E+02 -0.30804535439E+02 -0.73149706479E+01  0.38709522523E+02  0.51100000000E-03 0. -1.
        -11    1    3    3    0    0 -0.68465391084E+01  0.50199792043E+01 -0.64094138438E+01  0.10637475032E+02  0.51100000000E-03 0.  1.
        -12    1    3    3    0    0  0.28417973823E+02  0.25216323513E+02  0.14486358780E+02  0.40660777150E+02  0.00000000000E+00 0.  1.
</event>
<event>
 7    1  0.2404951E-015  0.9000764E+02  0.7816164E-02  0.1186339E+00
        -11   -1    0    0    0    0  0.00000000000E+00  0.00000000000E+00  0.45593999997E+02  0.45594000000E+02  0.51100000000E-03 0.  1.
         11   -1    0    0    0    0 -0.00000000000E+00 -0.00000000000E+00 -0.45593999997E+02  0.45594000000E+02  0.51100000000E-03 0. -1.
    9900012    2    1    2    0    0 -0.99486569964E+00  0.26228407658E+00 -0.57852507306E+00  0.90007643292E+02  0.89999903384E+02 0.  0.
         12    1    1    2    0    0  0.99486569964E+00 -0.26228407658E+00  0.57852507306E+00  0.11803567077E+01  0.00000000000E+00 0. -1.
         11    1    3    3    0    0  0.36170899588E+02 -0.27433911291E+01  0.16221953853E+02  0.39736783450E+02  0.51100000000E-03 0. -1.
        -11    1    3    3    0    0  0.47058395627E+01  0.11316826904E+01  0.62333037486E+00  0.48799767130E+01  0.51100000000E-03 0.  1.
        -12    1    3    3    0    0 -0.41871604850E+02  0.18739925153E+01 -0.17423809301E+02  0.45390883129E+02  0.00000000000E+00 0.  1.
</event>
<event>
 7    1  0.2404951E-015  0.9000784E+02  0.7816164E-02  0.1186339E+00
        -11   -1    0    0    0    0  0.00000000000E+00  0.00000000000E+00  0.45593999997E+02  0.45594000000E+02  0.51100000000E-03 0.  1.
         11   -1    0    0    0    0 -0.00000000000E+00 -0.00000000000E+00 -0.45593999997E+02  0.45594000000E+02  0.51100000000E-03 0. -1.
    9900012    2    1    2    0    0  0.11209663385E+01  0.33151054929E+00  0.16221555196E+00  0.90007839561E+02  0.90000102243E+02 0.  0.
         12    1    1    2    0    0 -0.11209663385E+01 -0.33151054929E+00 -0.16221555196E+00  0.11801604389E+01  0.00000000000E+00 0. -1.
         11    1    3    3    0    0 -0.12521857172E+00  0.85496443883E+01 -0.27028031408E+01  0.89675662215E+01  0.51100000000E-03 0. -1.
        -11    1    3    3    0    0  0.27574553249E+02  0.73894507887E+01 -0.26261438892E+02  0.38789472061E+02  0.51100000000E-03 0.  1.
         12    1    3    3    0    0 -0.26328368339E+02 -0.15607584628E+02  0.29126457584E+02  0.42250801279E+02  0.00000000000E+00 0. -1.
</event>
<event>
 7    1  0.2404951E-015  0.9000760E+02  0.7816164E-02  0.1186339E+00
        -11   -1    0    0    0    0  0.00000000000E+00  0.00000000000E+00  0.45593999997E+02  0.45594000000E+02  0.51100000000E-03 0.  1.
         11   -1    0    0    0    0 -0.00000000000E+00 -0.00000000000E+00 -0.45593999997E+02  0.45594000000E+02  0.51100000000E-03 0. -1.
    9900012    2    1    2    0    0  0.90110006947E+00 -0.71299908506E+00  0.27018074330E+00  0.90007598939E+02  0.89999858445E+02 0.  0.
         12    1    1    2    0    0 -0.90110006947E+00  0.71299908506E+00 -0.27018074330E+00  0.11804010609E+01  0.00000000000E+00 0. -1.
         11    1    3    3    0    0 -0.34789305933E+01  0.63744115529E+01  0.24197927166E+01  0.76545070234E+01  0.51100000000E-03 0. -1.
        -11    1    3    3    0    0 -0.22217603313E+02  0.17232055131E+02  0.24688770722E+02  0.37417923794E+02  0.51100000000E-03 0.  1.
         12    1    3    3    0    0  0.26597633976E+02 -0.24319465769E+02 -0.26838382696E+02  0.44935168122E+02  0.00000000000E+00 0. -1.
</event>
<event>
 7    1  0.2404951E-015  0.9000749E+02  0.7816164E-02  0.1186340E+00
        -11   -1    0    0    0    0  0.00000000000E+00  0.00000000000E+00  0.45593999997E+02  0.45594000000E+02  0.51100000000E-03 0.  1.
         11   -1    0    0    0    0 -0.00000000000E+00 -0.00000000000E+00 -0.45593999997E+02  0.45594000000E+02  0.51100000000E-03 0. -1.
    9900012    2    1    2    0    0  0.32297713459E+00 -0.11190728659E+01 -0.19228395700E+00  0.90007486794E+02  0.89999744820E+02 0.  0.
         12    1    1    2    0    0 -0.32297713459E+00  0.11190728659E+01  0.19228395700E+00  0.11805132057E+01  0.00000000000E+00 0. -1.
         11    1    3    3    0    0 -0.13205463020E+02  0.33347924614E+02  0.44361808354E+01  0.36140670031E+02  0.51100000000E-03 0. -1.
        -11    1    3    3    0    0 -0.92674746927E+01  0.29896607262E+01  0.30161430978E+00  0.97424396272E+01  0.51100000000E-03 0.  1.
        -12    1    3    3    0    0  0.22795914848E+02 -0.37456658206E+02 -0.49300791021E+01  0.44124377136E+02  0.00000000000E+00 0.  1.
</event>
<event>
 7    1  0.2404951E-015  0.9000773E+02  0.7816164E-02  0.1186339E+00
        -11   -1    0    0    0    0  0.00000000000E+00  0.00000000000E+00  0.45593999997E+02  0.45594000000E+02  0.51100000000E-03 0. -1.
         11   -1    0    0    0    0 -0.00000000000E+00 -0.00000000000E+00 -0.45593999997E+02  0.45594000000E+02  0.51100000000E-03 0.  1.
    9900012    2    1    2    0    0  0.86572060284E+00 -0.59152256319E+00 -0.54191379034E+00  0.90007728141E+02  0.89999989352E+02 0.  0.
         12    1    1    2    0    0 -0.86572060284E+00  0.59152256319E+00  0.54191379034E+00  0.11802718590E+01  0.00000000000E+00 0. -1.
         11    1    3    3    0    0  0.69451258947E+01  0.63297976899E+00  0.58644491543E+01  0.91119263181E+01  0.51100000000E-03 0. -1.
        -11    1    3    3    0    0 -0.47173393989E+01  0.39421748411E+02 -0.64698344136E+01  0.40226686371E+02  0.51100000000E-03 0.  1.
         12    1    3    3    0    0 -0.13620658930E+01 -0.40646250743E+02  0.63471468950E-01  0.40669115452E+02  0.00000000000E+00 0. -1.
</event>
<event>
 7    1  0.2404951E-015  0.9000777E+02  0.7816164E-02  0.1186339E+00
        -11   -1    0    0    0    0  0.00000000000E+00  0.00000000000E+00  0.45593999997E+02  0.45594000000E+02  0.51100000000E-03 0.  1.
         11   -1    0    0    0    0 -0.00000000000E+00 -0.00000000000E+00 -0.45593999997E+02  0.45594000000E+02  0.51100000000E-03 0. -1.
    9900012    2    1    2    0    0 -0.25481993520E+00 -0.87943184329E+00 -0.74472448390E+00  0.90007767767E+02  0.90000029502E+02 0.  0.
         12    1    1    2    0    0  0.25481993520E+00  0.87943184329E+00  0.74472448390E+00  0.11802322328E+01  0.00000000000E+00 0. -1.
         11    1    3    3    0    0  0.12563920515E+02  0.11438714247E+01  0.99514098756E+01  0.16068325965E+02  0.51100000000E-03 0. -1.
        -11    1    3    3    0    0 -0.35741081710E+01  0.13885443199E+02  0.27795743736E+02  0.31275919685E+02  0.51100000000E-03 0.  1.
         12    1    3    3    0    0 -0.92446322792E+01 -0.15908746466E+02 -0.38491878096E+02  0.42663522117E+02  0.00000000000E+00 0. -1.
</event>
<event>
 7    1  0.2404951E-015  0.9000776E+02  0.7816164E-02  0.1186339E+00
        -11   -1    0    0    0    0  0.00000000000E+00  0.00000000000E+00  0.45593999997E+02  0.45594000000E+02  0.51100000000E-03 0.  1.
         11   -1    0    0    0    0 -0.00000000000E+00 -0.00000000000E+00 -0.45593999997E+02  0.45594000000E+02  0.51100000000E-03 0. -1.
    9900012    2    1    2    0    0 -0.10840489569E+01 -0.18132389366E+00  0.43002975481E+00  0.90007760158E+02  0.90000021792E+02 0.  0.
         12    1    1    2    0    0  0.10840489569E+01  0.18132389366E+00 -0.43002975481E+00  0.11802398423E+01  0.00000000000E+00 0. -1.
         11    1    3    3    0    0  0.88960205626E-01  0.60643936991E+01  0.74215675141E+01  0.95845943829E+01  0.51100000000E-03 0. -1.
        -11    1    3    3    0    0 -0.33415137065E+02 -0.29124401534E+01  0.19290123873E+02  0.38693185085E+02  0.51100000000E-03 0.  1.
         12    1    3    3    0    0  0.32242127903E+02 -0.33332774393E+01 -0.26281661633E+02  0.41729980690E+02  0.00000000000E+00 0. -1.
</event>
<event>
 7    1  0.2404951E-015  0.9000785E+02  0.7816164E-02  0.1186339E+00
        -11   -1    0    0    0    0  0.00000000000E+00  0.00000000000E+00  0.45593999997E+02  0.45594000000E+02  0.51100000000E-03 0.  1.
         11   -1    0    0    0    0 -0.00000000000E+00 -0.00000000000E+00 -0.45593999997E+02  0.45594000000E+02  0.51100000000E-03 0. -1.
    9900012    2    1    2    0    0  0.69789153183E+00 -0.37414599177E+00  0.87505574956E+00  0.90007847307E+02  0.90000110092E+02 0.  0.
         12    1    1    2    0    0 -0.69789153183E+00  0.37414599177E+00 -0.87505574956E+00  0.11801526927E+01  0.00000000000E+00 0. -1.
         11    1    3    3    0    0 -0.22904433415E+02  0.10930258728E+02 -0.25894724620E+02  0.36257694208E+02  0.51100000000E-03 0. -1.
        -11    1    3    3    0    0 -0.55437335419E+01 -0.47150057644E+01 -0.59780021448E+01  0.94181086661E+01  0.51100000000E-03 0.  1.
        -12    1    3    3    0    0  0.29146058489E+02 -0.65893989549E+01  0.32747782514E+02  0.44332044433E+02  0.00000000000E+00 0.  1.
</event>
<event>
 7    1  0.2404951E-015  0.9000773E+02  0.7816164E-02  0.1186339E+00
        -11   -1    0    0    0    0  0.00000000000E+00  0.00000000000E+00  0.45593999997E+02  0.45594000000E+02  0.51100000000E-03 0.  1.
         11   -1    0    0    0    0 -0.00000000000E+00 -0.00000000000E+00 -0.45593999997E+02  0.45594000000E+02  0.51100000000E-03 0. -1.
    9900012    2    1    2    0    0 -0.36454974294E+00  0.30182231053E-01  0.11221505299E+01  0.90007733380E+02  0.89999994661E+02 0.  0.
         12    1    1    2    0    0  0.36454974294E+00 -0.30182231053E-01 -0.11221505299E+01  0.11802666199E+01  0.00000000000E+00 0. -1.
         11    1    3    3    0    0 -0.12770179287E+01  0.20223329811E+02 -0.12910673556E+02  0.24027054239E+02  0.51100000000E-03 0. -1.
        -11    1    3    3    0    0 -0.36651714400E+00  0.18320480004E+02 -0.96905866325E+01  0.20728767256E+02  0.51100000000E-03 0.  1.
        -12    1    3    3    0    0  0.12789853297E+01 -0.38513627584E+02  0.23723410719E+02  0.45251911886E+02  0.00000000000E+00 0.  1.
</event>
<event>
 7    1  0.2404951E-015  0.9000769E+02  0.7816164E-02  0.1186339E+00
        -11   -1    0    0    0    0  0.00000000000E+00  0.00000000000E+00  0.45593999997E+02  0.45594000000E+02  0.51100000000E-03 0.  1.
         11   -1    0    0    0    0 -0.00000000000E+00 -0.00000000000E+00 -0.45593999997E+02  0.45594000000E+02  0.51100000000E-03 0. -1.
    9900012    2    1    2    0    0  0.84862716302E+00 -0.67418308730E+00 -0.46736795982E+00  0.90007693384E+02  0.89999954137E+02 0.  0.
         12    1    1    2    0    0 -0.84862716302E+00  0.67418308730E+00  0.46736795982E+00  0.11803066156E+01  0.00000000000E+00 0. -1.
         11    1    3    3    0    0  0.31134136739E+01 -0.30731140814E+01  0.72483456266E+01  0.84661614352E+01  0.51100000000E-03 0. -1.
        -11    1    3    3    0    0 -0.24875748571E+02 -0.25333374035E+02  0.15655833601E+02  0.38803193593E+02  0.51100000000E-03 0.  1.
         12    1    3    3    0    0  0.22610962060E+02  0.27732305029E+02 -0.23371547188E+02  0.42738338356E+02  0.00000000000E+00 0. -1.
</event>
<event>
 7    1  0.2404951E-015  0.9000769E+02  0.7816164E-02  0.1186339E+00
        -11   -1    0    0    0    0  0.00000000000E+00  0.00000000000E+00  0.45593999997E+02  0.45594000000E+02  0.51100000000E-03 0.  1.
         11   -1    0    0    0    0 -0.00000000000E+00 -0.00000000000E+00 -0.45593999997E+02  0.45594000000E+02  0.51100000000E-03 0. -1.
    9900012    2    1    2    0    0 -0.10198300377E+01 -0.23461736705E-01  0.59374683821E+00  0.90007686878E+02  0.89999947544E+02 0.  0.
         12    1    1    2    0    0  0.10198300377E+01  0.23461736705E-01 -0.59374683821E+00  0.11803131224E+01  0.00000000000E+00 0. -1.
         11    1    3    3    0    0 -0.63566634341E+00  0.82158189221E+01  0.52483018777E+01  0.97697709862E+01  0.51100000000E-03 0. -1.
        -11    1    3    3    0    0  0.30338836761E+01  0.20266875801E+01  0.37010980981E+02  0.37190383517E+02  0.51100000000E-03 0.  1.
         12    1    3    3    0    0 -0.34180473704E+01 -0.10265968239E+02 -0.41665536020E+02  0.43047532375E+02  0.00000000000E+00 0. -1.
</event>
<event>
 7    1  0.2404951E-015  0.9000766E+02  0.7816164E-02  0.1186339E+00
        -11   -1    0    0    0    0  0.00000000000E+00  0.00000000000E+00  0.45593999997E+02  0.45594000000E+02  0.51100000000E-03 0.  1.
         11   -1    0    0    0    0 -0.00000000000E+00 -0.00000000000E+00 -0.45593999997E+02  0.45594000000E+02  0.51100000000E-03 0. -1.
    9900012    2    1    2    0    0  0.94618450252E+00  0.39028666090E+00  0.58789130188E+00  0.90007658959E+02  0.89999919257E+02 0.  0.
         12    1    1    2    0    0 -0.94618450252E+00 -0.39028666090E+00 -0.58789130188E+00  0.11803410411E+01  0.00000000000E+00 0. -1.
         11    1    3    3    0    0  0.28464220243E+02  0.82775624033E+01 -0.21804988951E+02  0.36799285547E+02  0.51100000000E-03 0. -1.
        -11    1    3    3    0    0  0.81194603782E+01 -0.18408857197E+01 -0.31992000815E+01  0.89190458283E+01  0.51100000000E-03 0.  1.
        -12    1    3    3    0    0 -0.35637496119E+02 -0.60463900227E+01  0.25592080334E+02  0.44289327583E+02  0.00000000000E+00 0.  1.
</event>
<event>
 7    1  0.2404951E-015  0.9000780E+02  0.7816164E-02  0.1186339E+00
        -11   -1    0    0    0    0  0.00000000000E+00  0.00000000000E+00  0.45593999997E+02  0.45594000000E+02  0.51100000000E-03 0. -1.
         11   -1    0    0    0    0 -0.00000000000E+00 -0.00000000000E+00 -0.45593999997E+02  0.45594000000E+02  0.51100000000E-03 0.  1.
    9900012    2    1    2    0    0 -0.11059615771E+01  0.37323304519E+00  0.17438483703E+00  0.90007803412E+02  0.90000065617E+02 0.  0.
         12    1    1    2    0    0  0.11059615771E+01 -0.37323304519E+00 -0.17438483703E+00  0.11801965884E+01  0.00000000000E+00 0. -1.
         11    1    3    3    0    0  0.16824485331E+02 -0.39119131710E+02 -0.84420332412E+01  0.43412414099E+02  0.51100000000E-03 0. -1.
        -11    1    3    3    0    0 -0.20760994425E+00  0.90966222584E-01 -0.20758244442E+01  0.20881628593E+01  0.51100000000E-03 0.  1.
        -12    1    3    3    0    0 -0.17722836964E+02  0.39401398533E+02  0.10692242523E+02  0.44507226453E+02  0.00000000000E+00 0.  1.
</event>
<event>
 7    1  0.2404951E-015  0.9000765E+02  0.7816164E-02  0.1186339E+00
        -11   -1    0    0    0    0  0.00000000000E+00  0.00000000000E+00  0.45593999997E+02  0.45594000000E+02  0.51100000000E-03 0. -1.
         11   -1    0    0    0    0 -0.00000000000E+00 -0.00000000000E+00 -0.45593999997E+02  0.45594000000E+02  0.51100000000E-03 0.  1.
    9900012    2    1    2    0    0 -0.27233752534E+00  0.11183994514E+01  0.26124147128E+00  0.90007647440E+02  0.89999907586E+02 0.  0.
         12    1    1    2    0    0  0.27233752534E+00 -0.11183994514E+01 -0.26124147128E+00  0.11803525604E+01  0.00000000000E+00 0. -1.
         11    1    3    3    0    0 -0.30172230194E+01  0.83080244270E+01  0.66508784112E+01  0.11061694650E+02  0.51100000000E-03 0. -1.
        -11    1    3    3    0    0 -0.34040741927E+02 -0.20274882661E+02 -0.41528295090E+01  0.39838285243E+02  0.51100000000E-03 0.  1.
         12    1    3    3    0    0  0.36785627421E+02  0.13085257685E+02 -0.22368074309E+01  0.39107667547E+02  0.00000000000E+00 0. -1.
</event>
<event>
 7    1  0.2404951E-015  0.9000807E+02  0.7816164E-02  0.1186338E+00
        -11   -1    0    0    0    0  0.00000000000E+00  0.00000000000E+00  0.45593999997E+02  0.45594000000E+02  0.51100000000E-03 0.  1.
         11   -1    0    0    0    0 -0.00000000000E+00 -0.00000000000E+00 -0.45593999997E+02  0.45594000000E+02  0.51100000000E-03 0. -1.
    9900012    2    1    2    0    0 -0.99235780300E+00 -0.29153239033E+00  0.56786409088E+00  0.90008070015E+02  0.90000335739E+02 0.  0.
         12    1    1    2    0    0  0.99235780300E+00  0.29153239033E+00 -0.56786409088E+00  0.11799299850E+01  0.00000000000E+00 0. -1.
         11    1    3    3    0    0 -0.82732708416E+01 -0.93717749802E+00  0.50278964860E+01  0.97265130143E+01  0.51100000000E-03 0. -1.
        -11    1    3    3    0    0 -0.20702444595E+02 -0.27914510382E+02  0.12383988505E+02  0.36894095377E+02  0.51100000000E-03 0.  1.
         12    1    3    3    0    0  0.27983357634E+02  0.28560155490E+02 -0.16844020901E+02  0.43387461624E+02  0.00000000000E+00 0. -1.
</event>
<event>
 7    1  0.2404951E-015  0.9000781E+02  0.7816164E-02  0.1186339E+00
        -11   -1    0    0    0    0  0.00000000000E+00  0.00000000000E+00  0.45593999997E+02  0.45594000000E+02  0.51100000000E-03 0. -1.
         11   -1    0    0    0    0 -0.00000000000E+00 -0.00000000000E+00 -0.45593999997E+02  0.45594000000E+02  0.51100000000E-03 0.  1.
    9900012    2    1    2    0    0  0.25123572028E-01  0.86202260958E+00  0.80568272812E+00  0.90007814069E+02  0.90000076415E+02 0.  0.
         12    1    1    2    0    0 -0.25123572028E-01 -0.86202260958E+00 -0.80568272812E+00  0.11801859310E+01  0.00000000000E+00 0. -1.
         11    1    3    3    0    0  0.50006177518E+01  0.79217558871E+01 -0.15500895186E+01  0.94954290061E+01  0.51100000000E-03 0. -1.
        -11    1    3    3    0    0  0.14254927158E+02  0.32688748797E+02 -0.40625839523E+01  0.35892364575E+02  0.51100000000E-03 0.  1.
         12    1    3    3    0    0 -0.19230421337E+02 -0.39748482074E+02  0.64183561990E+01  0.44620020488E+02  0.00000000000E+00 0. -1.
</event>
<event>
 7    1  0.2404951E-015  0.9000774E+02  0.7816164E-02  0.1186339E+00
        -11   -1    0    0    0    0  0.00000000000E+00  0.00000000000E+00  0.45593999997E+02  0.45594000000E+02  0.51100000000E-03 0. -1.
         11   -1    0    0    0    0 -0.00000000000E+00 -0.00000000000E+00 -0.45593999997E+02  0.45594000000E+02  0.51100000000E-03 0.  1.
    9900012    2    1    2    0    0 -0.50515190312E+00 -0.91028492030E+00 -0.55606806040E+00  0.90007742075E+02  0.90000003471E+02 0.  0.
         12    1    1    2    0    0  0.50515190312E+00  0.91028492030E+00  0.55606806040E+00  0.11802579248E+01  0.00000000000E+00 0. -1.
         11    1    3    3    0    0 -0.75184142419E+01  0.54127793458E+01  0.42503024503E+01  0.10192634799E+02  0.51100000000E-03 0. -1.
        -11    1    3    3    0    0 -0.84376875763E+01  0.34758174232E+02 -0.14741141607E+01  0.35798020342E+02  0.51100000000E-03 0.  1.
         12    1    3    3    0    0  0.15450949915E+02 -0.41081238498E+02 -0.33322563501E+01  0.44017086935E+02  0.00000000000E+00 0. -1.
</event>
<event>
 7    1  0.2404951E-015  0.9000783E+02  0.7816164E-02  0.1186339E+00
        -11   -1    0    0    0    0  0.00000000000E+00  0.00000000000E+00  0.45593999997E+02  0.45594000000E+02  0.51100000000E-03 0. -1.
         11   -1    0    0    0    0 -0.00000000000E+00 -0.00000000000E+00 -0.45593999997E+02  0.45594000000E+02  0.51100000000E-03 0.  1.
    9900012    2    1    2    0    0  0.11753528327E+01  0.19209207374E-01  0.10479380606E+00  0.90007828395E+02  0.90000090930E+02 0.  0.
         12    1    1    2    0    0 -0.11753528327E+01 -0.19209207374E-01 -0.10479380606E+00  0.11801716048E+01  0.00000000000E+00 0. -1.
         11    1    3    3    0    0  0.14716013990E+02  0.32614647038E+02  0.18208632268E+02  0.40147609624E+02  0.51100000000E-03 0. -1.
        -11    1    3    3    0    0 -0.39875115569E+01 -0.22873590032E+01  0.76713089037E+01  0.89432231429E+01  0.51100000000E-03 0.  1.
        -12    1    3    3    0    0 -0.95531496007E+01 -0.30308078828E+02 -0.25775147366E+02  0.40916995628E+02  0.00000000000E+00 0.  1.
</event>
<event>
 7    1  0.2404951E-015  0.9000784E+02  0.7816164E-02  0.1186339E+00
        -11   -1    0    0    0    0  0.00000000000E+00  0.00000000000E+00  0.45593999997E+02  0.45594000000E+02  0.51100000000E-03 0.  1.
         11   -1    0    0    0    0 -0.00000000000E+00 -0.00000000000E+00 -0.45593999997E+02  0.45594000000E+02  0.51100000000E-03 0. -1.
    9900012    2    1    2    0    0  0.92872960399E+00 -0.66041235643E+00  0.30673447439E+00  0.90007843572E+02  0.90000106307E+02 0.  0.
         12    1    1    2    0    0 -0.92872960399E+00  0.66041235643E+00 -0.30673447439E+00  0.11801564285E+01  0.00000000000E+00 0. -1.
         11    1    3    3    0    0 -0.10273871313E+01 -0.36207019733E+02  0.13664220979E+02  0.38713237238E+02  0.51100000000E-03 0. -1.
        -11    1    3    3    0    0 -0.10224107298E+02 -0.14307443243E+01 -0.50223994785E+01  0.11480587797E+02  0.51100000000E-03 0.  1.
        -12    1    3    3    0    0  0.12180224034E+02  0.36977351701E+02 -0.83350870263E+01  0.39814018537E+02  0.00000000000E+00 0.  1.
</event>
<event>
 7    1  0.2404951E-015  0.9000766E+02  0.7816164E-02  0.1186339E+00
        -11   -1    0    0    0    0  0.00000000000E+00  0.00000000000E+00  0.45593999997E+02  0.45594000000E+02  0.51100000000E-03 0. -1.
         11   -1    0    0    0    0 -0.00000000000E+00 -0.00000000000E+00 -0.45593999997E+02  0.45594000000E+02  0.51100000000E-03 0.  1.
    9900012    2    1    2    0    0 -0.77926054870E+00 -0.56645281223E+00  0.68196831501E+00  0.90007662517E+02  0.89999922862E+02 0.  0.
         12    1    1    2    0    0  0.77926054870E+00  0.56645281223E+00 -0.68196831501E+00  0.11803374831E+01  0.00000000000E+00 0. -1.
         11    1    3    3    0    0  0.18339065008E+02 -0.84847080313E+01  0.13007270222E+02  0.24031243302E+02  0.51100000000E-03 0. -1.
        -11    1    3    3    0    0  0.12761951118E+02 -0.69682729012E+01  0.15400691081E+02  0.21180309478E+02  0.51100000000E-03 0.  1.
        -12    1    3    3    0    0 -0.31880276675E+02  0.14886528120E+02 -0.27725992988E+02  0.44796109737E+02  0.00000000000E+00 0.  1.
</event>
<event>
 7    1  0.2404951E-015  0.9000780E+02  0.7816164E-02  0.1186339E+00
        -11   -1    0    0    0    0  0.00000000000E+00  0.00000000000E+00  0.45593999997E+02  0.45594000000E+02  0.51100000000E-03 0. -1.
         11   -1    0    0    0    0 -0.00000000000E+00 -0.00000000000E+00 -0.45593999997E+02  0.45594000000E+02  0.51100000000E-03 0.  1.
    9900012    2    1    2    0    0  0.68406018673E+00 -0.61854619172E+00 -0.73643329205E+00  0.90007800134E+02  0.90000062296E+02 0.  0.
         12    1    1    2    0    0 -0.68406018673E+00  0.61854619172E+00  0.73643329205E+00  0.11801998661E+01  0.00000000000E+00 0. -1.
         11    1    3    3    0    0 -0.40995960233E+01 -0.86239562447E+01 -0.23709525358E+01  0.98387359479E+01  0.51100000000E-03 0. -1.
        -11    1    3    3    0    0 -0.24661101954E+02  0.30862558143E+02  0.12338711965E+02  0.41387332095E+02  0.51100000000E-03 0.  1.
         12    1    3    3    0    0  0.29444758164E+02 -0.22857148090E+02 -0.10704192722E+02  0.38781732091E+02  0.00000000000E+00 0. -1.
</event>
<event>
 7    1  0.2404951E-015  0.9000764E+02  0.7816164E-02  0.1186339E+00
        -11   -1    0    0    0    0  0.00000000000E+00  0.00000000000E+00  0.45593999997E+02  0.45594000000E+02  0.51100000000E-03 0.  1.
         11   -1    0    0    0    0 -0.00000000000E+00 -0.00000000000E+00 -0.45593999997E+02  0.45594000000E+02  0.51100000000E-03 0. -1.
    9900012    2    1    2    0    0 -0.56576813682E+00 -0.23175343089E-01  0.10356722830E+01  0.90007640835E+02  0.89999900894E+02 0.  0.
         12    1    1    2    0    0  0.56576813682E+00  0.23175343089E-01 -0.10356722830E+01  0.11803591652E+01  0.00000000000E+00 0. -1.
         11    1    3    3    0    0 -0.22153743809E+01  0.57756034412E+01 -0.17849748034E+02  0.18891240931E+02  0.51100000000E-03 0. -1.
        -11    1    3    3    0    0  0.18409080392E+02 -0.25575520248E+02 -0.92675528405E+01  0.32846445968E+02  0.51100000000E-03 0.  1.
         12    1    3    3    0    0 -0.16759474148E+02  0.19776741464E+02  0.28152973158E+02  0.38269953936E+02  0.00000000000E+00 0. -1.
</event>
<event>
 7    1  0.2404951E-015  0.9000781E+02  0.7816164E-02  0.1186339E+00
        -11   -1    0    0    0    0  0.00000000000E+00  0.00000000000E+00  0.45593999997E+02  0.45594000000E+02  0.51100000000E-03 0. -1.
         11   -1    0    0    0    0 -0.00000000000E+00 -0.00000000000E+00 -0.45593999997E+02  0.45594000000E+02  0.51100000000E-03 0.  1.
    9900012    2    1    2    0    0 -0.66990513166E+00 -0.53652113484E+00 -0.81008113693E+00  0.90007805414E+02  0.90000067645E+02 0.  0.
         12    1    1    2    0    0  0.66990513166E+00  0.53652113484E+00  0.81008113693E+00  0.11801945865E+01  0.00000000000E+00 0. -1.
         11    1    3    3    0    0 -0.18034213694E+02  0.45844530549E+01  0.28765524094E+02  0.34259384846E+02  0.51100000000E-03 0. -1.
        -11    1    3    3    0    0 -0.36061434175E+01  0.35442184754E+01  0.93859919545E+01  0.10661266350E+02  0.51100000000E-03 0.  1.
        -12    1    3    3    0    0  0.20970451980E+02 -0.86651926651E+01 -0.38961597185E+02  0.45087154217E+02  0.00000000000E+00 0.  1.
</event>
<event>
 7    1  0.2404951E-015  0.9000782E+02  0.7816164E-02  0.1186339E+00
        -11   -1    0    0    0    0  0.00000000000E+00  0.00000000000E+00  0.45593999997E+02  0.45594000000E+02  0.51100000000E-03 0. -1.
         11   -1    0    0    0    0 -0.00000000000E+00 -0.00000000000E+00 -0.45593999997E+02  0.45594000000E+02  0.51100000000E-03 0.  1.
    9900012    2    1    2    0    0  0.87492243618E+00  0.78554820660E+00  0.10126222738E+00  0.90007818110E+02  0.90000080509E+02 0.  0.
         12    1    1    2    0    0 -0.87492243618E+00 -0.78554820660E+00 -0.10126222738E+00  0.11801818898E+01  0.00000000000E+00 0. -1.
         11    1    3    3    0    0  0.12738041775E+02 -0.20465201557E+02  0.30845321541E+02  0.39147363184E+02  0.51100000000E-03 0. -1.
        -11    1    3    3    0    0 -0.90419866295E+01  0.79636404027E+00  0.44095589232E+01  0.10091378897E+02  0.51100000000E-03 0.  1.
        -12    1    3    3    0    0 -0.28211327092E+01  0.20454385723E+02 -0.35153618237E+02  0.40769076029E+02  0.00000000000E+00 0.  1.
</event>
<event>
 7    1  0.2404951E-015  0.9000798E+02  0.7816164E-02  0.1186339E+00
        -11   -1    0    0    0    0  0.00000000000E+00  0.00000000000E+00  0.45593999997E+02  0.45594000000E+02  0.51100000000E-03 0.  1.
         11   -1    0    0    0    0 -0.00000000000E+00 -0.00000000000E+00 -0.45593999997E+02  0.45594000000E+02  0.51100000000E-03 0. -1.
    9900012    2    1    2    0    0 -0.40898700495E-01  0.11736111830E+01  0.11583226510E+00  0.90007977531E+02  0.90000242035E+02 0.  0.
         12    1    1    2    0    0  0.40898700495E-01 -0.11736111830E+01 -0.11583226510E+00  0.11800224686E+01  0.00000000000E+00 0. -1.
         11    1    3    3    0    0  0.72467857480E-01 -0.45747241163E+01  0.91398438158E+01  0.10221061470E+02  0.51100000000E-03 0. -1.
        -11    1    3    3    0    0 -0.26818076027E+02  0.11182534552E+02  0.23489197623E+02  0.37363092565E+02  0.51100000000E-03 0.  1.
         12    1    3    3    0    0  0.26704709469E+02 -0.54341992525E+01 -0.32513209174E+02  0.42423823497E+02  0.00000000000E+00 0. -1.
</event>
<event>
 7    1  0.2404951E-015  0.9000776E+02  0.7816164E-02  0.1186339E+00
        -11   -1    0    0    0    0  0.00000000000E+00  0.00000000000E+00  0.45593999997E+02  0.45594000000E+02  0.51100000000E-03 0.  1.
         11   -1    0    0    0    0 -0.00000000000E+00 -0.00000000000E+00 -0.45593999997E+02  0.45594000000E+02  0.51100000000E-03 0. -1.
    9900012    2    1    2    0    0 -0.21403850417E+00 -0.66564297248E+00  0.95082856579E+00  0.90007759343E+02  0.90000020966E+02 0.  0.
         12    1    1    2    0    0  0.21403850417E+00  0.66564297248E+00 -0.95082856579E+00  0.11802406575E+01  0.00000000000E+00 0. -1.
         11    1    3    3    0    0 -0.10604237332E+01  0.18273318088E+01  0.11084357740E+02  0.11283910085E+02  0.51100000000E-03 0. -1.
        -11    1    3    3    0    0  0.66917639637E+01  0.66049909895E+01  0.32970003831E+02  0.34284497426E+02  0.51100000000E-03 0.  1.
         12    1    3    3    0    0 -0.58453787346E+01 -0.90979657708E+01 -0.43103533005E+02  0.44439351832E+02  0.00000000000E+00 0. -1.
</event>
<event>
 7    1  0.2404951E-015  0.9000775E+02  0.7816164E-02  0.1186339E+00
        -11   -1    0    0    0    0  0.00000000000E+00  0.00000000000E+00  0.45593999997E+02  0.45594000000E+02  0.51100000000E-03 0.  1.
         11   -1    0    0    0    0 -0.00000000000E+00 -0.00000000000E+00 -0.45593999997E+02  0.45594000000E+02  0.51100000000E-03 0. -1.
    9900012    2    1    2    0    0  0.10163411012E+01 -0.44650925408E+00 -0.40084758141E+00  0.90007746412E+02  0.90000007865E+02 0.  0.
         12    1    1    2    0    0 -0.10163411012E+01  0.44650925408E+00  0.40084758141E+00  0.11802535878E+01  0.00000000000E+00 0. -1.
         11    1    3    3    0    0 -0.47800438286E+01  0.35292478460E+01  0.34536131578E+01  0.68725434496E+01  0.51100000000E-03 0. -1.
        -11    1    3    3    0    0 -0.19188552247E+02  0.99238866712E+01  0.31169066240E+02  0.37923538265E+02  0.51100000000E-03 0.  1.
         12    1    3    3    0    0  0.24984937177E+02 -0.13899643771E+02 -0.35023526979E+02  0.45211664698E+02  0.00000000000E+00 0. -1.
</event>
<event>
 7    1  0.2404951E-015  0.9000750E+02  0.7816164E-02  0.1186340E+00
        -11   -1    0    0    0    0  0.00000000000E+00  0.00000000000E+00  0.45593999997E+02  0.45594000000E+02  0.51100000000E-03 0.  1.
         11   -1    0    0    0    0 -0.00000000000E+00 -0.00000000000E+00 -0.45593999997E+02  0.45594000000E+02  0.51100000000E-03 0. -1.
    9900012    2    1    2    0    0 -0.59416030508E+00 -0.56883744647E+00  0.84674659289E+00  0.90007499131E+02  0.89999757319E+02 0.  0.
         12    1    1    2    0    0  0.59416030508E+00  0.56883744647E+00 -0.84674659289E+00  0.11805008688E+01  0.00000000000E+00 0. -1.
         11    1    3    3    0    0  0.35482567792E+01  0.19214535805E+01 -0.71970099240E+01  0.82510037050E+01  0.51100000000E-03 0. -1.
        -11    1    3    3    0    0 -0.10289426433E+02 -0.15051046526E+02 -0.33380741566E+02  0.38035249514E+02  0.51100000000E-03 0.  1.
         12    1    3    3    0    0  0.61470093489E+01  0.12560755499E+02  0.41424498083E+02  0.43721245912E+02  0.00000000000E+00 0. -1.
</event>
<event>
 7    1  0.2404951E-015  0.9000771E+02  0.7816164E-02  0.1186339E+00
        -11   -1    0    0    0    0  0.00000000000E+00  0.00000000000E+00  0.45593999997E+02  0.45594000000E+02  0.51100000000E-03 0.  1.
         11   -1    0    0    0    0 -0.00000000000E+00 -0.00000000000E+00 -0.45593999997E+02  0.45594000000E+02  0.51100000000E-03 0. -1.
    9900012    2    1    2    0    0  0.71873624039E+00 -0.41235493687E+00  0.84050846352E+00  0.90007714927E+02  0.89999975964E+02 0.  0.
         12    1    1    2    0    0 -0.71873624039E+00  0.41235493687E+00 -0.84050846352E+00  0.11802850734E+01  0.00000000000E+00 0. -1.
         11    1    3    3    0    0 -0.81258929808E+01 -0.77220015470E+00  0.74504650090E+01  0.11051509351E+02  0.51100000000E-03 0. -1.
        -11    1    3    3    0    0 -0.28746633899E+02 -0.13902445380E+02  0.12686112283E+02  0.34359633193E+02  0.51100000000E-03 0.  1.
         12    1    3    3    0    0  0.37591263120E+02  0.14262290598E+02 -0.19296068829E+02  0.44596572383E+02  0.00000000000E+00 0. -1.
</event>
<event>
 7    1  0.2404951E-015  0.9000799E+02  0.7816164E-02  0.1186339E+00
        -11   -1    0    0    0    0  0.00000000000E+00  0.00000000000E+00  0.45593999997E+02  0.45594000000E+02  0.51100000000E-03 0.  1.
         11   -1    0    0    0    0 -0.00000000000E+00 -0.00000000000E+00 -0.45593999997E+02  0.45594000000E+02  0.51100000000E-03 0. -1.
    9900012    2    1    2    0    0 -0.86377102447E+00 -0.10857159276E+00  0.79658172341E+00  0.90007987027E+02  0.90000251656E+02 0.  0.
         12    1    1    2    0    0  0.86377102447E+00  0.10857159276E+00 -0.79658172341E+00  0.11800129726E+01  0.00000000000E+00 0. -1.
         11    1    3    3    0    0 -0.23506024872E+02  0.92485265750E+01 -0.27212263842E+02  0.37129176569E+02  0.51100000000E-03 0. -1.
        -11    1    3    3    0    0 -0.92516291774E+01  0.20622541180E+01  0.95773997672E+00  0.95269512756E+01  0.51100000000E-03 0.  1.
        -12    1    3    3    0    0  0.31893883025E+02 -0.11419352286E+02  0.27051105588E+02  0.43351859182E+02  0.00000000000E+00 0.  1.
</event>
