<event>
 7    1  0.1683291E-008  0.4614232E+02  0.7816164E-02  0.1320468E+00
        -11   -1    0    0    0    0  0.00000000000E+00  0.00000000000E+00  0.45593999997E+02  0.45594000000E+02  0.51100000000E-03 0.  1.
         11   -1    0    0    0    0 -0.00000000000E+00 -0.00000000000E+00 -0.45593999997E+02  0.45594000000E+02  0.51100000000E-03 0. -1.
    9900012    2    1    2    0    0 -0.36536424636E+02  0.15431476959E+02 -0.21355858405E+02  0.46142317693E+02  0.99999993779E+01 0.  0.
        -12    1    1    2    0    0  0.36536424636E+02 -0.15431476959E+02  0.21355858405E+02  0.45045682307E+02  0.00000000000E+00 0.  1.
         11    1    3    3    0    0 -0.54156913090E+01  0.44798306197E+01 -0.71388217128E+00  0.70645751996E+01  0.51100000000E-03 0. -1.
        -11    1    3    3    0    0 -0.83268443293E+01  0.32676208689E+01 -0.74651991120E+01  0.11650874674E+02  0.51100000000E-03 0.  1.
        -12    1    3    3    0    0 -0.22793888998E+02  0.76840254703E+01 -0.13176777121E+02  0.27426867819E+02  0.00000000000E+00 0.  1.
</event>
<event>
 7    1  0.1683291E-008  0.4614232E+02  0.7816164E-02  0.1320468E+00
        -11   -1    0    0    0    0  0.00000000000E+00  0.00000000000E+00  0.45593999997E+02  0.45594000000E+02  0.51100000000E-03 0. -1.
         11   -1    0    0    0    0 -0.00000000000E+00 -0.00000000000E+00 -0.45593999997E+02  0.45594000000E+02  0.51100000000E-03 0.  1.
    9900012    2    1    2    0    0 -0.91138364754E+01  0.19083328250E+02  0.39772830385E+02  0.46142317974E+02  0.10000001941E+02 0.  0.
        -12    1    1    2    0    0  0.91138364754E+01 -0.19083328250E+02 -0.39772830385E+02  0.45045682026E+02  0.00000000000E+00 0.  1.
         11    1    3    3    0    0 -0.14374276914E+00  0.30702893560E+01  0.13732007480E+02  0.14071793361E+02  0.51100000000E-03 0. -1.
        -11    1    3    3    0    0 -0.54179971282E+01  0.10807726023E+02  0.14136845155E+02  0.18601398493E+02  0.51100000000E-03 0.  1.
         12    1    3    3    0    0 -0.35520965781E+01  0.52053128706E+01  0.11903977749E+02  0.13469126120E+02  0.00000000000E+00 0. -1.
</event>
<event>
 7    1  0.1683291E-008  0.4614232E+02  0.7816164E-02  0.1320468E+00
        -11   -1    0    0    0    0  0.00000000000E+00  0.00000000000E+00  0.45593999997E+02  0.45594000000E+02  0.51100000000E-03 0.  1.
         11   -1    0    0    0    0 -0.00000000000E+00 -0.00000000000E+00 -0.45593999997E+02  0.45594000000E+02  0.51100000000E-03 0. -1.
    9900012    2    1    2    0    0 -0.30787611025E+02  0.55304813397E+01 -0.32413736180E+02  0.46142317525E+02  0.99999978491E+01 0.  0.
        -12    1    1    2    0    0  0.30787611025E+02 -0.55304813397E+01  0.32413736180E+02  0.45045682475E+02  0.00000000000E+00 0.  1.
         11    1    3    3    0    0 -0.22322902290E+02  0.67073757408E+01 -0.22029209414E+02  0.32071590601E+02  0.51100000000E-03 0. -1.
        -11    1    3    3    0    0 -0.12997321630E+01 -0.93483912442E+00 -0.19632474620E+00  0.16130007908E+01  0.51100000000E-03 0.  1.
         12    1    3    3    0    0 -0.71649765720E+01 -0.24205527661E+00 -0.10188202020E+02  0.12457726134E+02  0.00000000000E+00 0. -1.
</event>
<event>
 7    1  0.1683291E-008  0.4614232E+02  0.7816164E-02  0.1320468E+00
        -11   -1    0    0    0    0  0.00000000000E+00  0.00000000000E+00  0.45593999997E+02  0.45594000000E+02  0.51100000000E-03 0. -1.
         11   -1    0    0    0    0 -0.00000000000E+00 -0.00000000000E+00 -0.45593999997E+02  0.45594000000E+02  0.51100000000E-03 0.  1.
    9900012    2    1    2    0    0 -0.34526942431E+02 -0.13952258329E+02  0.25344390560E+02  0.46142318753E+02  0.10000009048E+02 0.  0.
        -12    1    1    2    0    0  0.34526942431E+02  0.13952258329E+02 -0.25344390560E+02  0.45045681247E+02  0.00000000000E+00 0.  1.
         11    1    3    3    0    0 -0.19373632072E+02 -0.63015123211E+01  0.14317222735E+02  0.24900392452E+02  0.51100000000E-03 0. -1.
        -11    1    3    3    0    0 -0.12445392073E+02 -0.30693300083E+01  0.73909662564E+01  0.14796450690E+02  0.51100000000E-03 0.  1.
        -12    1    3    3    0    0 -0.27079182865E+01 -0.45814159996E+01  0.36362015683E+01  0.64454756111E+01  0.00000000000E+00 0.  1.
</event>
<event>
 7    1  0.1683291E-008  0.4614232E+02  0.7816164E-02  0.1320468E+00
        -11   -1    0    0    0    0  0.00000000000E+00  0.00000000000E+00  0.45593999997E+02  0.45594000000E+02  0.51100000000E-03 0.  1.
         11   -1    0    0    0    0 -0.00000000000E+00 -0.00000000000E+00 -0.45593999997E+02  0.45594000000E+02  0.51100000000E-03 0. -1.
    9900012    2    1    2    0    0 -0.36598961444E+02  0.91949785297E+01 -0.24598411685E+02  0.46142318005E+02  0.10000002226E+02 0.  0.
        -12    1    1    2    0    0  0.36598961444E+02 -0.91949785297E+01  0.24598411685E+02  0.45045681995E+02  0.00000000000E+00 0.  1.
         11    1    3    3    0    0 -0.19441606384E+02  0.30362918323E+01 -0.14215520403E+02  0.24275010762E+02  0.51100000000E-03 0. -1.
        -11    1    3    3    0    0 -0.19523665221E+01 -0.12538780475E+01 -0.10360954458E+01  0.25411491945E+01  0.51100000000E-03 0.  1.
        -12    1    3    3    0    0 -0.15204988538E+02  0.74125647448E+01 -0.93467958361E+01  0.19326158049E+02  0.00000000000E+00 0.  1.
</event>
<event>
 7    1  0.1683291E-008  0.4614231E+02  0.7816164E-02  0.1320468E+00
        -11   -1    0    0    0    0  0.00000000000E+00  0.00000000000E+00  0.45593999997E+02  0.45594000000E+02  0.51100000000E-03 0.  1.
         11   -1    0    0    0    0 -0.00000000000E+00 -0.00000000000E+00 -0.45593999997E+02  0.45594000000E+02  0.51100000000E-03 0. -1.
    9900012    2    1    2    0    0 -0.22240107595E+02  0.15096239229E+02 -0.36146855411E+02  0.46142312295E+02  0.99999501589E+01 0.  0.
        -12    1    1    2    0    0  0.22240107595E+02 -0.15096239229E+02  0.36146855411E+02  0.45045687705E+02  0.00000000000E+00 0.  1.
         11    1    3    3    0    0 -0.85094604725E+01  0.88917383624E+01 -0.14234352057E+02  0.18817298089E+02  0.51100000000E-03 0. -1.
        -11    1    3    3    0    0  0.27492619631E-01 -0.85641072727E+00 -0.12844726386E+01  0.15440419031E+01  0.51100000000E-03 0.  1.
        -12    1    3    3    0    0 -0.13758139742E+02  0.70609115934E+01 -0.20628030715E+02  0.25780972303E+02  0.00000000000E+00 0.  1.
</event>
<event>
 7    1  0.1683291E-008  0.4614232E+02  0.7816164E-02  0.1320468E+00
        -11   -1    0    0    0    0  0.00000000000E+00  0.00000000000E+00  0.45593999997E+02  0.45594000000E+02  0.51100000000E-03 0. -1.
         11   -1    0    0    0    0 -0.00000000000E+00 -0.00000000000E+00 -0.45593999997E+02  0.45594000000E+02  0.51100000000E-03 0.  1.
    9900012    2    1    2    0    0  0.21588728516E+02 -0.74937699114E+01  0.38818600650E+02  0.46142317156E+02  0.99999944826E+01 0.  0.
        -12    1    1    2    0    0 -0.21588728516E+02  0.74937699114E+01 -0.38818600650E+02  0.45045682844E+02  0.00000000000E+00 0.  1.
         11    1    3    3    0    0  0.18869620295E+01 -0.29731250248E+01  0.32941586050E+01  0.48219891425E+01  0.51100000000E-03 0.  1.
        -11    1    3    3    0    0  0.17448829454E+02 -0.46095078661E+01  0.34291143436E+02  0.38750377165E+02  0.51100000000E-03 0. -1.
        -12    1    3    3    0    0  0.22529370323E+01  0.88862979572E-01  0.12332986099E+01  0.25699508481E+01  0.00000000000E+00 0.  1.
</event>
<event>
 7    1  0.1683291E-008  0.4614232E+02  0.7816164E-02  0.1320468E+00
        -11   -1    0    0    0    0  0.00000000000E+00  0.00000000000E+00  0.45593999997E+02  0.45594000000E+02  0.51100000000E-03 0.  1.
         11   -1    0    0    0    0 -0.00000000000E+00 -0.00000000000E+00 -0.45593999997E+02  0.45594000000E+02  0.51100000000E-03 0. -1.
    9900012    2    1    2    0    0  0.17200953672E+02  0.12637645131E+02 -0.39667753125E+02  0.46142317414E+02  0.99999968309E+01 0.  0.
        -12    1    1    2    0    0 -0.17200953672E+02 -0.12637645131E+02  0.39667753125E+02  0.45045682586E+02  0.00000000000E+00 0.  1.
         11    1    3    3    0    0  0.20877664993E+01  0.24529366725E+01 -0.94484484089E+01  0.99824268028E+01  0.51100000000E-03 0. -1.
        -11    1    3    3    0    0  0.82542772731E+01  0.13793040738E+01 -0.97820299290E+01  0.12873371074E+02  0.51100000000E-03 0.  1.
        -12    1    3    3    0    0  0.68589099001E+01  0.88054043851E+01 -0.20437274787E+02  0.23286519536E+02  0.00000000000E+00 0.  1.
</event>
<event>
 7    1  0.1683291E-008  0.4614232E+02  0.7816164E-02  0.1320468E+00
        -11   -1    0    0    0    0  0.00000000000E+00  0.00000000000E+00  0.45593999997E+02  0.45594000000E+02  0.51100000000E-03 0.  1.
         11   -1    0    0    0    0 -0.00000000000E+00 -0.00000000000E+00 -0.45593999997E+02  0.45594000000E+02  0.51100000000E-03 0. -1.
    9900012    2    1    2    0    0  0.44263015864E+02 -0.28977182834E+01  0.78423452712E+01  0.46142315146E+02  0.99999761514E+01 0.  0.
        -12    1    1    2    0    0 -0.44263015864E+02  0.28977182834E+01 -0.78423452712E+01  0.45045684854E+02  0.00000000000E+00 0.  1.
         11    1    3    3    0    0  0.23294304633E+02  0.47977301253E+00  0.42962215575E+01  0.23692030947E+02  0.51100000000E-03 0. -1.
        -11    1    3    3    0    0  0.90499263723E+01 -0.29343411521E+01  0.44218599159E+01  0.10491156786E+02  0.51100000000E-03 0.  1.
         12    1    3    3    0    0  0.11918784859E+02 -0.44315014387E+00 -0.87573620232E+00  0.11959127412E+02  0.00000000000E+00 0. -1.
</event>
<event>
 7    1  0.1683291E-008  0.4614232E+02  0.7816164E-02  0.1320468E+00
        -11   -1    0    0    0    0  0.00000000000E+00  0.00000000000E+00  0.45593999997E+02  0.45594000000E+02  0.51100000000E-03 0.  1.
         11   -1    0    0    0    0 -0.00000000000E+00 -0.00000000000E+00 -0.45593999997E+02  0.45594000000E+02  0.51100000000E-03 0. -1.
    9900012    2    1    2    0    0 -0.15159997366E+02 -0.24174572136E+02 -0.34855100475E+02  0.46142317774E+02  0.10000000115E+02 0.  0.
        -12    1    1    2    0    0  0.15159997366E+02  0.24174572136E+02  0.34855100475E+02  0.45045682226E+02  0.00000000000E+00 0.  1.
         11    1    3    3    0    0 -0.73477334133E+01 -0.12687577868E+02 -0.12896232899E+02  0.19526306402E+02  0.51100000000E-03 0. -1.
        -11    1    3    3    0    0 -0.45137282284E+00 -0.51372847053E+01 -0.58255455577E+01  0.77802578926E+01  0.51100000000E-03 0.  1.
        -12    1    3    3    0    0 -0.73608911296E+01 -0.63497095622E+01 -0.16133322019E+02  0.18835753479E+02  0.00000000000E+00 0.  1.
</event>
<event>
 7    1  0.1683291E-008  0.4614232E+02  0.7816164E-02  0.1320468E+00
        -11   -1    0    0    0    0  0.00000000000E+00  0.00000000000E+00  0.45593999997E+02  0.45594000000E+02  0.51100000000E-03 0. -1.
         11   -1    0    0    0    0 -0.00000000000E+00 -0.00000000000E+00 -0.45593999997E+02  0.45594000000E+02  0.51100000000E-03 0.  1.
    9900012    2    1    2    0    0 -0.27536694922E+02  0.31742233111E+02 -0.16225736851E+02  0.46142318005E+02  0.10000002220E+02 0.  0.
        -12    1    1    2    0    0  0.27536694922E+02 -0.31742233111E+02  0.16225736851E+02  0.45045681995E+02  0.00000000000E+00 0.  1.
         11    1    3    3    0    0 -0.82758786707E+01  0.15366480077E+02 -0.74808808000E+01  0.18989008808E+02  0.51100000000E-03 0. -1.
        -11    1    3    3    0    0 -0.18020326118E+02  0.16223785369E+02 -0.90247927638E+01  0.25872577177E+02  0.51100000000E-03 0.  1.
         12    1    3    3    0    0 -0.12404901331E+01  0.15196766541E+00  0.27993671278E+00  0.12807320192E+01  0.00000000000E+00 0. -1.
</event>
<event>
 7    1  0.2294737E-008  0.4614231E+02  0.7816164E-02  0.1320468E+00
        -11   -1    0    0    0    0  0.00000000000E+00  0.00000000000E+00  0.45593999997E+02  0.45594000000E+02  0.51100000000E-03 0. -1.
         11   -1    0    0    0    0 -0.00000000000E+00 -0.00000000000E+00 -0.45593999997E+02  0.45594000000E+02  0.51100000000E-03 0.  1.
    9900012    2    1    2    0    0 -0.22215604779E+02 -0.28048908449E+02  0.27364933127E+02  0.46142312904E+02  0.99999557133E+01 0.  0.
        -12    1    1    2    0    0  0.22215604779E+02  0.28048908449E+02 -0.27364933127E+02  0.45045687096E+02  0.00000000000E+00 0.  1.
         11    1    3    3    0    0 -0.17526887394E+02 -0.14671564189E+02  0.15561409369E+02  0.27651474451E+02  0.51100000000E-03 0. -1.
        -11    1    3    3    0    0 -0.41741935164E+01 -0.10501977319E+02  0.90777078316E+01  0.14495523407E+02  0.51100000000E-03 0.  1.
         12    1    3    3    0    0 -0.51452386823E+00 -0.28753669407E+01  0.27258159268E+01  0.39953150465E+01  0.00000000000E+00 0. -1.
</event>
<event>
 7    1  0.1683291E-008  0.4614232E+02  0.7816164E-02  0.1320468E+00
        -11   -1    0    0    0    0  0.00000000000E+00  0.00000000000E+00  0.45593999997E+02  0.45594000000E+02  0.51100000000E-03 0.  1.
         11   -1    0    0    0    0 -0.00000000000E+00 -0.00000000000E+00 -0.45593999997E+02  0.45594000000E+02  0.51100000000E-03 0. -1.
    9900012    2    1    2    0    0  0.27725734566E+02 -0.27529007262E+02  0.22417646395E+02  0.46142317987E+02  0.10000002064E+02 0.  0.
        -12    1    1    2    0    0 -0.27725734566E+02  0.27529007262E+02 -0.22417646395E+02  0.45045682013E+02  0.00000000000E+00 0.  1.
         11    1    3    3    0    0  0.88893282065E+00 -0.13509255973E+01  0.35981426929E+01  0.39448488728E+01  0.51100000000E-03 0.  1.
        -11    1    3    3    0    0  0.65894242672E+01 -0.44342201490E+01  0.53460012804E+01  0.95740561130E+01  0.51100000000E-03 0. -1.
         12    1    3    3    0    0  0.20247377478E+02 -0.21743861516E+02  0.13473502422E+02  0.32623413002E+02  0.00000000000E+00 0. -1.
</event>
<event>
 7    1  0.1822958E-008  0.4614232E+02  0.7816164E-02  0.1320468E+00
        -11   -1    0    0    0    0  0.00000000000E+00  0.00000000000E+00  0.45593999997E+02  0.45594000000E+02  0.51100000000E-03 0. -1.
         11   -1    0    0    0    0 -0.00000000000E+00 -0.00000000000E+00 -0.45593999997E+02  0.45594000000E+02  0.51100000000E-03 0.  1.
    9900012    2    1    2    0    0  0.32299718833E+02  0.16855015460E+02  0.26490561261E+02  0.46142320753E+02  0.10000027285E+02 0.  0.
        -12    1    1    2    0    0 -0.32299718833E+02 -0.16855015460E+02 -0.26490561261E+02  0.45045679247E+02  0.00000000000E+00 0.  1.
         11    1    3    3    0    0  0.26462469048E+02  0.13401811531E+02  0.18329138729E+02  0.34868727353E+02  0.51100000000E-03 0. -1.
        -11    1    3    3    0    0  0.29205678609E+00  0.10378918287E+00 -0.41966628855E+00  0.52171775478E+00  0.51100000000E-03 0.  1.
         12    1    3    3    0    0  0.55451929989E+01  0.33494147465E+01  0.85810888207E+01  0.10751875645E+02  0.00000000000E+00 0. -1.
</event>
<event>
 7    1  0.1683291E-008  0.4614232E+02  0.7816164E-02  0.1320468E+00
        -11   -1    0    0    0    0  0.00000000000E+00  0.00000000000E+00  0.45593999997E+02  0.45594000000E+02  0.51100000000E-03 0. -1.
         11   -1    0    0    0    0 -0.00000000000E+00 -0.00000000000E+00 -0.45593999997E+02  0.45594000000E+02  0.51100000000E-03 0.  1.
    9900012    2    1    2    0    0  0.40803524787E+02 -0.17524173345E+02 -0.75557325538E+01  0.46142318954E+02  0.10000010881E+02 0.  0.
        -12    1    1    2    0    0 -0.40803524787E+02  0.17524173345E+02  0.75557325538E+01  0.45045681046E+02  0.00000000000E+00 0.  1.
         11    1    3    3    0    0  0.20463350812E+02 -0.62600720490E+01 -0.69495554549E+01  0.22499634437E+02  0.51100000000E-03 0. -1.
        -11    1    3    3    0    0  0.61079503134E+01 -0.53632641655E+01  0.82051723891E+00  0.81697557087E+01  0.51100000000E-03 0.  1.
         12    1    3    3    0    0  0.14232223661E+02 -0.59008371307E+01 -0.14266943378E+01  0.15472928808E+02  0.00000000000E+00 0. -1.
</event>
<event>
 7    1  0.1683291E-008  0.4614232E+02  0.7816164E-02  0.1320468E+00
        -11   -1    0    0    0    0  0.00000000000E+00  0.00000000000E+00  0.45593999997E+02  0.45594000000E+02  0.51100000000E-03 0. -1.
         11   -1    0    0    0    0 -0.00000000000E+00 -0.00000000000E+00 -0.45593999997E+02  0.45594000000E+02  0.51100000000E-03 0.  1.
    9900012    2    1    2    0    0 -0.42883026851E+02  0.46176385265E+01  0.12993726022E+02  0.46142317705E+02  0.99999994897E+01 0.  0.
        -12    1    1    2    0    0  0.42883026851E+02 -0.46176385265E+01 -0.12993726022E+02  0.45045682295E+02  0.00000000000E+00 0.  1.
         11    1    3    3    0    0 -0.25724843619E+02  0.22153899996E+01  0.11704012747E+02  0.28348887927E+02  0.51100000000E-03 0. -1.
        -11    1    3    3    0    0 -0.11383534505E+02  0.32981031170E+01  0.22696352539E+00  0.11853854002E+02  0.51100000000E-03 0.  1.
         12    1    3    3    0    0 -0.57746487267E+01 -0.89585459014E+00  0.10627497498E+01  0.59395757756E+01  0.00000000000E+00 0. -1.
</event>
<event>
 7    1  0.1683291E-008  0.4614232E+02  0.7816164E-02  0.1320468E+00
        -11   -1    0    0    0    0  0.00000000000E+00  0.00000000000E+00  0.45593999997E+02  0.45594000000E+02  0.51100000000E-03 0.  1.
         11   -1    0    0    0    0 -0.00000000000E+00 -0.00000000000E+00 -0.45593999997E+02  0.45594000000E+02  0.51100000000E-03 0. -1.
    9900012    2    1    2    0    0  0.27824880545E+02  0.35294954489E+02  0.30258418895E+01  0.46142317534E+02  0.99999979297E+01 0.  0.
        -12    1    1    2    0    0 -0.27824880545E+02 -0.35294954489E+02 -0.30258418895E+01  0.45045682466E+02  0.00000000000E+00 0.  1.
         11    1    3    3    0    0  0.15815739669E+02  0.19671395200E+02  0.47846084871E+01  0.25690346222E+02  0.51100000000E-03 0. -1.
        -11    1    3    3    0    0  0.95382337784E+01  0.15084580970E+02 -0.15371102947E+01  0.17913268685E+02  0.51100000000E-03 0.  1.
        -12    1    3    3    0    0  0.24709070975E+01  0.53897831878E+00 -0.22165630297E+00  0.25387026271E+01  0.00000000000E+00 0.  1.
</event>
<event>
 7    1  0.1683291E-008  0.4614232E+02  0.7816164E-02  0.1320468E+00
        -11   -1    0    0    0    0  0.00000000000E+00  0.00000000000E+00  0.45593999997E+02  0.45594000000E+02  0.51100000000E-03 0. -1.
         11   -1    0    0    0    0 -0.00000000000E+00 -0.00000000000E+00 -0.45593999997E+02  0.45594000000E+02  0.51100000000E-03 0.  1.
    9900012    2    1    2    0    0 -0.21268523537E+01  0.38276849550E+02  0.23653171123E+02  0.46142320778E+02  0.10000027510E+02 0.  0.
        -12    1    1    2    0    0  0.21268523537E+01 -0.38276849550E+02 -0.23653171123E+02  0.45045679222E+02  0.00000000000E+00 0.  1.
         11    1    3    3    0    0  0.19598995394E+01  0.82290366694E+01  0.66033177016E+01  0.10731358518E+02  0.51100000000E-03 0. -1.
        -11    1    3    3    0    0 -0.20708681538E+01  0.95483766133E+01  0.21921012062E+01  0.10013256155E+02  0.51100000000E-03 0.  1.
         12    1    3    3    0    0 -0.20158837393E+01  0.20499436267E+02  0.14857752215E+02  0.25397706105E+02  0.00000000000E+00 0. -1.
</event>
<event>
 7    1  0.1739709E-008  0.4614233E+02  0.7816164E-02  0.1320468E+00
        -11   -1    0    0    0    0  0.00000000000E+00  0.00000000000E+00  0.45593999997E+02  0.45594000000E+02  0.51100000000E-03 0. -1.
         11   -1    0    0    0    0 -0.00000000000E+00 -0.00000000000E+00 -0.45593999997E+02  0.45594000000E+02  0.51100000000E-03 0.  1.
    9900012    2    1    2    0    0 -0.35158896619E+02 -0.13110925149E+02  0.24921242859E+02  0.46142326342E+02  0.10000078246E+02 0.  0.
        -12    1    1    2    0    0  0.35158896619E+02  0.13110925149E+02 -0.24921242859E+02  0.45045673658E+02  0.00000000000E+00 0.  1.
         11    1    3    3    0    0 -0.30849655079E+02 -0.79081202278E+01  0.20894375367E+02  0.38089559019E+02  0.51100000000E-03 0. -1.
        -11    1    3    3    0    0 -0.43524359650E+01 -0.44682060668E+01  0.36138307087E+01  0.72089067783E+01  0.51100000000E-03 0.  1.
         12    1    3    3    0    0  0.43194425239E-01 -0.73459885421E+00  0.41303678292E+00  0.84386054477E+00  0.00000000000E+00 0. -1.
</event>
<event>
 7    1  0.1683291E-008  0.4614232E+02  0.7816164E-02  0.1320468E+00
        -11   -1    0    0    0    0  0.00000000000E+00  0.00000000000E+00  0.45593999997E+02  0.45594000000E+02  0.51100000000E-03 0. -1.
         11   -1    0    0    0    0 -0.00000000000E+00 -0.00000000000E+00 -0.45593999997E+02  0.45594000000E+02  0.51100000000E-03 0.  1.
    9900012    2    1    2    0    0 -0.40501932378E+02  0.10537264577E+02  0.16663516862E+02  0.46142320237E+02  0.10000022574E+02 0.  0.
        -12    1    1    2    0    0  0.40501932378E+02 -0.10537264577E+02 -0.16663516862E+02  0.45045679763E+02  0.00000000000E+00 0.  1.
         11    1    3    3    0    0 -0.12501711843E+02  0.51619190314E+01  0.62571202169E+01  0.14902676295E+02  0.51100000000E-03 0. -1.
        -11    1    3    3    0    0 -0.12325620419E+02 -0.12298581396E+01  0.53653110517E+01  0.13498890054E+02  0.51100000000E-03 0.  1.
        -12    1    3    3    0    0 -0.15674600116E+02  0.66052036854E+01  0.50410855938E+01  0.17740753887E+02  0.00000000000E+00 0.  1.
</event>
<event>
 7    1  0.1683291E-008  0.4614232E+02  0.7816164E-02  0.1320468E+00
        -11   -1    0    0    0    0  0.00000000000E+00  0.00000000000E+00  0.45593999997E+02  0.45594000000E+02  0.51100000000E-03 0. -1.
         11   -1    0    0    0    0 -0.00000000000E+00 -0.00000000000E+00 -0.45593999997E+02  0.45594000000E+02  0.51100000000E-03 0.  1.
    9900012    2    1    2    0    0  0.49819635820E+01 -0.39283217754E+02  0.21473759513E+02  0.46142317566E+02  0.99999982244E+01 0.  0.
        -12    1    1    2    0    0 -0.49819635820E+01  0.39283217754E+02 -0.21473759513E+02  0.45045682434E+02  0.00000000000E+00 0.  1.
         11    1    3    3    0    0 -0.15097346792E+00 -0.94157757675E+01  0.38030125883E+01  0.10155911151E+02  0.51100000000E-03 0. -1.
        -11    1    3    3    0    0  0.14596945628E+01 -0.14021211790E+01  0.33420071139E+01  0.39071298708E+01  0.51100000000E-03 0.  1.
        -12    1    3    3    0    0  0.36732424870E+01 -0.28465320808E+02  0.14328739811E+02  0.32079276545E+02  0.00000000000E+00 0.  1.
</event>
<event>
 7    1  0.1683291E-008  0.4614232E+02  0.7816164E-02  0.1320468E+00
        -11   -1    0    0    0    0  0.00000000000E+00  0.00000000000E+00  0.45593999997E+02  0.45594000000E+02  0.51100000000E-03 0. -1.
         11   -1    0    0    0    0 -0.00000000000E+00 -0.00000000000E+00 -0.45593999997E+02  0.45594000000E+02  0.51100000000E-03 0.  1.
    9900012    2    1    2    0    0 -0.48244362134E+01 -0.42173287319E+02  0.15074885217E+02  0.46142317494E+02  0.99999975678E+01 0.  0.
        -12    1    1    2    0    0  0.48244362134E+01  0.42173287319E+02 -0.15074885217E+02  0.45045682506E+02  0.00000000000E+00 0.  1.
         11    1    3    3    0    0 -0.15875156778E+01 -0.11906344319E+02  0.45675587402E+01  0.12850830097E+02  0.51100000000E-03 0. -1.
        -11    1    3    3    0    0 -0.31786733669E+01 -0.30197439924E+02  0.88444697975E+01  0.31626159878E+02  0.51100000000E-03 0.  1.
        -12    1    3    3    0    0 -0.58247168641E-01 -0.69503075483E-01  0.16628566796E+01  0.16653275195E+01  0.00000000000E+00 0.  1.
</event>
<event>
 7    1  0.1683291E-008  0.4614232E+02  0.7816164E-02  0.1320468E+00
        -11   -1    0    0    0    0  0.00000000000E+00  0.00000000000E+00  0.45593999997E+02  0.45594000000E+02  0.51100000000E-03 0.  1.
         11   -1    0    0    0    0 -0.00000000000E+00 -0.00000000000E+00 -0.45593999997E+02  0.45594000000E+02  0.51100000000E-03 0. -1.
    9900012    2    1    2    0    0  0.41100483681E+02  0.18435389575E+02  0.73908876448E-02  0.46142318717E+02  0.10000008721E+02 0.  0.
        -12    1    1    2    0    0 -0.41100483681E+02 -0.18435389575E+02 -0.73908876448E-02  0.45045681283E+02  0.00000000000E+00 0.  1.
         11    1    3    3    0    0  0.12360821770E+02  0.76708465449E+01 -0.12384889666E+01  0.14600193722E+02  0.51100000000E-03 0. -1.
        -11    1    3    3    0    0  0.14163811719E+01  0.24159153607E+01 -0.75915829126E+00  0.29015692697E+01  0.51100000000E-03 0.  1.
         12    1    3    3    0    0  0.27323280739E+02  0.83486276689E+01  0.20050381455E+01  0.28640555726E+02  0.00000000000E+00 0. -1.
</event>
<event>
 7    1  0.1683291E-008  0.4614232E+02  0.7816164E-02  0.1320468E+00
        -11   -1    0    0    0    0  0.00000000000E+00  0.00000000000E+00  0.45593999997E+02  0.45594000000E+02  0.51100000000E-03 0. -1.
         11   -1    0    0    0    0 -0.00000000000E+00 -0.00000000000E+00 -0.45593999997E+02  0.45594000000E+02  0.51100000000E-03 0.  1.
    9900012    2    1    2    0    0 -0.42420226016E+02  0.12274936841E+02  0.88861578714E+01  0.46142318171E+02  0.10000003740E+02 0.  0.
        -12    1    1    2    0    0  0.42420226016E+02 -0.12274936841E+02 -0.88861578714E+01  0.45045681829E+02  0.00000000000E+00 0.  1.
         11    1    3    3    0    0 -0.98560531435E+01 -0.47555904582E+00  0.11548487907E+01  0.99348686939E+01  0.51100000000E-03 0. -1.
        -11    1    3    3    0    0 -0.24086555384E+02  0.10474958533E+02  0.36177849542E+01  0.26513680898E+02  0.51100000000E-03 0.  1.
         12    1    3    3    0    0 -0.84776174887E+01  0.22755373544E+01  0.41135241265E+01  0.96937685796E+01  0.00000000000E+00 0. -1.
</event>
<event>
 7    1  0.1683291E-008  0.4614232E+02  0.7816164E-02  0.1320468E+00
        -11   -1    0    0    0    0  0.00000000000E+00  0.00000000000E+00  0.45593999997E+02  0.45594000000E+02  0.51100000000E-03 0.  1.
         11   -1    0    0    0    0 -0.00000000000E+00 -0.00000000000E+00 -0.45593999997E+02  0.45594000000E+02  0.51100000000E-03 0. -1.
    9900012    2    1    2    0    0  0.33109441997E+02 -0.25166923662E+02 -0.17306191301E+02  0.46142318150E+02  0.10000003547E+02 0.  0.
        -12    1    1    2    0    0 -0.33109441997E+02  0.25166923662E+02  0.17306191301E+02  0.45045681850E+02  0.00000000000E+00 0.  1.
         11    1    3    3    0    0  0.87585500534E+01 -0.66487814945E+01 -0.21884286981E+01  0.11211945185E+02  0.51100000000E-03 0. -1.
        -11    1    3    3    0    0  0.36031574958E+01 -0.23601454975E+01 -0.53711904857E+01  0.68849631956E+01  0.51100000000E-03 0.  1.
        -12    1    3    3    0    0  0.20747734448E+02 -0.16157996670E+02 -0.97465721173E+01  0.28045409770E+02  0.00000000000E+00 0.  1.
</event>
<event>
 7    1  0.1683291E-008  0.4614232E+02  0.7816164E-02  0.1320468E+00
        -11   -1    0    0    0    0  0.00000000000E+00  0.00000000000E+00  0.45593999997E+02  0.45594000000E+02  0.51100000000E-03 0.  1.
         11   -1    0    0    0    0 -0.00000000000E+00 -0.00000000000E+00 -0.45593999997E+02  0.45594000000E+02  0.51100000000E-03 0. -1.
    9900012    2    1    2    0    0 -0.87889852916E+01 -0.42306745701E+02  0.12728176733E+02  0.46142317885E+02  0.10000001129E+02 0.  0.
        -12    1    1    2    0    0  0.87889852916E+01  0.42306745701E+02 -0.12728176733E+02  0.45045682115E+02  0.00000000000E+00 0.  1.
         11    1    3    3    0    0 -0.50042930865E+01 -0.10632992619E+02  0.31035156007E+01  0.12154640705E+02  0.51100000000E-03 0. -1.
        -11    1    3    3    0    0 -0.11337682181E+01 -0.16319023977E+01 -0.70602496009E+00  0.21087928569E+01  0.51100000000E-03 0.  1.
         12    1    3    3    0    0 -0.26509239871E+01 -0.30041850684E+02  0.10330686092E+02  0.31878884323E+02  0.00000000000E+00 0. -1.
</event>
<event>
 7    1  0.1683291E-008  0.4614232E+02  0.7816164E-02  0.1320468E+00
        -11   -1    0    0    0    0  0.00000000000E+00  0.00000000000E+00  0.45593999997E+02  0.45594000000E+02  0.51100000000E-03 0.  1.
         11   -1    0    0    0    0 -0.00000000000E+00 -0.00000000000E+00 -0.45593999997E+02  0.45594000000E+02  0.51100000000E-03 0. -1.
    9900012    2    1    2    0    0 -0.40410141300E+02 -0.84544429995E+01 -0.18018210904E+02  0.46142322621E+02  0.10000044317E+02 0.  0.
        -12    1    1    2    0    0  0.40410141300E+02  0.84544429995E+01  0.18018210904E+02  0.45045677379E+02  0.00000000000E+00 0.  1.
         11    1    3    3    0    0 -0.19798802185E+02 -0.34026215644E+01 -0.10127057556E+02  0.22497281980E+02  0.51100000000E-03 0. -1.
        -11    1    3    3    0    0 -0.43043235862E+00  0.79517863632E-01  0.93212518787E+00  0.10297828572E+01  0.51100000000E-03 0.  1.
        -12    1    3    3    0    0 -0.20180906756E+02 -0.51313392987E+01 -0.88232785358E+01  0.22615257784E+02  0.00000000000E+00 0.  1.
</event>
<event>
 7    1  0.1683291E-008  0.4614232E+02  0.7816164E-02  0.1320468E+00
        -11   -1    0    0    0    0  0.00000000000E+00  0.00000000000E+00  0.45593999997E+02  0.45594000000E+02  0.51100000000E-03 0.  1.
         11   -1    0    0    0    0 -0.00000000000E+00 -0.00000000000E+00 -0.45593999997E+02  0.45594000000E+02  0.51100000000E-03 0. -1.
    9900012    2    1    2    0    0 -0.32619445180E+02 -0.11187086125E+02 -0.28981621056E+02  0.46142318089E+02  0.10000002987E+02 0.  0.
        -12    1    1    2    0    0  0.32619445180E+02  0.11187086125E+02  0.28981621056E+02  0.45045681911E+02  0.00000000000E+00 0.  1.
         11    1    3    3    0    0 -0.95615807917E+01 -0.57271347628E+01 -0.11883092260E+02  0.16292077269E+02  0.51100000000E-03 0. -1.
        -11    1    3    3    0    0 -0.12038796585E+02  0.66832005826E-02 -0.69306576789E+01  0.13891244868E+02  0.51100000000E-03 0.  1.
         12    1    3    3    0    0 -0.11019067804E+02 -0.54666345632E+01 -0.10167871117E+02  0.15958995951E+02  0.00000000000E+00 0. -1.
</event>
<event>
 7    1  0.1683291E-008  0.4614232E+02  0.7816164E-02  0.1320468E+00
        -11   -1    0    0    0    0  0.00000000000E+00  0.00000000000E+00  0.45593999997E+02  0.45594000000E+02  0.51100000000E-03 0.  1.
         11   -1    0    0    0    0 -0.00000000000E+00 -0.00000000000E+00 -0.45593999997E+02  0.45594000000E+02  0.51100000000E-03 0. -1.
    9900012    2    1    2    0    0  0.13634045254E+01 -0.45020947875E+02  0.60741912165E+00  0.46142316772E+02  0.99999909805E+01 0.  0.
        -12    1    1    2    0    0 -0.13634045254E+01  0.45020947875E+02 -0.60741912165E+00  0.45045683228E+02  0.00000000000E+00 0.  1.
         11    1    3    3    0    0  0.55742353918E+00 -0.25798781114E+02 -0.27765350410E+00  0.25806296125E+02  0.51100000000E-03 0. -1.
        -11    1    3    3    0    0 -0.91910031284E+00 -0.10390492188E+02  0.34367809936E+01  0.10982647092E+02  0.51100000000E-03 0.  1.
         12    1    3    3    0    0  0.17250812990E+01 -0.88316745738E+01 -0.25517083679E+01  0.93533735551E+01  0.00000000000E+00 0. -1.
</event>
<event>
 7    1  0.1683291E-008  0.4614232E+02  0.7816164E-02  0.1320468E+00
        -11   -1    0    0    0    0  0.00000000000E+00  0.00000000000E+00  0.45593999997E+02  0.45594000000E+02  0.51100000000E-03 0. -1.
         11   -1    0    0    0    0 -0.00000000000E+00 -0.00000000000E+00 -0.45593999997E+02  0.45594000000E+02  0.51100000000E-03 0.  1.
    9900012    2    1    2    0    0  0.13953344131E+02  0.40358444979E+02 -0.14339221351E+02  0.46142321378E+02  0.10000032983E+02 0.  0.
        -12    1    1    2    0    0 -0.13953344131E+02 -0.40358444979E+02  0.14339221351E+02  0.45045678622E+02  0.00000000000E+00 0.  1.
         11    1    3    3    0    0  0.83306605254E+01  0.23978005984E+02 -0.12174525576E+02  0.28152508752E+02  0.51100000000E-03 0. -1.
        -11    1    3    3    0    0  0.34200981227E+01  0.52918717158E+01  0.66494793807E+00  0.63358609081E+01  0.51100000000E-03 0.  1.
         12    1    3    3    0    0  0.22025854830E+01  0.11088567279E+02 -0.28296437133E+01  0.11653951718E+02  0.00000000000E+00 0. -1.
</event>
<event>
 7    1  0.1683291E-008  0.4614232E+02  0.7816164E-02  0.1320468E+00
        -11   -1    0    0    0    0  0.00000000000E+00  0.00000000000E+00  0.45593999997E+02  0.45594000000E+02  0.51100000000E-03 0. -1.
         11   -1    0    0    0    0 -0.00000000000E+00 -0.00000000000E+00 -0.45593999997E+02  0.45594000000E+02  0.51100000000E-03 0.  1.
    9900012    2    1    2    0    0  0.45039757334E+02  0.64272764158E+00  0.34741252614E+00  0.46142317244E+02  0.99999952815E+01 0.  0.
        -12    1    1    2    0    0 -0.45039757334E+02 -0.64272764158E+00 -0.34741252614E+00  0.45045682756E+02  0.00000000000E+00 0.  1.
         11    1    3    3    0    0  0.13475841393E+02  0.57362463603E+00  0.30556073752E+01  0.13829825855E+02  0.51100000000E-03 0. -1.
        -11    1    3    3    0    0  0.26517555897E+02  0.14923316521E+01 -0.41329194582E+01  0.26879152665E+02  0.51100000000E-03 0.  1.
        -12    1    3    3    0    0  0.50463600436E+01 -0.14232286466E+01  0.14247246091E+01  0.54333387233E+01  0.00000000000E+00 0.  1.
</event>
<event>
 7    1  0.1683291E-008  0.4614232E+02  0.7816164E-02  0.1320468E+00
        -11   -1    0    0    0    0  0.00000000000E+00  0.00000000000E+00  0.45593999997E+02  0.45594000000E+02  0.51100000000E-03 0. -1.
         11   -1    0    0    0    0 -0.00000000000E+00 -0.00000000000E+00 -0.45593999997E+02  0.45594000000E+02  0.51100000000E-03 0.  1.
    9900012    2    1    2    0    0 -0.62900278513E+01 -0.42443300100E+02  0.13715515925E+02  0.46142317068E+02  0.99999936813E+01 0.  0.
        -12    1    1    2    0    0  0.62900278513E+01  0.42443300100E+02 -0.13715515925E+02  0.45045682932E+02  0.00000000000E+00 0.  1.
         11    1    3    3    0    0 -0.74785677476E+01 -0.26313027496E+02  0.92633822065E+01  0.28881042947E+02  0.51100000000E-03 0. -1.
        -11    1    3    3    0    0 -0.47978946928E+00 -0.15441718133E+01  0.16591282188E+01  0.23167587771E+01  0.51100000000E-03 0.  1.
         12    1    3    3    0    0  0.16683293656E+01 -0.14586100791E+02  0.27930054992E+01  0.14944515344E+02  0.00000000000E+00 0. -1.
</event>
<event>
 7    1  0.1683291E-008  0.4614232E+02  0.7816164E-02  0.1320468E+00
        -11   -1    0    0    0    0  0.00000000000E+00  0.00000000000E+00  0.45593999997E+02  0.45594000000E+02  0.51100000000E-03 0.  1.
         11   -1    0    0    0    0 -0.00000000000E+00 -0.00000000000E+00 -0.45593999997E+02  0.45594000000E+02  0.51100000000E-03 0. -1.
    9900012    2    1    2    0    0 -0.19430824250E+02  0.27221603406E+02 -0.30175169428E+02  0.46142317931E+02  0.10000001550E+02 0.  0.
        -12    1    1    2    0    0  0.19430824250E+02 -0.27221603406E+02  0.30175169428E+02  0.45045682069E+02  0.00000000000E+00 0.  1.
         11    1    3    3    0    0 -0.15855676261E+02  0.18603325820E+02 -0.21784248092E+02  0.32742016835E+02  0.51100000000E-03 0. -1.
        -11    1    3    3    0    0 -0.31018524872E+01  0.24761036923E+01 -0.49479187974E+01  0.63430654288E+01  0.51100000000E-03 0.  1.
         12    1    3    3    0    0 -0.47329550216E+00  0.61421738943E+01 -0.34430025381E+01  0.70572356668E+01  0.00000000000E+00 0. -1.
</event>
<event>
 7    1  0.1683291E-008  0.4614232E+02  0.7816164E-02  0.1320468E+00
        -11   -1    0    0    0    0  0.00000000000E+00  0.00000000000E+00  0.45593999997E+02  0.45594000000E+02  0.51100000000E-03 0.  1.
         11   -1    0    0    0    0 -0.00000000000E+00 -0.00000000000E+00 -0.45593999997E+02  0.45594000000E+02  0.51100000000E-03 0. -1.
    9900012    2    1    2    0    0  0.77648985595E+01 -0.13778506986E+02 -0.42177868317E+02  0.46142317852E+02  0.10000000828E+02 0.  0.
        -12    1    1    2    0    0 -0.77648985595E+01  0.13778506986E+02  0.42177868317E+02  0.45045682148E+02  0.00000000000E+00 0.  1.
         11    1    3    3    0    0  0.68654219208E+01 -0.74816750272E+01 -0.30385994528E+02  0.32037761206E+02  0.51100000000E-03 0. -1.
        -11    1    3    3    0    0  0.22787241315E+01 -0.14532647674E+01 -0.41460329937E+01  0.49491566956E+01  0.51100000000E-03 0.  1.
         12    1    3    3    0    0 -0.13792474929E+01 -0.48435671914E+01 -0.76458407953E+01  0.91553999504E+01  0.00000000000E+00 0. -1.
</event>
<event>
 7    1  0.1683291E-008  0.4614232E+02  0.7816164E-02  0.1320468E+00
        -11   -1    0    0    0    0  0.00000000000E+00  0.00000000000E+00  0.45593999997E+02  0.45594000000E+02  0.51100000000E-03 0.  1.
         11   -1    0    0    0    0 -0.00000000000E+00 -0.00000000000E+00 -0.45593999997E+02  0.45594000000E+02  0.51100000000E-03 0. -1.
    9900012    2    1    2    0    0  0.26906585035E+02 -0.27364437188E+02 -0.23586783977E+02  0.46142321858E+02  0.10000037363E+02 0.  0.
        -12    1    1    2    0    0 -0.26906585035E+02  0.27364437188E+02  0.23586783977E+02  0.45045678142E+02  0.00000000000E+00 0.  1.
         11    1    3    3    0    0  0.59534537882E+01 -0.66390039047E+01 -0.42504438218E+01  0.98785756969E+01  0.51100000000E-03 0. -1.
        -11    1    3    3    0    0  0.11350245261E+02 -0.11015471984E+02 -0.15342070693E+02  0.22035149736E+02  0.51100000000E-03 0.  1.
        -12    1    3    3    0    0  0.96028859862E+01 -0.97099612988E+01 -0.39942694626E+01  0.14228596425E+02  0.00000000000E+00 0.  1.
</event>
<event>
 7    1  0.1683291E-008  0.4614232E+02  0.7816164E-02  0.1320468E+00
        -11   -1    0    0    0    0  0.00000000000E+00  0.00000000000E+00  0.45593999997E+02  0.45594000000E+02  0.51100000000E-03 0.  1.
         11   -1    0    0    0    0 -0.00000000000E+00 -0.00000000000E+00 -0.45593999997E+02  0.45594000000E+02  0.51100000000E-03 0. -1.
    9900012    2    1    2    0    0 -0.37229808422E+01  0.93062586816E+01 -0.43916358008E+02  0.46142317214E+02  0.99999950079E+01 0.  0.
        -12    1    1    2    0    0  0.37229808422E+01 -0.93062586816E+01  0.43916358008E+02  0.45045682786E+02  0.00000000000E+00 0.  1.
         11    1    3    3    0    0 -0.18883986073E+01  0.91348943699E+01 -0.38434411254E+02  0.39550174629E+02  0.51100000000E-03 0. -1.
        -11    1    3    3    0    0  0.37054308329E-01 -0.10316287162E+01 -0.33697085430E+01  0.35242824455E+01  0.51100000000E-03 0.  1.
         12    1    3    3    0    0 -0.18716365432E+01  0.12029930279E+01 -0.21122382107E+01  0.30678601392E+01  0.00000000000E+00 0. -1.
</event>
<event>
 7    1  0.1683291E-008  0.4614232E+02  0.7816164E-02  0.1320468E+00
        -11   -1    0    0    0    0  0.00000000000E+00  0.00000000000E+00  0.45593999997E+02  0.45594000000E+02  0.51100000000E-03 0. -1.
         11   -1    0    0    0    0 -0.00000000000E+00 -0.00000000000E+00 -0.45593999997E+02  0.45594000000E+02  0.51100000000E-03 0.  1.
    9900012    2    1    2    0    0  0.30734968812E+02  0.31094949619E+02  0.10843400670E+02  0.46142317213E+02  0.99999949993E+01 0.  0.
        -12    1    1    2    0    0 -0.30734968812E+02 -0.31094949619E+02 -0.10843400670E+02  0.45045682787E+02  0.00000000000E+00 0.  1.
         11    1    3    3    0    0  0.69287766118E+01  0.83081375921E+01  0.68726102066E+01  0.12816624630E+02  0.51100000000E-03 0.  1.
        -11    1    3    3    0    0  0.21342724515E+02  0.21249151200E+02  0.30109999910E+01  0.30267217211E+02  0.51100000000E-03 0. -1.
        -12    1    3    3    0    0  0.24634676847E+01  0.15376608264E+01  0.95979047273E+00  0.30584753722E+01  0.00000000000E+00 0.  1.
</event>
<event>
 7    1  0.1683291E-008  0.4614232E+02  0.7816164E-02  0.1320468E+00
        -11   -1    0    0    0    0  0.00000000000E+00  0.00000000000E+00  0.45593999997E+02  0.45594000000E+02  0.51100000000E-03 0.  1.
         11   -1    0    0    0    0 -0.00000000000E+00 -0.00000000000E+00 -0.45593999997E+02  0.45594000000E+02  0.51100000000E-03 0. -1.
    9900012    2    1    2    0    0 -0.31061494761E+01  0.30088276659E+02 -0.33379041359E+02  0.46142323638E+02  0.10000053594E+02 0.  0.
        -12    1    1    2    0    0  0.31061494761E+01 -0.30088276659E+02  0.33379041359E+02  0.45045676362E+02  0.00000000000E+00 0.  1.
         11    1    3    3    0    0 -0.17529302519E+01  0.25284577272E+02 -0.23088546285E+02  0.34285034375E+02  0.51100000000E-03 0. -1.
        -11    1    3    3    0    0 -0.52268577320E+00  0.46795143206E+01 -0.98300269186E+01  0.10899563486E+02  0.51100000000E-03 0.  1.
         12    1    3    3    0    0 -0.83053345105E+00  0.12418506637E+00 -0.46046815507E+00  0.95772577800E+00  0.00000000000E+00 0. -1.
</event>
<event>
 7    1  0.1683291E-008  0.4614232E+02  0.7816164E-02  0.1320468E+00
        -11   -1    0    0    0    0  0.00000000000E+00  0.00000000000E+00  0.45593999997E+02  0.45594000000E+02  0.51100000000E-03 0.  1.
         11   -1    0    0    0    0 -0.00000000000E+00 -0.00000000000E+00 -0.45593999997E+02  0.45594000000E+02  0.51100000000E-03 0. -1.
    9900012    2    1    2    0    0 -0.29495103626E+02 -0.43927110752E+01 -0.33761760117E+02  0.46142317691E+02  0.99999993614E+01 0.  0.
        -12    1    1    2    0    0  0.29495103626E+02  0.43927110752E+01  0.33761760117E+02  0.45045682309E+02  0.00000000000E+00 0.  1.
         11    1    3    3    0    0 -0.13867853025E+02 -0.60984992725E+01 -0.15845750434E+02  0.21922519197E+02  0.51100000000E-03 0. -1.
        -11    1    3    3    0    0 -0.13055011808E+02  0.29812478970E+01 -0.15338024855E+02  0.20361143854E+02  0.51100000000E-03 0.  1.
        -12    1    3    3    0    0 -0.25722387929E+01 -0.12754596996E+01 -0.25779848285E+01  0.38586546397E+01  0.00000000000E+00 0.  1.
</event>
<event>
 7    1  0.1683291E-008  0.4614232E+02  0.7816164E-02  0.1320468E+00
        -11   -1    0    0    0    0  0.00000000000E+00  0.00000000000E+00  0.45593999997E+02  0.45594000000E+02  0.51100000000E-03 0.  1.
         11   -1    0    0    0    0 -0.00000000000E+00 -0.00000000000E+00 -0.45593999997E+02  0.45594000000E+02  0.51100000000E-03 0. -1.
    9900012    2    1    2    0    0  0.42953919173E+01 -0.32433346286E+02 -0.30963544586E+02  0.46142318338E+02  0.10000005261E+02 0.  0.
        -12    1    1    2    0    0 -0.42953919173E+01  0.32433346286E+02  0.30963544586E+02  0.45045681662E+02  0.00000000000E+00 0.  1.
         11    1    3    3    0    0  0.47228403692E+01 -0.25028195635E+02 -0.22800575247E+02  0.34184529099E+02  0.51100000000E-03 0. -1.
        -11    1    3    3    0    0  0.36938808511E-01 -0.24541440584E+01 -0.65484204787E-01  0.24552954969E+01  0.51100000000E-03 0.  1.
         12    1    3    3    0    0 -0.46438726040E+00 -0.49510065930E+01 -0.80974851345E+01  0.95024937419E+01  0.00000000000E+00 0. -1.
</event>
<event>
 7    1  0.1683291E-008  0.4614232E+02  0.7816164E-02  0.1320468E+00
        -11   -1    0    0    0    0  0.00000000000E+00  0.00000000000E+00  0.45593999997E+02  0.45594000000E+02  0.51100000000E-03 0. -1.
         11   -1    0    0    0    0 -0.00000000000E+00 -0.00000000000E+00 -0.45593999997E+02  0.45594000000E+02  0.51100000000E-03 0.  1.
    9900012    2    1    2    0    0  0.37271000872E+02  0.22486019783E+02 -0.11591580459E+02  0.46142319527E+02  0.10000016106E+02 0.  0.
        -12    1    1    2    0    0 -0.37271000872E+02 -0.22486019783E+02  0.11591580459E+02  0.45045680473E+02  0.00000000000E+00 0.  1.
         11    1    3    3    0    0  0.12597913365E+02  0.99423972861E+01 -0.34589622061E+01  0.16417158851E+02  0.51100000000E-03 0. -1.
        -11    1    3    3    0    0  0.20699399429E+01  0.38363433240E+01 -0.96560959820E+00  0.44648161915E+01  0.51100000000E-03 0.  1.
         12    1    3    3    0    0  0.22603147564E+02  0.87072791729E+01 -0.71670086550E+01  0.25260344484E+02  0.00000000000E+00 0. -1.
</event>
<event>
 7    1  0.1683291E-008  0.4614232E+02  0.7816164E-02  0.1320468E+00
        -11   -1    0    0    0    0  0.00000000000E+00  0.00000000000E+00  0.45593999997E+02  0.45594000000E+02  0.51100000000E-03 0.  1.
         11   -1    0    0    0    0 -0.00000000000E+00 -0.00000000000E+00 -0.45593999997E+02  0.45594000000E+02  0.51100000000E-03 0. -1.
    9900012    2    1    2    0    0  0.23877584992E+02 -0.31525281923E+02 -0.21566899222E+02  0.46142316440E+02  0.99999879502E+01 0.  0.
        -12    1    1    2    0    0 -0.23877584992E+02  0.31525281923E+02  0.21566899222E+02  0.45045683560E+02  0.00000000000E+00 0.  1.
         11    1    3    3    0    0 -0.29988294735E+00 -0.81002182495E-01  0.18554474530E+00  0.36182626951E+00  0.51100000000E-03 0. -1.
        -11    1    3    3    0    0 -0.46853656424E-01 -0.32437012369E+00 -0.13292943493E+01  0.13691000586E+01  0.51100000000E-03 0.  1.
         12    1    3    3    0    0  0.24224321596E+02 -0.31119909617E+02 -0.20423149618E+02  0.44411390112E+02  0.00000000000E+00 0. -1.
</event>
<event>
 7    1  0.1683291E-008  0.4614232E+02  0.7816164E-02  0.1320468E+00
        -11   -1    0    0    0    0  0.00000000000E+00  0.00000000000E+00  0.45593999997E+02  0.45594000000E+02  0.51100000000E-03 0.  1.
         11   -1    0    0    0    0 -0.00000000000E+00 -0.00000000000E+00 -0.45593999997E+02  0.45594000000E+02  0.51100000000E-03 0. -1.
    9900012    2    1    2    0    0  0.16153060055E+02 -0.16020613161E+02 -0.38878427121E+02  0.46142317736E+02  0.99999997750E+01 0.  0.
        -12    1    1    2    0    0 -0.16153060055E+02  0.16020613161E+02  0.38878427121E+02  0.45045682264E+02  0.00000000000E+00 0.  1.
         11    1    3    3    0    0  0.16597814124E+01 -0.13042879844E+01 -0.33271158323E+01  0.39402717553E+01  0.51100000000E-03 0. -1.
        -11    1    3    3    0    0  0.12487104320E+02 -0.14504092937E+02 -0.35319141770E+02  0.40171361214E+02  0.51100000000E-03 0.  1.
        -12    1    3    3    0    0  0.20061743227E+01 -0.21223223993E+00 -0.23216951913E+00  0.20306847668E+01  0.00000000000E+00 0.  1.
</event>
<event>
 7    1  0.1683291E-008  0.4614232E+02  0.7816164E-02  0.1320468E+00
        -11   -1    0    0    0    0  0.00000000000E+00  0.00000000000E+00  0.45593999997E+02  0.45594000000E+02  0.51100000000E-03 0.  1.
         11   -1    0    0    0    0 -0.00000000000E+00 -0.00000000000E+00 -0.45593999997E+02  0.45594000000E+02  0.51100000000E-03 0. -1.
    9900012    2    1    2    0    0 -0.12200649077E+02 -0.20350390298E+02 -0.38289938850E+02  0.46142316075E+02  0.99999846223E+01 0.  0.
        -12    1    1    2    0    0  0.12200649077E+02  0.20350390298E+02  0.38289938850E+02  0.45045683925E+02  0.00000000000E+00 0.  1.
         11    1    3    3    0    0 -0.28008307577E+00 -0.34390296455E+01 -0.40288228483E+01  0.53044118652E+01  0.51100000000E-03 0. -1.
        -11    1    3    3    0    0 -0.67581610162E+01 -0.11625055272E+02 -0.14673092677E+02  0.19902620415E+02  0.51100000000E-03 0.  1.
        -12    1    3    3    0    0 -0.51624049847E+01 -0.52863053797E+01 -0.19588023325E+02  0.20935283795E+02  0.00000000000E+00 0.  1.
</event>
<event>
 7    1  0.1683291E-008  0.4614232E+02  0.7816164E-02  0.1320468E+00
        -11   -1    0    0    0    0  0.00000000000E+00  0.00000000000E+00  0.45593999997E+02  0.45594000000E+02  0.51100000000E-03 0.  1.
         11   -1    0    0    0    0 -0.00000000000E+00 -0.00000000000E+00 -0.45593999997E+02  0.45594000000E+02  0.51100000000E-03 0. -1.
    9900012    2    1    2    0    0  0.13591605417E+02  0.42351626259E+02  0.71218958028E+01  0.46142318915E+02  0.10000010524E+02 0.  0.
        -12    1    1    2    0    0 -0.13591605417E+02 -0.42351626259E+02 -0.71218958028E+01  0.45045681085E+02  0.00000000000E+00 0.  1.
         11    1    3    3    0    0 -0.48842341720E-01  0.56836319156E+01  0.28090559878E+01  0.63400988266E+01  0.51100000000E-03 0.  1.
        -11    1    3    3    0    0  0.72307628394E+01  0.22292497791E+02 -0.17030936818E+00  0.23436475728E+02  0.51100000000E-03 0. -1.
         12    1    3    3    0    0  0.64096849192E+01  0.14375496552E+02  0.44831491832E+01  0.16365744360E+02  0.00000000000E+00 0. -1.
</event>
<event>
 7    1  0.1683291E-008  0.4614232E+02  0.7816164E-02  0.1320468E+00
        -11   -1    0    0    0    0  0.00000000000E+00  0.00000000000E+00  0.45593999997E+02  0.45594000000E+02  0.51100000000E-03 0.  1.
         11   -1    0    0    0    0 -0.00000000000E+00 -0.00000000000E+00 -0.45593999997E+02  0.45594000000E+02  0.51100000000E-03 0. -1.
    9900012    2    1    2    0    0 -0.13379913579E+01 -0.41370847304E+02  0.17770095240E+02  0.46142317495E+02  0.99999975698E+01 0.  0.
        -12    1    1    2    0    0  0.13379913579E+01  0.41370847304E+02 -0.17770095240E+02  0.45045682505E+02  0.00000000000E+00 0.  1.
         11    1    3    3    0    0  0.31744775662E+01 -0.85606203959E+01  0.40590120523E+01  0.99918521047E+01  0.51100000000E-03 0.  1.
        -11    1    3    3    0    0 -0.40191365693E+01 -0.32511230587E+02  0.13835094638E+02  0.35560419245E+02  0.51100000000E-03 0. -1.
         12    1    3    3    0    0 -0.49333235484E+00 -0.29899632169E+00 -0.12401145017E+00  0.59004614438E+00  0.00000000000E+00 0. -1.
</event>
<event>
 7    1  0.1683291E-008  0.4614231E+02  0.7816164E-02  0.1320468E+00
        -11   -1    0    0    0    0  0.00000000000E+00  0.00000000000E+00  0.45593999997E+02  0.45594000000E+02  0.51100000000E-03 0. -1.
         11   -1    0    0    0    0 -0.00000000000E+00 -0.00000000000E+00 -0.45593999997E+02  0.45594000000E+02  0.51100000000E-03 0.  1.
    9900012    2    1    2    0    0  0.35213959977E+01 -0.62970917141E+01  0.44464146110E+02  0.46142313380E+02  0.99999600477E+01 0.  0.
        -12    1    1    2    0    0 -0.35213959977E+01  0.62970917141E+01 -0.44464146110E+02  0.45045686620E+02  0.00000000000E+00 0.  1.
         11    1    3    3    0    0  0.21898147828E+01  0.74085444592E+00  0.21688478217E+02  0.21811332873E+02  0.51100000000E-03 0. -1.
        -11    1    3    3    0    0  0.59636206389E+00  0.60927704647E+00  0.17729159406E+01  0.19672563189E+01  0.51100000000E-03 0.  1.
         12    1    3    3    0    0  0.73521915096E+00 -0.76472232065E+01  0.21002751952E+02  0.22363724188E+02  0.00000000000E+00 0. -1.
</event>
<event>
 7    1  0.1683291E-008  0.4614232E+02  0.7816164E-02  0.1320468E+00
        -11   -1    0    0    0    0  0.00000000000E+00  0.00000000000E+00  0.45593999997E+02  0.45594000000E+02  0.51100000000E-03 0.  1.
         11   -1    0    0    0    0 -0.00000000000E+00 -0.00000000000E+00 -0.45593999997E+02  0.45594000000E+02  0.51100000000E-03 0. -1.
    9900012    2    1    2    0    0  0.79415086774E+01 -0.41433455002E+02 -0.15789703792E+02  0.46142317639E+02  0.99999988885E+01 0.  0.
        -12    1    1    2    0    0 -0.79415086774E+01  0.41433455002E+02  0.15789703792E+02  0.45045682361E+02  0.00000000000E+00 0.  1.
         11    1    3    3    0    0  0.83117050839E+01 -0.36947595334E+02 -0.13050856973E+02  0.40056636284E+02  0.51100000000E-03 0. -1.
        -11    1    3    3    0    0  0.12240894827E+01 -0.30137787188E+01 -0.18371593047E+01  0.37358281276E+01  0.51100000000E-03 0.  1.
         12    1    3    3    0    0 -0.15942858892E+01 -0.14720809493E+01 -0.90168751426E+00  0.23498532276E+01  0.00000000000E+00 0. -1.
</event>
<event>
 7    1  0.1683291E-008  0.4614232E+02  0.7816164E-02  0.1320468E+00
        -11   -1    0    0    0    0  0.00000000000E+00  0.00000000000E+00  0.45593999997E+02  0.45594000000E+02  0.51100000000E-03 0.  1.
         11   -1    0    0    0    0 -0.00000000000E+00 -0.00000000000E+00 -0.45593999997E+02  0.45594000000E+02  0.51100000000E-03 0. -1.
    9900012    2    1    2    0    0  0.27310072100E+02 -0.33960903391E+02 -0.11398702881E+02  0.46142318469E+02  0.10000006452E+02 0.  0.
        -12    1    1    2    0    0 -0.27310072100E+02  0.33960903391E+02  0.11398702881E+02  0.45045681531E+02  0.00000000000E+00 0.  1.
         11    1    3    3    0    0  0.12946478458E+02 -0.17048593216E+02 -0.60751330246E+01  0.22252484729E+02  0.51100000000E-03 0. -1.
        -11    1    3    3    0    0  0.10547779566E+02 -0.92789158602E+01 -0.43537085020E+00  0.14055016234E+02  0.51100000000E-03 0.  1.
         12    1    3    3    0    0  0.38158140765E+01 -0.76333943154E+01 -0.48881990060E+01  0.98348175053E+01  0.00000000000E+00 0. -1.
</event>
<event>
 7    1  0.1683291E-008  0.4614232E+02  0.7816164E-02  0.1320468E+00
        -11   -1    0    0    0    0  0.00000000000E+00  0.00000000000E+00  0.45593999997E+02  0.45594000000E+02  0.51100000000E-03 0.  1.
         11   -1    0    0    0    0 -0.00000000000E+00 -0.00000000000E+00 -0.45593999997E+02  0.45594000000E+02  0.51100000000E-03 0. -1.
    9900012    2    1    2    0    0 -0.12232540313E+02  0.26554445708E+02 -0.34268641969E+02  0.46142318167E+02  0.10000003702E+02 0.  0.
        -12    1    1    2    0    0  0.12232540313E+02 -0.26554445708E+02  0.34268641969E+02  0.45045681833E+02  0.00000000000E+00 0.  1.
         11    1    3    3    0    0 -0.42554783173E+01  0.13098951974E+02 -0.12249168259E+02  0.18431868104E+02  0.51100000000E-03 0. -1.
        -11    1    3    3    0    0 -0.54049832926E+01  0.11225987401E+02 -0.20485481191E+02  0.23976896742E+02  0.51100000000E-03 0.  1.
        -12    1    3    3    0    0 -0.25720787031E+01  0.22295063329E+01 -0.15339925200E+01  0.37335533202E+01  0.00000000000E+00 0.  1.
</event>
<event>
 7    1  0.1683291E-008  0.4614232E+02  0.7816164E-02  0.1320468E+00
        -11   -1    0    0    0    0  0.00000000000E+00  0.00000000000E+00  0.45593999997E+02  0.45594000000E+02  0.51100000000E-03 0. -1.
         11   -1    0    0    0    0 -0.00000000000E+00 -0.00000000000E+00 -0.45593999997E+02  0.45594000000E+02  0.51100000000E-03 0.  1.
    9900012    2    1    2    0    0 -0.41595858107E+02  0.83401821667E+01  0.15143958688E+02  0.46142317244E+02  0.99999952861E+01 0.  0.
        -12    1    1    2    0    0  0.41595858107E+02 -0.83401821667E+01 -0.15143958688E+02  0.45045682756E+02  0.00000000000E+00 0.  1.
         11    1    3    3    0    0 -0.16628664322E+02  0.63420406165E+01  0.88010194931E+01  0.19854266561E+02  0.51100000000E-03 0. -1.
        -11    1    3    3    0    0 -0.23632529290E+02  0.28146735134E+01  0.52285104054E+01  0.24367112035E+02  0.51100000000E-03 0.  1.
        -12    1    3    3    0    0 -0.13346644950E+01 -0.81653196324E+00  0.11144287892E+01  0.19209386475E+01  0.00000000000E+00 0.  1.
</event>
<event>
 7    1  0.1683291E-008  0.4614232E+02  0.7816164E-02  0.1320468E+00
        -11   -1    0    0    0    0  0.00000000000E+00  0.00000000000E+00  0.45593999997E+02  0.45594000000E+02  0.51100000000E-03 0.  1.
         11   -1    0    0    0    0 -0.00000000000E+00 -0.00000000000E+00 -0.45593999997E+02  0.45594000000E+02  0.51100000000E-03 0. -1.
    9900012    2    1    2    0    0 -0.37489444936E+02 -0.39553142510E+01 -0.24657868353E+02  0.46142318030E+02  0.10000002448E+02 0.  0.
        -12    1    1    2    0    0  0.37489444936E+02  0.39553142510E+01  0.24657868353E+02  0.45045681970E+02  0.00000000000E+00 0.  1.
         11    1    3    3    0    0 -0.27952747686E+02 -0.57294845831E-02 -0.16743477941E+02  0.32583741189E+02  0.51100000000E-03 0. -1.
        -11    1    3    3    0    0 -0.14896624311E+01 -0.24349258112E+00 -0.31647065171E+01  0.35062444861E+01  0.51100000000E-03 0.  1.
         12    1    3    3    0    0 -0.80470348192E+01 -0.37060921853E+01 -0.47496838952E+01  0.10052332355E+02  0.00000000000E+00 0. -1.
</event>
<event>
 7    1  0.1683291E-008  0.4614232E+02  0.7816164E-02  0.1320468E+00
        -11   -1    0    0    0    0  0.00000000000E+00  0.00000000000E+00  0.45593999997E+02  0.45594000000E+02  0.51100000000E-03 0.  1.
         11   -1    0    0    0    0 -0.00000000000E+00 -0.00000000000E+00 -0.45593999997E+02  0.45594000000E+02  0.51100000000E-03 0. -1.
    9900012    2    1    2    0    0 -0.36991060641E+02 -0.19513610650E+02  0.16733017885E+02  0.46142318127E+02  0.10000003332E+02 0.  0.
        -12    1    1    2    0    0  0.36991060641E+02  0.19513610650E+02 -0.16733017885E+02  0.45045681873E+02  0.00000000000E+00 0.  1.
         11    1    3    3    0    0 -0.97341766524E+01 -0.40418064215E+01  0.41637804277E+01  0.11332584081E+02  0.51100000000E-03 0. -1.
        -11    1    3    3    0    0 -0.10742456890E+02 -0.59047952234E+01  0.94344962368E+01  0.15468571562E+02  0.51100000000E-03 0.  1.
        -12    1    3    3    0    0 -0.16514427098E+02 -0.95670090048E+01  0.31347412200E+01  0.19341162483E+02  0.00000000000E+00 0.  1.
</event>
<event>
 7    1  0.1683291E-008  0.4614232E+02  0.7816164E-02  0.1320468E+00
        -11   -1    0    0    0    0  0.00000000000E+00  0.00000000000E+00  0.45593999997E+02  0.45594000000E+02  0.51100000000E-03 0. -1.
         11   -1    0    0    0    0 -0.00000000000E+00 -0.00000000000E+00 -0.45593999997E+02  0.45594000000E+02  0.51100000000E-03 0.  1.
    9900012    2    1    2    0    0  0.44657233620E+02  0.72993565236E+00  0.58576613421E+01  0.46142317443E+02  0.99999970998E+01 0.  0.
        -12    1    1    2    0    0 -0.44657233620E+02 -0.72993565236E+00 -0.58576613421E+01  0.45045682557E+02  0.00000000000E+00 0.  1.
         11    1    3    3    0    0  0.34761030447E+02  0.35640238196E+01  0.30589983528E+01  0.35076900871E+02  0.51100000000E-03 0. -1.
        -11    1    3    3    0    0  0.72244572825E+01 -0.27290948132E+01  0.87633571642E+00  0.77723037817E+01  0.51100000000E-03 0.  1.
         12    1    3    3    0    0  0.26717458901E+01 -0.10499335405E+00  0.19223272729E+01  0.32931127904E+01  0.00000000000E+00 0. -1.
</event>
<event>
 7    1  0.1683291E-008  0.4614232E+02  0.7816164E-02  0.1320468E+00
        -11   -1    0    0    0    0  0.00000000000E+00  0.00000000000E+00  0.45593999997E+02  0.45594000000E+02  0.51100000000E-03 0. -1.
         11   -1    0    0    0    0 -0.00000000000E+00 -0.00000000000E+00 -0.45593999997E+02  0.45594000000E+02  0.51100000000E-03 0.  1.
    9900012    2    1    2    0    0  0.14536430233E+02 -0.14580939328E+02  0.40064971818E+02  0.46142316939E+02  0.99999925079E+01 0.  0.
        -12    1    1    2    0    0 -0.14536430233E+02  0.14580939328E+02 -0.40064971818E+02  0.45045683061E+02  0.00000000000E+00 0.  1.
         11    1    3    3    0    0  0.11477446374E+02 -0.11590774215E+02  0.22271588983E+02  0.27606185870E+02  0.51100000000E-03 0. -1.
        -11    1    3    3    0    0  0.18515744696E+01 -0.11560144996E+01  0.38915168384E+01  0.44619055464E+01  0.51100000000E-03 0.  1.
         12    1    3    3    0    0  0.12074093896E+01 -0.18341506134E+01  0.13901865996E+02  0.14074225523E+02  0.00000000000E+00 0. -1.
</event>
<event>
 7    1  0.1683291E-008  0.4614232E+02  0.7816164E-02  0.1320468E+00
        -11   -1    0    0    0    0  0.00000000000E+00  0.00000000000E+00  0.45593999997E+02  0.45594000000E+02  0.51100000000E-03 0.  1.
         11   -1    0    0    0    0 -0.00000000000E+00 -0.00000000000E+00 -0.45593999997E+02  0.45594000000E+02  0.51100000000E-03 0. -1.
    9900012    2    1    2    0    0 -0.38720053441E+02 -0.14438141032E+01 -0.22973602675E+02  0.46142316993E+02  0.99999929980E+01 0.  0.
        -12    1    1    2    0    0  0.38720053441E+02  0.14438141032E+01  0.22973602675E+02  0.45045683007E+02  0.00000000000E+00 0.  1.
         11    1    3    3    0    0 -0.28750340358E+02 -0.45756655850E+01 -0.19054347968E+02  0.34793490239E+02  0.51100000000E-03 0. -1.
        -11    1    3    3    0    0 -0.96092947467E+01  0.26037728400E+01 -0.33846536651E+01  0.10515420069E+02  0.51100000000E-03 0.  1.
        -12    1    3    3    0    0 -0.36041833647E+00  0.52807864171E+00 -0.53460104249E+00  0.83340668568E+00  0.00000000000E+00 0.  1.
</event>
<event>
 7    1  0.1683291E-008  0.4614232E+02  0.7816164E-02  0.1320468E+00
        -11   -1    0    0    0    0  0.00000000000E+00  0.00000000000E+00  0.45593999997E+02  0.45594000000E+02  0.51100000000E-03 0.  1.
         11   -1    0    0    0    0 -0.00000000000E+00 -0.00000000000E+00 -0.45593999997E+02  0.45594000000E+02  0.51100000000E-03 0. -1.
    9900012    2    1    2    0    0 -0.23794222914E+02  0.25393422350E+02 -0.28602841958E+02  0.46142317512E+02  0.99999977312E+01 0.  0.
        -12    1    1    2    0    0  0.23794222914E+02 -0.25393422350E+02  0.28602841958E+02  0.45045682488E+02  0.00000000000E+00 0.  1.
         11    1    3    3    0    0 -0.73630561995E+01  0.59723148353E+01 -0.10325519013E+02  0.14017827372E+02  0.51100000000E-03 0. -1.
        -11    1    3    3    0    0 -0.55789859456E+00  0.45798531396E+01 -0.41479582700E+01  0.62041811460E+01  0.51100000000E-03 0.  1.
        -12    1    3    3    0    0 -0.15873268120E+02  0.14841254375E+02 -0.14129364675E+02  0.25920308994E+02  0.00000000000E+00 0.  1.
</event>
<event>
 7    1  0.1683291E-008  0.4614232E+02  0.7816164E-02  0.1320468E+00
        -11   -1    0    0    0    0  0.00000000000E+00  0.00000000000E+00  0.45593999997E+02  0.45594000000E+02  0.51100000000E-03 0.  1.
         11   -1    0    0    0    0 -0.00000000000E+00 -0.00000000000E+00 -0.45593999997E+02  0.45594000000E+02  0.51100000000E-03 0. -1.
    9900012    2    1    2    0    0  0.11456910975E+02 -0.28867549895E+02 -0.32626941961E+02  0.46142316658E+02  0.99999899422E+01 0.  0.
        -12    1    1    2    0    0 -0.11456910975E+02  0.28867549895E+02  0.32626941961E+02  0.45045683342E+02  0.00000000000E+00 0.  1.
         11    1    3    3    0    0 -0.84885708617E+00 -0.21352052790E+01 -0.14419907919E+01  0.27127472498E+01  0.51100000000E-03 0. -1.
        -11    1    3    3    0    0  0.13096530876E+01 -0.10335424696E+02 -0.94336425202E+01  0.14054529744E+02  0.51100000000E-03 0.  1.
         12    1    3    3    0    0  0.10996114973E+02 -0.16396919920E+02 -0.21751308649E+02  0.29375039665E+02  0.00000000000E+00 0. -1.
</event>
<event>
 7    1  0.1683291E-008  0.4614232E+02  0.7816164E-02  0.1320468E+00
        -11   -1    0    0    0    0  0.00000000000E+00  0.00000000000E+00  0.45593999997E+02  0.45594000000E+02  0.51100000000E-03 0.  1.
         11   -1    0    0    0    0 -0.00000000000E+00 -0.00000000000E+00 -0.45593999997E+02  0.45594000000E+02  0.51100000000E-03 0. -1.
    9900012    2    1    2    0    0 -0.15142458527E+02 -0.83833804825E+01 -0.41587719045E+02  0.46142317699E+02  0.99999994366E+01 0.  0.
        -12    1    1    2    0    0  0.15142458527E+02  0.83833804825E+01  0.41587719045E+02  0.45045682301E+02  0.00000000000E+00 0.  1.
         11    1    3    3    0    0 -0.56510985422E+01 -0.62999904547E+00 -0.52954028051E+01  0.77700131699E+01  0.51100000000E-03 0. -1.
        -11    1    3    3    0    0 -0.56346683042E+01 -0.56242911319E+01 -0.21013864529E+02  0.22471418298E+02  0.51100000000E-03 0.  1.
         12    1    3    3    0    0 -0.38566916805E+01 -0.21290903051E+01 -0.15278451711E+02  0.15900886231E+02  0.00000000000E+00 0. -1.
</event>
<event>
 7    1  0.1683291E-008  0.4614233E+02  0.7816164E-02  0.1320468E+00
        -11   -1    0    0    0    0  0.00000000000E+00  0.00000000000E+00  0.45593999997E+02  0.45594000000E+02  0.51100000000E-03 0.  1.
         11   -1    0    0    0    0 -0.00000000000E+00 -0.00000000000E+00 -0.45593999997E+02  0.45594000000E+02  0.51100000000E-03 0. -1.
    9900012    2    1    2    0    0 -0.40943300100E+02 -0.67224863478E+01 -0.17537592954E+02  0.46142325264E+02  0.10000068417E+02 0.  0.
        -12    1    1    2    0    0  0.40943300100E+02  0.67224863478E+01  0.17537592954E+02  0.45045674736E+02  0.00000000000E+00 0.  1.
         11    1    3    3    0    0 -0.14509825229E+02 -0.96345148887E+00 -0.43948535569E+01  0.15191379299E+02  0.51100000000E-03 0. -1.
        -11    1    3    3    0    0 -0.10936520947E+02 -0.51667705613E+01 -0.31395080322E+01  0.12496380252E+02  0.51100000000E-03 0.  1.
         12    1    3    3    0    0 -0.15496953925E+02 -0.59226429772E+00 -0.10003231365E+02  0.18454565714E+02  0.00000000000E+00 0. -1.
</event>
<event>
 7    1  0.1683291E-008  0.4614232E+02  0.7816164E-02  0.1320468E+00
        -11   -1    0    0    0    0  0.00000000000E+00  0.00000000000E+00  0.45593999997E+02  0.45594000000E+02  0.51100000000E-03 0.  1.
         11   -1    0    0    0    0 -0.00000000000E+00 -0.00000000000E+00 -0.45593999997E+02  0.45594000000E+02  0.51100000000E-03 0. -1.
    9900012    2    1    2    0    0  0.91398217114E+01 -0.28086018115E+01 -0.44019187607E+02  0.46142318047E+02  0.10000002606E+02 0.  0.
        -12    1    1    2    0    0 -0.91398217114E+01  0.28086018115E+01  0.44019187607E+02  0.45045681953E+02  0.00000000000E+00 0.  1.
         11    1    3    3    0    0  0.54277559075E+01 -0.31072311995E+01 -0.28911758607E+02  0.29580486912E+02  0.51100000000E-03 0. -1.
        -11    1    3    3    0    0 -0.53364034878E+00 -0.16013377355E+01 -0.18126791577E+01  0.24768650660E+01  0.51100000000E-03 0.  1.
        -12    1    3    3    0    0  0.42457061527E+01  0.18999671235E+01 -0.13294749842E+02  0.14084966069E+02  0.00000000000E+00 0.  1.
</event>
<event>
 7    1  0.1683291E-008  0.4614232E+02  0.7816164E-02  0.1320468E+00
        -11   -1    0    0    0    0  0.00000000000E+00  0.00000000000E+00  0.45593999997E+02  0.45594000000E+02  0.51100000000E-03 0. -1.
         11   -1    0    0    0    0 -0.00000000000E+00 -0.00000000000E+00 -0.45593999997E+02  0.45594000000E+02  0.51100000000E-03 0.  1.
    9900012    2    1    2    0    0 -0.12502075612E+02 -0.43201791643E+02 -0.25331261995E+01  0.46142318474E+02  0.10000006504E+02 0.  0.
        -12    1    1    2    0    0  0.12502075612E+02  0.43201791643E+02  0.25331261995E+01  0.45045681526E+02  0.00000000000E+00 0.  1.
         11    1    3    3    0    0 -0.37587803108E+01 -0.69872829618E+01 -0.79996259589E+00  0.79743647415E+01  0.51100000000E-03 0. -1.
        -11    1    3    3    0    0  0.50346269914E+00 -0.55662900235E+00 -0.10920179521E+01  0.13250713205E+01  0.51100000000E-03 0.  1.
        -12    1    3    3    0    0 -0.92467579998E+01 -0.35657879679E+02 -0.64114565153E+00  0.36842882412E+02  0.00000000000E+00 0.  1.
</event>
<event>
 7    1  0.1683291E-008  0.4614232E+02  0.7816164E-02  0.1320468E+00
        -11   -1    0    0    0    0  0.00000000000E+00  0.00000000000E+00  0.45593999997E+02  0.45594000000E+02  0.51100000000E-03 0.  1.
         11   -1    0    0    0    0 -0.00000000000E+00 -0.00000000000E+00 -0.45593999997E+02  0.45594000000E+02  0.51100000000E-03 0. -1.
    9900012    2    1    2    0    0  0.40815852696E+02  0.13835561811E+01 -0.19006979228E+02  0.46142319648E+02  0.10000017204E+02 0.  0.
        -12    1    1    2    0    0 -0.40815852696E+02 -0.13835561811E+01  0.19006979228E+02  0.45045680352E+02  0.00000000000E+00 0.  1.
         11    1    3    3    0    0  0.67123790627E+01 -0.16606779126E+01 -0.36223035882E+01  0.78060852774E+01  0.51100000000E-03 0. -1.
        -11    1    3    3    0    0  0.20037182572E+02  0.33768529681E+01 -0.12843278795E+02  0.24038336711E+02  0.51100000000E-03 0.  1.
        -12    1    3    3    0    0  0.14066291062E+02 -0.33261887437E+00 -0.25413968452E+01  0.14297897659E+02  0.00000000000E+00 0.  1.
</event>
<event>
 7    1  0.1683291E-008  0.4614232E+02  0.7816164E-02  0.1320468E+00
        -11   -1    0    0    0    0  0.00000000000E+00  0.00000000000E+00  0.45593999997E+02  0.45594000000E+02  0.51100000000E-03 0. -1.
         11   -1    0    0    0    0 -0.00000000000E+00 -0.00000000000E+00 -0.45593999997E+02  0.45594000000E+02  0.51100000000E-03 0.  1.
    9900012    2    1    2    0    0 -0.14185126666E+02  0.24512643417E+02  0.35028929553E+02  0.46142318615E+02  0.10000007788E+02 0.  0.
        -12    1    1    2    0    0  0.14185126666E+02 -0.24512643417E+02 -0.35028929553E+02  0.45045681385E+02  0.00000000000E+00 0.  1.
         11    1    3    3    0    0 -0.96433765603E+01  0.13622301896E+02  0.20903566932E+02  0.26749223001E+02  0.51100000000E-03 0. -1.
        -11    1    3    3    0    0 -0.56532591506E+01  0.80582357546E+01  0.12601512815E+02  0.15990391739E+02  0.51100000000E-03 0.  1.
        -12    1    3    3    0    0  0.11115090449E+01  0.28321057658E+01  0.15238498063E+01  0.34027038745E+01  0.00000000000E+00 0.  1.
</event>
<event>
 7    1  0.1683291E-008  0.4614232E+02  0.7816164E-02  0.1320468E+00
        -11   -1    0    0    0    0  0.00000000000E+00  0.00000000000E+00  0.45593999997E+02  0.45594000000E+02  0.51100000000E-03 0.  1.
         11   -1    0    0    0    0 -0.00000000000E+00 -0.00000000000E+00 -0.45593999997E+02  0.45594000000E+02  0.51100000000E-03 0. -1.
    9900012    2    1    2    0    0 -0.32327339116E+02  0.10052410879E+02 -0.29715412420E+02  0.46142317032E+02  0.99999933475E+01 0.  0.
        -12    1    1    2    0    0  0.32327339116E+02 -0.10052410879E+02  0.29715412420E+02  0.45045682968E+02  0.00000000000E+00 0.  1.
         11    1    3    3    0    0 -0.12967303404E+02  0.39559736432E+01 -0.12373357150E+02  0.18354853649E+02  0.51100000000E-03 0. -1.
        -11    1    3    3    0    0 -0.47235106871E+01 -0.99173521807E+00 -0.14267324611E+01  0.50329571557E+01  0.51100000000E-03 0.  1.
        -12    1    3    3    0    0 -0.14636525025E+02  0.70881724539E+01 -0.15915322809E+02  0.22754506227E+02  0.00000000000E+00 0.  1.
</event>
<event>
 7    1  0.1683291E-008  0.4614232E+02  0.7816164E-02  0.1320468E+00
        -11   -1    0    0    0    0  0.00000000000E+00  0.00000000000E+00  0.45593999997E+02  0.45594000000E+02  0.51100000000E-03 0.  1.
         11   -1    0    0    0    0 -0.00000000000E+00 -0.00000000000E+00 -0.45593999997E+02  0.45594000000E+02  0.51100000000E-03 0. -1.
    9900012    2    1    2    0    0  0.35344135162E+02  0.10535277932E+02 -0.25863363362E+02  0.46142317234E+02  0.99999951967E+01 0.  0.
        -12    1    1    2    0    0 -0.35344135162E+02 -0.10535277932E+02  0.25863363362E+02  0.45045682766E+02  0.00000000000E+00 0.  1.
         11    1    3    3    0    0  0.22438088316E+02  0.45051418807E+01 -0.19421074946E+02  0.30015700274E+02  0.51100000000E-03 0. -1.
        -11    1    3    3    0    0  0.12963733675E+02  0.52315453233E+01 -0.60098309105E+01  0.15216620029E+02  0.51100000000E-03 0.  1.
        -12    1    3    3    0    0 -0.57686829123E-01  0.79859072805E+00 -0.43245750563E+00  0.90999693151E+00  0.00000000000E+00 0.  1.
</event>
<event>
 7    1  0.1683291E-008  0.4614232E+02  0.7816164E-02  0.1320468E+00
        -11   -1    0    0    0    0  0.00000000000E+00  0.00000000000E+00  0.45593999997E+02  0.45594000000E+02  0.51100000000E-03 0.  1.
         11   -1    0    0    0    0 -0.00000000000E+00 -0.00000000000E+00 -0.45593999997E+02  0.45594000000E+02  0.51100000000E-03 0. -1.
    9900012    2    1    2    0    0 -0.34489331806E+02  0.13179381803E+01 -0.28945856021E+02  0.46142317075E+02  0.99999937391E+01 0.  0.
        -12    1    1    2    0    0  0.34489331806E+02 -0.13179381803E+01  0.28945856021E+02  0.45045682925E+02  0.00000000000E+00 0.  1.
         11    1    3    3    0    0 -0.14763466476E+02 -0.35858492672E+01 -0.10446340509E+02  0.18437578139E+02  0.51100000000E-03 0. -1.
        -11    1    3    3    0    0 -0.65993953230E+01  0.27344177934E+01 -0.82299998996E+01  0.10897796011E+02  0.51100000000E-03 0.  1.
         12    1    3    3    0    0 -0.13126470007E+02  0.21693696541E+01 -0.10269515612E+02  0.16806942924E+02  0.00000000000E+00 0. -1.
</event>
<event>
 7    1  0.1683291E-008  0.4614232E+02  0.7816164E-02  0.1320468E+00
        -11   -1    0    0    0    0  0.00000000000E+00  0.00000000000E+00  0.45593999997E+02  0.45594000000E+02  0.51100000000E-03 0. -1.
         11   -1    0    0    0    0 -0.00000000000E+00 -0.00000000000E+00 -0.45593999997E+02  0.45594000000E+02  0.51100000000E-03 0.  1.
    9900012    2    1    2    0    0  0.44462853580E+02 -0.35435013791E+01 -0.62937846282E+01  0.46142317905E+02  0.10000001310E+02 0.  0.
        -12    1    1    2    0    0 -0.44462853580E+02  0.35435013791E+01  0.62937846282E+01  0.45045682095E+02  0.00000000000E+00 0.  1.
         11    1    3    3    0    0  0.36244572608E+02 -0.27834156462E+01 -0.31274585819E+01  0.36485578571E+02  0.51100000000E-03 0. -1.
        -11    1    3    3    0    0  0.14604964038E+01  0.65643749739E+00  0.69519285443E+00  0.17456383644E+01  0.51100000000E-03 0.  1.
         12    1    3    3    0    0  0.67577845681E+01 -0.14165232303E+01 -0.38615189008E+01  0.79111009696E+01  0.00000000000E+00 0. -1.
</event>
<event>
 7    1  0.1683291E-008  0.4614232E+02  0.7816164E-02  0.1320468E+00
        -11   -1    0    0    0    0  0.00000000000E+00  0.00000000000E+00  0.45593999997E+02  0.45594000000E+02  0.51100000000E-03 0.  1.
         11   -1    0    0    0    0 -0.00000000000E+00 -0.00000000000E+00 -0.45593999997E+02  0.45594000000E+02  0.51100000000E-03 0. -1.
    9900012    2    1    2    0    0 -0.91030027828E+01 -0.29103735319E+02 -0.33154508517E+02  0.46142317585E+02  0.99999983949E+01 0.  0.
        -12    1    1    2    0    0  0.91030027828E+01  0.29103735319E+02  0.33154508517E+02  0.45045682415E+02  0.00000000000E+00 0.  1.
         11    1    3    3    0    0 -0.57153892569E+01 -0.18634673528E+02 -0.17112564976E+02  0.25937552162E+02  0.51100000000E-03 0. -1.
        -11    1    3    3    0    0 -0.44520491620E+01 -0.10078139468E+02 -0.15282601343E+02  0.18840051511E+02  0.51100000000E-03 0.  1.
        -12    1    3    3    0    0  0.10644356360E+01 -0.39092232298E+00 -0.75934219841E+00  0.13647139115E+01  0.00000000000E+00 0.  1.
</event>
<event>
 7    1  0.1683291E-008  0.4614232E+02  0.7816164E-02  0.1320468E+00
        -11   -1    0    0    0    0  0.00000000000E+00  0.00000000000E+00  0.45593999997E+02  0.45594000000E+02  0.51100000000E-03 0.  1.
         11   -1    0    0    0    0 -0.00000000000E+00 -0.00000000000E+00 -0.45593999997E+02  0.45594000000E+02  0.51100000000E-03 0. -1.
    9900012    2    1    2    0    0  0.20798068477E+02 -0.39793159300E+02 -0.36136299062E+01  0.46142317626E+02  0.99999987658E+01 0.  0.
        -12    1    1    2    0    0 -0.20798068477E+02  0.39793159300E+02  0.36136299062E+01  0.45045682374E+02  0.00000000000E+00 0.  1.
         11    1    3    3    0    0  0.16726635987E+02 -0.34639912105E+02 -0.19589464020E+00  0.38467417863E+02  0.51100000000E-03 0. -1.
        -11    1    3    3    0    0  0.21021052010E+01 -0.41714169722E+01 -0.22920290367E+01  0.52031685730E+01  0.51100000000E-03 0.  1.
         12    1    3    3    0    0  0.19693272893E+01 -0.98183022248E+00 -0.11257062293E+01  0.24717311894E+01  0.00000000000E+00 0. -1.
</event>
<event>
 7    1  0.1683291E-008  0.4614232E+02  0.7816164E-02  0.1320468E+00
        -11   -1    0    0    0    0  0.00000000000E+00  0.00000000000E+00  0.45593999997E+02  0.45594000000E+02  0.51100000000E-03 0. -1.
         11   -1    0    0    0    0 -0.00000000000E+00 -0.00000000000E+00 -0.45593999997E+02  0.45594000000E+02  0.51100000000E-03 0.  1.
    9900012    2    1    2    0    0 -0.29650373820E+02  0.28186095862E+02  0.18855046149E+02  0.46142318377E+02  0.10000005615E+02 0.  0.
        -12    1    1    2    0    0  0.29650373820E+02 -0.28186095862E+02 -0.18855046149E+02  0.45045681623E+02  0.00000000000E+00 0.  1.
         11    1    3    3    0    0 -0.97017430088E+01  0.46981450316E+01  0.52402681911E+01  0.11985691266E+02  0.51100000000E-03 0. -1.
        -11    1    3    3    0    0 -0.18827539375E+02  0.19227367259E+02  0.11995505799E+02  0.29462858826E+02  0.51100000000E-03 0.  1.
        -12    1    3    3    0    0 -0.11210914364E+01  0.42605835720E+01  0.16192721597E+01  0.46937682846E+01  0.00000000000E+00 0.  1.
</event>
<event>
 7    1  0.1683291E-008  0.4614232E+02  0.7816164E-02  0.1320468E+00
        -11   -1    0    0    0    0  0.00000000000E+00  0.00000000000E+00  0.45593999997E+02  0.45594000000E+02  0.51100000000E-03 0.  1.
         11   -1    0    0    0    0 -0.00000000000E+00 -0.00000000000E+00 -0.45593999997E+02  0.45594000000E+02  0.51100000000E-03 0. -1.
    9900012    2    1    2    0    0 -0.19345687334E+02  0.24499336091E+02 -0.32475228804E+02  0.46142316820E+02  0.99999914162E+01 0.  0.
        -12    1    1    2    0    0  0.19345687334E+02 -0.24499336091E+02  0.32475228804E+02  0.45045683180E+02  0.00000000000E+00 0.  1.
         11    1    3    3    0    0 -0.13985811239E+00  0.52002235203E+01 -0.43686671852E+01  0.67931684941E+01  0.51100000000E-03 0. -1.
        -11    1    3    3    0    0 -0.12941314286E+01  0.14599638877E+01 -0.38406313017E+01  0.43077511261E+01  0.51100000000E-03 0.  1.
         12    1    3    3    0    0 -0.17911697793E+02  0.17839148683E+02 -0.24265930317E+02  0.35041397200E+02  0.00000000000E+00 0. -1.
</event>
<event>
 7    1  0.1683291E-008  0.4614232E+02  0.7816164E-02  0.1320468E+00
        -11   -1    0    0    0    0  0.00000000000E+00  0.00000000000E+00  0.45593999997E+02  0.45594000000E+02  0.51100000000E-03 0.  1.
         11   -1    0    0    0    0 -0.00000000000E+00 -0.00000000000E+00 -0.45593999997E+02  0.45594000000E+02  0.51100000000E-03 0. -1.
    9900012    2    1    2    0    0 -0.32028198130E+02  0.23360611362E+02 -0.21391350036E+02  0.46142317687E+02  0.99999993207E+01 0.  0.
        -12    1    1    2    0    0  0.32028198130E+02 -0.23360611362E+02  0.21391350036E+02  0.45045682313E+02  0.00000000000E+00 0.  1.
         11    1    3    3    0    0 -0.10243537839E+02  0.71595187557E+01 -0.67624560813E+01  0.14209841265E+02  0.51100000000E-03 0. -1.
        -11    1    3    3    0    0 -0.43032752881E+01  0.76437606501E+01 -0.30595027327E+01  0.92900921585E+01  0.51100000000E-03 0.  1.
        -12    1    3    3    0    0 -0.17481385004E+02  0.85573319565E+01 -0.11569391222E+02  0.22642384263E+02  0.00000000000E+00 0.  1.
</event>
<event>
 7    1  0.1683291E-008  0.4614232E+02  0.7816164E-02  0.1320468E+00
        -11   -1    0    0    0    0  0.00000000000E+00  0.00000000000E+00  0.45593999997E+02  0.45594000000E+02  0.51100000000E-03 0. -1.
         11   -1    0    0    0    0 -0.00000000000E+00 -0.00000000000E+00 -0.45593999997E+02  0.45594000000E+02  0.51100000000E-03 0.  1.
    9900012    2    1    2    0    0 -0.28584998882E+02 -0.31174902114E+02  0.15496348701E+02  0.46142317566E+02  0.99999982195E+01 0.  0.
        -12    1    1    2    0    0  0.28584998882E+02  0.31174902114E+02 -0.15496348701E+02  0.45045682434E+02  0.00000000000E+00 0.  1.
         11    1    3    3    0    0 -0.16648768629E+02 -0.14378287834E+02  0.62117649672E+01  0.22858317571E+02  0.51100000000E-03 0. -1.
        -11    1    3    3    0    0 -0.71927298463E+01 -0.13414837276E+02  0.48930133766E+01  0.15988583488E+02  0.51100000000E-03 0.  1.
        -12    1    3    3    0    0 -0.47435004067E+01 -0.33817770041E+01  0.43915703571E+01  0.72954165073E+01  0.00000000000E+00 0.  1.
</event>
<event>
 7    1  0.1683291E-008  0.4614232E+02  0.7816164E-02  0.1320468E+00
        -11   -1    0    0    0    0  0.00000000000E+00  0.00000000000E+00  0.45593999997E+02  0.45594000000E+02  0.51100000000E-03 0.  1.
         11   -1    0    0    0    0 -0.00000000000E+00 -0.00000000000E+00 -0.45593999997E+02  0.45594000000E+02  0.51100000000E-03 0. -1.
    9900012    2    1    2    0    0 -0.11475076978E+02 -0.13061967526E+02 -0.41555036050E+02  0.46142318648E+02  0.10000008090E+02 0.  0.
        -12    1    1    2    0    0  0.11475076978E+02  0.13061967526E+02  0.41555036050E+02  0.45045681352E+02  0.00000000000E+00 0.  1.
         11    1    3    3    0    0 -0.44213086399E+01 -0.94162810502E+01 -0.24024595973E+02  0.26180059794E+02  0.51100000000E-03 0.  1.
        -11    1    3    3    0    0 -0.59123023222E+01 -0.10656996080E+01 -0.15053517587E+02  0.16208005010E+02  0.51100000000E-03 0. -1.
         12    1    3    3    0    0 -0.11414660155E+01 -0.25799868676E+01 -0.24769224905E+01  0.37542538441E+01  0.00000000000E+00 0. -1.
</event>
<event>
 7    1  0.1683291E-008  0.4614232E+02  0.7816164E-02  0.1320468E+00
        -11   -1    0    0    0    0  0.00000000000E+00  0.00000000000E+00  0.45593999997E+02  0.45594000000E+02  0.51100000000E-03 0.  1.
         11   -1    0    0    0    0 -0.00000000000E+00 -0.00000000000E+00 -0.45593999997E+02  0.45594000000E+02  0.51100000000E-03 0. -1.
    9900012    2    1    2    0    0 -0.41026509905E+02  0.13896863304E+02  0.12361882422E+02  0.46142318057E+02  0.10000002702E+02 0.  0.
        -12    1    1    2    0    0  0.41026509905E+02 -0.13896863304E+02 -0.12361882422E+02  0.45045681943E+02  0.00000000000E+00 0.  1.
         11    1    3    3    0    0 -0.18947130641E+02  0.61664794832E+01  0.32102689321E+01  0.20182295599E+02  0.51100000000E-03 0. -1.
        -11    1    3    3    0    0 -0.11466665454E+02  0.60807059799E+00  0.49704677934E+01  0.12512382540E+02  0.51100000000E-03 0.  1.
        -12    1    3    3    0    0 -0.10612713810E+02  0.71223132227E+01  0.41811456967E+01  0.13447639919E+02  0.00000000000E+00 0.  1.
</event>
<event>
 7    1  0.1683291E-008  0.4614232E+02  0.7816164E-02  0.1320468E+00
        -11   -1    0    0    0    0  0.00000000000E+00  0.00000000000E+00  0.45593999997E+02  0.45594000000E+02  0.51100000000E-03 0.  1.
         11   -1    0    0    0    0 -0.00000000000E+00 -0.00000000000E+00 -0.45593999997E+02  0.45594000000E+02  0.51100000000E-03 0. -1.
    9900012    2    1    2    0    0  0.42525135798E+01 -0.83902781009E+01 -0.44052614665E+02  0.46142317663E+02  0.99999991080E+01 0.  0.
        -12    1    1    2    0    0 -0.42525135798E+01  0.83902781009E+01  0.44052614665E+02  0.45045682337E+02  0.00000000000E+00 0.  1.
         11    1    3    3    0    0  0.12177420908E+00 -0.29654275317E+01 -0.20605501509E+02  0.20818147903E+02  0.51100000000E-03 0. -1.
        -11    1    3    3    0    0  0.23374156598E+01  0.12184315483E+01 -0.77197269945E+01  0.81573446988E+01  0.51100000000E-03 0.  1.
        -12    1    3    3    0    0  0.17933237109E+01 -0.66432821175E+01 -0.15727386162E+02  0.17166825062E+02  0.00000000000E+00 0.  1.
</event>
<event>
 7    1  0.1683291E-008  0.4614232E+02  0.7816164E-02  0.1320468E+00
        -11   -1    0    0    0    0  0.00000000000E+00  0.00000000000E+00  0.45593999997E+02  0.45594000000E+02  0.51100000000E-03 0.  1.
         11   -1    0    0    0    0 -0.00000000000E+00 -0.00000000000E+00 -0.45593999997E+02  0.45594000000E+02  0.51100000000E-03 0. -1.
    9900012    2    1    2    0    0  0.41835705892E+02 -0.34560467494E+01 -0.16338391268E+02  0.46142316790E+02  0.99999911444E+01 0.  0.
        -12    1    1    2    0    0 -0.41835705892E+02  0.34560467494E+01  0.16338391268E+02  0.45045683210E+02  0.00000000000E+00 0.  1.
         11    1    3    3    0    0  0.14542058477E+02 -0.72384327908E+00 -0.51692859996E+01  0.15450467043E+02  0.51100000000E-03 0. -1.
        -11    1    3    3    0    0  0.19844721561E+02 -0.22058134869E+00 -0.11284893272E+02  0.22830033868E+02  0.51100000000E-03 0.  1.
        -12    1    3    3    0    0  0.74489258533E+01 -0.25116221217E+01  0.11578800337E+00  0.78618158788E+01  0.00000000000E+00 0.  1.
</event>
<event>
 7    1  0.1683291E-008  0.4614233E+02  0.7816164E-02  0.1320468E+00
        -11   -1    0    0    0    0  0.00000000000E+00  0.00000000000E+00  0.45593999997E+02  0.45594000000E+02  0.51100000000E-03 0. -1.
         11   -1    0    0    0    0 -0.00000000000E+00 -0.00000000000E+00 -0.45593999997E+02  0.45594000000E+02  0.51100000000E-03 0.  1.
    9900012    2    1    2    0    0 -0.78867491937E+01  0.24362027508E+02  0.37059451383E+02  0.46142332795E+02  0.10000137093E+02 0.  0.
        -12    1    1    2    0    0  0.78867491937E+01 -0.24362027508E+02 -0.37059451383E+02  0.45045667205E+02  0.00000000000E+00 0.  1.
         11    1    3    3    0    0 -0.88680264064E+01  0.17536439500E+02  0.30531429163E+02  0.36308907580E+02  0.51100000000E-03 0. -1.
        -11    1    3    3    0    0  0.93146926059E+00  0.67242997346E+00  0.14853080953E+01  0.18777479734E+01  0.51100000000E-03 0.  1.
        -12    1    3    3    0    0  0.49807952056E-01  0.61531580350E+01  0.50427141242E+01  0.79556772417E+01  0.00000000000E+00 0.  1.
</event>
<event>
 7    1  0.1683291E-008  0.4614232E+02  0.7816164E-02  0.1320468E+00
        -11   -1    0    0    0    0  0.00000000000E+00  0.00000000000E+00  0.45593999997E+02  0.45594000000E+02  0.51100000000E-03 0.  1.
         11   -1    0    0    0    0 -0.00000000000E+00 -0.00000000000E+00 -0.45593999997E+02  0.45594000000E+02  0.51100000000E-03 0. -1.
    9900012    2    1    2    0    0 -0.40807532842E+02  0.17365696238E+02 -0.78924845897E+01  0.46142318126E+02  0.10000003328E+02 0.  0.
        -12    1    1    2    0    0  0.40807532842E+02 -0.17365696238E+02  0.78924845897E+01  0.45045681874E+02  0.00000000000E+00 0.  1.
         11    1    3    3    0    0 -0.29587207014E+02  0.11519370166E+02 -0.44854888144E+01  0.32065843480E+02  0.51100000000E-03 0. -1.
        -11    1    3    3    0    0 -0.43867004744E+01  0.44712949649E+01  0.11871387888E+00  0.62649591348E+01  0.51100000000E-03 0.  1.
         12    1    3    3    0    0 -0.68336253538E+01  0.13750311072E+01 -0.35257096542E+01  0.78115155116E+01  0.00000000000E+00 0. -1.
</event>
<event>
 7    1  0.1683291E-008  0.4614232E+02  0.7816164E-02  0.1320468E+00
        -11   -1    0    0    0    0  0.00000000000E+00  0.00000000000E+00  0.45593999997E+02  0.45594000000E+02  0.51100000000E-03 0.  1.
         11   -1    0    0    0    0 -0.00000000000E+00 -0.00000000000E+00 -0.45593999997E+02  0.45594000000E+02  0.51100000000E-03 0. -1.
    9900012    2    1    2    0    0 -0.16026780538E+02  0.38427169353E+02 -0.17193265996E+02  0.46142318359E+02  0.10000005451E+02 0.  0.
        -12    1    1    2    0    0  0.16026780538E+02 -0.38427169353E+02  0.17193265996E+02  0.45045681641E+02  0.00000000000E+00 0.  1.
         11    1    3    3    0    0 -0.17142673376E+01  0.49755804984E+01 -0.12126767209E+01  0.54005276493E+01  0.51100000000E-03 0. -1.
        -11    1    3    3    0    0 -0.46264931360E+01  0.18872635896E+02 -0.11843252435E+02  0.22756173951E+02  0.51100000000E-03 0.  1.
        -12    1    3    3    0    0 -0.96860200640E+01  0.14578952959E+02 -0.41373368408E+01  0.17985616758E+02  0.00000000000E+00 0.  1.
</event>
<event>
 7    1  0.1683291E-008  0.4614232E+02  0.7816164E-02  0.1320468E+00
        -11   -1    0    0    0    0  0.00000000000E+00  0.00000000000E+00  0.45593999997E+02  0.45594000000E+02  0.51100000000E-03 0. -1.
         11   -1    0    0    0    0 -0.00000000000E+00 -0.00000000000E+00 -0.45593999997E+02  0.45594000000E+02  0.51100000000E-03 0.  1.
    9900012    2    1    2    0    0  0.42120021346E+02 -0.15127066791E+02  0.51175325901E+01  0.46142317769E+02  0.10000000071E+02 0.  0.
        -12    1    1    2    0    0 -0.42120021346E+02  0.15127066791E+02 -0.51175325901E+01  0.45045682231E+02  0.00000000000E+00 0.  1.
         11    1    3    3    0    0  0.21093397561E+02 -0.84599057452E+01  0.66054487173E+01  0.23667137108E+02  0.51100000000E-03 0. -1.
        -11    1    3    3    0    0  0.13717096481E+02 -0.24918354833E+01 -0.17634923646E+01  0.14052682502E+02  0.51100000000E-03 0.  1.
         12    1    3    3    0    0  0.73095273041E+01 -0.41753255628E+01  0.27557623750E+00  0.84224981583E+01  0.00000000000E+00 0. -1.
</event>
<event>
 7    1  0.2305950E-008  0.4614232E+02  0.7816164E-02  0.1320468E+00
        -11   -1    0    0    0    0  0.00000000000E+00  0.00000000000E+00  0.45593999997E+02  0.45594000000E+02  0.51100000000E-03 0.  1.
         11   -1    0    0    0    0 -0.00000000000E+00 -0.00000000000E+00 -0.45593999997E+02  0.45594000000E+02  0.51100000000E-03 0. -1.
    9900012    2    1    2    0    0 -0.24129152060E+02  0.30969350947E+02 -0.22086123622E+02  0.46142317256E+02  0.99999953969E+01 0.  0.
        -12    1    1    2    0    0  0.24129152060E+02 -0.30969350947E+02  0.22086123622E+02  0.45045682744E+02  0.00000000000E+00 0.  1.
         11    1    3    3    0    0 -0.14811727995E+02  0.25067890063E+02 -0.17503899797E+02  0.33973120357E+02  0.51100000000E-03 0. -1.
        -11    1    3    3    0    0 -0.48847659191E+01  0.22443945818E+01 -0.12237950005E+01  0.55132494581E+01  0.51100000000E-03 0.  1.
         12    1    3    3    0    0 -0.44326581457E+01  0.36570663021E+01 -0.33584288246E+01  0.66559474416E+01  0.00000000000E+00 0. -1.
</event>
<event>
 7    1  0.1683291E-008  0.4614232E+02  0.7816164E-02  0.1320468E+00
        -11   -1    0    0    0    0  0.00000000000E+00  0.00000000000E+00  0.45593999997E+02  0.45594000000E+02  0.51100000000E-03 0.  1.
         11   -1    0    0    0    0 -0.00000000000E+00 -0.00000000000E+00 -0.45593999997E+02  0.45594000000E+02  0.51100000000E-03 0. -1.
    9900012    2    1    2    0    0  0.32564390006E+02  0.14009508693E+02 -0.27792224615E+02  0.46142316751E+02  0.99999907872E+01 0.  0.
        -12    1    1    2    0    0 -0.32564390006E+02 -0.14009508693E+02  0.27792224615E+02  0.45045683249E+02  0.00000000000E+00 0.  1.
         11    1    3    3    0    0  0.27313674414E+01  0.24206309123E+01 -0.30197111262E+01  0.47369270271E+01  0.51100000000E-03 0. -1.
        -11    1    3    3    0    0  0.52266241550E+01  0.59260563354E+01 -0.52161636611E+01  0.94680572109E+01  0.51100000000E-03 0.  1.
        -12    1    3    3    0    0  0.24606398410E+02  0.56628214458E+01 -0.19556349828E+02  0.31937332513E+02  0.00000000000E+00 0.  1.
</event>
<event>
 7    1  0.1683291E-008  0.4614231E+02  0.7816164E-02  0.1320468E+00
        -11   -1    0    0    0    0  0.00000000000E+00  0.00000000000E+00  0.45593999997E+02  0.45594000000E+02  0.51100000000E-03 0. -1.
         11   -1    0    0    0    0 -0.00000000000E+00 -0.00000000000E+00 -0.45593999997E+02  0.45594000000E+02  0.51100000000E-03 0.  1.
    9900012    2    1    2    0    0  0.22879780509E+02  0.10315000914E+02  0.37406289460E+02  0.46142311071E+02  0.99999389905E+01 0.  0.
        -12    1    1    2    0    0 -0.22879780509E+02 -0.10315000914E+02 -0.37406289460E+02  0.45045688929E+02  0.00000000000E+00 0.  1.
         11    1    3    3    0    0  0.13176807891E+02  0.98323995365E+01  0.27261762468E+02  0.31835641033E+02  0.51100000000E-03 0. -1.
        -11    1    3    3    0    0  0.87750562797E+01 -0.37471427895E+00  0.92706117708E+01  0.12770523340E+02  0.51100000000E-03 0.  1.
         12    1    3    3    0    0  0.92791633776E+00  0.85731565641E+00  0.87391522072E+00  0.15361466979E+01  0.00000000000E+00 0. -1.
</event>
<event>
 7    1  0.1683291E-008  0.4614232E+02  0.7816164E-02  0.1320468E+00
        -11   -1    0    0    0    0  0.00000000000E+00  0.00000000000E+00  0.45593999997E+02  0.45594000000E+02  0.51100000000E-03 0. -1.
         11   -1    0    0    0    0 -0.00000000000E+00 -0.00000000000E+00 -0.45593999997E+02  0.45594000000E+02  0.51100000000E-03 0.  1.
    9900012    2    1    2    0    0 -0.18071255684E+02 -0.38391433180E+02  0.15120883051E+02  0.46142317323E+02  0.99999960025E+01 0.  0.
        -12    1    1    2    0    0  0.18071255684E+02  0.38391433180E+02 -0.15120883051E+02  0.45045682677E+02  0.00000000000E+00 0.  1.
         11    1    3    3    0    0 -0.16427867191E+02 -0.38287042830E+02  0.14912984505E+02  0.44251209884E+02  0.51100000000E-03 0. -1.
        -11    1    3    3    0    0 -0.16332461660E+01 -0.28492909229E-01 -0.37617347277E-01  0.16339278474E+01  0.51100000000E-03 0.  1.
        -12    1    3    3    0    0 -0.10142326907E-01 -0.75897440880E-01  0.24551589283E+00  0.25717959087E+00  0.00000000000E+00 0.  1.
</event>
<event>
 7    1  0.1683291E-008  0.4614232E+02  0.7816164E-02  0.1320468E+00
        -11   -1    0    0    0    0  0.00000000000E+00  0.00000000000E+00  0.45593999997E+02  0.45594000000E+02  0.51100000000E-03 0.  1.
         11   -1    0    0    0    0 -0.00000000000E+00 -0.00000000000E+00 -0.45593999997E+02  0.45594000000E+02  0.51100000000E-03 0. -1.
    9900012    2    1    2    0    0  0.66822941845E+01 -0.35262491161E+02 -0.27221630004E+02  0.46142317870E+02  0.10000000996E+02 0.  0.
        -12    1    1    2    0    0 -0.66822941845E+01  0.35262491161E+02  0.27221630004E+02  0.45045682130E+02  0.00000000000E+00 0.  1.
         11    1    3    3    0    0  0.49196678770E+01 -0.13487701594E+02 -0.92238727125E+01  0.17064614100E+02  0.51100000000E-03 0. -1.
        -11    1    3    3    0    0 -0.22296233813E+01 -0.78822753417E+01 -0.47421080727E+01  0.94651505122E+01  0.51100000000E-03 0.  1.
        -12    1    3    3    0    0  0.39922496888E+01 -0.13892514225E+02 -0.13255649219E+02  0.19612553258E+02  0.00000000000E+00 0.  1.
</event>
<event>
 7    1  0.1683291E-008  0.4614232E+02  0.7816164E-02  0.1320468E+00
        -11   -1    0    0    0    0  0.00000000000E+00  0.00000000000E+00  0.45593999997E+02  0.45594000000E+02  0.51100000000E-03 0.  1.
         11   -1    0    0    0    0 -0.00000000000E+00 -0.00000000000E+00 -0.45593999997E+02  0.45594000000E+02  0.51100000000E-03 0. -1.
    9900012    2    1    2    0    0  0.18641487151E+01  0.62848701961E+01 -0.44566118101E+02  0.46142317338E+02  0.99999961453E+01 0.  0.
        -12    1    1    2    0    0 -0.18641487151E+01 -0.62848701961E+01  0.44566118101E+02  0.45045682662E+02  0.00000000000E+00 0.  1.
         11    1    3    3    0    0 -0.13534526084E+01  0.40224541613E+01 -0.25890411258E+02  0.26235955611E+02  0.51100000000E-03 0. -1.
        -11    1    3    3    0    0  0.44878997377E+01  0.39793754654E+00 -0.14141380990E+02  0.14841773982E+02  0.51100000000E-03 0.  1.
        -12    1    3    3    0    0 -0.12702984141E+01  0.18644784883E+01 -0.45343258535E+01  0.50645877463E+01  0.00000000000E+00 0.  1.
</event>
<event>
 7    1  0.1683291E-008  0.4614232E+02  0.7816164E-02  0.1320468E+00
        -11   -1    0    0    0    0  0.00000000000E+00  0.00000000000E+00  0.45593999997E+02  0.45594000000E+02  0.51100000000E-03 0.  1.
         11   -1    0    0    0    0 -0.00000000000E+00 -0.00000000000E+00 -0.45593999997E+02  0.45594000000E+02  0.51100000000E-03 0. -1.
    9900012    2    1    2    0    0  0.11349638358E+01  0.32150073214E+02 -0.31530907873E+02  0.46142317611E+02  0.99999986342E+01 0.  0.
        -12    1    1    2    0    0 -0.11349638358E+01 -0.32150073214E+02  0.31530907873E+02  0.45045682389E+02  0.00000000000E+00 0.  1.
         11    1    3    3    0    0  0.95806074821E+00 -0.97555021583E-02 -0.22235110101E+01  0.24211520068E+01  0.51100000000E-03 0. -1.
        -11    1    3    3    0    0  0.20309140500E+01  0.13308354547E+02 -0.11122650188E+02  0.17462825089E+02  0.51100000000E-03 0.  1.
         12    1    3    3    0    0 -0.18540109624E+01  0.18851474169E+02 -0.18184746675E+02  0.26258340515E+02  0.00000000000E+00 0. -1.
</event>
<event>
 7    1  0.1683291E-008  0.4614232E+02  0.7816164E-02  0.1320468E+00
        -11   -1    0    0    0    0  0.00000000000E+00  0.00000000000E+00  0.45593999997E+02  0.45594000000E+02  0.51100000000E-03 0. -1.
         11   -1    0    0    0    0 -0.00000000000E+00 -0.00000000000E+00 -0.45593999997E+02  0.45594000000E+02  0.51100000000E-03 0.  1.
    9900012    2    1    2    0    0  0.11647650681E+02  0.38980410996E+02  0.19338382696E+02  0.46142320373E+02  0.10000023818E+02 0.  0.
        -12    1    1    2    0    0 -0.11647650681E+02 -0.38980410996E+02 -0.19338382696E+02  0.45045679627E+02  0.00000000000E+00 0.  1.
         11    1    3    3    0    0  0.60703886812E+01  0.73816111100E+01  0.35100827094E+01  0.10181280971E+02  0.51100000000E-03 0.  1.
        -11    1    3    3    0    0  0.16369100958E+00  0.72628788074E-01  0.41838622356E+00  0.45510106642E+00  0.51100000000E-03 0. -1.
         12    1    3    3    0    0  0.54135709902E+01  0.31526171098E+02  0.15409913763E+02  0.35505938336E+02  0.00000000000E+00 0. -1.
</event>
<event>
 7    1  0.1683291E-008  0.4614232E+02  0.7816164E-02  0.1320468E+00
        -11   -1    0    0    0    0  0.00000000000E+00  0.00000000000E+00  0.45593999997E+02  0.45594000000E+02  0.51100000000E-03 0.  1.
         11   -1    0    0    0    0 -0.00000000000E+00 -0.00000000000E+00 -0.45593999997E+02  0.45594000000E+02  0.51100000000E-03 0. -1.
    9900012    2    1    2    0    0 -0.35061731425E+02 -0.74232683134E+01 -0.27288891746E+02  0.46142317236E+02  0.99999952151E+01 0.  0.
        -12    1    1    2    0    0  0.35061731425E+02  0.74232683134E+01  0.27288891746E+02  0.45045682764E+02  0.00000000000E+00 0.  1.
         11    1    3    3    0    0 -0.25583082116E+02 -0.34992972102E+01 -0.18621096019E+02  0.31835269572E+02  0.51100000000E-03 0. -1.
        -11    1    3    3    0    0 -0.45309051137E+01 -0.30389555990E+01 -0.16977329779E+01  0.57137246877E+01  0.51100000000E-03 0.  1.
        -12    1    3    3    0    0 -0.49477441953E+01 -0.88501550417E+00 -0.69700627486E+01  0.85933229769E+01  0.00000000000E+00 0.  1.
</event>
<event>
 7    1  0.1683291E-008  0.4614232E+02  0.7816164E-02  0.1320468E+00
        -11   -1    0    0    0    0  0.00000000000E+00  0.00000000000E+00  0.45593999997E+02  0.45594000000E+02  0.51100000000E-03 0.  1.
         11   -1    0    0    0    0 -0.00000000000E+00 -0.00000000000E+00 -0.45593999997E+02  0.45594000000E+02  0.51100000000E-03 0. -1.
    9900012    2    1    2    0    0  0.78057416190E+01 -0.34552051034E+02 -0.27826960683E+02  0.46142316814E+02  0.99999913628E+01 0.  0.
        -12    1    1    2    0    0 -0.78057416190E+01  0.34552051034E+02  0.27826960683E+02  0.45045683186E+02  0.00000000000E+00 0.  1.
         11    1    3    3    0    0 -0.10647987887E+01 -0.39930619275E+01 -0.61396785142E+01  0.74009453813E+01  0.51100000000E-03 0. -1.
        -11    1    3    3    0    0  0.88754290868E+01 -0.25550732769E+02 -0.17526936306E+02  0.32230524089E+02  0.51100000000E-03 0.  1.
        -12    1    3    3    0    0 -0.48886790748E-02 -0.50082563369E+01 -0.41603458620E+01  0.65108473433E+01  0.00000000000E+00 0.  1.
</event>
<event>
 7    1  0.1683291E-008  0.4614232E+02  0.7816164E-02  0.1320468E+00
        -11   -1    0    0    0    0  0.00000000000E+00  0.00000000000E+00  0.45593999997E+02  0.45594000000E+02  0.51100000000E-03 0.  1.
         11   -1    0    0    0    0 -0.00000000000E+00 -0.00000000000E+00 -0.45593999997E+02  0.45594000000E+02  0.51100000000E-03 0. -1.
    9900012    2    1    2    0    0  0.16215715036E+02  0.19786083440E+02 -0.37076608277E+02  0.46142318816E+02  0.10000009619E+02 0.  0.
        -12    1    1    2    0    0 -0.16215715036E+02 -0.19786083440E+02  0.37076608277E+02  0.45045681184E+02  0.00000000000E+00 0.  1.
         11    1    3    3    0    0  0.86889794100E+01  0.89026371772E+01 -0.14004726249E+02  0.18731995875E+02  0.51100000000E-03 0. -1.
        -11    1    3    3    0    0  0.79551504995E+00  0.30676458934E+01 -0.11406882123E+02  0.11838929662E+02  0.51100000000E-03 0.  1.
        -12    1    3    3    0    0  0.67312205760E+01  0.78158003694E+01 -0.11664999905E+02  0.15571393279E+02  0.00000000000E+00 0.  1.
</event>
<event>
 7    1  0.1683291E-008  0.4614232E+02  0.7816164E-02  0.1320468E+00
        -11   -1    0    0    0    0  0.00000000000E+00  0.00000000000E+00  0.45593999997E+02  0.45594000000E+02  0.51100000000E-03 0. -1.
         11   -1    0    0    0    0 -0.00000000000E+00 -0.00000000000E+00 -0.45593999997E+02  0.45594000000E+02  0.51100000000E-03 0.  1.
    9900012    2    1    2    0    0  0.27450644573E+02 -0.24417298753E+02 -0.26064749427E+02  0.46142317314E+02  0.99999959263E+01 0.  0.
        -12    1    1    2    0    0 -0.27450644573E+02  0.24417298753E+02  0.26064749427E+02  0.45045682686E+02  0.00000000000E+00 0.  1.
         11    1    3    3    0    0  0.15145029182E+02 -0.16354951954E+02 -0.14563951264E+02  0.26626397410E+02  0.51100000000E-03 0. -1.
        -11    1    3    3    0    0  0.12404743066E+02 -0.63507387409E+01 -0.94257427668E+01  0.16824213505E+02  0.51100000000E-03 0.  1.
        -12    1    3    3    0    0 -0.99127675124E-01 -0.17116080587E+01 -0.20750553969E+01  0.26917063998E+01  0.00000000000E+00 0.  1.
</event>
<event>
 7    1  0.1683291E-008  0.4614232E+02  0.7816164E-02  0.1320468E+00
        -11   -1    0    0    0    0  0.00000000000E+00  0.00000000000E+00  0.45593999997E+02  0.45594000000E+02  0.51100000000E-03 0.  1.
         11   -1    0    0    0    0 -0.00000000000E+00 -0.00000000000E+00 -0.45593999997E+02  0.45594000000E+02  0.51100000000E-03 0. -1.
    9900012    2    1    2    0    0  0.13271667399E+02  0.73508645877E+01 -0.42413926132E+02  0.46142317680E+02  0.99999992577E+01 0.  0.
        -12    1    1    2    0    0 -0.13271667399E+02 -0.73508645877E+01  0.42413926132E+02  0.45045682320E+02  0.00000000000E+00 0.  1.
         11    1    3    3    0    0  0.69330559477E+01  0.61909323790E+01 -0.15398737767E+02  0.17986551464E+02  0.51100000000E-03 0. -1.
        -11    1    3    3    0    0  0.60839454176E+01 -0.63729752439E+00 -0.20744104733E+02  0.21627261071E+02  0.51100000000E-03 0.  1.
         12    1    3    3    0    0  0.25466603342E+00  0.17972297331E+01 -0.62710836326E+01  0.65285051451E+01  0.00000000000E+00 0. -1.
</event>
<event>
 7    1  0.1683291E-008  0.4614232E+02  0.7816164E-02  0.1320468E+00
        -11   -1    0    0    0    0  0.00000000000E+00  0.00000000000E+00  0.45593999997E+02  0.45594000000E+02  0.51100000000E-03 0. -1.
         11   -1    0    0    0    0 -0.00000000000E+00 -0.00000000000E+00 -0.45593999997E+02  0.45594000000E+02  0.51100000000E-03 0.  1.
    9900012    2    1    2    0    0 -0.66910450993E+01  0.13932442373E+02  0.42311115512E+02  0.46142317290E+02  0.99999957010E+01 0.  0.
        -12    1    1    2    0    0  0.66910450993E+01 -0.13932442373E+02 -0.42311115512E+02  0.45045682710E+02  0.00000000000E+00 0.  1.
         11    1    3    3    0    0 -0.53753681787E+01  0.68035207583E+01  0.23974458663E+02  0.25494257122E+02  0.51100000000E-03 0. -1.
        -11    1    3    3    0    0 -0.31764026710E+01  0.21662923090E+01  0.50780016932E+01  0.63693373088E+01  0.51100000000E-03 0.  1.
        -12    1    3    3    0    0  0.18607257504E+01  0.49626293061E+01  0.13258655156E+02  0.14278722859E+02  0.00000000000E+00 0.  1.
</event>
<event>
 7    1  0.1683291E-008  0.4614232E+02  0.7816164E-02  0.1320468E+00
        -11   -1    0    0    0    0  0.00000000000E+00  0.00000000000E+00  0.45593999997E+02  0.45594000000E+02  0.51100000000E-03 0.  1.
         11   -1    0    0    0    0 -0.00000000000E+00 -0.00000000000E+00 -0.45593999997E+02  0.45594000000E+02  0.51100000000E-03 0. -1.
    9900012    2    1    2    0    0 -0.44095649810E+02 -0.72944300500E+00  0.91736047804E+01  0.46142318255E+02  0.10000004502E+02 0.  0.
        -12    1    1    2    0    0  0.44095649810E+02  0.72944300500E+00 -0.91736047804E+01  0.45045681745E+02  0.00000000000E+00 0.  1.
         11    1    3    3    0    0 -0.26029169809E+02 -0.20207833993E+01  0.70591576608E+01  0.27045017169E+02  0.51100000000E-03 0. -1.
        -11    1    3    3    0    0 -0.65936180649E+01 -0.22298486088E+01  0.37182057119E+00  0.69703855562E+01  0.51100000000E-03 0.  1.
         12    1    3    3    0    0 -0.11472861935E+02  0.35211890032E+01  0.17426265484E+01  0.12126915530E+02  0.00000000000E+00 0. -1.
</event>
<event>
 7    1  0.1683291E-008  0.4614232E+02  0.7816164E-02  0.1320468E+00
        -11   -1    0    0    0    0  0.00000000000E+00  0.00000000000E+00  0.45593999997E+02  0.45594000000E+02  0.51100000000E-03 0. -1.
         11   -1    0    0    0    0 -0.00000000000E+00 -0.00000000000E+00 -0.45593999997E+02  0.45594000000E+02  0.51100000000E-03 0.  1.
    9900012    2    1    2    0    0 -0.36690569414E+02  0.26076977742E+02  0.17050086226E+01  0.46142315340E+02  0.99999779224E+01 0.  0.
        -12    1    1    2    0    0  0.36690569414E+02 -0.26076977742E+02 -0.17050086226E+01  0.45045684660E+02  0.00000000000E+00 0.  1.
         11    1    3    3    0    0 -0.16292490264E+02  0.10953014606E+02 -0.11743808915E+01  0.19667052110E+02  0.51100000000E-03 0. -1.
        -11    1    3    3    0    0 -0.14367249265E+02  0.89214063061E+01  0.48679947568E+01  0.17598486160E+02  0.51100000000E-03 0.  1.
        -12    1    3    3    0    0 -0.60308298851E+01  0.62025568305E+01 -0.19886052427E+01  0.88767770700E+01  0.00000000000E+00 0.  1.
</event>
<event>
 7    1  0.1683291E-008  0.4614232E+02  0.7816164E-02  0.1320468E+00
        -11   -1    0    0    0    0  0.00000000000E+00  0.00000000000E+00  0.45593999997E+02  0.45594000000E+02  0.51100000000E-03 0.  1.
         11   -1    0    0    0    0 -0.00000000000E+00 -0.00000000000E+00 -0.45593999997E+02  0.45594000000E+02  0.51100000000E-03 0. -1.
    9900012    2    1    2    0    0 -0.50061900344E+01  0.20123760635E+02 -0.39988570972E+02  0.46142317752E+02  0.99999999196E+01 0.  0.
        -12    1    1    2    0    0  0.50061900344E+01 -0.20123760635E+02  0.39988570972E+02  0.45045682248E+02  0.00000000000E+00 0.  1.
         11    1    3    3    0    0 -0.55088244605E+00  0.70526715764E+01 -0.20948413202E+02  0.22110623324E+02  0.51100000000E-03 0. -1.
        -11    1    3    3    0    0  0.84120608069E+00  0.40446830154E+01 -0.43999200992E+01  0.60354275330E+01  0.51100000000E-03 0.  1.
        -12    1    3    3    0    0 -0.52965136690E+01  0.90264060431E+01 -0.14640237671E+02  0.17996266896E+02  0.00000000000E+00 0.  1.
</event>
<event>
 7    1  0.1683291E-008  0.4614232E+02  0.7816164E-02  0.1320468E+00
        -11   -1    0    0    0    0  0.00000000000E+00  0.00000000000E+00  0.45593999997E+02  0.45594000000E+02  0.51100000000E-03 0. -1.
         11   -1    0    0    0    0 -0.00000000000E+00 -0.00000000000E+00 -0.45593999997E+02  0.45594000000E+02  0.51100000000E-03 0.  1.
    9900012    2    1    2    0    0  0.40598765893E+02 -0.10475509209E+02  0.16465642666E+02  0.46142317925E+02  0.10000001493E+02 0.  0.
        -12    1    1    2    0    0 -0.40598765893E+02  0.10475509209E+02 -0.16465642666E+02  0.45045682075E+02  0.00000000000E+00 0.  1.
         11    1    3    3    0    0  0.26297984016E+02 -0.11262592849E+02  0.10391331382E+02  0.30436979632E+02  0.51100000000E-03 0. -1.
        -11    1    3    3    0    0  0.13502014236E+02  0.94741215919E+00  0.51721465789E+01  0.14489757718E+02  0.51100000000E-03 0.  1.
        -12    1    3    3    0    0  0.79876764103E+00 -0.16032851887E+00  0.90216470494E+00  0.12155805745E+01  0.00000000000E+00 0.  1.
</event>
<event>
 7    1  0.1683291E-008  0.4614232E+02  0.7816164E-02  0.1320468E+00
        -11   -1    0    0    0    0  0.00000000000E+00  0.00000000000E+00  0.45593999997E+02  0.45594000000E+02  0.51100000000E-03 0.  1.
         11   -1    0    0    0    0 -0.00000000000E+00 -0.00000000000E+00 -0.45593999997E+02  0.45594000000E+02  0.51100000000E-03 0. -1.
    9900012    2    1    2    0    0 -0.19867281167E+02  0.20641734870E+02 -0.34760942612E+02  0.46142320843E+02  0.10000028102E+02 0.  0.
        -12    1    1    2    0    0  0.19867281167E+02 -0.20641734870E+02  0.34760942612E+02  0.45045679157E+02  0.00000000000E+00 0.  1.
         11    1    3    3    0    0 -0.13202346035E+02  0.14186703337E+02 -0.19404353917E+02  0.27424322117E+02  0.51100000000E-03 0. -1.
        -11    1    3    3    0    0  0.79444144945E+00 -0.37970253231E-01 -0.88262788489E+00  0.11881124530E+01  0.51100000000E-03 0.  1.
         12    1    3    3    0    0 -0.74593765816E+01  0.64930017866E+01 -0.14473960810E+02  0.17529886273E+02  0.00000000000E+00 0. -1.
</event>
<event>
 7    1  0.1683291E-008  0.4614232E+02  0.7816164E-02  0.1320468E+00
        -11   -1    0    0    0    0  0.00000000000E+00  0.00000000000E+00  0.45593999997E+02  0.45594000000E+02  0.51100000000E-03 0.  1.
         11   -1    0    0    0    0 -0.00000000000E+00 -0.00000000000E+00 -0.45593999997E+02  0.45594000000E+02  0.51100000000E-03 0. -1.
    9900012    2    1    2    0    0 -0.38365978136E+02 -0.22112486380E+02 -0.82585267126E+01  0.46142316570E+02  0.99999891375E+01 0.  0.
        -12    1    1    2    0    0  0.38365978136E+02  0.22112486380E+02  0.82585267126E+01  0.45045683430E+02  0.00000000000E+00 0.  1.
         11    1    3    3    0    0 -0.23733847062E+02 -0.16150414382E+02 -0.45858571599E+01  0.29071660896E+02  0.51100000000E-03 0. -1.
        -11    1    3    3    0    0 -0.58426943674E+01 -0.47079388682E+01 -0.32644639954E+01  0.81828168314E+01  0.51100000000E-03 0.  1.
        -12    1    3    3    0    0 -0.87894367059E+01 -0.12541331299E+01 -0.40820555737E+00  0.88878388426E+01  0.00000000000E+00 0.  1.
</event>
<event>
 7    1  0.1683291E-008  0.4614232E+02  0.7816164E-02  0.1320468E+00
        -11   -1    0    0    0    0  0.00000000000E+00  0.00000000000E+00  0.45593999997E+02  0.45594000000E+02  0.51100000000E-03 0.  1.
         11   -1    0    0    0    0 -0.00000000000E+00 -0.00000000000E+00 -0.45593999997E+02  0.45594000000E+02  0.51100000000E-03 0. -1.
    9900012    2    1    2    0    0  0.34852047422E+02 -0.18747262469E+02 -0.21517166368E+02  0.46142317542E+02  0.99999980033E+01 0.  0.
        -12    1    1    2    0    0 -0.34852047422E+02  0.18747262469E+02  0.21517166368E+02  0.45045682458E+02  0.00000000000E+00 0.  1.
         11    1    3    3    0    0  0.14940927313E+02 -0.60355578780E+01 -0.43914425381E+01  0.16701617757E+02  0.51100000000E-03 0. -1.
        -11    1    3    3    0    0  0.43328955369E+01 -0.36793238320E+01 -0.60420969789E+01  0.82956822358E+01  0.51100000000E-03 0.  1.
        -12    1    3    3    0    0  0.15578224572E+02 -0.90323807591E+01 -0.11083626851E+02  0.21145017549E+02  0.00000000000E+00 0.  1.
</event>
<event>
 7    1  0.1683291E-008  0.4614232E+02  0.7816164E-02  0.1320468E+00
        -11   -1    0    0    0    0  0.00000000000E+00  0.00000000000E+00  0.45593999997E+02  0.45594000000E+02  0.51100000000E-03 0.  1.
         11   -1    0    0    0    0 -0.00000000000E+00 -0.00000000000E+00 -0.45593999997E+02  0.45594000000E+02  0.51100000000E-03 0. -1.
    9900012    2    1    2    0    0 -0.15409397603E+02  0.62277973782E+01 -0.41867391128E+02  0.46142318358E+02  0.10000005447E+02 0.  0.
        -12    1    1    2    0    0  0.15409397603E+02 -0.62277973782E+01  0.41867391128E+02  0.45045681642E+02  0.00000000000E+00 0.  1.
         11    1    3    3    0    0 -0.50748339059E+01 -0.59432888682E-01 -0.14155159633E+02  0.15037487022E+02  0.51100000000E-03 0. -1.
        -11    1    3    3    0    0 -0.10846379440E+01 -0.16052339958E+01 -0.31602552687E+01  0.37068085027E+01  0.51100000000E-03 0.  1.
         12    1    3    3    0    0 -0.92499257526E+01  0.78924642627E+01 -0.24551976227E+02  0.27398022834E+02  0.00000000000E+00 0. -1.
</event>
<event>
 7    1  0.1683291E-008  0.4614232E+02  0.7816164E-02  0.1320468E+00
        -11   -1    0    0    0    0  0.00000000000E+00  0.00000000000E+00  0.45593999997E+02  0.45594000000E+02  0.51100000000E-03 0. -1.
         11   -1    0    0    0    0 -0.00000000000E+00 -0.00000000000E+00 -0.45593999997E+02  0.45594000000E+02  0.51100000000E-03 0.  1.
    9900012    2    1    2    0    0  0.42474807838E+02 -0.14614002915E+02 -0.33815892397E+01  0.46142317323E+02  0.99999960057E+01 0.  0.
        -12    1    1    2    0    0 -0.42474807838E+02  0.14614002915E+02  0.33815892397E+01  0.45045682677E+02  0.00000000000E+00 0.  1.
         11    1    3    3    0    0  0.18715520693E+02 -0.74973638024E+01 -0.14948752026E+01  0.20216721568E+02  0.51100000000E-03 0. -1.
        -11    1    3    3    0    0  0.19581530061E+02 -0.81729924354E+01 -0.31115931067E+01  0.21445655430E+02  0.51100000000E-03 0.  1.
        -12    1    3    3    0    0  0.41777570831E+01  0.10563533228E+01  0.12248790695E+01  0.44799403258E+01  0.00000000000E+00 0.  1.
</event>
<event>
 7    1  0.1683291E-008  0.4614232E+02  0.7816164E-02  0.1320468E+00
        -11   -1    0    0    0    0  0.00000000000E+00  0.00000000000E+00  0.45593999997E+02  0.45594000000E+02  0.51100000000E-03 0.  1.
         11   -1    0    0    0    0 -0.00000000000E+00 -0.00000000000E+00 -0.45593999997E+02  0.45594000000E+02  0.51100000000E-03 0. -1.
    9900012    2    1    2    0    0  0.75623972514E+01 -0.44195517404E+02  0.43220202380E+01  0.46142317968E+02  0.10000001888E+02 0.  0.
        -12    1    1    2    0    0 -0.75623972514E+01  0.44195517404E+02 -0.43220202380E+01  0.45045682032E+02  0.00000000000E+00 0.  1.
         11    1    3    3    0    0  0.31182963088E+01 -0.17383496036E+02  0.32886704743E+01  0.17964550094E+02  0.51100000000E-03 0. -1.
        -11    1    3    3    0    0 -0.11034747903E+01 -0.15441570649E+02 -0.36867914365E-01  0.15480992224E+02  0.51100000000E-03 0.  1.
        -12    1    3    3    0    0  0.55475757330E+01 -0.11370450718E+02  0.10702176780E+01  0.12696775651E+02  0.00000000000E+00 0.  1.
</event>
<event>
 7    1  0.2207851E-008  0.4614232E+02  0.7816164E-02  0.1320468E+00
        -11   -1    0    0    0    0  0.00000000000E+00  0.00000000000E+00  0.45593999997E+02  0.45594000000E+02  0.51100000000E-03 0. -1.
         11   -1    0    0    0    0 -0.00000000000E+00 -0.00000000000E+00 -0.45593999997E+02  0.45594000000E+02  0.51100000000E-03 0.  1.
    9900012    2    1    2    0    0  0.40857889684E+02 -0.94717429302E+01  0.16432664108E+02  0.46142317485E+02  0.99999974786E+01 0.  0.
        -12    1    1    2    0    0 -0.40857889684E+02  0.94717429302E+01 -0.16432664108E+02  0.45045682515E+02  0.00000000000E+00 0.  1.
         11    1    3    3    0    0  0.41525552102E+01  0.50145028961E+00  0.31267239534E+01  0.52222188874E+01  0.51100000000E-03 0. -1.
        -11    1    3    3    0    0  0.28776223211E+01  0.10106517930E+00 -0.67258516240E+00  0.29569063995E+01  0.51100000000E-03 0.  1.
         12    1    3    3    0    0  0.33827712153E+02 -0.10074258399E+02  0.13978525317E+02  0.37963192198E+02  0.00000000000E+00 0. -1.
</event>
<event>
 7    1  0.1683291E-008  0.4614232E+02  0.7816164E-02  0.1320468E+00
        -11   -1    0    0    0    0  0.00000000000E+00  0.00000000000E+00  0.45593999997E+02  0.45594000000E+02  0.51100000000E-03 0.  1.
         11   -1    0    0    0    0 -0.00000000000E+00 -0.00000000000E+00 -0.45593999997E+02  0.45594000000E+02  0.51100000000E-03 0. -1.
    9900012    2    1    2    0    0  0.42443016819E+01  0.35047400269E+02 -0.27978191652E+02  0.46142316849E+02  0.99999916868E+01 0.  0.
        -12    1    1    2    0    0 -0.42443016819E+01 -0.35047400269E+02  0.27978191652E+02  0.45045683151E+02  0.00000000000E+00 0.  1.
         11    1    3    3    0    0  0.28336295512E+01  0.60719026569E+01 -0.30041244117E+01  0.73431752022E+01  0.51100000000E-03 0. -1.
        -11    1    3    3    0    0  0.18213741220E+01  0.21922937431E+01 -0.17329657898E+01  0.33356747800E+01  0.51100000000E-03 0.  1.
         12    1    3    3    0    0 -0.41070199124E+00  0.26783203869E+02 -0.23241101450E+02  0.35463466867E+02  0.00000000000E+00 0. -1.
</event>
<event>
 7    1  0.1683291E-008  0.4614232E+02  0.7816164E-02  0.1320468E+00
        -11   -1    0    0    0    0  0.00000000000E+00  0.00000000000E+00  0.45593999997E+02  0.45594000000E+02  0.51100000000E-03 0. -1.
         11   -1    0    0    0    0 -0.00000000000E+00 -0.00000000000E+00 -0.45593999997E+02  0.45594000000E+02  0.51100000000E-03 0.  1.
    9900012    2    1    2    0    0 -0.43632606267E+02  0.93603278513E+01 -0.61394890885E+01  0.46142318815E+02  0.10000009610E+02 0.  0.
        -12    1    1    2    0    0  0.43632606267E+02 -0.93603278513E+01  0.61394890885E+01  0.45045681185E+02  0.00000000000E+00 0.  1.
         11    1    3    3    0    0 -0.10140489398E+02  0.94161465852E+00  0.79955841246E+00  0.10215451890E+02  0.51100000000E-03 0. -1.
        -11    1    3    3    0    0 -0.21048982117E+02  0.43543371983E+01 -0.76553219744E+01  0.22817183336E+02  0.51100000000E-03 0.  1.
        -12    1    3    3    0    0 -0.12443134753E+02  0.40643759944E+01  0.71627447348E+00  0.13109683589E+02  0.00000000000E+00 0.  1.
</event>
<event>
 7    1  0.1683291E-008  0.4614231E+02  0.7816164E-02  0.1320468E+00
        -11   -1    0    0    0    0  0.00000000000E+00  0.00000000000E+00  0.45593999997E+02  0.45594000000E+02  0.51100000000E-03 0.  1.
         11   -1    0    0    0    0 -0.00000000000E+00 -0.00000000000E+00 -0.45593999997E+02  0.45594000000E+02  0.51100000000E-03 0. -1.
    9900012    2    1    2    0    0 -0.10784763185E+02  0.39570998102E+02 -0.18626292899E+02  0.46142314359E+02  0.99999689732E+01 0.  0.
        -12    1    1    2    0    0  0.10784763185E+02 -0.39570998102E+02  0.18626292899E+02  0.45045685641E+02  0.00000000000E+00 0.  1.
         11    1    3    3    0    0 -0.64897474853E+01  0.29523702704E+02 -0.11163502866E+02  0.32224053753E+02  0.51100000000E-03 0. -1.
        -11    1    3    3    0    0 -0.32749964886E+01  0.91479615085E+01 -0.78643397385E+01  0.12500345657E+02  0.51100000000E-03 0.  1.
         12    1    3    3    0    0 -0.10200192106E+01  0.89933388969E+00  0.40154970568E+00  0.14179149485E+01  0.00000000000E+00 0. -1.
</event>
<event>
 7    1  0.1880404E-008  0.4614232E+02  0.7816164E-02  0.1320468E+00
        -11   -1    0    0    0    0  0.00000000000E+00  0.00000000000E+00  0.45593999997E+02  0.45594000000E+02  0.51100000000E-03 0.  1.
         11   -1    0    0    0    0 -0.00000000000E+00 -0.00000000000E+00 -0.45593999997E+02  0.45594000000E+02  0.51100000000E-03 0. -1.
    9900012    2    1    2    0    0  0.26911628627E+02 -0.34266012275E+02 -0.11433213332E+02  0.46142315193E+02  0.99999765857E+01 0.  0.
        -12    1    1    2    0    0 -0.26911628627E+02  0.34266012275E+02  0.11433213332E+02  0.45045684807E+02  0.00000000000E+00 0.  1.
         11    1    3    3    0    0  0.20715876636E+02 -0.28412781276E+02 -0.78955211704E+01  0.36038492469E+02  0.51100000000E-03 0. -1.
        -11    1    3    3    0    0  0.66000391842E+01 -0.55535648502E+01 -0.39172330702E+01  0.94735059490E+01  0.51100000000E-03 0.  1.
         12    1    3    3    0    0 -0.40428719340E+00 -0.29966614892E+00  0.37954090871E+00  0.63031677508E+00  0.00000000000E+00 0. -1.
</event>
<event>
 7    1  0.1683291E-008  0.4614232E+02  0.7816164E-02  0.1320468E+00
        -11   -1    0    0    0    0  0.00000000000E+00  0.00000000000E+00  0.45593999997E+02  0.45594000000E+02  0.51100000000E-03 0. -1.
         11   -1    0    0    0    0 -0.00000000000E+00 -0.00000000000E+00 -0.45593999997E+02  0.45594000000E+02  0.51100000000E-03 0.  1.
    9900012    2    1    2    0    0  0.33846490815E+02  0.11093113540E+01  0.29703492797E+02  0.46142323220E+02  0.10000049782E+02 0.  0.
        -12    1    1    2    0    0 -0.33846490815E+02 -0.11093113540E+01 -0.29703492797E+02  0.45045676780E+02  0.00000000000E+00 0.  1.
         11    1    3    3    0    0  0.14214514633E+02 -0.29521183937E+00  0.16304645413E+02  0.21632869402E+02  0.51100000000E-03 0. -1.
        -11    1    3    3    0    0  0.12770990970E+02  0.36736664759E+01  0.89924236836E+01  0.16045489076E+02  0.51100000000E-03 0.  1.
        -12    1    3    3    0    0  0.68609852123E+01 -0.22691432826E+01  0.44064237008E+01  0.84639647418E+01  0.00000000000E+00 0.  1.
</event>
<event>
 7    1  0.1683291E-008  0.4614232E+02  0.7816164E-02  0.1320468E+00
        -11   -1    0    0    0    0  0.00000000000E+00  0.00000000000E+00  0.45593999997E+02  0.45594000000E+02  0.51100000000E-03 0. -1.
         11   -1    0    0    0    0 -0.00000000000E+00 -0.00000000000E+00 -0.45593999997E+02  0.45594000000E+02  0.51100000000E-03 0.  1.
    9900012    2    1    2    0    0 -0.28492445945E+02 -0.26686751711E+02  0.22474681156E+02  0.46142317788E+02  0.10000000248E+02 0.  0.
        -12    1    1    2    0    0  0.28492445945E+02  0.26686751711E+02 -0.22474681156E+02  0.45045682212E+02  0.00000000000E+00 0.  1.
         11    1    3    3    0    0 -0.12766932830E+02 -0.14044669977E+02  0.15211403737E+02  0.24323530430E+02  0.51100000000E-03 0. -1.
        -11    1    3    3    0    0 -0.48282169586E+01 -0.63703723777E+01  0.31169033733E+01  0.85795343772E+01  0.51100000000E-03 0.  1.
         12    1    3    3    0    0 -0.10897296156E+02 -0.62717093558E+01  0.41463740457E+01  0.13239252981E+02  0.00000000000E+00 0. -1.
</event>
<event>
 7    1  0.1683291E-008  0.4614232E+02  0.7816164E-02  0.1320468E+00
        -11   -1    0    0    0    0  0.00000000000E+00  0.00000000000E+00  0.45593999997E+02  0.45594000000E+02  0.51100000000E-03 0. -1.
         11   -1    0    0    0    0 -0.00000000000E+00 -0.00000000000E+00 -0.45593999997E+02  0.45594000000E+02  0.51100000000E-03 0.  1.
    9900012    2    1    2    0    0  0.23898965319E+02  0.18443885479E+02  0.33433157786E+02  0.46142317694E+02  0.99999993877E+01 0.  0.
        -12    1    1    2    0    0 -0.23898965319E+02 -0.18443885479E+02 -0.33433157786E+02  0.45045682306E+02  0.00000000000E+00 0.  1.
         11    1    3    3    0    0  0.11467668133E+02  0.76326982575E+01  0.12350134164E+02  0.18501116432E+02  0.51100000000E-03 0. -1.
        -11    1    3    3    0    0  0.99890194632E+01  0.42643424366E+01  0.12080915064E+02  0.16245418902E+02  0.51100000000E-03 0.  1.
        -12    1    3    3    0    0  0.24422777228E+01  0.65468447849E+01  0.90021085579E+01  0.11395782360E+02  0.00000000000E+00 0.  1.
</event>
<event>
 7    1  0.1683291E-008  0.4614233E+02  0.7816164E-02  0.1320468E+00
        -11   -1    0    0    0    0  0.00000000000E+00  0.00000000000E+00  0.45593999997E+02  0.45594000000E+02  0.51100000000E-03 0.  1.
         11   -1    0    0    0    0 -0.00000000000E+00 -0.00000000000E+00 -0.45593999997E+02  0.45594000000E+02  0.51100000000E-03 0. -1.
    9900012    2    1    2    0    0  0.22032851104E+02 -0.20230095145E+02 -0.33680992268E+02  0.46142328537E+02  0.10000098265E+02 0.  0.
        -12    1    1    2    0    0 -0.22032851104E+02  0.20230095145E+02  0.33680992268E+02  0.45045671463E+02  0.00000000000E+00 0.  1.
         11    1    3    3    0    0  0.92224092981E+01 -0.12728715884E+02 -0.18411780064E+02  0.24208814236E+02  0.51100000000E-03 0. -1.
        -11    1    3    3    0    0  0.64998915798E+00  0.62875788358E+00 -0.19532735492E+01  0.21524637513E+01  0.51100000000E-03 0.  1.
        -12    1    3    3    0    0  0.12160452648E+02 -0.81301371442E+01 -0.13315938655E+02  0.19781050550E+02  0.00000000000E+00 0.  1.
</event>
<event>
 7    1  0.1683291E-008  0.4614232E+02  0.7816164E-02  0.1320468E+00
        -11   -1    0    0    0    0  0.00000000000E+00  0.00000000000E+00  0.45593999997E+02  0.45594000000E+02  0.51100000000E-03 0.  1.
         11   -1    0    0    0    0 -0.00000000000E+00 -0.00000000000E+00 -0.45593999997E+02  0.45594000000E+02  0.51100000000E-03 0. -1.
    9900012    2    1    2    0    0 -0.12316019409E+01 -0.26608229087E+02 -0.36326280857E+02  0.46142318970E+02  0.10000011028E+02 0.  0.
        -12    1    1    2    0    0  0.12316019409E+01  0.26608229087E+02  0.36326280857E+02  0.45045681030E+02  0.00000000000E+00 0.  1.
         11    1    3    3    0    0 -0.71661039380E+00 -0.79127495742E+01 -0.45769753053E+01  0.91691787794E+01  0.51100000000E-03 0. -1.
        -11    1    3    3    0    0  0.63688480264E-01 -0.48349105870E+00 -0.22329549592E+01  0.22855870006E+01  0.51100000000E-03 0.  1.
         12    1    3    3    0    0 -0.57868002741E+00 -0.18211988454E+02 -0.29516350593E+02  0.34687553190E+02  0.00000000000E+00 0. -1.
</event>
<event>
 7    1  0.1683291E-008  0.4614232E+02  0.7816164E-02  0.1320468E+00
        -11   -1    0    0    0    0  0.00000000000E+00  0.00000000000E+00  0.45593999997E+02  0.45594000000E+02  0.51100000000E-03 0.  1.
         11   -1    0    0    0    0 -0.00000000000E+00 -0.00000000000E+00 -0.45593999997E+02  0.45594000000E+02  0.51100000000E-03 0. -1.
    9900012    2    1    2    0    0 -0.18426462087E+02 -0.28959998786E+02 -0.29170146058E+02  0.46142318123E+02  0.10000003301E+02 0.  0.
        -12    1    1    2    0    0  0.18426462087E+02  0.28959998786E+02  0.29170146058E+02  0.45045681877E+02  0.00000000000E+00 0.  1.
         11    1    3    3    0    0 -0.23519188058E+01 -0.29374517511E+01 -0.66971854205E+01  0.76819553290E+01  0.51100000000E-03 0.  1.
        -11    1    3    3    0    0 -0.11377500295E+02 -0.22888613122E+02 -0.18659215363E+02  0.31646523377E+02  0.51100000000E-03 0. -1.
         12    1    3    3    0    0 -0.46970429868E+01 -0.31339339124E+01 -0.38137452746E+01  0.68138394174E+01  0.00000000000E+00 0. -1.
</event>
<event>
 7    1  0.1683291E-008  0.4614232E+02  0.7816164E-02  0.1320468E+00
        -11   -1    0    0    0    0  0.00000000000E+00  0.00000000000E+00  0.45593999997E+02  0.45594000000E+02  0.51100000000E-03 0.  1.
         11   -1    0    0    0    0 -0.00000000000E+00 -0.00000000000E+00 -0.45593999997E+02  0.45594000000E+02  0.51100000000E-03 0. -1.
    9900012    2    1    2    0    0  0.31681073138E+01 -0.42974984848E+02 -0.13123534030E+02  0.46142319052E+02  0.10000011768E+02 0.  0.
        -12    1    1    2    0    0 -0.31681073138E+01  0.42974984848E+02  0.13123534030E+02  0.45045680948E+02  0.00000000000E+00 0.  1.
         11    1    3    3    0    0 -0.29811392333E+01 -0.17742860081E+02 -0.55109254602E+01  0.18816656841E+02  0.51100000000E-03 0.  1.
        -11    1    3    3    0    0  0.25822401899E+01 -0.43675560111E+01 -0.16292103138E+01  0.53289620393E+01  0.51100000000E-03 0. -1.
         12    1    3    3    0    0  0.35670063572E+01 -0.20864568756E+02 -0.59833982558E+01  0.21996700171E+02  0.00000000000E+00 0. -1.
</event>
<event>
 7    1  0.1683291E-008  0.4614232E+02  0.7816164E-02  0.1320468E+00
        -11   -1    0    0    0    0  0.00000000000E+00  0.00000000000E+00  0.45593999997E+02  0.45594000000E+02  0.51100000000E-03 0.  1.
         11   -1    0    0    0    0 -0.00000000000E+00 -0.00000000000E+00 -0.45593999997E+02  0.45594000000E+02  0.51100000000E-03 0. -1.
    9900012    2    1    2    0    0  0.37051144465E+01  0.44752426470E+02  0.35505046176E+01  0.46142316177E+02  0.99999855555E+01 0.  0.
        -12    1    1    2    0    0 -0.37051144465E+01 -0.44752426470E+02 -0.35505046176E+01  0.45045683823E+02  0.00000000000E+00 0.  1.
         11    1    3    3    0    0 -0.11309315552E+01  0.14058356365E+02  0.48926862122E+01  0.14928321021E+02  0.51100000000E-03 0.  1.
        -11    1    3    3    0    0  0.38975253558E+01  0.25830593893E+02 -0.16801237418E+00  0.26123524134E+02  0.51100000000E-03 0. -1.
        -12    1    3    3    0    0  0.93852064600E+00  0.48634762119E+01 -0.11741692204E+01  0.50904710219E+01  0.00000000000E+00 0.  1.
</event>
<event>
 7    1  0.1683291E-008  0.4614232E+02  0.7816164E-02  0.1320468E+00
        -11   -1    0    0    0    0  0.00000000000E+00  0.00000000000E+00  0.45593999997E+02  0.45594000000E+02  0.51100000000E-03 0.  1.
         11   -1    0    0    0    0 -0.00000000000E+00 -0.00000000000E+00 -0.45593999997E+02  0.45594000000E+02  0.51100000000E-03 0. -1.
    9900012    2    1    2    0    0 -0.86280966859E+01 -0.13275945173E+02 -0.42171300999E+02  0.46142318735E+02  0.10000008882E+02 0.  0.
        -12    1    1    2    0    0  0.86280966859E+01  0.13275945173E+02  0.42171300999E+02  0.45045681265E+02  0.00000000000E+00 0.  1.
         11    1    3    3    0    0 -0.27733900553E+01 -0.90449692737E+01 -0.28014793397E+02  0.29569102301E+02  0.51100000000E-03 0. -1.
        -11    1    3    3    0    0 -0.57808851790E+01 -0.29275225802E+01 -0.80766719501E+01  0.10354788842E+02  0.51100000000E-03 0.  1.
        -12    1    3    3    0    0 -0.73821451593E-01 -0.13034533189E+01 -0.60798356522E+01  0.62184275922E+01  0.00000000000E+00 0.  1.
</event>
<event>
 7    1  0.1683291E-008  0.4614232E+02  0.7816164E-02  0.1320468E+00
        -11   -1    0    0    0    0  0.00000000000E+00  0.00000000000E+00  0.45593999997E+02  0.45594000000E+02  0.51100000000E-03 0.  1.
         11   -1    0    0    0    0 -0.00000000000E+00 -0.00000000000E+00 -0.45593999997E+02  0.45594000000E+02  0.51100000000E-03 0. -1.
    9900012    2    1    2    0    0  0.23709445103E+02  0.32942664300E+02 -0.19538592092E+02  0.46142317641E+02  0.99999989021E+01 0.  0.
        -12    1    1    2    0    0 -0.23709445103E+02 -0.32942664300E+02  0.19538592092E+02  0.45045682359E+02  0.00000000000E+00 0.  1.
         11    1    3    3    0    0  0.13673176272E+02  0.13736793288E+02 -0.12935948362E+02  0.23302231642E+02  0.51100000000E-03 0.  1.
        -11    1    3    3    0    0  0.84817605173E+01  0.17996019461E+02 -0.59662435401E+01  0.20770003374E+02  0.51100000000E-03 0. -1.
         12    1    3    3    0    0  0.15545083134E+01  0.12098515511E+01 -0.63640019018E+00  0.20700826250E+01  0.00000000000E+00 0. -1.
</event>
<event>
 7    1  0.1683291E-008  0.4614232E+02  0.7816164E-02  0.1320468E+00
        -11   -1    0    0    0    0  0.00000000000E+00  0.00000000000E+00  0.45593999997E+02  0.45594000000E+02  0.51100000000E-03 0.  1.
         11   -1    0    0    0    0 -0.00000000000E+00 -0.00000000000E+00 -0.45593999997E+02  0.45594000000E+02  0.51100000000E-03 0. -1.
    9900012    2    1    2    0    0  0.25620460425E+02 -0.34602790540E+02  0.13242066877E+02  0.46142318290E+02  0.10000004823E+02 0.  0.
        -12    1    1    2    0    0 -0.25620460425E+02  0.34602790540E+02 -0.13242066877E+02  0.45045681710E+02  0.00000000000E+00 0.  1.
         11    1    3    3    0    0  0.18948651871E+02 -0.30393384645E+02  0.91595297405E+01  0.36968990022E+02  0.51100000000E-03 0. -1.
        -11    1    3    3    0    0  0.68274700660E+01 -0.41359291381E+01  0.41395456099E+01  0.89920017491E+01  0.51100000000E-03 0.  1.
         12    1    3    3    0    0 -0.15566151260E+00 -0.73476756688E-01 -0.57008473750E-01  0.18132651863E+00  0.00000000000E+00 0. -1.
</event>
<event>
 7    1  0.1683291E-008  0.4614232E+02  0.7816164E-02  0.1320468E+00
        -11   -1    0    0    0    0  0.00000000000E+00  0.00000000000E+00  0.45593999997E+02  0.45594000000E+02  0.51100000000E-03 0.  1.
         11   -1    0    0    0    0 -0.00000000000E+00 -0.00000000000E+00 -0.45593999997E+02  0.45594000000E+02  0.51100000000E-03 0. -1.
    9900012    2    1    2    0    0 -0.36296363372E+02 -0.16895184997E+01 -0.26623918949E+02  0.46142317332E+02  0.99999960880E+01 0.  0.
        -12    1    1    2    0    0  0.36296363372E+02  0.16895184997E+01  0.26623918949E+02  0.45045682668E+02  0.00000000000E+00 0.  1.
         11    1    3    3    0    0 -0.13140995313E+02 -0.20683749043E+01 -0.97951975916E+01  0.16519982709E+02  0.51100000000E-03 0. -1.
        -11    1    3    3    0    0  0.58486895078E+00 -0.16977716815E+00 -0.63438859643E+00  0.87940043712E+00  0.51100000000E-03 0.  1.
        -12    1    3    3    0    0 -0.23740237009E+02  0.54863357277E+00 -0.16194332761E+02  0.28742934186E+02  0.00000000000E+00 0.  1.
</event>
<event>
 7    1  0.1683291E-008  0.4614232E+02  0.7816164E-02  0.1320468E+00
        -11   -1    0    0    0    0  0.00000000000E+00  0.00000000000E+00  0.45593999997E+02  0.45594000000E+02  0.51100000000E-03 0.  1.
         11   -1    0    0    0    0 -0.00000000000E+00 -0.00000000000E+00 -0.45593999997E+02  0.45594000000E+02  0.51100000000E-03 0. -1.
    9900012    2    1    2    0    0 -0.14818139988E+02 -0.87774637628E+01 -0.41623220624E+02  0.46142316101E+02  0.99999848576E+01 0.  0.
        -12    1    1    2    0    0  0.14818139988E+02  0.87774637628E+01  0.41623220624E+02  0.45045683899E+02  0.00000000000E+00 0.  1.
         11    1    3    3    0    0 -0.73103096075E+01 -0.47668406544E+01 -0.19568972999E+02  0.21426807996E+02  0.51100000000E-03 0. -1.
        -11    1    3    3    0    0 -0.14875467488E+01  0.43675195623E+00 -0.13809364205E+00  0.15564760570E+01  0.51100000000E-03 0.  1.
        -12    1    3    3    0    0 -0.60202836322E+01 -0.44473750647E+01 -0.21916153983E+02  0.23159032048E+02  0.00000000000E+00 0.  1.
</event>
<event>
 7    1  0.3207718E-008  0.4614232E+02  0.7816164E-02  0.1320468E+00
        -11   -1    0    0    0    0  0.00000000000E+00  0.00000000000E+00  0.45593999997E+02  0.45594000000E+02  0.51100000000E-03 0. -1.
         11   -1    0    0    0    0 -0.00000000000E+00 -0.00000000000E+00 -0.45593999997E+02  0.45594000000E+02  0.51100000000E-03 0.  1.
    9900012    2    1    2    0    0 -0.15993815569E+02 -0.27053760528E+02  0.32270815931E+02  0.46142315900E+02  0.99999830307E+01 0.  0.
        -12    1    1    2    0    0  0.15993815569E+02  0.27053760528E+02 -0.32270815931E+02  0.45045684100E+02  0.00000000000E+00 0.  1.
         11    1    3    3    0    0 -0.99313450874E+01 -0.96599307547E+01  0.11534819323E+02  0.18027699091E+02  0.51100000000E-03 0. -1.
        -11    1    3    3    0    0  0.64501082978E+00 -0.55865886381E+00  0.11323622524E+01  0.14178798357E+01  0.51100000000E-03 0.  1.
         12    1    3    3    0    0 -0.67074813113E+01 -0.16835170910E+02  0.19603634356E+02  0.26696736974E+02  0.00000000000E+00 0. -1.
</event>
<event>
 7    1  0.1683291E-008  0.4614232E+02  0.7816164E-02  0.1320468E+00
        -11   -1    0    0    0    0  0.00000000000E+00  0.00000000000E+00  0.45593999997E+02  0.45594000000E+02  0.51100000000E-03 0.  1.
         11   -1    0    0    0    0 -0.00000000000E+00 -0.00000000000E+00 -0.45593999997E+02  0.45594000000E+02  0.51100000000E-03 0. -1.
    9900012    2    1    2    0    0  0.24303731604E+02 -0.31584668905E+02 -0.20996451727E+02  0.46142315802E+02  0.99999821365E+01 0.  0.
        -12    1    1    2    0    0 -0.24303731604E+02  0.31584668905E+02  0.20996451727E+02  0.45045684198E+02  0.00000000000E+00 0.  1.
         11    1    3    3    0    0  0.58824397604E+01 -0.13323176627E+02 -0.46726477258E+01  0.15295220495E+02  0.51100000000E-03 0. -1.
        -11    1    3    3    0    0  0.96626030427E+01 -0.93392027472E+01 -0.63995845190E+01  0.14884263092E+02  0.51100000000E-03 0.  1.
         12    1    3    3    0    0  0.87586888013E+01 -0.89222895305E+01 -0.99242194824E+01  0.15962832215E+02  0.00000000000E+00 0. -1.
</event>
<event>
 7    1  0.2090315E-008  0.4614231E+02  0.7816164E-02  0.1320468E+00
        -11   -1    0    0    0    0  0.00000000000E+00  0.00000000000E+00  0.45593999997E+02  0.45594000000E+02  0.51100000000E-03 0. -1.
         11   -1    0    0    0    0 -0.00000000000E+00 -0.00000000000E+00 -0.45593999997E+02  0.45594000000E+02  0.51100000000E-03 0.  1.
    9900012    2    1    2    0    0  0.29733251990E+02  0.15074065491E+02  0.30295550508E+02  0.46142310918E+02  0.99999375951E+01 0.  0.
        -12    1    1    2    0    0 -0.29733251990E+02 -0.15074065491E+02 -0.30295550508E+02  0.45045689082E+02  0.00000000000E+00 0.  1.
         11    1    3    3    0    0  0.18424103654E+02  0.85999211175E+01  0.19524453964E+02  0.28188837179E+02  0.51100000000E-03 0. -1.
        -11    1    3    3    0    0  0.45146039805E+01  0.22464030301E+01  0.70136226457E+00  0.50911575267E+01  0.51100000000E-03 0.  1.
        -12    1    3    3    0    0  0.67945443562E+01  0.42277413431E+01  0.10069734279E+02  0.12862316212E+02  0.00000000000E+00 0.  1.
</event>
<event>
 7    1  0.1683291E-008  0.4614232E+02  0.7816164E-02  0.1320468E+00
        -11   -1    0    0    0    0  0.00000000000E+00  0.00000000000E+00  0.45593999997E+02  0.45594000000E+02  0.51100000000E-03 0.  1.
         11   -1    0    0    0    0 -0.00000000000E+00 -0.00000000000E+00 -0.45593999997E+02  0.45594000000E+02  0.51100000000E-03 0. -1.
    9900012    2    1    2    0    0 -0.24769016516E+02 -0.27272100369E+02 -0.25919911864E+02  0.46142317979E+02  0.10000001987E+02 0.  0.
        -12    1    1    2    0    0  0.24769016516E+02  0.27272100369E+02  0.25919911864E+02  0.45045682021E+02  0.00000000000E+00 0.  1.
         11    1    3    3    0    0 -0.11280722797E+02 -0.10493971760E+02 -0.13963070824E+02  0.20792919401E+02  0.51100000000E-03 0. -1.
        -11    1    3    3    0    0 -0.38108244376E+00 -0.40961215873E+01 -0.21502941959E+01  0.46418963019E+01  0.51100000000E-03 0.  1.
         12    1    3    3    0    0 -0.13107211275E+02 -0.12682007021E+02 -0.98065468443E+01  0.20707502276E+02  0.00000000000E+00 0. -1.
</event>
<event>
 7    1  0.1683291E-008  0.4614232E+02  0.7816164E-02  0.1320468E+00
        -11   -1    0    0    0    0  0.00000000000E+00  0.00000000000E+00  0.45593999997E+02  0.45594000000E+02  0.51100000000E-03 0. -1.
         11   -1    0    0    0    0 -0.00000000000E+00 -0.00000000000E+00 -0.45593999997E+02  0.45594000000E+02  0.51100000000E-03 0.  1.
    9900012    2    1    2    0    0  0.20682329887E+02  0.39974912721E+02  0.18333102236E+01  0.46142318265E+02  0.10000004594E+02 0.  0.
        -12    1    1    2    0    0 -0.20682329887E+02 -0.39974912721E+02 -0.18333102236E+01  0.45045681735E+02  0.00000000000E+00 0.  1.
         11    1    3    3    0    0  0.14596068639E+02  0.32364817285E+02  0.17837562163E+01  0.35548676544E+02  0.51100000000E-03 0. -1.
        -11    1    3    3    0    0  0.68343027003E-02  0.77884340204E-01  0.87544040961E+00  0.87892482616E+00  0.51100000000E-03 0.  1.
        -12    1    3    3    0    0  0.60794269454E+01  0.75322110964E+01 -0.82588640234E+00  0.97147168942E+01  0.00000000000E+00 0.  1.
</event>
<event>
 7    1  0.1683291E-008  0.4614232E+02  0.7816164E-02  0.1320468E+00
        -11   -1    0    0    0    0  0.00000000000E+00  0.00000000000E+00  0.45593999997E+02  0.45594000000E+02  0.51100000000E-03 0.  1.
         11   -1    0    0    0    0 -0.00000000000E+00 -0.00000000000E+00 -0.45593999997E+02  0.45594000000E+02  0.51100000000E-03 0. -1.
    9900012    2    1    2    0    0  0.27980428825E+02  0.16213618321E+02 -0.31358056101E+02  0.46142317646E+02  0.99999989520E+01 0.  0.
        -12    1    1    2    0    0 -0.27980428825E+02 -0.16213618321E+02  0.31358056101E+02  0.45045682354E+02  0.00000000000E+00 0.  1.
         11    1    3    3    0    0  0.11826765266E+02  0.60863237641E+01 -0.18458759496E+02  0.22751736549E+02  0.51100000000E-03 0. -1.
        -11    1    3    3    0    0  0.14768827663E+02  0.10347240585E+02 -0.11381487674E+02  0.21324209720E+02  0.51100000000E-03 0.  1.
        -12    1    3    3    0    0  0.13848358967E+01 -0.21994602802E+00 -0.15178089311E+01  0.20663713769E+01  0.00000000000E+00 0.  1.
</event>
<event>
 7    1  0.1683291E-008  0.4614232E+02  0.7816164E-02  0.1320468E+00
        -11   -1    0    0    0    0  0.00000000000E+00  0.00000000000E+00  0.45593999997E+02  0.45594000000E+02  0.51100000000E-03 0.  1.
         11   -1    0    0    0    0 -0.00000000000E+00 -0.00000000000E+00 -0.45593999997E+02  0.45594000000E+02  0.51100000000E-03 0. -1.
    9900012    2    1    2    0    0 -0.32309307292E+02  0.16971477738E+02 -0.26404376787E+02  0.46142317546E+02  0.99999980351E+01 0.  0.
        -12    1    1    2    0    0  0.32309307292E+02 -0.16971477738E+02  0.26404376787E+02  0.45045682454E+02  0.00000000000E+00 0.  1.
         11    1    3    3    0    0 -0.15555317933E+02  0.66609284606E+01 -0.10780811277E+02  0.20063942185E+02  0.51100000000E-03 0. -1.
        -11    1    3    3    0    0  0.46357857825E+00  0.71714048691E-01  0.23901016460E+00  0.52647328792E+00  0.51100000000E-03 0.  1.
        -12    1    3    3    0    0 -0.17217567937E+02  0.10238835229E+02 -0.15862575674E+02  0.25551902073E+02  0.00000000000E+00 0.  1.
</event>
<event>
 7    1  0.1683291E-008  0.4614232E+02  0.7816164E-02  0.1320468E+00
        -11   -1    0    0    0    0  0.00000000000E+00  0.00000000000E+00  0.45593999997E+02  0.45594000000E+02  0.51100000000E-03 0.  1.
         11   -1    0    0    0    0 -0.00000000000E+00 -0.00000000000E+00 -0.45593999997E+02  0.45594000000E+02  0.51100000000E-03 0. -1.
    9900012    2    1    2    0    0 -0.10017133613E+02 -0.20524522872E+02 -0.38826717832E+02  0.46142322931E+02  0.10000047146E+02 0.  0.
        -12    1    1    2    0    0  0.10017133613E+02  0.20524522872E+02  0.38826717832E+02  0.45045677069E+02  0.00000000000E+00 0.  1.
         11    1    3    3    0    0 -0.88020813009E+01 -0.12022766791E+02 -0.22716760075E+02  0.27167531083E+02  0.51100000000E-03 0. -1.
        -11    1    3    3    0    0 -0.14612349970E+00  0.64790380957E+00 -0.43677023345E+00  0.79492133043E+00  0.51100000000E-03 0.  1.
         12    1    3    3    0    0 -0.10689288121E+01 -0.91496598903E+01 -0.15673187523E+02  0.18179870518E+02  0.00000000000E+00 0. -1.
</event>
<event>
 7    1  0.1683291E-008  0.4614232E+02  0.7816164E-02  0.1320468E+00
        -11   -1    0    0    0    0  0.00000000000E+00  0.00000000000E+00  0.45593999997E+02  0.45594000000E+02  0.51100000000E-03 0.  1.
         11   -1    0    0    0    0 -0.00000000000E+00 -0.00000000000E+00 -0.45593999997E+02  0.45594000000E+02  0.51100000000E-03 0. -1.
    9900012    2    1    2    0    0 -0.33037151490E+01  0.14183323844E+02 -0.42626660981E+02  0.46142318348E+02  0.10000005353E+02 0.  0.
        -12    1    1    2    0    0  0.33037151490E+01 -0.14183323844E+02  0.42626660981E+02  0.45045681652E+02  0.00000000000E+00 0.  1.
         11    1    3    3    0    0 -0.43191156851E+01  0.36908011946E+01 -0.14975590925E+02  0.16017025241E+02  0.51100000000E-03 0. -1.
        -11    1    3    3    0    0  0.32553971136E+01  0.77364745851E+01 -0.18822855859E+02  0.20609477245E+02  0.51100000000E-03 0.  1.
        -12    1    3    3    0    0 -0.22399965776E+01  0.27560480645E+01 -0.88282141973E+01  0.95158158617E+01  0.00000000000E+00 0.  1.
</event>
<event>
 7    1  0.1683291E-008  0.4614232E+02  0.7816164E-02  0.1320468E+00
        -11   -1    0    0    0    0  0.00000000000E+00  0.00000000000E+00  0.45593999997E+02  0.45594000000E+02  0.51100000000E-03 0.  1.
         11   -1    0    0    0    0 -0.00000000000E+00 -0.00000000000E+00 -0.45593999997E+02  0.45594000000E+02  0.51100000000E-03 0. -1.
    9900012    2    1    2    0    0  0.29415641345E+01  0.30432799501E+02 -0.33080289059E+02  0.46142316419E+02  0.99999877645E+01 0.  0.
        -12    1    1    2    0    0 -0.29415641345E+01 -0.30432799501E+02  0.33080289059E+02  0.45045683581E+02  0.00000000000E+00 0.  1.
         11    1    3    3    0    0  0.21571315327E+01  0.15325940542E+02 -0.15901403417E+02  0.22189914395E+02  0.51100000000E-03 0. -1.
        -11    1    3    3    0    0  0.56285772781E+00  0.10498903039E+02 -0.66064289804E+01  0.12417273372E+02  0.51100000000E-03 0.  1.
        -12    1    3    3    0    0  0.22157487397E+00  0.46079559195E+01 -0.10572456662E+02  0.11535128653E+02  0.00000000000E+00 0.  1.
</event>
<event>
 7    1  0.1683291E-008  0.4614232E+02  0.7816164E-02  0.1320468E+00
        -11   -1    0    0    0    0  0.00000000000E+00  0.00000000000E+00  0.45593999997E+02  0.45594000000E+02  0.51100000000E-03 0.  1.
         11   -1    0    0    0    0 -0.00000000000E+00 -0.00000000000E+00 -0.45593999997E+02  0.45594000000E+02  0.51100000000E-03 0. -1.
    9900012    2    1    2    0    0  0.41223621568E+02 -0.37885589992E+01 -0.17758753294E+02  0.46142317931E+02  0.10000001553E+02 0.  0.
        -12    1    1    2    0    0 -0.41223621568E+02  0.37885589992E+01  0.17758753294E+02  0.45045682069E+02  0.00000000000E+00 0.  1.
         11    1    3    3    0    0  0.99170413332E+01  0.19954505999E+01 -0.58241627548E+01  0.11672634833E+02  0.51100000000E-03 0. -1.
        -11    1    3    3    0    0  0.25225894999E+02 -0.26219433449E+01 -0.81424095040E+01  0.26636801576E+02  0.51100000000E-03 0.  1.
        -12    1    3    3    0    0  0.60806852358E+01 -0.31620662542E+01 -0.37921810353E+01  0.78328815219E+01  0.00000000000E+00 0.  1.
</event>
<event>
 7    1  0.1683291E-008  0.4614232E+02  0.7816164E-02  0.1320468E+00
        -11   -1    0    0    0    0  0.00000000000E+00  0.00000000000E+00  0.45593999997E+02  0.45594000000E+02  0.51100000000E-03 0. -1.
         11   -1    0    0    0    0 -0.00000000000E+00 -0.00000000000E+00 -0.45593999997E+02  0.45594000000E+02  0.51100000000E-03 0.  1.
    9900012    2    1    2    0    0  0.86324547916E+01  0.31503304946E+02  0.31018314681E+02  0.46142319364E+02  0.10000014620E+02 0.  0.
        -12    1    1    2    0    0 -0.86324547916E+01 -0.31503304946E+02 -0.31018314681E+02  0.45045680636E+02  0.00000000000E+00 0.  1.
         11    1    3    3    0    0  0.31070237308E+01  0.91790715747E+01  0.12797509129E+02  0.16052575856E+02  0.51100000000E-03 0. -1.
        -11    1    3    3    0    0  0.32937414210E+01  0.16078243779E+02  0.89598403744E+01  0.18698593406E+02  0.51100000000E-03 0.  1.
        -12    1    3    3    0    0  0.22316896399E+01  0.62459895928E+01  0.92609651782E+01  0.11391150103E+02  0.00000000000E+00 0.  1.
</event>
<event>
 7    1  0.1683291E-008  0.4614232E+02  0.7816164E-02  0.1320468E+00
        -11   -1    0    0    0    0  0.00000000000E+00  0.00000000000E+00  0.45593999997E+02  0.45594000000E+02  0.51100000000E-03 0.  1.
         11   -1    0    0    0    0 -0.00000000000E+00 -0.00000000000E+00 -0.45593999997E+02  0.45594000000E+02  0.51100000000E-03 0. -1.
    9900012    2    1    2    0    0 -0.35803652729E+02 -0.55484662222E+01 -0.26766143905E+02  0.46142317791E+02  0.10000000269E+02 0.  0.
        -12    1    1    2    0    0  0.35803652729E+02  0.55484662222E+01  0.26766143905E+02  0.45045682209E+02  0.00000000000E+00 0.  1.
         11    1    3    3    0    0 -0.20813471095E+02 -0.16232127166E+01 -0.15293707038E+02  0.25879197704E+02  0.51100000000E-03 0. -1.
        -11    1    3    3    0    0 -0.77162867212E+01  0.11794173522E+01 -0.57214236884E+01  0.96781607415E+01  0.51100000000E-03 0.  1.
         12    1    3    3    0    0 -0.72738949131E+01 -0.51046708577E+01 -0.57510131781E+01  0.10584959346E+02  0.00000000000E+00 0. -1.
</event>
<event>
 7    1  0.1683291E-008  0.4614232E+02  0.7816164E-02  0.1320468E+00
        -11   -1    0    0    0    0  0.00000000000E+00  0.00000000000E+00  0.45593999997E+02  0.45594000000E+02  0.51100000000E-03 0.  1.
         11   -1    0    0    0    0 -0.00000000000E+00 -0.00000000000E+00 -0.45593999997E+02  0.45594000000E+02  0.51100000000E-03 0. -1.
    9900012    2    1    2    0    0  0.40164843084E+02 -0.15093009802E+02 -0.13714952871E+02  0.46142317664E+02  0.99999991127E+01 0.  0.
        -12    1    1    2    0    0 -0.40164843084E+02  0.15093009802E+02  0.13714952871E+02  0.45045682336E+02  0.00000000000E+00 0.  1.
         11    1    3    3    0    0  0.11832983568E+02 -0.55948282279E+00 -0.36638673582E+01  0.12399856670E+02  0.51100000000E-03 0. -1.
        -11    1    3    3    0    0  0.79797618979E+01 -0.64585904938E+01 -0.40835674536E+01  0.11048326322E+02  0.51100000000E-03 0.  1.
         12    1    3    3    0    0  0.20352097618E+02 -0.80749364857E+01 -0.59675180594E+01  0.22694134672E+02  0.00000000000E+00 0. -1.
</event>
<event>
 7    1  0.1683291E-008  0.4614232E+02  0.7816164E-02  0.1320468E+00
        -11   -1    0    0    0    0  0.00000000000E+00  0.00000000000E+00  0.45593999997E+02  0.45594000000E+02  0.51100000000E-03 0. -1.
         11   -1    0    0    0    0 -0.00000000000E+00 -0.00000000000E+00 -0.45593999997E+02  0.45594000000E+02  0.51100000000E-03 0.  1.
    9900012    2    1    2    0    0  0.40574090815E+02  0.35130603995E+01  0.19248767139E+02  0.46142317907E+02  0.10000001335E+02 0.  0.
        -12    1    1    2    0    0 -0.40574090815E+02 -0.35130603995E+01 -0.19248767139E+02  0.45045682093E+02  0.00000000000E+00 0.  1.
         11    1    3    3    0    0  0.18314274696E+02  0.56041077364E+01  0.73290827314E+01  0.20506928954E+02  0.51100000000E-03 0. -1.
        -11    1    3    3    0    0  0.17826509961E+02 -0.10192659159E+01  0.77840513946E+01  0.19478573273E+02  0.51100000000E-03 0.  1.
        -12    1    3    3    0    0  0.44333061574E+01 -0.10717814209E+01  0.41356330134E+01  0.61568156802E+01  0.00000000000E+00 0.  1.
</event>
<event>
 7    1  0.1683291E-008  0.4614232E+02  0.7816164E-02  0.1320468E+00
        -11   -1    0    0    0    0  0.00000000000E+00  0.00000000000E+00  0.45593999997E+02  0.45594000000E+02  0.51100000000E-03 0.  1.
         11   -1    0    0    0    0 -0.00000000000E+00 -0.00000000000E+00 -0.45593999997E+02  0.45594000000E+02  0.51100000000E-03 0. -1.
    9900012    2    1    2    0    0 -0.13860326204E+02  0.25611087901E+02 -0.34366801328E+02  0.46142317638E+02  0.99999988763E+01 0.  0.
        -12    1    1    2    0    0  0.13860326204E+02 -0.25611087901E+02  0.34366801328E+02  0.45045682362E+02  0.00000000000E+00 0.  1.
         11    1    3    3    0    0 -0.68250934192E+01  0.10587310689E+02 -0.18782425418E+02  0.22615316771E+02  0.51100000000E-03 0. -1.
        -11    1    3    3    0    0 -0.41252402735E+01  0.43780310384E+01 -0.27915723546E+01  0.66315638849E+01  0.51100000000E-03 0.  1.
         12    1    3    3    0    0 -0.29099925117E+01  0.10645746173E+02 -0.12792803555E+02  0.16895436982E+02  0.00000000000E+00 0. -1.
</event>
<event>
 7    1  0.1683291E-008  0.4614232E+02  0.7816164E-02  0.1320468E+00
        -11   -1    0    0    0    0  0.00000000000E+00  0.00000000000E+00  0.45593999997E+02  0.45594000000E+02  0.51100000000E-03 0.  1.
         11   -1    0    0    0    0 -0.00000000000E+00 -0.00000000000E+00 -0.45593999997E+02  0.45594000000E+02  0.51100000000E-03 0. -1.
    9900012    2    1    2    0    0  0.98289781949E+01 -0.40963285851E+02 -0.15953491239E+02  0.46142317823E+02  0.10000000562E+02 0.  0.
        -12    1    1    2    0    0 -0.98289781949E+01  0.40963285851E+02  0.15953491239E+02  0.45045682177E+02  0.00000000000E+00 0.  1.
         11    1    3    3    0    0  0.28426427531E+01 -0.18198787976E+02 -0.39020428297E+01  0.18828235183E+02  0.51100000000E-03 0. -1.
        -11    1    3    3    0    0  0.23475621642E+00 -0.27329985942E+00  0.55485536790E+00  0.66156483787E+00  0.51100000000E-03 0.  1.
         12    1    3    3    0    0  0.67515792254E+01 -0.22491198016E+02 -0.12606303778E+02  0.26652517802E+02  0.00000000000E+00 0. -1.
</event>
<event>
 7    1  0.1683291E-008  0.4614233E+02  0.7816164E-02  0.1320468E+00
        -11   -1    0    0    0    0  0.00000000000E+00  0.00000000000E+00  0.45593999997E+02  0.45594000000E+02  0.51100000000E-03 0.  1.
         11   -1    0    0    0    0 -0.00000000000E+00 -0.00000000000E+00 -0.45593999997E+02  0.45594000000E+02  0.51100000000E-03 0. -1.
    9900012    2    1    2    0    0  0.19543617841E+02 -0.15141823511E+02 -0.37654804578E+02  0.46142332890E+02  0.10000137960E+02 0.  0.
        -12    1    1    2    0    0 -0.19543617841E+02  0.15141823511E+02  0.37654804578E+02  0.45045667110E+02  0.00000000000E+00 0.  1.
         11    1    3    3    0    0  0.13808487968E+02 -0.62553805938E+01 -0.17986431046E+02  0.23522666268E+02  0.51100000000E-03 0. -1.
        -11    1    3    3    0    0  0.64681658909E+00 -0.30395677455E-01 -0.30143135021E+01  0.30830799125E+01  0.51100000000E-03 0.  1.
         12    1    3    3    0    0  0.50883132838E+01 -0.88560472397E+01 -0.16654060030E+02  0.19536586710E+02  0.00000000000E+00 0. -1.
</event>
<event>
 7    1  0.1683291E-008  0.4614232E+02  0.7816164E-02  0.1320468E+00
        -11   -1    0    0    0    0  0.00000000000E+00  0.00000000000E+00  0.45593999997E+02  0.45594000000E+02  0.51100000000E-03 0.  1.
         11   -1    0    0    0    0 -0.00000000000E+00 -0.00000000000E+00 -0.45593999997E+02  0.45594000000E+02  0.51100000000E-03 0. -1.
    9900012    2    1    2    0    0 -0.11681570971E+02  0.45147368956E+00 -0.43502305383E+02  0.46142317605E+02  0.99999985769E+01 0.  0.
        -12    1    1    2    0    0  0.11681570971E+02 -0.45147368956E+00  0.43502305383E+02  0.45045682395E+02  0.00000000000E+00 0.  1.
         11    1    3    3    0    0  0.59414799352E+00 -0.12375624248E+01 -0.38019775481E+01  0.40422278672E+01  0.51100000000E-03 0. -1.
        -11    1    3    3    0    0 -0.16788727766E+01  0.81115869326E+00 -0.13473908448E+01  0.23004466034E+01  0.51100000000E-03 0.  1.
         12    1    3    3    0    0 -0.10596846188E+02  0.87787742115E+00 -0.38352936990E+02  0.39799643134E+02  0.00000000000E+00 0. -1.
</event>
<event>
 7    1  0.1683291E-008  0.4614232E+02  0.7816164E-02  0.1320468E+00
        -11   -1    0    0    0    0  0.00000000000E+00  0.00000000000E+00  0.45593999997E+02  0.45594000000E+02  0.51100000000E-03 0.  1.
         11   -1    0    0    0    0 -0.00000000000E+00 -0.00000000000E+00 -0.45593999997E+02  0.45594000000E+02  0.51100000000E-03 0. -1.
    9900012    2    1    2    0    0  0.27542431408E+02  0.70436072229E+01 -0.34941602807E+02  0.46142317218E+02  0.99999950489E+01 0.  0.
        -12    1    1    2    0    0 -0.27542431408E+02 -0.70436072229E+01  0.34941602807E+02  0.45045682782E+02  0.00000000000E+00 0.  1.
         11    1    3    3    0    0  0.71789665120E+01  0.16832882072E+01 -0.14017738669E+02  0.15838813624E+02  0.51100000000E-03 0. -1.
        -11    1    3    3    0    0  0.12977943099E+02  0.29204679922E+01 -0.89783675381E+01  0.16048901030E+02  0.51100000000E-03 0.  1.
        -12    1    3    3    0    0  0.73855217971E+01  0.24398510235E+01 -0.11945496600E+02  0.14254602564E+02  0.00000000000E+00 0.  1.
</event>
<event>
 7    1  0.1683291E-008  0.4614232E+02  0.7816164E-02  0.1320468E+00
        -11   -1    0    0    0    0  0.00000000000E+00  0.00000000000E+00  0.45593999997E+02  0.45594000000E+02  0.51100000000E-03 0.  1.
         11   -1    0    0    0    0 -0.00000000000E+00 -0.00000000000E+00 -0.45593999997E+02  0.45594000000E+02  0.51100000000E-03 0. -1.
    9900012    2    1    2    0    0 -0.20727986118E+01 -0.16986512401E+02 -0.41668637776E+02  0.46142317946E+02  0.10000001684E+02 0.  0.
        -12    1    1    2    0    0  0.20727986118E+01  0.16986512401E+02  0.41668637776E+02  0.45045682054E+02  0.00000000000E+00 0.  1.
         11    1    3    3    0    0  0.20945579940E+00 -0.16972636893E+02 -0.36936630585E+02  0.40650079386E+02  0.51100000000E-03 0. -1.
        -11    1    3    3    0    0 -0.29747935094E+00  0.59552268470E+00 -0.75993599936E+00  0.10102693782E+01  0.51100000000E-03 0.  1.
         12    1    3    3    0    0 -0.19847750602E+01 -0.60939819277E+00 -0.39720711910E+01  0.44819691814E+01  0.00000000000E+00 0. -1.
</event>
<event>
 7    1  0.1683291E-008  0.4614232E+02  0.7816164E-02  0.1320468E+00
        -11   -1    0    0    0    0  0.00000000000E+00  0.00000000000E+00  0.45593999997E+02  0.45594000000E+02  0.51100000000E-03 0. -1.
         11   -1    0    0    0    0 -0.00000000000E+00 -0.00000000000E+00 -0.45593999997E+02  0.45594000000E+02  0.51100000000E-03 0.  1.
    9900012    2    1    2    0    0 -0.19678364007E+02  0.37111522128E+02  0.16266850101E+02  0.46142317667E+02  0.99999991394E+01 0.  0.
        -12    1    1    2    0    0  0.19678364007E+02 -0.37111522128E+02 -0.16266850101E+02  0.45045682333E+02  0.00000000000E+00 0.  1.
         11    1    3    3    0    0 -0.98403776018E+01  0.24158576585E+02  0.62241283717E+01  0.26818083977E+02  0.51100000000E-03 0. -1.
        -11    1    3    3    0    0 -0.27092038444E+01  0.33907620315E+01  0.42130018638E+01  0.60486723824E+01  0.51100000000E-03 0.  1.
         12    1    3    3    0    0 -0.71287825610E+01  0.95621835120E+01  0.58297198655E+01  0.13275561307E+02  0.00000000000E+00 0. -1.
</event>
<event>
 7    1  0.1683291E-008  0.4614232E+02  0.7816164E-02  0.1320468E+00
        -11   -1    0    0    0    0  0.00000000000E+00  0.00000000000E+00  0.45593999997E+02  0.45594000000E+02  0.51100000000E-03 0. -1.
         11   -1    0    0    0    0 -0.00000000000E+00 -0.00000000000E+00 -0.45593999997E+02  0.45594000000E+02  0.51100000000E-03 0.  1.
    9900012    2    1    2    0    0 -0.25961625225E+02 -0.34779359752E+02 -0.12062475163E+02  0.46142321448E+02  0.10000033624E+02 0.  0.
        -12    1    1    2    0    0  0.25961625225E+02  0.34779359752E+02  0.12062475163E+02  0.45045678552E+02  0.00000000000E+00 0.  1.
         11    1    3    3    0    0 -0.20354454832E+02 -0.29013453341E+02 -0.10877946565E+02  0.37073090349E+02  0.51100000000E-03 0. -1.
        -11    1    3    3    0    0 -0.45382866734E+01 -0.20515483143E+01  0.14301317948E+00  0.49825043348E+01  0.51100000000E-03 0.  1.
         12    1    3    3    0    0 -0.10688837196E+01 -0.37143580970E+01 -0.13275417783E+01  0.40867267650E+01  0.00000000000E+00 0. -1.
</event>
<event>
 7    1  0.1683291E-008  0.4614232E+02  0.7816164E-02  0.1320468E+00
        -11   -1    0    0    0    0  0.00000000000E+00  0.00000000000E+00  0.45593999997E+02  0.45594000000E+02  0.51100000000E-03 0.  1.
         11   -1    0    0    0    0 -0.00000000000E+00 -0.00000000000E+00 -0.45593999997E+02  0.45594000000E+02  0.51100000000E-03 0. -1.
    9900012    2    1    2    0    0 -0.60026819197E+00  0.43880416054E+02 -0.10161798818E+02  0.46142318851E+02  0.10000009935E+02 0.  0.
        -12    1    1    2    0    0  0.60026819197E+00 -0.43880416054E+02  0.10161798818E+02  0.45045681149E+02  0.00000000000E+00 0.  1.
         11    1    3    3    0    0  0.10807647102E+01  0.18334897879E+01 -0.20995654263E+01  0.29896341585E+01  0.51100000000E-03 0. -1.
        -11    1    3    3    0    0 -0.63415525357E+00  0.40221806834E+02 -0.71406476084E+01  0.40855657459E+02  0.51100000000E-03 0.  1.
        -12    1    3    3    0    0 -0.10468776486E+01  0.18251194321E+01 -0.92158578347E+00  0.22970272330E+01  0.00000000000E+00 0.  1.
</event>
<event>
 7    1  0.1683291E-008  0.4614232E+02  0.7816164E-02  0.1320468E+00
        -11   -1    0    0    0    0  0.00000000000E+00  0.00000000000E+00  0.45593999997E+02  0.45594000000E+02  0.51100000000E-03 0.  1.
         11   -1    0    0    0    0 -0.00000000000E+00 -0.00000000000E+00 -0.45593999997E+02  0.45594000000E+02  0.51100000000E-03 0. -1.
    9900012    2    1    2    0    0 -0.27372474084E+02 -0.86751753670E+01 -0.34707383144E+02  0.46142318188E+02  0.10000003896E+02 0.  0.
        -12    1    1    2    0    0  0.27372474084E+02  0.86751753670E+01  0.34707383144E+02  0.45045681812E+02  0.00000000000E+00 0.  1.
         11    1    3    3    0    0 -0.18434554852E+02 -0.15649830825E+01 -0.18325766893E+02  0.26040655082E+02  0.51100000000E-03 0. -1.
        -11    1    3    3    0    0 -0.72775012032E+01 -0.67942106422E+01 -0.14176290360E+02  0.17323121273E+02  0.51100000000E-03 0.  1.
        -12    1    3    3    0    0 -0.16604180295E+01 -0.31598164231E+00 -0.22053258919E+01  0.27785418335E+01  0.00000000000E+00 0.  1.
</event>
<event>
 7    1  0.1683291E-008  0.4614232E+02  0.7816164E-02  0.1320468E+00
        -11   -1    0    0    0    0  0.00000000000E+00  0.00000000000E+00  0.45593999997E+02  0.45594000000E+02  0.51100000000E-03 0. -1.
         11   -1    0    0    0    0 -0.00000000000E+00 -0.00000000000E+00 -0.45593999997E+02  0.45594000000E+02  0.51100000000E-03 0.  1.
    9900012    2    1    2    0    0 -0.36241156074E+02  0.16894240197E+02 -0.20743116704E+02  0.46142316122E+02  0.99999850522E+01 0.  0.
        -12    1    1    2    0    0  0.36241156074E+02 -0.16894240197E+02  0.20743116704E+02  0.45045683878E+02  0.00000000000E+00 0.  1.
         11    1    3    3    0    0 -0.17219155073E+02  0.10317058242E+02 -0.13871934672E+02  0.24400236966E+02  0.51100000000E-03 0. -1.
        -11    1    3    3    0    0 -0.96787616644E+01  0.97414792475E+00 -0.34943943940E+01  0.10336255801E+02  0.51100000000E-03 0.  1.
        -12    1    3    3    0    0 -0.93432393366E+01  0.56030340305E+01 -0.33767876379E+01  0.11405823355E+02  0.00000000000E+00 0.  1.
</event>
<event>
 7    1  0.1844373E-008  0.4614232E+02  0.7816164E-02  0.1320468E+00
        -11   -1    0    0    0    0  0.00000000000E+00  0.00000000000E+00  0.45593999997E+02  0.45594000000E+02  0.51100000000E-03 0. -1.
         11   -1    0    0    0    0 -0.00000000000E+00 -0.00000000000E+00 -0.45593999997E+02  0.45594000000E+02  0.51100000000E-03 0.  1.
    9900012    2    1    2    0    0  0.15834047194E+02  0.12425619519E+02  0.40298888773E+02  0.46142317551E+02  0.99999980849E+01 0.  0.
        -12    1    1    2    0    0 -0.15834047194E+02 -0.12425619519E+02 -0.40298888773E+02  0.45045682449E+02  0.00000000000E+00 0.  1.
         11    1    3    3    0    0  0.11960910501E+02  0.31653484013E+01  0.20509991122E+02  0.23952923550E+02  0.51100000000E-03 0. -1.
        -11    1    3    3    0    0  0.16623720242E+01  0.40822388126E+01  0.85919207764E+01  0.96565655054E+01  0.51100000000E-03 0.  1.
         12    1    3    3    0    0  0.22107646686E+01  0.51780323052E+01  0.11196976874E+02  0.12532828495E+02  0.00000000000E+00 0. -1.
</event>
<event>
 7    1  0.1683291E-008  0.4614231E+02  0.7816164E-02  0.1320468E+00
        -11   -1    0    0    0    0  0.00000000000E+00  0.00000000000E+00  0.45593999997E+02  0.45594000000E+02  0.51100000000E-03 0.  1.
         11   -1    0    0    0    0 -0.00000000000E+00 -0.00000000000E+00 -0.45593999997E+02  0.45594000000E+02  0.51100000000E-03 0. -1.
    9900012    2    1    2    0    0  0.43997169894E+02 -0.95305371524E+01 -0.15912540680E+01  0.46142310011E+02  0.99999293293E+01 0.  0.
        -12    1    1    2    0    0 -0.43997169894E+02  0.95305371524E+01  0.15912540680E+01  0.45045689989E+02  0.00000000000E+00 0.  1.
         11    1    3    3    0    0  0.36622764525E+02 -0.10796622825E+02 -0.29276189635E+01  0.38293144281E+02  0.51100000000E-03 0. -1.
        -11    1    3    3    0    0  0.36921316069E+01  0.57771025898E+00 -0.32512575922E+00  0.37511720790E+01  0.51100000000E-03 0.  1.
         12    1    3    3    0    0  0.36822737616E+01  0.68837541397E+00  0.16614906547E+01  0.40979936508E+01  0.00000000000E+00 0. -1.
</event>
<event>
 7    1  0.2169002E-008  0.4614232E+02  0.7816164E-02  0.1320468E+00
        -11   -1    0    0    0    0  0.00000000000E+00  0.00000000000E+00  0.45593999997E+02  0.45594000000E+02  0.51100000000E-03 0. -1.
         11   -1    0    0    0    0 -0.00000000000E+00 -0.00000000000E+00 -0.45593999997E+02  0.45594000000E+02  0.51100000000E-03 0.  1.
    9900012    2    1    2    0    0 -0.30945675528E+02 -0.14861335467E+02  0.29165378878E+02  0.46142318177E+02  0.10000003797E+02 0.  0.
        -12    1    1    2    0    0  0.30945675528E+02  0.14861335467E+02 -0.29165378878E+02  0.45045681823E+02  0.00000000000E+00 0.  1.
         11    1    3    3    0    0 -0.22918863661E+02 -0.64703109722E+01  0.20166200434E+02  0.31206007047E+02  0.51100000000E-03 0. -1.
        -11    1    3    3    0    0 -0.17397785952E+01 -0.27903840031E+01  0.13294563469E+01  0.35469038448E+01  0.51100000000E-03 0.  1.
         12    1    3    3    0    0 -0.62870332717E+01 -0.56006404916E+01  0.76697220970E+01  0.11389407286E+02  0.00000000000E+00 0. -1.
</event>
<event>
 7    1  0.1683291E-008  0.4614232E+02  0.7816164E-02  0.1320468E+00
        -11   -1    0    0    0    0  0.00000000000E+00  0.00000000000E+00  0.45593999997E+02  0.45594000000E+02  0.51100000000E-03 0.  1.
         11   -1    0    0    0    0 -0.00000000000E+00 -0.00000000000E+00 -0.45593999997E+02  0.45594000000E+02  0.51100000000E-03 0. -1.
    9900012    2    1    2    0    0  0.12003149264E+02  0.36561341270E+02 -0.23415939128E+02  0.46142317932E+02  0.10000001561E+02 0.  0.
        -12    1    1    2    0    0 -0.12003149264E+02 -0.36561341270E+02  0.23415939128E+02  0.45045682068E+02  0.00000000000E+00 0.  1.
         11    1    3    3    0    0  0.63157798431E+01  0.21838323831E+02 -0.10213855677E+02  0.24922365675E+02  0.51100000000E-03 0. -1.
        -11    1    3    3    0    0  0.61797829209E+01  0.97593651373E+01 -0.82811505858E+01  0.14213105928E+02  0.51100000000E-03 0.  1.
         12    1    3    3    0    0 -0.49241349953E+00  0.49636523014E+01 -0.49209328653E+01  0.70068463298E+01  0.00000000000E+00 0. -1.
</event>
<event>
 7    1  0.1683291E-008  0.4614232E+02  0.7816164E-02  0.1320468E+00
        -11   -1    0    0    0    0  0.00000000000E+00  0.00000000000E+00  0.45593999997E+02  0.45594000000E+02  0.51100000000E-03 0. -1.
         11   -1    0    0    0    0 -0.00000000000E+00 -0.00000000000E+00 -0.45593999997E+02  0.45594000000E+02  0.51100000000E-03 0.  1.
    9900012    2    1    2    0    0  0.29874994245E+02  0.20169572488E+02  0.27014560342E+02  0.46142318676E+02  0.10000008341E+02 0.  0.
        -12    1    1    2    0    0 -0.29874994245E+02 -0.20169572488E+02 -0.27014560342E+02  0.45045681324E+02  0.00000000000E+00 0.  1.
         11    1    3    3    0    0  0.18320938386E+02  0.93780532772E+01  0.19022112629E+02  0.28025799467E+02  0.51100000000E-03 0. -1.
        -11    1    3    3    0    0  0.11953405138E+01 -0.13235713806E+00  0.53453612569E+00  0.13160875680E+01  0.51100000000E-03 0.  1.
         12    1    3    3    0    0  0.10358715346E+02  0.10923876349E+02  0.74579115870E+01  0.16800431641E+02  0.00000000000E+00 0. -1.
</event>
<event>
 7    1  0.1683291E-008  0.4614232E+02  0.7816164E-02  0.1320468E+00
        -11   -1    0    0    0    0  0.00000000000E+00  0.00000000000E+00  0.45593999997E+02  0.45594000000E+02  0.51100000000E-03 0. -1.
         11   -1    0    0    0    0 -0.00000000000E+00 -0.00000000000E+00 -0.45593999997E+02  0.45594000000E+02  0.51100000000E-03 0.  1.
    9900012    2    1    2    0    0 -0.11372614256E+02 -0.34643370069E+02  0.26450218987E+02  0.46142317308E+02  0.99999958719E+01 0.  0.
        -12    1    1    2    0    0  0.11372614256E+02  0.34643370069E+02 -0.26450218987E+02  0.45045682692E+02  0.00000000000E+00 0.  1.
         11    1    3    3    0    0 -0.73008183609E+01 -0.28248261172E+02  0.23161238798E+02  0.37251968954E+02  0.51100000000E-03 0. -1.
        -11    1    3    3    0    0 -0.24092812517E+01 -0.11227438402E+01  0.52409944221E+00  0.27092195126E+01  0.51100000000E-03 0.  1.
         12    1    3    3    0    0 -0.16625146429E+01 -0.52723650564E+01  0.27648807460E+01  0.61811288423E+01  0.00000000000E+00 0. -1.
</event>
<event>
 7    1  0.1683291E-008  0.4614232E+02  0.7816164E-02  0.1320468E+00
        -11   -1    0    0    0    0  0.00000000000E+00  0.00000000000E+00  0.45593999997E+02  0.45594000000E+02  0.51100000000E-03 0.  1.
         11   -1    0    0    0    0 -0.00000000000E+00 -0.00000000000E+00 -0.45593999997E+02  0.45594000000E+02  0.51100000000E-03 0. -1.
    9900012    2    1    2    0    0  0.31569641650E+02 -0.31634651912E+02 -0.56320485121E+01  0.46142318232E+02  0.10000004295E+02 0.  0.
        -12    1    1    2    0    0 -0.31569641650E+02  0.31634651912E+02  0.56320485121E+01  0.45045681768E+02  0.00000000000E+00 0.  1.
         11    1    3    3    0    0  0.61225001787E+00 -0.53190590765E+00 -0.11860215488E+01  0.14368094356E+01  0.51100000000E-03 0. -1.
        -11    1    3    3    0    0  0.45257457005E+01 -0.79302630688E+01  0.79735947637E+00  0.91655457493E+01  0.51100000000E-03 0.  1.
        -12    1    3    3    0    0  0.26431645931E+02 -0.23172482936E+02 -0.52433864396E+01  0.35539963047E+02  0.00000000000E+00 0.  1.
</event>
<event>
 7    1  0.1683291E-008  0.4614232E+02  0.7816164E-02  0.1320468E+00
        -11   -1    0    0    0    0  0.00000000000E+00  0.00000000000E+00  0.45593999997E+02  0.45594000000E+02  0.51100000000E-03 0.  1.
         11   -1    0    0    0    0 -0.00000000000E+00 -0.00000000000E+00 -0.45593999997E+02  0.45594000000E+02  0.51100000000E-03 0. -1.
    9900012    2    1    2    0    0 -0.32597256012E+02  0.15339413441E+02 -0.27041357555E+02  0.46142315160E+02  0.99999762853E+01 0.  0.
        -12    1    1    2    0    0  0.32597256012E+02 -0.15339413441E+02  0.27041357555E+02  0.45045684840E+02  0.00000000000E+00 0.  1.
         11    1    3    3    0    0 -0.92225159699E+01  0.52478959523E+01 -0.12077047853E+02  0.16076389453E+02  0.51100000000E-03 0. -1.
        -11    1    3    3    0    0 -0.12066535436E+02  0.54995708850E+01 -0.45437265042E+01  0.14017560706E+02  0.51100000000E-03 0.  1.
         12    1    3    3    0    0 -0.11308204607E+02  0.45919466040E+01 -0.10420583198E+02  0.16048365001E+02  0.00000000000E+00 0. -1.
</event>
<event>
 7    1  0.1683291E-008  0.4614232E+02  0.7816164E-02  0.1320468E+00
        -11   -1    0    0    0    0  0.00000000000E+00  0.00000000000E+00  0.45593999997E+02  0.45594000000E+02  0.51100000000E-03 0. -1.
         11   -1    0    0    0    0 -0.00000000000E+00 -0.00000000000E+00 -0.45593999997E+02  0.45594000000E+02  0.51100000000E-03 0.  1.
    9900012    2    1    2    0    0  0.34861014260E+02 -0.19066897225E+02 -0.21219721013E+02  0.46142318244E+02  0.10000004399E+02 0.  0.
        -12    1    1    2    0    0 -0.34861014260E+02  0.19066897225E+02  0.21219721013E+02  0.45045681756E+02  0.00000000000E+00 0.  1.
         11    1    3    3    0    0  0.18010310208E+02 -0.91010162229E+01 -0.55216680820E+01  0.20921008311E+02  0.51100000000E-03 0. -1.
        -11    1    3    3    0    0  0.11296734871E+02 -0.80192092369E+01 -0.11161691554E+02  0.17790651875E+02  0.51100000000E-03 0.  1.
         12    1    3    3    0    0  0.55539691811E+01 -0.19466717655E+01 -0.45363613766E+01  0.74306580574E+01  0.00000000000E+00 0. -1.
</event>
<event>
 7    1  0.1683291E-008  0.4614232E+02  0.7816164E-02  0.1320468E+00
        -11   -1    0    0    0    0  0.00000000000E+00  0.00000000000E+00  0.45593999997E+02  0.45594000000E+02  0.51100000000E-03 0.  1.
         11   -1    0    0    0    0 -0.00000000000E+00 -0.00000000000E+00 -0.45593999997E+02  0.45594000000E+02  0.51100000000E-03 0. -1.
    9900012    2    1    2    0    0 -0.11917998985E+02 -0.43377191480E+02 -0.23439454652E+01  0.46142317401E+02  0.99999967141E+01 0.  0.
        -12    1    1    2    0    0  0.11917998985E+02  0.43377191480E+02  0.23439454652E+01  0.45045682599E+02  0.00000000000E+00 0.  1.
         11    1    3    3    0    0 -0.22119574938E+01 -0.15563192061E+02 -0.43894086322E+01  0.16320925570E+02  0.51100000000E-03 0. -1.
        -11    1    3    3    0    0 -0.94262263725E+01 -0.22494361270E+02  0.22293741207E+01  0.24491225813E+02  0.51100000000E-03 0.  1.
        -12    1    3    3    0    0 -0.27981511882E+00 -0.53196381491E+01 -0.18391095370E+00  0.53301660177E+01  0.00000000000E+00 0.  1.
</event>
<event>
 7    1  0.1683291E-008  0.4614232E+02  0.7816164E-02  0.1320468E+00
        -11   -1    0    0    0    0  0.00000000000E+00  0.00000000000E+00  0.45593999997E+02  0.45594000000E+02  0.51100000000E-03 0.  1.
         11   -1    0    0    0    0 -0.00000000000E+00 -0.00000000000E+00 -0.45593999997E+02  0.45594000000E+02  0.51100000000E-03 0. -1.
    9900012    2    1    2    0    0  0.23419756542E+02 -0.29241564190E+02 -0.25011185199E+02  0.46142318100E+02  0.10000003095E+02 0.  0.
        -12    1    1    2    0    0 -0.23419756542E+02  0.29241564190E+02  0.25011185199E+02  0.45045681900E+02  0.00000000000E+00 0.  1.
         11    1    3    3    0    0  0.95250147236E+00 -0.45833055399E+01 -0.48294635539E+01  0.67258952717E+01  0.51100000000E-03 0. -1.
        -11    1    3    3    0    0  0.10417501683E+02 -0.72941803251E+01 -0.79129031797E+01  0.14978098842E+02  0.51100000000E-03 0.  1.
        -12    1    3    3    0    0  0.12049753386E+02 -0.17364078325E+02 -0.12268818465E+02  0.24438323986E+02  0.00000000000E+00 0.  1.
</event>
<event>
 7    1  0.1683291E-008  0.4614232E+02  0.7816164E-02  0.1320468E+00
        -11   -1    0    0    0    0  0.00000000000E+00  0.00000000000E+00  0.45593999997E+02  0.45594000000E+02  0.51100000000E-03 0.  1.
         11   -1    0    0    0    0 -0.00000000000E+00 -0.00000000000E+00 -0.45593999997E+02  0.45594000000E+02  0.51100000000E-03 0. -1.
    9900012    2    1    2    0    0 -0.19757332906E+02 -0.40023766462E+02  0.60711910274E+01  0.46142318233E+02  0.10000004299E+02 0.  0.
        -12    1    1    2    0    0  0.19757332906E+02  0.40023766462E+02 -0.60711910274E+01  0.45045681767E+02  0.00000000000E+00 0.  1.
         11    1    3    3    0    0 -0.72580096646E+00 -0.36705051138E+01  0.95513256020E+00  0.38615635826E+01  0.51100000000E-03 0. -1.
        -11    1    3    3    0    0 -0.30636078640E+01 -0.10987142398E+01  0.68263826043E+00  0.33254866382E+01  0.51100000000E-03 0.  1.
        -12    1    3    3    0    0 -0.15967924076E+02 -0.35254547109E+02  0.44334202068E+01  0.38955268012E+02  0.00000000000E+00 0.  1.
</event>
<event>
 7    1  0.1683291E-008  0.4614232E+02  0.7816164E-02  0.1320468E+00
        -11   -1    0    0    0    0  0.00000000000E+00  0.00000000000E+00  0.45593999997E+02  0.45594000000E+02  0.51100000000E-03 0.  1.
         11   -1    0    0    0    0 -0.00000000000E+00 -0.00000000000E+00 -0.45593999997E+02  0.45594000000E+02  0.51100000000E-03 0. -1.
    9900012    2    1    2    0    0  0.37303769135E+01 -0.39863874324E+02 -0.20641446522E+02  0.46142317604E+02  0.99999985656E+01 0.  0.
        -12    1    1    2    0    0 -0.37303769135E+01  0.39863874324E+02  0.20641446522E+02  0.45045682396E+02  0.00000000000E+00 0.  1.
         11    1    3    3    0    0 -0.13393941066E+01 -0.15872201496E+02 -0.58757544805E+01  0.16977786895E+02  0.51100000000E-03 0. -1.
        -11    1    3    3    0    0 -0.44249885927E+00 -0.36602916285E+01 -0.49407332507E+00  0.37198990252E+01  0.51100000000E-03 0.  1.
         12    1    3    3    0    0  0.55122698794E+01 -0.20331381200E+02 -0.14271618716E+02  0.25444631683E+02  0.00000000000E+00 0. -1.
</event>
<event>
 7    1  0.1683291E-008  0.4614232E+02  0.7816164E-02  0.1320468E+00
        -11   -1    0    0    0    0  0.00000000000E+00  0.00000000000E+00  0.45593999997E+02  0.45594000000E+02  0.51100000000E-03 0. -1.
         11   -1    0    0    0    0 -0.00000000000E+00 -0.00000000000E+00 -0.45593999997E+02  0.45594000000E+02  0.51100000000E-03 0.  1.
    9900012    2    1    2    0    0 -0.35409569304E+02  0.27370258541E+02  0.51132014191E+01  0.46142317858E+02  0.10000000883E+02 0.  0.
        -12    1    1    2    0    0  0.35409569304E+02 -0.27370258541E+02 -0.51132014191E+01  0.45045682142E+02  0.00000000000E+00 0.  1.
         11    1    3    3    0    0 -0.40788626005E+01  0.27922062394E+01  0.10028185983E+01  0.50437269157E+01  0.51100000000E-03 0. -1.
        -11    1    3    3    0    0 -0.82186557797E+00  0.29577641738E+01  0.19636837392E+01  0.36441577936E+01  0.51100000000E-03 0.  1.
        -12    1    3    3    0    0 -0.30508841126E+02  0.21620288127E+02  0.21466990816E+01  0.37454433149E+02  0.00000000000E+00 0.  1.
</event>
<event>
 7    1  0.1683291E-008  0.4614232E+02  0.7816164E-02  0.1320468E+00
        -11   -1    0    0    0    0  0.00000000000E+00  0.00000000000E+00  0.45593999997E+02  0.45594000000E+02  0.51100000000E-03 0.  1.
         11   -1    0    0    0    0 -0.00000000000E+00 -0.00000000000E+00 -0.45593999997E+02  0.45594000000E+02  0.51100000000E-03 0. -1.
    9900012    2    1    2    0    0 -0.27338545183E+02  0.19946126819E+02 -0.29729943290E+02  0.46142317012E+02  0.99999931725E+01 0.  0.
        -12    1    1    2    0    0  0.27338545183E+02 -0.19946126819E+02  0.29729943290E+02  0.45045682988E+02  0.00000000000E+00 0.  1.
         11    1    3    3    0    0 -0.15956464122E+02  0.13079921620E+02 -0.20546859414E+02  0.29118147759E+02  0.51100000000E-03 0. -1.
        -11    1    3    3    0    0 -0.70599432197E+01  0.11478060451E+01 -0.42058845396E+01  0.82975732600E+01  0.51100000000E-03 0.  1.
        -12    1    3    3    0    0 -0.43221378410E+01  0.57183991541E+01 -0.49771993361E+01  0.87265959935E+01  0.00000000000E+00 0.  1.
</event>
<event>
 7    1  0.1683291E-008  0.4614232E+02  0.7816164E-02  0.1320468E+00
        -11   -1    0    0    0    0  0.00000000000E+00  0.00000000000E+00  0.45593999997E+02  0.45594000000E+02  0.51100000000E-03 0.  1.
         11   -1    0    0    0    0 -0.00000000000E+00 -0.00000000000E+00 -0.45593999997E+02  0.45594000000E+02  0.51100000000E-03 0. -1.
    9900012    2    1    2    0    0  0.31161885500E+02 -0.26004639577E+02 -0.19539935049E+02  0.46142318196E+02  0.10000003968E+02 0.  0.
        -12    1    1    2    0    0 -0.31161885500E+02  0.26004639577E+02  0.19539935049E+02  0.45045681804E+02  0.00000000000E+00 0.  1.
         11    1    3    3    0    0  0.13509587778E+02 -0.13563053952E+02 -0.96940680512E+01  0.21457873848E+02  0.51100000000E-03 0. -1.
        -11    1    3    3    0    0  0.10091665602E+02 -0.51221859550E+01 -0.18483035108E+01  0.11467115143E+02  0.51100000000E-03 0.  1.
        -12    1    3    3    0    0  0.75606321201E+01 -0.73193996699E+01 -0.79975634874E+01  0.13217329205E+02  0.00000000000E+00 0.  1.
</event>
<event>
 7    1  0.1683291E-008  0.4614231E+02  0.7816164E-02  0.1320468E+00
        -11   -1    0    0    0    0  0.00000000000E+00  0.00000000000E+00  0.45593999997E+02  0.45594000000E+02  0.51100000000E-03 0.  1.
         11   -1    0    0    0    0 -0.00000000000E+00 -0.00000000000E+00 -0.45593999997E+02  0.45594000000E+02  0.51100000000E-03 0. -1.
    9900012    2    1    2    0    0  0.90808043256E+00 -0.13920930272E+02 -0.42831028252E+02  0.46142313293E+02  0.99999592606E+01 0.  0.
        -12    1    1    2    0    0 -0.90808043256E+00  0.13920930272E+02  0.42831028252E+02  0.45045686707E+02  0.00000000000E+00 0.  1.
         11    1    3    3    0    0  0.64624719023E+00 -0.83176358461E+01 -0.12193149479E+02  0.14774085284E+02  0.51100000000E-03 0. -1.
        -11    1    3    3    0    0 -0.21716216392E-01 -0.94359020038E+00 -0.15456644253E+02  0.15485434637E+02  0.51100000000E-03 0.  1.
         12    1    3    3    0    0  0.28354945872E+00 -0.46597042252E+01 -0.15181234520E+02  0.15882793373E+02  0.00000000000E+00 0. -1.
</event>
<event>
 7    1  0.1683291E-008  0.4614232E+02  0.7816164E-02  0.1320468E+00
        -11   -1    0    0    0    0  0.00000000000E+00  0.00000000000E+00  0.45593999997E+02  0.45594000000E+02  0.51100000000E-03 0. -1.
         11   -1    0    0    0    0 -0.00000000000E+00 -0.00000000000E+00 -0.45593999997E+02  0.45594000000E+02  0.51100000000E-03 0.  1.
    9900012    2    1    2    0    0  0.44155397490E+02 -0.55045501241E-01 -0.89113053993E+01  0.46142317394E+02  0.99999966524E+01 0.  0.
        -12    1    1    2    0    0 -0.44155397490E+02  0.55045501241E-01  0.89113053993E+01  0.45045682606E+02  0.00000000000E+00 0.  1.
         11    1    3    3    0    0  0.20010311576E+02  0.21210295964E+01 -0.23853250396E+01  0.20263294691E+02  0.51100000000E-03 0. -1.
        -11    1    3    3    0    0  0.48216227155E+01 -0.30309141591E+01 -0.12644852398E+01  0.58338160267E+01  0.51100000000E-03 0.  1.
         12    1    3    3    0    0  0.19323463198E+02  0.85483906143E+00 -0.52614951200E+01  0.20045206676E+02  0.00000000000E+00 0. -1.
</event>
<event>
 7    1  0.1683291E-008  0.4614233E+02  0.7816164E-02  0.1320468E+00
        -11   -1    0    0    0    0  0.00000000000E+00  0.00000000000E+00  0.45593999997E+02  0.45594000000E+02  0.51100000000E-03 0.  1.
         11   -1    0    0    0    0 -0.00000000000E+00 -0.00000000000E+00 -0.45593999997E+02  0.45594000000E+02  0.51100000000E-03 0. -1.
    9900012    2    1    2    0    0  0.79982684814E+01  0.43950572314E+02  0.57868552117E+01  0.46142325417E+02  0.10000069811E+02 0.  0.
        -12    1    1    2    0    0 -0.79982684814E+01 -0.43950572314E+02 -0.57868552117E+01  0.45045674583E+02  0.00000000000E+00 0.  1.
         11    1    3    3    0    0 -0.34601075507E+00  0.65422218795E-01  0.65217558100E+00  0.74117255677E+00  0.51100000000E-03 0. -1.
        -11    1    3    3    0    0  0.32621155229E+01  0.11082580812E+02 -0.11769144173E+01  0.11612498566E+02  0.51100000000E-03 0.  1.
         12    1    3    3    0    0  0.50821637136E+01  0.32802569283E+02  0.63115940480E+01  0.33788654294E+02  0.00000000000E+00 0. -1.
</event>
<event>
 7    1  0.1683291E-008  0.4614232E+02  0.7816164E-02  0.1320468E+00
        -11   -1    0    0    0    0  0.00000000000E+00  0.00000000000E+00  0.45593999997E+02  0.45594000000E+02  0.51100000000E-03 0.  1.
         11   -1    0    0    0    0 -0.00000000000E+00 -0.00000000000E+00 -0.45593999997E+02  0.45594000000E+02  0.51100000000E-03 0. -1.
    9900012    2    1    2    0    0  0.62858454283E+01  0.44082483557E+02 -0.68070725686E+01  0.46142318229E+02  0.10000004264E+02 0.  0.
        -12    1    1    2    0    0 -0.62858454283E+01 -0.44082483557E+02  0.68070725686E+01  0.45045681771E+02  0.00000000000E+00 0.  1.
         11    1    3    3    0    0 -0.10570418903E+01  0.72731959557E+01  0.77809887669E+00  0.73906802861E+01  0.51100000000E-03 0. -1.
        -11    1    3    3    0    0  0.40683660160E+01  0.79182186755E+01 -0.23610039589E+01  0.92100015737E+01  0.51100000000E-03 0.  1.
         12    1    3    3    0    0  0.32745213027E+01  0.28891068926E+02 -0.52241674864E+01  0.29541636369E+02  0.00000000000E+00 0. -1.
</event>
<event>
 7    1  0.1683291E-008  0.4614232E+02  0.7816164E-02  0.1320468E+00
        -11   -1    0    0    0    0  0.00000000000E+00  0.00000000000E+00  0.45593999997E+02  0.45594000000E+02  0.51100000000E-03 0.  1.
         11   -1    0    0    0    0 -0.00000000000E+00 -0.00000000000E+00 -0.45593999997E+02  0.45594000000E+02  0.51100000000E-03 0. -1.
    9900012    2    1    2    0    0 -0.12462356955E+02  0.33651171667E+02 -0.27228694193E+02  0.46142317822E+02  0.10000000554E+02 0.  0.
        -12    1    1    2    0    0  0.12462356955E+02 -0.33651171667E+02  0.27228694193E+02  0.45045682178E+02  0.00000000000E+00 0.  1.
         11    1    3    3    0    0 -0.30932163535E+01  0.10120166883E+02 -0.86399412858E+01  0.13661418332E+02  0.51100000000E-03 0. -1.
        -11    1    3    3    0    0  0.15270131298E+01  0.36210779155E+01 -0.30549622955E+01  0.49776268700E+01  0.51100000000E-03 0.  1.
        -12    1    3    3    0    0 -0.10896153732E+02  0.19909926868E+02 -0.15533790612E+02  0.27503272620E+02  0.00000000000E+00 0.  1.
</event>
<event>
 7    1  0.1683291E-008  0.4614232E+02  0.7816164E-02  0.1320468E+00
        -11   -1    0    0    0    0  0.00000000000E+00  0.00000000000E+00  0.45593999997E+02  0.45594000000E+02  0.51100000000E-03 0.  1.
         11   -1    0    0    0    0 -0.00000000000E+00 -0.00000000000E+00 -0.45593999997E+02  0.45594000000E+02  0.51100000000E-03 0. -1.
    9900012    2    1    2    0    0  0.21711833815E+02  0.12154887638E+02 -0.37549547117E+02  0.46142317523E+02  0.99999978325E+01 0.  0.
        -12    1    1    2    0    0 -0.21711833815E+02 -0.12154887638E+02  0.37549547117E+02  0.45045682477E+02  0.00000000000E+00 0.  1.
         11    1    3    3    0    0  0.12460419015E+02  0.82490196587E+01 -0.17897398260E+02  0.23315772174E+02  0.51100000000E-03 0. -1.
        -11    1    3    3    0    0  0.97556374360E+01  0.44090513438E+01 -0.19199472450E+02  0.21982537118E+02  0.51100000000E-03 0.  1.
         12    1    3    3    0    0 -0.50422263578E+00 -0.50318336408E+00 -0.45267640671E+00  0.84400823071E+00  0.00000000000E+00 0. -1.
</event>
<event>
 7    1  0.1683291E-008  0.4614232E+02  0.7816164E-02  0.1320468E+00
        -11   -1    0    0    0    0  0.00000000000E+00  0.00000000000E+00  0.45593999997E+02  0.45594000000E+02  0.51100000000E-03 0. -1.
         11   -1    0    0    0    0 -0.00000000000E+00 -0.00000000000E+00 -0.45593999997E+02  0.45594000000E+02  0.51100000000E-03 0.  1.
    9900012    2    1    2    0    0 -0.23647885515E+02 -0.32729711239E+02  0.19966396336E+02  0.46142317968E+02  0.10000001885E+02 0.  0.
        -12    1    1    2    0    0  0.23647885515E+02  0.32729711239E+02 -0.19966396336E+02  0.45045682032E+02  0.00000000000E+00 0.  1.
         11    1    3    3    0    0 -0.81455191731E+01 -0.17797786262E+02  0.75927721690E+01  0.20994305606E+02  0.51100000000E-03 0. -1.
        -11    1    3    3    0    0 -0.77635159751E+01 -0.60398857944E+01  0.75990855188E+01  0.12429742624E+02  0.51100000000E-03 0.  1.
         12    1    3    3    0    0 -0.77388503671E+01 -0.88920391826E+01  0.47745386479E+01  0.12718269738E+02  0.00000000000E+00 0. -1.
</event>
<event>
 7    1  0.1683291E-008  0.4614232E+02  0.7816164E-02  0.1320468E+00
        -11   -1    0    0    0    0  0.00000000000E+00  0.00000000000E+00  0.45593999997E+02  0.45594000000E+02  0.51100000000E-03 0.  1.
         11   -1    0    0    0    0 -0.00000000000E+00 -0.00000000000E+00 -0.45593999997E+02  0.45594000000E+02  0.51100000000E-03 0. -1.
    9900012    2    1    2    0    0 -0.14356481907E+02 -0.29724310545E+01 -0.42593069511E+02  0.46142317748E+02  0.99999998849E+01 0.  0.
        -12    1    1    2    0    0  0.14356481907E+02  0.29724310545E+01  0.42593069511E+02  0.45045682252E+02  0.00000000000E+00 0.  1.
         11    1    3    3    0    0 -0.49606223727E+00  0.42685287137E+00 -0.10644865118E+02  0.10664962951E+02  0.51100000000E-03 0.  1.
        -11    1    3    3    0    0 -0.11438980034E+02 -0.46957987870E+01 -0.22949066303E+02  0.26068379983E+02  0.51100000000E-03 0. -1.
         12    1    3    3    0    0 -0.24214396360E+01  0.12965148611E+01 -0.89991380902E+01  0.94089748146E+01  0.00000000000E+00 0. -1.
</event>
<event>
 7    1  0.1683291E-008  0.4614232E+02  0.7816164E-02  0.1320468E+00
        -11   -1    0    0    0    0  0.00000000000E+00  0.00000000000E+00  0.45593999997E+02  0.45594000000E+02  0.51100000000E-03 0.  1.
         11   -1    0    0    0    0 -0.00000000000E+00 -0.00000000000E+00 -0.45593999997E+02  0.45594000000E+02  0.51100000000E-03 0. -1.
    9900012    2    1    2    0    0  0.25955589278E+02  0.34797127083E+01 -0.36651228363E+02  0.46142317013E+02  0.99999931753E+01 0.  0.
        -12    1    1    2    0    0 -0.25955589278E+02 -0.34797127083E+01  0.36651228363E+02  0.45045682987E+02  0.00000000000E+00 0.  1.
         11    1    3    3    0    0  0.10396818606E+02  0.18719103110E+01 -0.12462792357E+02  0.16337658307E+02  0.51100000000E-03 0. -1.
        -11    1    3    3    0    0  0.38146432070E+01  0.25229068118E+01 -0.27320393079E+01  0.53273446124E+01  0.51100000000E-03 0.  1.
        -12    1    3    3    0    0  0.11744127464E+02 -0.91510441455E+00 -0.21456396698E+02  0.24477314094E+02  0.00000000000E+00 0.  1.
</event>
<event>
 7    1  0.1683291E-008  0.4614232E+02  0.7816164E-02  0.1320468E+00
        -11   -1    0    0    0    0  0.00000000000E+00  0.00000000000E+00  0.45593999997E+02  0.45594000000E+02  0.51100000000E-03 0.  1.
         11   -1    0    0    0    0 -0.00000000000E+00 -0.00000000000E+00 -0.45593999997E+02  0.45594000000E+02  0.51100000000E-03 0. -1.
    9900012    2    1    2    0    0  0.24231586472E+01 -0.30711451659E+02 -0.32864091018E+02  0.46142318306E+02  0.10000004966E+02 0.  0.
        -12    1    1    2    0    0 -0.24231586472E+01  0.30711451659E+02  0.32864091018E+02  0.45045681694E+02  0.00000000000E+00 0.  1.
         11    1    3    3    0    0 -0.13987487101E+01 -0.46023595906E+01 -0.21084402467E+01  0.52520217336E+01  0.51100000000E-03 0.  1.
        -11    1    3    3    0    0  0.29720286900E+01 -0.22616022438E+02 -0.28981150996E+02  0.36881222035E+02  0.51100000000E-03 0. -1.
         12    1    3    3    0    0  0.84987866725E+00 -0.34930696304E+01 -0.17744997752E+01  0.40090745370E+01  0.00000000000E+00 0. -1.
</event>
<event>
 7    1  0.1683291E-008  0.4614232E+02  0.7816164E-02  0.1320468E+00
        -11   -1    0    0    0    0  0.00000000000E+00  0.00000000000E+00  0.45593999997E+02  0.45594000000E+02  0.51100000000E-03 0.  1.
         11   -1    0    0    0    0 -0.00000000000E+00 -0.00000000000E+00 -0.45593999997E+02  0.45594000000E+02  0.51100000000E-03 0. -1.
    9900012    2    1    2    0    0 -0.29019224041E+02  0.18811582341E+02 -0.28863860747E+02  0.46142318172E+02  0.10000003747E+02 0.  0.
        -12    1    1    2    0    0  0.29019224041E+02 -0.18811582341E+02  0.28863860747E+02  0.45045681828E+02  0.00000000000E+00 0.  1.
         11    1    3    3    0    0 -0.11982336059E+02  0.11567081477E+02 -0.10344916213E+02  0.19605893069E+02  0.51100000000E-03 0. -1.
        -11    1    3    3    0    0 -0.15799305790E+02  0.63819582498E+01 -0.14974882509E+02  0.22684676788E+02  0.51100000000E-03 0.  1.
        -12    1    3    3    0    0 -0.12375821917E+01  0.86254261430E+00 -0.35440620250E+01  0.38517483147E+01  0.00000000000E+00 0.  1.
</event>
<event>
 7    1  0.1683291E-008  0.4614232E+02  0.7816164E-02  0.1320468E+00
        -11   -1    0    0    0    0  0.00000000000E+00  0.00000000000E+00  0.45593999997E+02  0.45594000000E+02  0.51100000000E-03 0. -1.
         11   -1    0    0    0    0 -0.00000000000E+00 -0.00000000000E+00 -0.45593999997E+02  0.45594000000E+02  0.51100000000E-03 0.  1.
    9900012    2    1    2    0    0  0.25743212086E+02  0.35879292835E+02  0.88925186004E+01  0.46142317522E+02  0.99999978241E+01 0.  0.
        -12    1    1    2    0    0 -0.25743212086E+02 -0.35879292835E+02 -0.88925186004E+01  0.45045682478E+02  0.00000000000E+00 0.  1.
         11    1    3    3    0    0  0.13429497725E+02  0.18283355423E+02  0.81266562511E+01  0.24097199770E+02  0.51100000000E-03 0. -1.
        -11    1    3    3    0    0  0.30893824518E+01  0.79887951627E+01 -0.94394625163E+00  0.86172018006E+01  0.51100000000E-03 0.  1.
        -12    1    3    3    0    0  0.92243319093E+01  0.96071422484E+01  0.17098086009E+01  0.13427915952E+02  0.00000000000E+00 0.  1.
</event>
<event>
 7    1  0.1683291E-008  0.4614232E+02  0.7816164E-02  0.1320468E+00
        -11   -1    0    0    0    0  0.00000000000E+00  0.00000000000E+00  0.45593999997E+02  0.45594000000E+02  0.51100000000E-03 0.  1.
         11   -1    0    0    0    0 -0.00000000000E+00 -0.00000000000E+00 -0.45593999997E+02  0.45594000000E+02  0.51100000000E-03 0. -1.
    9900012    2    1    2    0    0  0.12821157130E+02  0.11857278919E+02 -0.41522720588E+02  0.46142318092E+02  0.10000003017E+02 0.  0.
        -12    1    1    2    0    0 -0.12821157130E+02 -0.11857278919E+02  0.41522720588E+02  0.45045681908E+02  0.00000000000E+00 0.  1.
         11    1    3    3    0    0  0.54400005032E+01  0.90556840723E+01 -0.29173714632E+02  0.31027482095E+02  0.51100000000E-03 0. -1.
        -11    1    3    3    0    0  0.45746705910E+01  0.60516997289E+00 -0.42798262808E+01  0.62937075693E+01  0.51100000000E-03 0.  1.
         12    1    3    3    0    0  0.28064860358E+01  0.21964248734E+01 -0.80691796760E+01  0.88211284276E+01  0.00000000000E+00 0. -1.
</event>
<event>
 7    1  0.1683291E-008  0.4614232E+02  0.7816164E-02  0.1320468E+00
        -11   -1    0    0    0    0  0.00000000000E+00  0.00000000000E+00  0.45593999997E+02  0.45594000000E+02  0.51100000000E-03 0.  1.
         11   -1    0    0    0    0 -0.00000000000E+00 -0.00000000000E+00 -0.45593999997E+02  0.45594000000E+02  0.51100000000E-03 0. -1.
    9900012    2    1    2    0    0  0.31233284807E+02 -0.14948532955E+02 -0.28812093807E+02  0.46142318000E+02  0.10000002174E+02 0.  0.
        -12    1    1    2    0    0 -0.31233284807E+02  0.14948532955E+02  0.28812093807E+02  0.45045682000E+02  0.00000000000E+00 0.  1.
         11    1    3    3    0    0  0.10725989525E+02 -0.87303116311E+01 -0.15623937945E+02  0.20865584814E+02  0.51100000000E-03 0. -1.
        -11    1    3    3    0    0  0.12295316462E+02 -0.29322932499E+01 -0.66905145729E+01  0.14301613060E+02  0.51100000000E-03 0.  1.
        -12    1    3    3    0    0  0.82119788199E+01 -0.32859280743E+01 -0.64976412889E+01  0.10975120125E+02  0.00000000000E+00 0.  1.
</event>
<event>
 7    1  0.1683291E-008  0.4614232E+02  0.7816164E-02  0.1320468E+00
        -11   -1    0    0    0    0  0.00000000000E+00  0.00000000000E+00  0.45593999997E+02  0.45594000000E+02  0.51100000000E-03 0.  1.
         11   -1    0    0    0    0 -0.00000000000E+00 -0.00000000000E+00 -0.45593999997E+02  0.45594000000E+02  0.51100000000E-03 0. -1.
    9900012    2    1    2    0    0 -0.29182235716E+02  0.41862711618E+01 -0.34058562611E+02  0.46142318356E+02  0.10000005428E+02 0.  0.
        -12    1    1    2    0    0  0.29182235716E+02 -0.41862711618E+01  0.34058562611E+02  0.45045681644E+02  0.00000000000E+00 0.  1.
         11    1    3    3    0    0 -0.65566853881E+01  0.87470076769E+00 -0.57355194066E+01  0.87550789737E+01  0.51100000000E-03 0. -1.
        -11    1    3    3    0    0 -0.10986594432E+02  0.33097078833E+01 -0.80697231126E+01  0.14027824309E+02  0.51100000000E-03 0.  1.
        -12    1    3    3    0    0 -0.11638955896E+02  0.18625107947E-02 -0.20253320092E+02  0.23359415073E+02  0.00000000000E+00 0.  1.
</event>
<event>
 7    1  0.1683291E-008  0.4614232E+02  0.7816164E-02  0.1320468E+00
        -11   -1    0    0    0    0  0.00000000000E+00  0.00000000000E+00  0.45593999997E+02  0.45594000000E+02  0.51100000000E-03 0.  1.
         11   -1    0    0    0    0 -0.00000000000E+00 -0.00000000000E+00 -0.45593999997E+02  0.45594000000E+02  0.51100000000E-03 0. -1.
    9900012    2    1    2    0    0  0.23120226350E+02  0.14312310094E+02 -0.35912761319E+02  0.46142317496E+02  0.99999975792E+01 0.  0.
        -12    1    1    2    0    0 -0.23120226350E+02 -0.14312310094E+02  0.35912761319E+02  0.45045682504E+02  0.00000000000E+00 0.  1.
         11    1    3    3    0    0  0.14712288730E+01  0.21145044838E+01 -0.47631026603E+01  0.54150522456E+01  0.51100000000E-03 0. -1.
        -11    1    3    3    0    0  0.51722742264E+01 -0.81955460681E+00 -0.64357046743E+01  0.82971311513E+01  0.51100000000E-03 0.  1.
        -12    1    3    3    0    0  0.16476723250E+02  0.13017360217E+02 -0.24713953985E+02  0.32430134099E+02  0.00000000000E+00 0.  1.
</event>
<event>
 7    1  0.1683291E-008  0.4614232E+02  0.7816164E-02  0.1320468E+00
        -11   -1    0    0    0    0  0.00000000000E+00  0.00000000000E+00  0.45593999997E+02  0.45594000000E+02  0.51100000000E-03 0.  1.
         11   -1    0    0    0    0 -0.00000000000E+00 -0.00000000000E+00 -0.45593999997E+02  0.45594000000E+02  0.51100000000E-03 0. -1.
    9900012    2    1    2    0    0  0.13392532535E+02 -0.23677656163E+02 -0.35904346036E+02  0.46142318816E+02  0.10000009623E+02 0.  0.
        -12    1    1    2    0    0 -0.13392532535E+02  0.23677656163E+02  0.35904346036E+02  0.45045681184E+02  0.00000000000E+00 0.  1.
         11    1    3    3    0    0  0.80486034767E+00 -0.29239495977E+01 -0.47334223264E+01  0.56216161920E+01  0.51100000000E-03 0. -1.
        -11    1    3    3    0    0  0.12037880629E+02 -0.21654979582E+02 -0.29287048114E+02  0.38361176966E+02  0.51100000000E-03 0.  1.
        -12    1    3    3    0    0  0.54979155810E+00  0.90127301752E+00 -0.18838755957E+01  0.21595256585E+01  0.00000000000E+00 0.  1.
</event>
<event>
 7    1  0.1683291E-008  0.4614232E+02  0.7816164E-02  0.1320468E+00
        -11   -1    0    0    0    0  0.00000000000E+00  0.00000000000E+00  0.45593999997E+02  0.45594000000E+02  0.51100000000E-03 0. -1.
         11   -1    0    0    0    0 -0.00000000000E+00 -0.00000000000E+00 -0.45593999997E+02  0.45594000000E+02  0.51100000000E-03 0.  1.
    9900012    2    1    2    0    0  0.13396971709E+01  0.44835203319E+02 -0.41380217560E+01  0.46142317973E+02  0.10000001934E+02 0.  0.
        -12    1    1    2    0    0 -0.13396971709E+01 -0.44835203319E+02  0.41380217560E+01  0.45045682027E+02  0.00000000000E+00 0.  1.
         11    1    3    3    0    0  0.13598168334E+01  0.43395671087E+02 -0.35370339160E+01  0.43560807844E+02  0.51100000000E-03 0. -1.
        -11    1    3    3    0    0  0.28086464470E+00  0.16990716496E+01 -0.10219925014E+01  0.20025479652E+01  0.51100000000E-03 0.  1.
         12    1    3    3    0    0 -0.30098430727E+00 -0.25953941664E+00  0.42100466141E+00  0.57896216366E+00  0.00000000000E+00 0. -1.
</event>
<event>
 7    1  0.1683291E-008  0.4614232E+02  0.7816164E-02  0.1320468E+00
        -11   -1    0    0    0    0  0.00000000000E+00  0.00000000000E+00  0.45593999997E+02  0.45594000000E+02  0.51100000000E-03 0. -1.
         11   -1    0    0    0    0 -0.00000000000E+00 -0.00000000000E+00 -0.45593999997E+02  0.45594000000E+02  0.51100000000E-03 0.  1.
    9900012    2    1    2    0    0  0.39631164941E+02  0.20915507268E+02  0.45853966776E+01  0.46142317170E+02  0.99999946138E+01 0.  0.
        -12    1    1    2    0    0 -0.39631164941E+02 -0.20915507268E+02 -0.45853966776E+01  0.45045682830E+02  0.00000000000E+00 0.  1.
         11    1    3    3    0    0  0.17771188966E+02  0.52631731621E+01  0.37527643401E+01  0.18910298502E+02  0.51100000000E-03 0. -1.
        -11    1    3    3    0    0  0.28046587015E+01  0.10799113528E+01  0.12112136170E+01  0.32402712308E+01  0.51100000000E-03 0.  1.
         12    1    3    3    0    0  0.19055317274E+02  0.14572422753E+02 -0.37858127957E+00  0.23991747437E+02  0.00000000000E+00 0. -1.
</event>
<event>
 7    1  0.1683291E-008  0.4614232E+02  0.7816164E-02  0.1320468E+00
        -11   -1    0    0    0    0  0.00000000000E+00  0.00000000000E+00  0.45593999997E+02  0.45594000000E+02  0.51100000000E-03 0.  1.
         11   -1    0    0    0    0 -0.00000000000E+00 -0.00000000000E+00 -0.45593999997E+02  0.45594000000E+02  0.51100000000E-03 0. -1.
    9900012    2    1    2    0    0  0.25024444012E+02 -0.21465954777E+02 -0.30693704246E+02  0.46142317711E+02  0.99999995427E+01 0.  0.
        -12    1    1    2    0    0 -0.25024444012E+02  0.21465954777E+02  0.30693704246E+02  0.45045682289E+02  0.00000000000E+00 0.  1.
         11    1    3    3    0    0  0.83658123387E+01 -0.81806235329E+01 -0.79853733586E+01  0.14166001744E+02  0.51100000000E-03 0. -1.
        -11    1    3    3    0    0  0.11753459546E+02 -0.49463963946E+01 -0.11516678872E+02  0.17182681429E+02  0.51100000000E-03 0.  1.
        -12    1    3    3    0    0  0.49051721270E+01 -0.83389348491E+01 -0.11191652015E+02  0.14793634538E+02  0.00000000000E+00 0.  1.
</event>
<event>
 7    1  0.1683291E-008  0.4614232E+02  0.7816164E-02  0.1320468E+00
        -11   -1    0    0    0    0  0.00000000000E+00  0.00000000000E+00  0.45593999997E+02  0.45594000000E+02  0.51100000000E-03 0. -1.
         11   -1    0    0    0    0 -0.00000000000E+00 -0.00000000000E+00 -0.45593999997E+02  0.45594000000E+02  0.51100000000E-03 0.  1.
    9900012    2    1    2    0    0 -0.42260188628E+02 -0.53718948879E+01  0.14640107585E+02  0.46142317103E+02  0.99999940002E+01 0.  0.
        -12    1    1    2    0    0  0.42260188628E+02  0.53718948879E+01 -0.14640107585E+02  0.45045682897E+02  0.00000000000E+00 0.  1.
         11    1    3    3    0    0 -0.17876600832E+02 -0.35421174291E+01  0.94909708987E+01  0.20547456827E+02  0.51100000000E-03 0. -1.
        -11    1    3    3    0    0 -0.16490900278E+02  0.11486272075E+01  0.22963299678E+01  0.16689585615E+02  0.51100000000E-03 0.  1.
        -12    1    3    3    0    0 -0.78926875185E+01 -0.29784046662E+01  0.28528067180E+01  0.89052746611E+01  0.00000000000E+00 0.  1.
</event>
<event>
 7    1  0.1683291E-008  0.4614232E+02  0.7816164E-02  0.1320468E+00
        -11   -1    0    0    0    0  0.00000000000E+00  0.00000000000E+00  0.45593999997E+02  0.45594000000E+02  0.51100000000E-03 0.  1.
         11   -1    0    0    0    0 -0.00000000000E+00 -0.00000000000E+00 -0.45593999997E+02  0.45594000000E+02  0.51100000000E-03 0. -1.
    9900012    2    1    2    0    0 -0.26585207530E+02  0.34867708078E+02 -0.10323922588E+02  0.46142315371E+02  0.99999782085E+01 0.  0.
        -12    1    1    2    0    0  0.26585207530E+02 -0.34867708078E+02  0.10323922588E+02  0.45045684629E+02  0.00000000000E+00 0.  1.
         11    1    3    3    0    0 -0.75592431321E+01  0.73331687757E+01 -0.57385209675E+01  0.11993671005E+02  0.51100000000E-03 0. -1.
        -11    1    3    3    0    0 -0.70404396938E+01  0.12033097138E+02  0.33605335495E+00  0.13945470589E+02  0.51100000000E-03 0.  1.
        -12    1    3    3    0    0 -0.11985524705E+02  0.15501442164E+02 -0.49214549758E+01  0.20203173778E+02  0.00000000000E+00 0.  1.
</event>
<event>
 7    1  0.1683291E-008  0.4614232E+02  0.7816164E-02  0.1320468E+00
        -11   -1    0    0    0    0  0.00000000000E+00  0.00000000000E+00  0.45593999997E+02  0.45594000000E+02  0.51100000000E-03 0.  1.
         11   -1    0    0    0    0 -0.00000000000E+00 -0.00000000000E+00 -0.45593999997E+02  0.45594000000E+02  0.51100000000E-03 0. -1.
    9900012    2    1    2    0    0 -0.33179278069E+02  0.14651539243E+02 -0.26712943724E+02  0.46142318101E+02  0.10000003100E+02 0.  0.
        -12    1    1    2    0    0  0.33179278069E+02 -0.14651539243E+02  0.26712943724E+02  0.45045681899E+02  0.00000000000E+00 0.  1.
         11    1    3    3    0    0 -0.27133360005E+02  0.12707088047E+02 -0.22258620616E+02  0.37324730458E+02  0.51100000000E-03 0. -1.
        -11    1    3    3    0    0 -0.37881168424E+01 -0.49690497844E+00 -0.85072267816E+00  0.39141375941E+01  0.51100000000E-03 0.  1.
        -12    1    3    3    0    0 -0.22578012214E+01  0.24413561738E+01 -0.36036004299E+01  0.49034500488E+01  0.00000000000E+00 0.  1.
</event>
<event>
 7    1  0.1683291E-008  0.4614232E+02  0.7816164E-02  0.1320468E+00
        -11   -1    0    0    0    0  0.00000000000E+00  0.00000000000E+00  0.45593999997E+02  0.45594000000E+02  0.51100000000E-03 0.  1.
         11   -1    0    0    0    0 -0.00000000000E+00 -0.00000000000E+00 -0.45593999997E+02  0.45594000000E+02  0.51100000000E-03 0. -1.
    9900012    2    1    2    0    0  0.59239882373E+01 -0.42722101976E+02 -0.12993916404E+02  0.46142317661E+02  0.99999990858E+01 0.  0.
        -12    1    1    2    0    0 -0.59239882373E+01  0.42722101976E+02  0.12993916404E+02  0.45045682339E+02  0.00000000000E+00 0.  1.
         11    1    3    3    0    0  0.44772084548E+01 -0.26982727290E+02 -0.48682100211E+01  0.27781512497E+02  0.51100000000E-03 0. -1.
        -11    1    3    3    0    0  0.13020926458E+01 -0.24345643531E+01 -0.30654097969E+01  0.41254437739E+01  0.51100000000E-03 0.  1.
        -12    1    3    3    0    0  0.14468713670E+00 -0.13304810333E+02 -0.50602965856E+01  0.14235361390E+02  0.00000000000E+00 0.  1.
</event>
<event>
 7    1  0.1683291E-008  0.4614232E+02  0.7816164E-02  0.1320468E+00
        -11   -1    0    0    0    0  0.00000000000E+00  0.00000000000E+00  0.45593999997E+02  0.45594000000E+02  0.51100000000E-03 0.  1.
         11   -1    0    0    0    0 -0.00000000000E+00 -0.00000000000E+00 -0.45593999997E+02  0.45594000000E+02  0.51100000000E-03 0. -1.
    9900012    2    1    2    0    0  0.19277029321E+02  0.31855707348E+02 -0.25351994117E+02  0.46142317013E+02  0.99999931803E+01 0.  0.
        -12    1    1    2    0    0 -0.19277029321E+02 -0.31855707348E+02  0.25351994117E+02  0.45045682987E+02  0.00000000000E+00 0.  1.
         11    1    3    3    0    0  0.79630063840E+01  0.12198483827E+02 -0.15915752016E+02  0.21575996868E+02  0.51100000000E-03 0. -1.
        -11    1    3    3    0    0  0.88420707174E+01  0.15537629187E+02 -0.74577726193E+01  0.19370557763E+02  0.51100000000E-03 0.  1.
         12    1    3    3    0    0  0.24719522192E+01  0.41195943340E+01 -0.19784694810E+01  0.51957623828E+01  0.00000000000E+00 0. -1.
</event>
<event>
 7    1  0.1683291E-008  0.4614232E+02  0.7816164E-02  0.1320468E+00
        -11   -1    0    0    0    0  0.00000000000E+00  0.00000000000E+00  0.45593999997E+02  0.45594000000E+02  0.51100000000E-03 0. -1.
         11   -1    0    0    0    0 -0.00000000000E+00 -0.00000000000E+00 -0.45593999997E+02  0.45594000000E+02  0.51100000000E-03 0.  1.
    9900012    2    1    2    0    0 -0.34623964017E+02  0.22180748282E+02  0.18393178156E+02  0.46142317840E+02  0.10000000717E+02 0.  0.
        -12    1    1    2    0    0  0.34623964017E+02 -0.22180748282E+02 -0.18393178156E+02  0.45045682160E+02  0.00000000000E+00 0.  1.
         11    1    3    3    0    0 -0.33783125959E+02  0.21796404400E+02  0.16521582002E+02  0.43466602311E+02  0.51100000000E-03 0. -1.
        -11    1    3    3    0    0 -0.89572306447E+00 -0.35422696835E+00  0.16360725852E+01  0.18985600645E+01  0.51100000000E-03 0.  1.
         12    1    3    3    0    0  0.54885006235E-01  0.73857084991E+00  0.23552356846E+00  0.77715546421E+00  0.00000000000E+00 0. -1.
</event>
<event>
 7    1  0.1683291E-008  0.4614232E+02  0.7816164E-02  0.1320468E+00
        -11   -1    0    0    0    0  0.00000000000E+00  0.00000000000E+00  0.45593999997E+02  0.45594000000E+02  0.51100000000E-03 0.  1.
         11   -1    0    0    0    0 -0.00000000000E+00 -0.00000000000E+00 -0.45593999997E+02  0.45594000000E+02  0.51100000000E-03 0. -1.
    9900012    2    1    2    0    0 -0.18906926592E+02 -0.33884627772E+02 -0.22879548805E+02  0.46142316235E+02  0.99999860813E+01 0.  0.
        -12    1    1    2    0    0  0.18906926592E+02  0.33884627772E+02  0.22879548805E+02  0.45045683765E+02  0.00000000000E+00 0.  1.
         11    1    3    3    0    0 -0.99138834121E+01 -0.20287359352E+02 -0.13493698558E+02  0.26304789200E+02  0.51100000000E-03 0. -1.
        -11    1    3    3    0    0 -0.99812460343E+01 -0.12575347114E+02 -0.86127300444E+01  0.18219323437E+02  0.51100000000E-03 0.  1.
         12    1    3    3    0    0  0.98820285481E+00 -0.10219213054E+01 -0.77312020211E+00  0.16182035977E+01  0.00000000000E+00 0. -1.
</event>
<event>
 7    1  0.1683291E-008  0.4614232E+02  0.7816164E-02  0.1320468E+00
        -11   -1    0    0    0    0  0.00000000000E+00  0.00000000000E+00  0.45593999997E+02  0.45594000000E+02  0.51100000000E-03 0. -1.
         11   -1    0    0    0    0 -0.00000000000E+00 -0.00000000000E+00 -0.45593999997E+02  0.45594000000E+02  0.51100000000E-03 0.  1.
    9900012    2    1    2    0    0  0.27554205897E+02 -0.35521389275E+02 -0.28478264712E+01  0.46142317918E+02  0.10000001432E+02 0.  0.
        -12    1    1    2    0    0 -0.27554205897E+02  0.35521389275E+02  0.28478264712E+01  0.45045682082E+02  0.00000000000E+00 0.  1.
         11    1    3    3    0    0  0.40939737401E+01 -0.21925423986E+01 -0.14273310919E+01  0.48585118567E+01  0.51100000000E-03 0.  1.
        -11    1    3    3    0    0  0.23792893826E+02 -0.33164426498E+02 -0.16459581158E+01  0.40849604159E+02  0.51100000000E-03 0. -1.
         12    1    3    3    0    0 -0.33266166914E+00 -0.16442037833E+00  0.22546273650E+00  0.43420190289E+00  0.00000000000E+00 0. -1.
</event>
<event>
 7    1  0.1683291E-008  0.4614231E+02  0.7816164E-02  0.1320468E+00
        -11   -1    0    0    0    0  0.00000000000E+00  0.00000000000E+00  0.45593999997E+02  0.45594000000E+02  0.51100000000E-03 0.  1.
         11   -1    0    0    0    0 -0.00000000000E+00 -0.00000000000E+00 -0.45593999997E+02  0.45594000000E+02  0.51100000000E-03 0. -1.
    9900012    2    1    2    0    0 -0.34730438409E+02  0.15609192680E+02 -0.24067894847E+02  0.46142314185E+02  0.99999673895E+01 0.  0.
        -12    1    1    2    0    0  0.34730438409E+02 -0.15609192680E+02  0.24067894847E+02  0.45045685815E+02  0.00000000000E+00 0.  1.
         11    1    3    3    0    0 -0.13472438747E+02  0.45823218031E+01 -0.68187523372E+01  0.15779723147E+02  0.51100000000E-03 0. -1.
        -11    1    3    3    0    0 -0.46072004239E+00  0.10977306738E+01 -0.30977068797E+01  0.33185936424E+01  0.51100000000E-03 0.  1.
        -12    1    3    3    0    0 -0.20797279620E+02  0.99291402030E+01 -0.14151435630E+02  0.27043997396E+02  0.00000000000E+00 0.  1.
</event>
<event>
 7    1  0.1683291E-008  0.4614232E+02  0.7816164E-02  0.1320468E+00
        -11   -1    0    0    0    0  0.00000000000E+00  0.00000000000E+00  0.45593999997E+02  0.45594000000E+02  0.51100000000E-03 0.  1.
         11   -1    0    0    0    0 -0.00000000000E+00 -0.00000000000E+00 -0.45593999997E+02  0.45594000000E+02  0.51100000000E-03 0. -1.
    9900012    2    1    2    0    0  0.27486904706E+01  0.43763043328E+02  0.10312819512E+02  0.46142317555E+02  0.99999981239E+01 0.  0.
        -12    1    1    2    0    0 -0.27486904706E+01 -0.43763043328E+02 -0.10312819512E+02  0.45045682445E+02  0.00000000000E+00 0.  1.
         11    1    3    3    0    0  0.36214903474E+01  0.17372877141E+02  0.19111128021E+01  0.17848932879E+02  0.51100000000E-03 0. -1.
        -11    1    3    3    0    0 -0.26864703228E+01  0.19618812882E+02  0.46417850542E+01  0.20338660488E+02  0.51100000000E-03 0.  1.
        -12    1    3    3    0    0  0.18136704460E+01  0.67713533044E+01  0.37599216559E+01  0.79547241887E+01  0.00000000000E+00 0.  1.
</event>
<event>
 7    1  0.1683291E-008  0.4614232E+02  0.7816164E-02  0.1320468E+00
        -11   -1    0    0    0    0  0.00000000000E+00  0.00000000000E+00  0.45593999997E+02  0.45594000000E+02  0.51100000000E-03 0. -1.
         11   -1    0    0    0    0 -0.00000000000E+00 -0.00000000000E+00 -0.45593999997E+02  0.45594000000E+02  0.51100000000E-03 0.  1.
    9900012    2    1    2    0    0  0.10401436571E+02 -0.18416231832E+02  0.39771423435E+02  0.46142316525E+02  0.99999887320E+01 0.  0.
        -12    1    1    2    0    0 -0.10401436571E+02  0.18416231832E+02 -0.39771423435E+02  0.45045683475E+02  0.00000000000E+00 0.  1.
         11    1    3    3    0    0  0.32088939580E+01 -0.42696608917E+01  0.10289725608E+02  0.11593336789E+02  0.51100000000E-03 0. -1.
        -11    1    3    3    0    0  0.83863091549E+00 -0.47903494061E+01  0.29022457881E+01  0.56633717979E+01  0.51100000000E-03 0.  1.
        -12    1    3    3    0    0  0.63539116973E+01 -0.93562215342E+01  0.26579452039E+02  0.28885607938E+02  0.00000000000E+00 0.  1.
</event>
<event>
 7    1  0.1683291E-008  0.4614232E+02  0.7816164E-02  0.1320468E+00
        -11   -1    0    0    0    0  0.00000000000E+00  0.00000000000E+00  0.45593999997E+02  0.45594000000E+02  0.51100000000E-03 0.  1.
         11   -1    0    0    0    0 -0.00000000000E+00 -0.00000000000E+00 -0.45593999997E+02  0.45594000000E+02  0.51100000000E-03 0. -1.
    9900012    2    1    2    0    0 -0.42205312297E+02  0.44128343714E+00 -0.15736273940E+02  0.46142318357E+02  0.10000005435E+02 0.  0.
        -12    1    1    2    0    0  0.42205312297E+02 -0.44128343714E+00  0.15736273940E+02  0.45045681643E+02  0.00000000000E+00 0.  1.
         11    1    3    3    0    0 -0.12857923395E+02  0.20799408952E+00 -0.67090022784E+01  0.14504487837E+02  0.51100000000E-03 0. -1.
        -11    1    3    3    0    0 -0.26709833147E+01 -0.99728023740E+00 -0.32350638242E+01  0.43121175711E+01  0.51100000000E-03 0.  1.
        -12    1    3    3    0    0 -0.26676405587E+02  0.12305695850E+01 -0.57922078374E+01  0.27325712949E+02  0.00000000000E+00 0.  1.
</event>
<event>
 7    1  0.1683291E-008  0.4614232E+02  0.7816164E-02  0.1320468E+00
        -11   -1    0    0    0    0  0.00000000000E+00  0.00000000000E+00  0.45593999997E+02  0.45594000000E+02  0.51100000000E-03 0. -1.
         11   -1    0    0    0    0 -0.00000000000E+00 -0.00000000000E+00 -0.45593999997E+02  0.45594000000E+02  0.51100000000E-03 0.  1.
    9900012    2    1    2    0    0 -0.12575469501E+02  0.30079229701E+02  0.31083936193E+02  0.46142316724E+02  0.99999905398E+01 0.  0.
        -12    1    1    2    0    0  0.12575469501E+02 -0.30079229701E+02 -0.31083936193E+02  0.45045683276E+02  0.00000000000E+00 0.  1.
         11    1    3    3    0    0 -0.86827823838E+01  0.22773697522E+02  0.17865740842E+02  0.30219475588E+02  0.51100000000E-03 0. -1.
        -11    1    3    3    0    0 -0.15031069594E+01  0.56788782810E+01  0.99932269061E+01  0.11591961582E+02  0.51100000000E-03 0.  1.
         12    1    3    3    0    0 -0.23895801577E+01  0.16266538985E+01  0.32249684449E+01  0.43308795534E+01  0.00000000000E+00 0. -1.
</event>
<event>
 7    1  0.1683291E-008  0.4614232E+02  0.7816164E-02  0.1320468E+00
        -11   -1    0    0    0    0  0.00000000000E+00  0.00000000000E+00  0.45593999997E+02  0.45594000000E+02  0.51100000000E-03 0.  1.
         11   -1    0    0    0    0 -0.00000000000E+00 -0.00000000000E+00 -0.45593999997E+02  0.45594000000E+02  0.51100000000E-03 0. -1.
    9900012    2    1    2    0    0  0.14803600958E+02 -0.33781642703E+02 -0.25860541182E+02  0.46142316797E+02  0.99999912059E+01 0.  0.
        -12    1    1    2    0    0 -0.14803600958E+02  0.33781642703E+02  0.25860541182E+02  0.45045683203E+02  0.00000000000E+00 0.  1.
         11    1    3    3    0    0  0.10422452415E+02 -0.15084287255E+02 -0.13626910466E+02  0.22844166114E+02  0.51100000000E-03 0. -1.
        -11    1    3    3    0    0  0.12273619212E+00  0.29460641677E+00 -0.42876249472E+00  0.53450411753E+00  0.51100000000E-03 0.  1.
        -12    1    3    3    0    0  0.42584123506E+01 -0.18991961865E+02 -0.11804868221E+02  0.22763646565E+02  0.00000000000E+00 0.  1.
</event>
<event>
 7    1  0.1683291E-008  0.4614232E+02  0.7816164E-02  0.1320468E+00
        -11   -1    0    0    0    0  0.00000000000E+00  0.00000000000E+00  0.45593999997E+02  0.45594000000E+02  0.51100000000E-03 0.  1.
         11   -1    0    0    0    0 -0.00000000000E+00 -0.00000000000E+00 -0.45593999997E+02  0.45594000000E+02  0.51100000000E-03 0. -1.
    9900012    2    1    2    0    0 -0.63629718855E+01 -0.39088757644E+02  0.21463810376E+02  0.46142317174E+02  0.99999946505E+01 0.  0.
        -12    1    1    2    0    0  0.63629718855E+01  0.39088757644E+02 -0.21463810376E+02  0.45045682826E+02  0.00000000000E+00 0.  1.
         11    1    3    3    0    0 -0.11523422733E+01 -0.11278446207E+01  0.28030401125E+01  0.32337223654E+01  0.51100000000E-03 0. -1.
        -11    1    3    3    0    0  0.63938969706E+00 -0.51819942275E+01  0.14099406089E+01  0.54083099153E+01  0.51100000000E-03 0.  1.
         12    1    3    3    0    0 -0.58500193093E+01 -0.32778918796E+02  0.17250829655E+02  0.37500284894E+02  0.00000000000E+00 0. -1.
</event>
<event>
 7    1  0.1683291E-008  0.4614232E+02  0.7816164E-02  0.1320468E+00
        -11   -1    0    0    0    0  0.00000000000E+00  0.00000000000E+00  0.45593999997E+02  0.45594000000E+02  0.51100000000E-03 0.  1.
         11   -1    0    0    0    0 -0.00000000000E+00 -0.00000000000E+00 -0.45593999997E+02  0.45594000000E+02  0.51100000000E-03 0. -1.
    9900012    2    1    2    0    0  0.24994267824E+02  0.37464870376E+02  0.88519015638E+00  0.46142317655E+02  0.99999990286E+01 0.  0.
        -12    1    1    2    0    0 -0.24994267824E+02 -0.37464870376E+02 -0.88519015638E+00  0.45045682345E+02  0.00000000000E+00 0.  1.
         11    1    3    3    0    0  0.20346119040E+02  0.31987558864E+02  0.20693499012E+01  0.37966441647E+02  0.51100000000E-03 0. -1.
        -11    1    3    3    0    0  0.44920742666E+01  0.42069147780E+01 -0.22062382948E+01  0.65379163990E+01  0.51100000000E-03 0.  1.
        -12    1    3    3    0    0  0.15607451749E+00  0.12703967338E+01  0.10220785499E+01  0.16379596083E+01  0.00000000000E+00 0.  1.
</event>
<event>
 7    1  0.1683291E-008  0.4614232E+02  0.7816164E-02  0.1320468E+00
        -11   -1    0    0    0    0  0.00000000000E+00  0.00000000000E+00  0.45593999997E+02  0.45594000000E+02  0.51100000000E-03 0.  1.
         11   -1    0    0    0    0 -0.00000000000E+00 -0.00000000000E+00 -0.45593999997E+02  0.45594000000E+02  0.51100000000E-03 0. -1.
    9900012    2    1    2    0    0  0.37221051938E+02  0.16692095640E+02 -0.19107085257E+02  0.46142317951E+02  0.10000001731E+02 0.  0.
        -12    1    1    2    0    0 -0.37221051938E+02 -0.16692095640E+02  0.19107085257E+02  0.45045682049E+02  0.00000000000E+00 0.  1.
         11    1    3    3    0    0  0.98032458981E+01  0.65311129141E+01 -0.64806897855E+01  0.13444642293E+02  0.51100000000E-03 0. -1.
        -11    1    3    3    0    0  0.21691618964E+02  0.96307677462E+01 -0.72268893090E+01  0.24809392374E+02  0.51100000000E-03 0.  1.
        -12    1    3    3    0    0  0.57261870766E+01  0.53021497984E+00 -0.53995061621E+01  0.78882832832E+01  0.00000000000E+00 0.  1.
</event>
<event>
 7    1  0.1683291E-008  0.4614232E+02  0.7816164E-02  0.1320468E+00
        -11   -1    0    0    0    0  0.00000000000E+00  0.00000000000E+00  0.45593999997E+02  0.45594000000E+02  0.51100000000E-03 0.  1.
         11   -1    0    0    0    0 -0.00000000000E+00 -0.00000000000E+00 -0.45593999997E+02  0.45594000000E+02  0.51100000000E-03 0. -1.
    9900012    2    1    2    0    0  0.35794456733E+02  0.51997184610E+01 -0.26848336355E+02  0.46142319076E+02  0.10000011989E+02 0.  0.
        -12    1    1    2    0    0 -0.35794456733E+02 -0.51997184610E+01  0.26848336355E+02  0.45045680924E+02  0.00000000000E+00 0.  1.
         11    1    3    3    0    0  0.29120922103E+02  0.25841701154E+01 -0.25485904129E+02  0.38784498821E+02  0.51100000000E-03 0. -1.
        -11    1    3    3    0    0  0.48918911456E+01  0.18255043548E+01 -0.14094765656E+01  0.54082982148E+01  0.51100000000E-03 0.  1.
         12    1    3    3    0    0  0.17816434845E+01  0.79004399081E+00  0.47044339314E-01  0.19495220396E+01  0.00000000000E+00 0. -1.
</event>
<event>
 7    1  0.1683291E-008  0.4614231E+02  0.7816164E-02  0.1320468E+00
        -11   -1    0    0    0    0  0.00000000000E+00  0.00000000000E+00  0.45593999997E+02  0.45594000000E+02  0.51100000000E-03 0.  1.
         11   -1    0    0    0    0 -0.00000000000E+00 -0.00000000000E+00 -0.45593999997E+02  0.45594000000E+02  0.51100000000E-03 0. -1.
    9900012    2    1    2    0    0 -0.27039565621E+02 -0.27480603364E+01 -0.35922471338E+02  0.46142313285E+02  0.99999591848E+01 0.  0.
        -12    1    1    2    0    0  0.27039565621E+02  0.27480603364E+01  0.35922471338E+02  0.45045686715E+02  0.00000000000E+00 0.  1.
         11    1    3    3    0    0 -0.48093638374E+00  0.11678695513E+01 -0.34189218611E+01  0.36447559654E+01  0.51100000000E-03 0.  1.
        -11    1    3    3    0    0 -0.13680074216E+02  0.37494228908E+00 -0.14343586258E+02  0.19824819779E+02  0.51100000000E-03 0. -1.
         12    1    3    3    0    0 -0.12878555021E+02 -0.42908721768E+01 -0.18159963220E+02  0.22672737541E+02  0.00000000000E+00 0. -1.
</event>
<event>
 7    1  0.1683291E-008  0.4614232E+02  0.7816164E-02  0.1320468E+00
        -11   -1    0    0    0    0  0.00000000000E+00  0.00000000000E+00  0.45593999997E+02  0.45594000000E+02  0.51100000000E-03 0.  1.
         11   -1    0    0    0    0 -0.00000000000E+00 -0.00000000000E+00 -0.45593999997E+02  0.45594000000E+02  0.51100000000E-03 0. -1.
    9900012    2    1    2    0    0 -0.33399274457E+02  0.26099415781E+02 -0.15245410174E+02  0.46142316858E+02  0.99999917625E+01 0.  0.
        -12    1    1    2    0    0  0.33399274457E+02 -0.26099415781E+02  0.15245410174E+02  0.45045683142E+02  0.00000000000E+00 0.  1.
         11    1    3    3    0    0 -0.13599008943E+02  0.12538977667E+02 -0.35543758886E+01  0.18835938877E+02  0.51100000000E-03 0. -1.
        -11    1    3    3    0    0 -0.38348246663E+01  0.50834350545E+01 -0.47459637231E+01  0.79417481763E+01  0.51100000000E-03 0.  1.
         12    1    3    3    0    0 -0.15965440849E+02  0.84770030595E+01 -0.69450705621E+01  0.19364629805E+02  0.00000000000E+00 0. -1.
</event>
<event>
 7    1  0.1683291E-008  0.4614232E+02  0.7816164E-02  0.1320468E+00
        -11   -1    0    0    0    0  0.00000000000E+00  0.00000000000E+00  0.45593999997E+02  0.45594000000E+02  0.51100000000E-03 0.  1.
         11   -1    0    0    0    0 -0.00000000000E+00 -0.00000000000E+00 -0.45593999997E+02  0.45594000000E+02  0.51100000000E-03 0. -1.
    9900012    2    1    2    0    0  0.41764474636E+02  0.10134831700E+02 -0.13495457065E+02  0.46142317448E+02  0.99999971404E+01 0.  0.
        -12    1    1    2    0    0 -0.41764474636E+02 -0.10134831700E+02  0.13495457065E+02  0.45045682552E+02  0.00000000000E+00 0.  1.
         11    1    3    3    0    0  0.21683828238E+02  0.32272861998E+01 -0.30694493866E+01  0.22136515152E+02  0.51100000000E-03 0. -1.
        -11    1    3    3    0    0  0.27893673921E+00 -0.11111377775E+00 -0.88023325706E+00  0.93003377576E+00  0.51100000000E-03 0.  1.
         12    1    3    3    0    0  0.19801709659E+02  0.70186592783E+01 -0.95457744215E+01  0.23075768520E+02  0.00000000000E+00 0. -1.
</event>
<event>
 7    1  0.4278455E-008  0.4614232E+02  0.7816164E-02  0.1320468E+00
        -11   -1    0    0    0    0  0.00000000000E+00  0.00000000000E+00  0.45593999997E+02  0.45594000000E+02  0.51100000000E-03 0. -1.
         11   -1    0    0    0    0 -0.00000000000E+00 -0.00000000000E+00 -0.45593999997E+02  0.45594000000E+02  0.51100000000E-03 0.  1.
    9900012    2    1    2    0    0  0.13624874763E+02 -0.22841513814E+01  0.42874922480E+02  0.46142317216E+02  0.99999950281E+01 0.  0.
        -12    1    1    2    0    0 -0.13624874763E+02  0.22841513814E+01 -0.42874922480E+02  0.45045682784E+02  0.00000000000E+00 0.  1.
         11    1    3    3    0    0  0.12512586261E+02 -0.12937155417E+01  0.42818076301E+02  0.44627639118E+02  0.51100000000E-03 0. -1.
        -11    1    3    3    0    0  0.79202645859E+00 -0.61099520725E+00 -0.68233952104E-01  0.10026351219E+01  0.51100000000E-03 0.  1.
         12    1    3    3    0    0  0.32026204360E+00 -0.37944063244E+00  0.12508013049E+00  0.51204297589E+00  0.00000000000E+00 0. -1.
</event>
<event>
 7    1  0.1683291E-008  0.4614232E+02  0.7816164E-02  0.1320468E+00
        -11   -1    0    0    0    0  0.00000000000E+00  0.00000000000E+00  0.45593999997E+02  0.45594000000E+02  0.51100000000E-03 0. -1.
         11   -1    0    0    0    0 -0.00000000000E+00 -0.00000000000E+00 -0.45593999997E+02  0.45594000000E+02  0.51100000000E-03 0.  1.
    9900012    2    1    2    0    0  0.25930753998E+02 -0.26491603760E+02 -0.25591100659E+02  0.46142317570E+02  0.99999982533E+01 0.  0.
        -12    1    1    2    0    0 -0.25930753998E+02  0.26491603760E+02  0.25591100659E+02  0.45045682430E+02  0.00000000000E+00 0.  1.
         11    1    3    3    0    0  0.96448436102E+00 -0.41289274692E+01 -0.21161915331E+01  0.47388330837E+01  0.51100000000E-03 0. -1.
        -11    1    3    3    0    0  0.64433050060E+00 -0.28536987587E+01 -0.19566199547E+01  0.35195341038E+01  0.51100000000E-03 0.  1.
         12    1    3    3    0    0  0.24321939136E+02 -0.19508977532E+02 -0.21518289171E+02  0.37883950382E+02  0.00000000000E+00 0. -1.
</event>
<event>
 7    1  0.1683291E-008  0.4614232E+02  0.7816164E-02  0.1320468E+00
        -11   -1    0    0    0    0  0.00000000000E+00  0.00000000000E+00  0.45593999997E+02  0.45594000000E+02  0.51100000000E-03 0.  1.
         11   -1    0    0    0    0 -0.00000000000E+00 -0.00000000000E+00 -0.45593999997E+02  0.45594000000E+02  0.51100000000E-03 0. -1.
    9900012    2    1    2    0    0  0.37784902429E+02  0.71590590803E+01 -0.23455541898E+02  0.46142318473E+02  0.10000006494E+02 0.  0.
        -12    1    1    2    0    0 -0.37784902429E+02 -0.71590590803E+01  0.23455541898E+02  0.45045681527E+02  0.00000000000E+00 0.  1.
         11    1    3    3    0    0  0.23054924147E+02  0.48258785132E+01 -0.12400272396E+02  0.26619267206E+02  0.51100000000E-03 0. -1.
        -11    1    3    3    0    0  0.60903245484E+01  0.68072732356E+00 -0.82764396251E+01  0.10298295778E+02  0.51100000000E-03 0.  1.
        -12    1    3    3    0    0  0.86396537335E+01  0.16524532435E+01 -0.27788298778E+01  0.92247554898E+01  0.00000000000E+00 0.  1.
</event>
<event>
 7    1  0.1683291E-008  0.4614232E+02  0.7816164E-02  0.1320468E+00
        -11   -1    0    0    0    0  0.00000000000E+00  0.00000000000E+00  0.45593999997E+02  0.45594000000E+02  0.51100000000E-03 0.  1.
         11   -1    0    0    0    0 -0.00000000000E+00 -0.00000000000E+00 -0.45593999997E+02  0.45594000000E+02  0.51100000000E-03 0. -1.
    9900012    2    1    2    0    0  0.11456962145E+02 -0.22731957156E+02 -0.37163283762E+02  0.46142317435E+02  0.99999970297E+01 0.  0.
        -12    1    1    2    0    0 -0.11456962145E+02  0.22731957156E+02  0.37163283762E+02  0.45045682565E+02  0.00000000000E+00 0.  1.
         11    1    3    3    0    0  0.82121956403E+01 -0.18051973448E+02 -0.34318637238E+02  0.39636886416E+02  0.51100000000E-03 0. -1.
        -11    1    3    3    0    0  0.23329635966E+01 -0.42352781518E+01 -0.23901607385E+01  0.53938083747E+01  0.51100000000E-03 0.  1.
         12    1    3    3    0    0  0.91180290840E+00 -0.44470555672E+00 -0.45448578537E+00  0.11116226451E+01  0.00000000000E+00 0. -1.
</event>
<event>
 7    1  0.1683291E-008  0.4614232E+02  0.7816164E-02  0.1320468E+00
        -11   -1    0    0    0    0  0.00000000000E+00  0.00000000000E+00  0.45593999997E+02  0.45594000000E+02  0.51100000000E-03 0. -1.
         11   -1    0    0    0    0 -0.00000000000E+00 -0.00000000000E+00 -0.45593999997E+02  0.45594000000E+02  0.51100000000E-03 0.  1.
    9900012    2    1    2    0    0 -0.35270257968E+02 -0.12548374957E+01  0.27991923474E+02  0.46142317698E+02  0.99999994265E+01 0.  0.
        -12    1    1    2    0    0  0.35270257968E+02  0.12548374957E+01 -0.27991923474E+02  0.45045682302E+02  0.00000000000E+00 0.  1.
         11    1    3    3    0    0 -0.92304229411E+01 -0.33394760143E+01  0.60330459727E+01  0.11521738223E+02  0.51100000000E-03 0. -1.
        -11    1    3    3    0    0 -0.37475556658E+01 -0.12772608974E+01  0.51686405900E+01  0.65107921698E+01  0.51100000000E-03 0.  1.
        -12    1    3    3    0    0 -0.22292279361E+02  0.33618994159E+01  0.16790236911E+02  0.28109787305E+02  0.00000000000E+00 0.  1.
</event>
<event>
 7    1  0.1683291E-008  0.4614232E+02  0.7816164E-02  0.1320468E+00
        -11   -1    0    0    0    0  0.00000000000E+00  0.00000000000E+00  0.45593999997E+02  0.45594000000E+02  0.51100000000E-03 0. -1.
         11   -1    0    0    0    0 -0.00000000000E+00 -0.00000000000E+00 -0.45593999997E+02  0.45594000000E+02  0.51100000000E-03 0.  1.
    9900012    2    1    2    0    0  0.40472082080E+02 -0.19714272906E+02 -0.15721060100E+01  0.46142317616E+02  0.99999986787E+01 0.  0.
        -12    1    1    2    0    0 -0.40472082080E+02  0.19714272906E+02  0.15721060100E+01  0.45045682384E+02  0.00000000000E+00 0.  1.
         11    1    3    3    0    0  0.27217997528E+01 -0.28667161423E+01  0.19815749308E+01  0.44218655342E+01  0.51100000000E-03 0. -1.
        -11    1    3    3    0    0  0.18957854537E+02 -0.10428377626E+02 -0.30914743664E+01  0.21856544159E+02  0.51100000000E-03 0.  1.
        -12    1    3    3    0    0  0.18792427790E+02 -0.64191791377E+01 -0.46220657440E+00  0.19863907923E+02  0.00000000000E+00 0.  1.
</event>
<event>
 7    1  0.1683291E-008  0.4614231E+02  0.7816164E-02  0.1320468E+00
        -11   -1    0    0    0    0  0.00000000000E+00  0.00000000000E+00  0.45593999997E+02  0.45594000000E+02  0.51100000000E-03 0.  1.
         11   -1    0    0    0    0 -0.00000000000E+00 -0.00000000000E+00 -0.45593999997E+02  0.45594000000E+02  0.51100000000E-03 0. -1.
    9900012    2    1    2    0    0 -0.33944925812E+01  0.27218426863E+02 -0.35731616530E+02  0.46142314739E+02  0.99999724419E+01 0.  0.
        -12    1    1    2    0    0  0.33944925812E+01 -0.27218426863E+02  0.35731616530E+02  0.45045685261E+02  0.00000000000E+00 0.  1.
         11    1    3    3    0    0  0.89962306508E+00  0.24343202876E+01 -0.58889424465E+01  0.64354394039E+01  0.51100000000E-03 0. -1.
        -11    1    3    3    0    0 -0.35015331358E+01  0.22535053805E+02 -0.22702701953E+02  0.32179217836E+02  0.51100000000E-03 0.  1.
        -12    1    3    3    0    0 -0.79258251052E+00  0.22490527704E+01 -0.71399721308E+01  0.75276574994E+01  0.00000000000E+00 0.  1.
</event>
<event>
 7    1  0.1683291E-008  0.4614232E+02  0.7816164E-02  0.1320468E+00
        -11   -1    0    0    0    0  0.00000000000E+00  0.00000000000E+00  0.45593999997E+02  0.45594000000E+02  0.51100000000E-03 0.  1.
         11   -1    0    0    0    0 -0.00000000000E+00 -0.00000000000E+00 -0.45593999997E+02  0.45594000000E+02  0.51100000000E-03 0. -1.
    9900012    2    1    2    0    0 -0.51063589946E+01 -0.14014455485E+02 -0.42504513340E+02  0.46142317421E+02  0.99999968987E+01 0.  0.
        -12    1    1    2    0    0  0.51063589946E+01  0.14014455485E+02  0.42504513340E+02  0.45045682579E+02  0.00000000000E+00 0.  1.
         11    1    3    3    0    0 -0.45684301923E+00 -0.70122565694E-01  0.10901578736E+00  0.47487621698E+00  0.51100000000E-03 0.  1.
        -11    1    3    3    0    0 -0.53590131753E+01 -0.98740716990E+01 -0.22677838736E+02  0.25308114986E+02  0.51100000000E-03 0. -1.
        -12    1    3    3    0    0  0.70949719989E+00 -0.40702612201E+01 -0.19935690392E+02  0.20359326218E+02  0.00000000000E+00 0.  1.
</event>
<event>
 7    1  0.1683291E-008  0.4614232E+02  0.7816164E-02  0.1320468E+00
        -11   -1    0    0    0    0  0.00000000000E+00  0.00000000000E+00  0.45593999997E+02  0.45594000000E+02  0.51100000000E-03 0.  1.
         11   -1    0    0    0    0 -0.00000000000E+00 -0.00000000000E+00 -0.45593999997E+02  0.45594000000E+02  0.51100000000E-03 0. -1.
    9900012    2    1    2    0    0 -0.12596800817E+02  0.20974294162E+01 -0.43197626067E+02  0.46142317645E+02  0.99999989431E+01 0.  0.
        -12    1    1    2    0    0  0.12596800817E+02 -0.20974294162E+01  0.43197626067E+02  0.45045682355E+02  0.00000000000E+00 0.  1.
         11    1    3    3    0    0 -0.63932130394E+01  0.26158733122E+01 -0.21447425754E+02  0.22532377547E+02  0.51100000000E-03 0. -1.
        -11    1    3    3    0    0 -0.53150459527E+01 -0.27186017104E+01 -0.10201029150E+02  0.11819539108E+02  0.51100000000E-03 0.  1.
        -12    1    3    3    0    0 -0.88854182519E+00  0.22001578143E+01 -0.11549171162E+02  0.11790400990E+02  0.00000000000E+00 0.  1.
</event>
<event>
 7    1  0.1683291E-008  0.4614232E+02  0.7816164E-02  0.1320468E+00
        -11   -1    0    0    0    0  0.00000000000E+00  0.00000000000E+00  0.45593999997E+02  0.45594000000E+02  0.51100000000E-03 0.  1.
         11   -1    0    0    0    0 -0.00000000000E+00 -0.00000000000E+00 -0.45593999997E+02  0.45594000000E+02  0.51100000000E-03 0. -1.
    9900012    2    1    2    0    0 -0.33062393252E+01  0.44365327744E+02 -0.70639692972E+01  0.46142321111E+02  0.10000030546E+02 0.  0.
        -12    1    1    2    0    0  0.33062393252E+01 -0.44365327744E+02  0.70639692972E+01  0.45045678889E+02  0.00000000000E+00 0.  1.
         11    1    3    3    0    0  0.69151968389E+00  0.13198111871E+02 -0.37668558104E+01  0.13742545594E+02  0.51100000000E-03 0. -1.
        -11    1    3    3    0    0 -0.39865925178E+01  0.15955657940E+02 -0.47516674239E+01  0.17118828341E+02  0.51100000000E-03 0.  1.
        -12    1    3    3    0    0 -0.11166491338E-01  0.15211557933E+02  0.14545539371E+01  0.15280947176E+02  0.00000000000E+00 0.  1.
</event>
<event>
 7    1  0.1683291E-008  0.4614232E+02  0.7816164E-02  0.1320468E+00
        -11   -1    0    0    0    0  0.00000000000E+00  0.00000000000E+00  0.45593999997E+02  0.45594000000E+02  0.51100000000E-03 0.  1.
         11   -1    0    0    0    0 -0.00000000000E+00 -0.00000000000E+00 -0.45593999997E+02  0.45594000000E+02  0.51100000000E-03 0. -1.
    9900012    2    1    2    0    0 -0.29332098713E+02  0.34135424716E+01 -0.34016014387E+02  0.46142317389E+02  0.99999966108E+01 0.  0.
        -12    1    1    2    0    0  0.29332098713E+02 -0.34135424716E+01  0.34016014387E+02  0.45045682611E+02  0.00000000000E+00 0.  1.
         11    1    3    3    0    0 -0.18563533516E+02  0.35429321719E+01 -0.14679329159E+02  0.23929894479E+02  0.51100000000E-03 0.  1.
        -11    1    3    3    0    0 -0.71427625533E+01  0.24337015186E+00 -0.11053560742E+02  0.13162807119E+02  0.51100000000E-03 0. -1.
        -12    1    3    3    0    0 -0.36258026436E+01 -0.37275985214E+00 -0.82831244858E+01  0.90496157910E+01  0.00000000000E+00 0.  1.
</event>
<event>
 7    1  0.1683291E-008  0.4614232E+02  0.7816164E-02  0.1320468E+00
        -11   -1    0    0    0    0  0.00000000000E+00  0.00000000000E+00  0.45593999997E+02  0.45594000000E+02  0.51100000000E-03 0.  1.
         11   -1    0    0    0    0 -0.00000000000E+00 -0.00000000000E+00 -0.45593999997E+02  0.45594000000E+02  0.51100000000E-03 0. -1.
    9900012    2    1    2    0    0 -0.29068346705E+00  0.42410572968E+01 -0.44844650318E+02  0.46142315123E+02  0.99999759440E+01 0.  0.
        -12    1    1    2    0    0  0.29068346705E+00 -0.42410572968E+01  0.44844650318E+02  0.45045684877E+02  0.00000000000E+00 0.  1.
         11    1    3    3    0    0  0.19163054345E+01 -0.19958126311E+01 -0.22216272212E+02  0.22387904007E+02  0.51100000000E-03 0. -1.
        -11    1    3    3    0    0 -0.99329973213E+00  0.45253000200E+01 -0.19058692510E+02  0.19613738682E+02  0.51100000000E-03 0.  1.
        -12    1    3    3    0    0 -0.12136891694E+01  0.17115699079E+01 -0.35696855961E+01  0.41406724339E+01  0.00000000000E+00 0.  1.
</event>
<event>
 7    1  0.1683291E-008  0.4614232E+02  0.7816164E-02  0.1320468E+00
        -11   -1    0    0    0    0  0.00000000000E+00  0.00000000000E+00  0.45593999997E+02  0.45594000000E+02  0.51100000000E-03 0.  1.
         11   -1    0    0    0    0 -0.00000000000E+00 -0.00000000000E+00 -0.45593999997E+02  0.45594000000E+02  0.51100000000E-03 0. -1.
    9900012    2    1    2    0    0 -0.38815199854E+00 -0.34635992373E+02 -0.28797757802E+02  0.46142317809E+02  0.10000000438E+02 0.  0.
        -12    1    1    2    0    0  0.38815199854E+00  0.34635992373E+02  0.28797757802E+02  0.45045682191E+02  0.00000000000E+00 0.  1.
         11    1    3    3    0    0 -0.20955553579E+01 -0.18285966469E+01 -0.27163817300E+01  0.38876532663E+01  0.51100000000E-03 0. -1.
        -11    1    3    3    0    0 -0.96012436260E+00 -0.15167629949E+01 -0.19450625599E+01  0.26468240209E+01  0.51100000000E-03 0.  1.
         12    1    3    3    0    0  0.26675277220E+01 -0.31290632731E+02 -0.24136313512E+02  0.39607840522E+02  0.00000000000E+00 0. -1.
</event>
<event>
 7    1  0.1683291E-008  0.4614231E+02  0.7816164E-02  0.1320468E+00
        -11   -1    0    0    0    0  0.00000000000E+00  0.00000000000E+00  0.45593999997E+02  0.45594000000E+02  0.51100000000E-03 0. -1.
         11   -1    0    0    0    0 -0.00000000000E+00 -0.00000000000E+00 -0.45593999997E+02  0.45594000000E+02  0.51100000000E-03 0.  1.
    9900012    2    1    2    0    0 -0.32142095040E+01  0.20239810057E+01  0.44885255621E+02  0.46142314147E+02  0.99999670403E+01 0.  0.
        -12    1    1    2    0    0  0.32142095040E+01 -0.20239810057E+01 -0.44885255621E+02  0.45045685853E+02  0.00000000000E+00 0.  1.
         11    1    3    3    0    0  0.12602858770E+01  0.21578973377E+01  0.13625581845E+02  0.13852845277E+02  0.51100000000E-03 0. -1.
        -11    1    3    3    0    0 -0.46682537616E+01  0.23378026814E+01  0.25327918001E+02  0.25860420435E+02  0.51100000000E-03 0.  1.
        -12    1    3    3    0    0  0.19375838055E+00 -0.24717190133E+01  0.59317557757E+01  0.64290484345E+01  0.00000000000E+00 0.  1.
</event>
<event>
 7    1  0.1686577E-008  0.4614232E+02  0.7816164E-02  0.1320468E+00
        -11   -1    0    0    0    0  0.00000000000E+00  0.00000000000E+00  0.45593999997E+02  0.45594000000E+02  0.51100000000E-03 0. -1.
         11   -1    0    0    0    0 -0.00000000000E+00 -0.00000000000E+00 -0.45593999997E+02  0.45594000000E+02  0.51100000000E-03 0.  1.
    9900012    2    1    2    0    0  0.30553035564E+02 -0.29542227197E+02  0.14929243135E+02  0.46142317959E+02  0.10000001806E+02 0.  0.
        -12    1    1    2    0    0 -0.30553035564E+02  0.29542227197E+02 -0.14929243135E+02  0.45045682041E+02  0.00000000000E+00 0.  1.
         11    1    3    3    0    0  0.26879946503E+02 -0.23746564888E+02  0.12837522883E+02  0.38095050361E+02  0.51100000000E-03 0. -1.
        -11    1    3    3    0    0  0.23187805974E+01 -0.28782446830E+01 -0.73122731227E+00  0.37677220648E+01  0.51100000000E-03 0.  1.
         12    1    3    3    0    0  0.13543084635E+01 -0.29174176259E+01  0.28229475642E+01  0.42795455330E+01  0.00000000000E+00 0. -1.
</event>
<event>
 7    1  0.1683291E-008  0.4614232E+02  0.7816164E-02  0.1320468E+00
        -11   -1    0    0    0    0  0.00000000000E+00  0.00000000000E+00  0.45593999997E+02  0.45594000000E+02  0.51100000000E-03 0.  1.
         11   -1    0    0    0    0 -0.00000000000E+00 -0.00000000000E+00 -0.45593999997E+02  0.45594000000E+02  0.51100000000E-03 0. -1.
    9900012    2    1    2    0    0 -0.40103942192E+02  0.17394171409E+02 -0.10873366592E+02  0.46142317861E+02  0.10000000907E+02 0.  0.
        -12    1    1    2    0    0  0.40103942192E+02 -0.17394171409E+02  0.10873366592E+02  0.45045682139E+02  0.00000000000E+00 0.  1.
         11    1    3    3    0    0 -0.15714110225E+02  0.97925081127E+01 -0.41418984389E+01  0.18973186296E+02  0.51100000000E-03 0.  1.
        -11    1    3    3    0    0 -0.78317795344E+01 -0.38240842003E+00 -0.30985438108E+01  0.84311316491E+01  0.51100000000E-03 0. -1.
        -12    1    3    3    0    0 -0.16558052433E+02  0.79840717165E+01 -0.36329243427E+01  0.18737999915E+02  0.00000000000E+00 0.  1.
</event>
<event>
 7    1  0.1683291E-008  0.4614232E+02  0.7816164E-02  0.1320468E+00
        -11   -1    0    0    0    0  0.00000000000E+00  0.00000000000E+00  0.45593999997E+02  0.45594000000E+02  0.51100000000E-03 0.  1.
         11   -1    0    0    0    0 -0.00000000000E+00 -0.00000000000E+00 -0.45593999997E+02  0.45594000000E+02  0.51100000000E-03 0. -1.
    9900012    2    1    2    0    0 -0.39364836221E+02  0.21521778466E+02 -0.40418077047E+01  0.46142317759E+02  0.99999999796E+01 0.  0.
        -12    1    1    2    0    0  0.39364836221E+02 -0.21521778466E+02  0.40418077047E+01  0.45045682241E+02  0.00000000000E+00 0.  1.
         11    1    3    3    0    0 -0.21693382323E+01  0.10144147705E+01  0.10328665194E+01  0.26080412575E+01  0.51100000000E-03 0. -1.
        -11    1    3    3    0    0 -0.25514359312E+02  0.13259160979E+02  0.34852414396E+00  0.28756031546E+02  0.51100000000E-03 0.  1.
         12    1    3    3    0    0 -0.11681138677E+02  0.72482027172E+01 -0.54231983681E+01  0.14778244955E+02  0.00000000000E+00 0. -1.
</event>
<event>
 7    1  0.1683291E-008  0.4614232E+02  0.7816164E-02  0.1320468E+00
        -11   -1    0    0    0    0  0.00000000000E+00  0.00000000000E+00  0.45593999997E+02  0.45594000000E+02  0.51100000000E-03 0.  1.
         11   -1    0    0    0    0 -0.00000000000E+00 -0.00000000000E+00 -0.45593999997E+02  0.45594000000E+02  0.51100000000E-03 0. -1.
    9900012    2    1    2    0    0  0.12059088039E+01  0.16305720550E+02 -0.41973596891E+02  0.46142316803E+02  0.99999912642E+01 0.  0.
        -12    1    1    2    0    0 -0.12059088039E+01 -0.16305720550E+02  0.41973596891E+02  0.45045683197E+02  0.00000000000E+00 0.  1.
         11    1    3    3    0    0  0.51021373031E+01  0.74676391346E+01 -0.19524873810E+02  0.21517856233E+02  0.51100000000E-03 0. -1.
        -11    1    3    3    0    0 -0.27805401883E+01  0.68342373087E+01 -0.13479957163E+02  0.15367089793E+02  0.51100000000E-03 0.  1.
         12    1    3    3    0    0 -0.11156883110E+01  0.20038441068E+01 -0.89687659182E+01  0.92573707773E+01  0.00000000000E+00 0. -1.
</event>
<event>
 7    1  0.1683291E-008  0.4614232E+02  0.7816164E-02  0.1320468E+00
        -11   -1    0    0    0    0  0.00000000000E+00  0.00000000000E+00  0.45593999997E+02  0.45594000000E+02  0.51100000000E-03 0.  1.
         11   -1    0    0    0    0 -0.00000000000E+00 -0.00000000000E+00 -0.45593999997E+02  0.45594000000E+02  0.51100000000E-03 0. -1.
    9900012    2    1    2    0    0  0.98113373647E+01 -0.10054416047E+02 -0.42799063708E+02  0.46142317885E+02  0.10000001133E+02 0.  0.
        -12    1    1    2    0    0 -0.98113373647E+01  0.10054416047E+02  0.42799063708E+02  0.45045682115E+02  0.00000000000E+00 0.  1.
         11    1    3    3    0    0  0.89453237913E+01 -0.58264659641E+01 -0.37147889038E+02  0.38651418908E+02  0.51100000000E-03 0. -1.
        -11    1    3    3    0    0 -0.77503522962E+00 -0.20306249966E+01 -0.25771401026E+01  0.33713155968E+01  0.51100000000E-03 0.  1.
         12    1    3    3    0    0  0.16410488030E+01 -0.21973250864E+01 -0.30740345669E+01  0.41195833803E+01  0.00000000000E+00 0. -1.
</event>
<event>
 7    1  0.1683291E-008  0.4614232E+02  0.7816164E-02  0.1320468E+00
        -11   -1    0    0    0    0  0.00000000000E+00  0.00000000000E+00  0.45593999997E+02  0.45594000000E+02  0.51100000000E-03 0. -1.
         11   -1    0    0    0    0 -0.00000000000E+00 -0.00000000000E+00 -0.45593999997E+02  0.45594000000E+02  0.51100000000E-03 0.  1.
    9900012    2    1    2    0    0 -0.28898842443E+02  0.99214336596E+01  0.33098875227E+02  0.46142317835E+02  0.10000000673E+02 0.  0.
        -12    1    1    2    0    0  0.28898842443E+02 -0.99214336596E+01 -0.33098875227E+02  0.45045682165E+02  0.00000000000E+00 0.  1.
         11    1    3    3    0    0 -0.55162463940E+01  0.27962262384E+01  0.71578426559E+01  0.94595225675E+01  0.51100000000E-03 0. -1.
        -11    1    3    3    0    0 -0.14550595946E+02  0.65934264403E+00  0.11477035469E+02  0.18543918639E+02  0.51100000000E-03 0.  1.
        -12    1    3    3    0    0 -0.88320001038E+01  0.64658647771E+01  0.14463997103E+02  0.18138876628E+02  0.00000000000E+00 0.  1.
</event>
<event>
 7    1  0.1683291E-008  0.4614232E+02  0.7816164E-02  0.1320468E+00
        -11   -1    0    0    0    0  0.00000000000E+00  0.00000000000E+00  0.45593999997E+02  0.45594000000E+02  0.51100000000E-03 0.  1.
         11   -1    0    0    0    0 -0.00000000000E+00 -0.00000000000E+00 -0.45593999997E+02  0.45594000000E+02  0.51100000000E-03 0. -1.
    9900012    2    1    2    0    0 -0.10536291483E+02  0.23927159239E+02 -0.36682300101E+02  0.46142317319E+02  0.99999959697E+01 0.  0.
        -12    1    1    2    0    0  0.10536291483E+02 -0.23927159239E+02  0.36682300101E+02  0.45045682681E+02  0.00000000000E+00 0.  1.
         11    1    3    3    0    0 -0.53732713669E+00  0.16485205442E+01 -0.14073788736E+01  0.22331717335E+01  0.51100000000E-03 0. -1.
        -11    1    3    3    0    0 -0.10435369835E+02  0.21305114002E+02 -0.28642032467E+02  0.37191004965E+02  0.51100000000E-03 0.  1.
        -12    1    3    3    0    0  0.43640548900E+00  0.97352469263E+00 -0.66328887611E+01  0.67181406203E+01  0.00000000000E+00 0.  1.
</event>
<event>
 7    1  0.1683291E-008  0.4614232E+02  0.7816164E-02  0.1320468E+00
        -11   -1    0    0    0    0  0.00000000000E+00  0.00000000000E+00  0.45593999997E+02  0.45594000000E+02  0.51100000000E-03 0. -1.
         11   -1    0    0    0    0 -0.00000000000E+00 -0.00000000000E+00 -0.45593999997E+02  0.45594000000E+02  0.51100000000E-03 0.  1.
    9900012    2    1    2    0    0 -0.58883327001E+01 -0.35255406462E+02  0.27413451414E+02  0.46142318018E+02  0.10000002345E+02 0.  0.
        -12    1    1    2    0    0  0.58883327001E+01  0.35255406462E+02 -0.27413451414E+02  0.45045681982E+02  0.00000000000E+00 0.  1.
         11    1    3    3    0    0 -0.14806454504E+00 -0.32996835856E+01  0.31604940013E+00  0.33180901674E+01  0.51100000000E-03 0. -1.
        -11    1    3    3    0    0 -0.64343543078E+01 -0.16845122751E+02  0.14490122256E+02  0.23132719665E+02  0.51100000000E-03 0.  1.
        -12    1    3    3    0    0  0.69408615267E+00 -0.15110600126E+02  0.12607279757E+02  0.19691508186E+02  0.00000000000E+00 0.  1.
</event>
<event>
 7    1  0.1683291E-008  0.4614230E+02  0.7816164E-02  0.1320468E+00
        -11   -1    0    0    0    0  0.00000000000E+00  0.00000000000E+00  0.45593999997E+02  0.45594000000E+02  0.51100000000E-03 0.  1.
         11   -1    0    0    0    0 -0.00000000000E+00 -0.00000000000E+00 -0.45593999997E+02  0.45594000000E+02  0.51100000000E-03 0. -1.
    9900012    2    1    2    0    0 -0.43757287230E+02 -0.86794316447E+01 -0.62515619979E+01  0.46142303792E+02  0.99998726183E+01 0.  0.
        -12    1    1    2    0    0  0.43757287230E+02  0.86794316447E+01  0.62515619979E+01  0.45045696208E+02  0.00000000000E+00 0.  1.
         11    1    3    3    0    0 -0.14156224728E+02  0.34718996759E+00 -0.15775688035E+01  0.14248086293E+02  0.51100000000E-03 0. -1.
        -11    1    3    3    0    0 -0.13092285937E+02 -0.61561075394E+01 -0.44497320975E+01  0.15136238869E+02  0.51100000000E-03 0.  1.
        -12    1    3    3    0    0 -0.16508776566E+02 -0.28705140729E+01 -0.22426109682E+00  0.16757978631E+02  0.00000000000E+00 0.  1.
</event>
<event>
 7    1  0.1683291E-008  0.4614232E+02  0.7816164E-02  0.1320468E+00
        -11   -1    0    0    0    0  0.00000000000E+00  0.00000000000E+00  0.45593999997E+02  0.45594000000E+02  0.51100000000E-03 0.  1.
         11   -1    0    0    0    0 -0.00000000000E+00 -0.00000000000E+00 -0.45593999997E+02  0.45594000000E+02  0.51100000000E-03 0. -1.
    9900012    2    1    2    0    0 -0.10816605144E+02 -0.12004376250E+02 -0.42047704306E+02  0.46142318371E+02  0.10000005564E+02 0.  0.
        -12    1    1    2    0    0  0.10816605144E+02  0.12004376250E+02  0.42047704306E+02  0.45045681629E+02  0.00000000000E+00 0.  1.
         11    1    3    3    0    0 -0.90885535983E+00 -0.27127460261E+00 -0.94773969256E+01  0.95247394044E+01  0.51100000000E-03 0.  1.
        -11    1    3    3    0    0 -0.79710558968E+01 -0.73192875761E+01 -0.27817811435E+02  0.29848623687E+02  0.51100000000E-03 0. -1.
        -12    1    3    3    0    0 -0.19366938870E+01 -0.44138140712E+01 -0.47524959457E+01  0.67689552799E+01  0.00000000000E+00 0.  1.
</event>
<event>
 7    1  0.1683291E-008  0.4614232E+02  0.7816164E-02  0.1320468E+00
        -11   -1    0    0    0    0  0.00000000000E+00  0.00000000000E+00  0.45593999997E+02  0.45594000000E+02  0.51100000000E-03 0. -1.
         11   -1    0    0    0    0 -0.00000000000E+00 -0.00000000000E+00 -0.45593999997E+02  0.45594000000E+02  0.51100000000E-03 0.  1.
    9900012    2    1    2    0    0  0.41549496565E+02  0.10754349283E+02 -0.13678325243E+02  0.46142320132E+02  0.10000021621E+02 0.  0.
        -12    1    1    2    0    0 -0.41549496565E+02 -0.10754349283E+02  0.13678325243E+02  0.45045679868E+02  0.00000000000E+00 0.  1.
         11    1    3    3    0    0  0.27741759872E+02  0.45022920460E+01 -0.10542415856E+02  0.30016968648E+02  0.51100000000E-03 0. -1.
        -11    1    3    3    0    0  0.64232304876E+01  0.52662054173E+01 -0.23611539715E+01  0.86351524441E+01  0.51100000000E-03 0.  1.
         12    1    3    3    0    0  0.73845062055E+01  0.98585182016E+00 -0.77475541476E+00  0.74901990402E+01  0.00000000000E+00 0. -1.
</event>
<event>
 7    1  0.1683291E-008  0.4614232E+02  0.7816164E-02  0.1320468E+00
        -11   -1    0    0    0    0  0.00000000000E+00  0.00000000000E+00  0.45593999997E+02  0.45594000000E+02  0.51100000000E-03 0.  1.
         11   -1    0    0    0    0 -0.00000000000E+00 -0.00000000000E+00 -0.45593999997E+02  0.45594000000E+02  0.51100000000E-03 0. -1.
    9900012    2    1    2    0    0 -0.15373849821E+01  0.68317167416E+01 -0.44498061924E+02  0.46142318506E+02  0.10000006797E+02 0.  0.
        -12    1    1    2    0    0  0.15373849821E+01 -0.68317167416E+01  0.44498061924E+02  0.45045681494E+02  0.00000000000E+00 0.  1.
         11    1    3    3    0    0  0.78031619724E+00  0.12293579724E+01 -0.23085421935E+02  0.23131297425E+02  0.51100000000E-03 0. -1.
        -11    1    3    3    0    0  0.19822866115E+00 -0.77424007605E+00 -0.37139618604E+00  0.88129318934E+00  0.51100000000E-03 0.  1.
         12    1    3    3    0    0 -0.25159298405E+01  0.63765988452E+01 -0.21041243803E+02  0.22129727892E+02  0.00000000000E+00 0. -1.
</event>
<event>
 7    1  0.1985544E-008  0.4614232E+02  0.7816164E-02  0.1320468E+00
        -11   -1    0    0    0    0  0.00000000000E+00  0.00000000000E+00  0.45593999997E+02  0.45594000000E+02  0.51100000000E-03 0.  1.
         11   -1    0    0    0    0 -0.00000000000E+00 -0.00000000000E+00 -0.45593999997E+02  0.45594000000E+02  0.51100000000E-03 0. -1.
    9900012    2    1    2    0    0 -0.47874553033E+01 -0.41991305367E+02 -0.15586020038E+02  0.46142317906E+02  0.10000001322E+02 0.  0.
        -12    1    1    2    0    0  0.47874553033E+01  0.41991305367E+02  0.15586020038E+02  0.45045682094E+02  0.00000000000E+00 0.  1.
         11    1    3    3    0    0 -0.60628331315E+01 -0.30711238942E+02 -0.14934539933E+02  0.34683982271E+02  0.51100000000E-03 0. -1.
        -11    1    3    3    0    0  0.22103403899E+00 -0.37397163676E+01  0.41956710109E+00  0.37696646230E+01  0.51100000000E-03 0.  1.
         12    1    3    3    0    0  0.10543437892E+01 -0.75403500575E+01 -0.10710472064E+01  0.76886710122E+01  0.00000000000E+00 0. -1.
</event>
<event>
 7    1  0.1683291E-008  0.4614232E+02  0.7816164E-02  0.1320468E+00
        -11   -1    0    0    0    0  0.00000000000E+00  0.00000000000E+00  0.45593999997E+02  0.45594000000E+02  0.51100000000E-03 0.  1.
         11   -1    0    0    0    0 -0.00000000000E+00 -0.00000000000E+00 -0.45593999997E+02  0.45594000000E+02  0.51100000000E-03 0. -1.
    9900012    2    1    2    0    0  0.18669210610E+02  0.27622439457E+02 -0.30291497311E+02  0.46142318790E+02  0.10000009382E+02 0.  0.
        -12    1    1    2    0    0 -0.18669210610E+02 -0.27622439457E+02  0.30291497311E+02  0.45045681210E+02  0.00000000000E+00 0.  1.
         11    1    3    3    0    0  0.10441293825E+00  0.43849949664E+01 -0.40244988656E+01  0.59527871033E+01  0.51100000000E-03 0. -1.
        -11    1    3    3    0    0  0.17735794268E+01  0.45954872322E-01 -0.18026968794E+01  0.25293106044E+01  0.51100000000E-03 0.  1.
         12    1    3    3    0    0  0.16791218245E+02  0.23191489619E+02 -0.24464301566E+02  0.37660221082E+02  0.00000000000E+00 0. -1.
</event>
<event>
 7    1  0.1683291E-008  0.4614232E+02  0.7816164E-02  0.1320468E+00
        -11   -1    0    0    0    0  0.00000000000E+00  0.00000000000E+00  0.45593999997E+02  0.45594000000E+02  0.51100000000E-03 0.  1.
         11   -1    0    0    0    0 -0.00000000000E+00 -0.00000000000E+00 -0.45593999997E+02  0.45594000000E+02  0.51100000000E-03 0. -1.
    9900012    2    1    2    0    0  0.92475030569E+00 -0.82175027271E+01 -0.44280141782E+02  0.46142317960E+02  0.10000001816E+02 0.  0.
        -12    1    1    2    0    0 -0.92475030569E+00  0.82175027271E+01  0.44280141782E+02  0.45045682040E+02  0.00000000000E+00 0.  1.
         11    1    3    3    0    0  0.23869710997E+01  0.13677671290E+01 -0.10175785355E+02  0.10541111223E+02  0.51100000000E-03 0. -1.
        -11    1    3    3    0    0 -0.15151092686E+01 -0.39469654571E+01 -0.10212747951E+02  0.11053248997E+02  0.51100000000E-03 0.  1.
         12    1    3    3    0    0  0.52888474610E-01 -0.56383043989E+01 -0.23891608476E+02  0.24547957741E+02  0.00000000000E+00 0. -1.
</event>
<event>
 7    1  0.1683291E-008  0.4614231E+02  0.7816164E-02  0.1320468E+00
        -11   -1    0    0    0    0  0.00000000000E+00  0.00000000000E+00  0.45593999997E+02  0.45594000000E+02  0.51100000000E-03 0.  1.
         11   -1    0    0    0    0 -0.00000000000E+00 -0.00000000000E+00 -0.45593999997E+02  0.45594000000E+02  0.51100000000E-03 0. -1.
    9900012    2    1    2    0    0 -0.62986353646E+01  0.39270778723E+02 -0.21148220261E+02  0.46142311093E+02  0.99999391914E+01 0.  0.
        -12    1    1    2    0    0  0.62986353646E+01 -0.39270778723E+02  0.21148220261E+02  0.45045688907E+02  0.00000000000E+00 0.  1.
         11    1    3    3    0    0 -0.91155953293E+00  0.11244565524E+02 -0.14918592456E+01  0.11379667785E+02  0.51100000000E-03 0. -1.
        -11    1    3    3    0    0 -0.33864561918E+01  0.11159440296E+02 -0.87150236713E+01  0.14558599902E+02  0.51100000000E-03 0.  1.
         12    1    3    3    0    0 -0.20006196399E+01  0.16866772902E+02 -0.10941337344E+02  0.20204043406E+02  0.00000000000E+00 0. -1.
</event>
<event>
 7    1  0.1683291E-008  0.4614232E+02  0.7816164E-02  0.1320468E+00
        -11   -1    0    0    0    0  0.00000000000E+00  0.00000000000E+00  0.45593999997E+02  0.45594000000E+02  0.51100000000E-03 0. -1.
         11   -1    0    0    0    0 -0.00000000000E+00 -0.00000000000E+00 -0.45593999997E+02  0.45594000000E+02  0.51100000000E-03 0.  1.
    9900012    2    1    2    0    0  0.28926071737E+02  0.28821338807E+02  0.19019101667E+02  0.46142318465E+02  0.10000006416E+02 0.  0.
        -12    1    1    2    0    0 -0.28926071737E+02 -0.28821338807E+02 -0.19019101667E+02  0.45045681535E+02  0.00000000000E+00 0.  1.
         11    1    3    3    0    0  0.25846659139E+02  0.21606616006E+02  0.13491567317E+02  0.36289365285E+02  0.51100000000E-03 0. -1.
        -11    1    3    3    0    0  0.21088850306E+01  0.60067112072E+01  0.53063506842E+01  0.82876615184E+01  0.51100000000E-03 0.  1.
        -12    1    3    3    0    0  0.97052756788E+00  0.12080115940E+01  0.22118366510E+00  0.15652916613E+01  0.00000000000E+00 0.  1.
</event>
<event>
 7    1  0.1683291E-008  0.4614232E+02  0.7816164E-02  0.1320468E+00
        -11   -1    0    0    0    0  0.00000000000E+00  0.00000000000E+00  0.45593999997E+02  0.45594000000E+02  0.51100000000E-03 0.  1.
         11   -1    0    0    0    0 -0.00000000000E+00 -0.00000000000E+00 -0.45593999997E+02  0.45594000000E+02  0.51100000000E-03 0. -1.
    9900012    2    1    2    0    0  0.14951845323E+02 -0.30845520429E+02 -0.29225154791E+02  0.46142317836E+02  0.10000000682E+02 0.  0.
        -12    1    1    2    0    0 -0.14951845323E+02  0.30845520429E+02  0.29225154791E+02  0.45045682164E+02  0.00000000000E+00 0.  1.
         11    1    3    3    0    0  0.17096201002E+01 -0.67225146806E+01 -0.49071245541E+01  0.84967568030E+01  0.51100000000E-03 0. -1.
        -11    1    3    3    0    0  0.24887383116E+01 -0.70667123667E+01 -0.11591250672E+02  0.13801787364E+02  0.51100000000E-03 0.  1.
        -12    1    3    3    0    0  0.10753486911E+02 -0.17056293381E+02 -0.12726779565E+02  0.23843773669E+02  0.00000000000E+00 0.  1.
</event>
<event>
 7    1  0.1683291E-008  0.4614232E+02  0.7816164E-02  0.1320468E+00
        -11   -1    0    0    0    0  0.00000000000E+00  0.00000000000E+00  0.45593999997E+02  0.45594000000E+02  0.51100000000E-03 0. -1.
         11   -1    0    0    0    0 -0.00000000000E+00 -0.00000000000E+00 -0.45593999997E+02  0.45594000000E+02  0.51100000000E-03 0.  1.
    9900012    2    1    2    0    0  0.32647294860E+02 -0.24659635022E+02  0.18845954985E+02  0.46142317850E+02  0.10000000810E+02 0.  0.
        -12    1    1    2    0    0 -0.32647294860E+02  0.24659635022E+02 -0.18845954985E+02  0.45045682150E+02  0.00000000000E+00 0.  1.
         11    1    3    3    0    0  0.10075008335E+02 -0.82514183242E+01  0.29094677408E+01  0.13343788821E+02  0.51100000000E-03 0. -1.
        -11    1    3    3    0    0  0.21074133508E+02 -0.16968567814E+02  0.15246719789E+02  0.31056623470E+02  0.51100000000E-03 0.  1.
        -12    1    3    3    0    0  0.14981530167E+01  0.56035111565E+00  0.68976745462E+00  0.17419055588E+01  0.00000000000E+00 0.  1.
</event>
<event>
 7    1  0.1683291E-008  0.4614232E+02  0.7816164E-02  0.1320468E+00
        -11   -1    0    0    0    0  0.00000000000E+00  0.00000000000E+00  0.45593999997E+02  0.45594000000E+02  0.51100000000E-03 0. -1.
         11   -1    0    0    0    0 -0.00000000000E+00 -0.00000000000E+00 -0.45593999997E+02  0.45594000000E+02  0.51100000000E-03 0.  1.
    9900012    2    1    2    0    0 -0.24774883445E+02 -0.35211258670E+02  0.13247108718E+02  0.46142317896E+02  0.10000001227E+02 0.  0.
        -12    1    1    2    0    0  0.24774883445E+02  0.35211258670E+02 -0.13247108718E+02  0.45045682104E+02  0.00000000000E+00 0.  1.
         11    1    3    3    0    0 -0.82844953665E+01 -0.13478585337E+02  0.66893910339E+01  0.17177109152E+02  0.51100000000E-03 0. -1.
        -11    1    3    3    0    0 -0.41652838067E+01 -0.10207108069E+02  0.49735291186E+00  0.11035488412E+02  0.51100000000E-03 0.  1.
         12    1    3    3    0    0 -0.12325104271E+02 -0.11525565264E+02  0.60603647727E+01  0.17929720331E+02  0.00000000000E+00 0. -1.
</event>
<event>
 7    1  0.1683291E-008  0.4614232E+02  0.7816164E-02  0.1320468E+00
        -11   -1    0    0    0    0  0.00000000000E+00  0.00000000000E+00  0.45593999997E+02  0.45594000000E+02  0.51100000000E-03 0. -1.
         11   -1    0    0    0    0 -0.00000000000E+00 -0.00000000000E+00 -0.45593999997E+02  0.45594000000E+02  0.51100000000E-03 0.  1.
    9900012    2    1    2    0    0  0.35356732195E+02 -0.10997217184E+02  0.25652999155E+02  0.46142315823E+02  0.99999823295E+01 0.  0.
        -12    1    1    2    0    0 -0.35356732195E+02  0.10997217184E+02 -0.25652999155E+02  0.45045684177E+02  0.00000000000E+00 0.  1.
         11    1    3    3    0    0  0.49620814270E+01 -0.32594831917E+01  0.63154540498E+01  0.86678395741E+01  0.51100000000E-03 0.  1.
        -11    1    3    3    0    0  0.14147183022E+02 -0.61962364317E+01  0.67098439171E+01  0.16839184631E+02  0.51100000000E-03 0. -1.
        -12    1    3    3    0    0  0.16247467746E+02 -0.15414975608E+01  0.12627701188E+02  0.20635291618E+02  0.00000000000E+00 0.  1.
</event>
<event>
 7    1  0.1683291E-008  0.4614232E+02  0.7816164E-02  0.1320468E+00
        -11   -1    0    0    0    0  0.00000000000E+00  0.00000000000E+00  0.45593999997E+02  0.45594000000E+02  0.51100000000E-03 0.  1.
         11   -1    0    0    0    0 -0.00000000000E+00 -0.00000000000E+00 -0.45593999997E+02  0.45594000000E+02  0.51100000000E-03 0. -1.
    9900012    2    1    2    0    0  0.44156517362E+01 -0.38835042421E+02 -0.22393188271E+02  0.46142318953E+02  0.10000010867E+02 0.  0.
        -12    1    1    2    0    0 -0.44156517362E+01  0.38835042421E+02  0.22393188271E+02  0.45045681047E+02  0.00000000000E+00 0.  1.
         11    1    3    3    0    0  0.10989181232E+01 -0.52560013564E+01 -0.49563847113E+01  0.73074565320E+01  0.51100000000E-03 0. -1.
        -11    1    3    3    0    0  0.38676199819E+01 -0.31354651458E+02 -0.13663925494E+02  0.34420568161E+02  0.51100000000E-03 0.  1.
        -12    1    3    3    0    0 -0.55088636890E+00 -0.22243896060E+01 -0.37728780657E+01  0.44142942595E+01  0.00000000000E+00 0.  1.
</event>
<event>
 7    1  0.1683291E-008  0.4614232E+02  0.7816164E-02  0.1320468E+00
        -11   -1    0    0    0    0  0.00000000000E+00  0.00000000000E+00  0.45593999997E+02  0.45594000000E+02  0.51100000000E-03 0. -1.
         11   -1    0    0    0    0 -0.00000000000E+00 -0.00000000000E+00 -0.45593999997E+02  0.45594000000E+02  0.51100000000E-03 0.  1.
    9900012    2    1    2    0    0  0.28843025995E+02  0.34254988128E+02 -0.48774224135E+01  0.46142316416E+02  0.99999877300E+01 0.  0.
        -12    1    1    2    0    0 -0.28843025995E+02 -0.34254988128E+02  0.48774224135E+01  0.45045683584E+02  0.00000000000E+00 0.  1.
         11    1    3    3    0    0  0.10967526316E+02  0.20735265369E+02 -0.22485517730E+01  0.23564673746E+02  0.51100000000E-03 0. -1.
        -11    1    3    3    0    0  0.69747628627E+01  0.55409718149E+01 -0.75967058626E+00  0.89401781472E+01  0.51100000000E-03 0.  1.
         12    1    3    3    0    0  0.10900736815E+02  0.79787509447E+01 -0.18692000542E+01  0.13637464522E+02  0.00000000000E+00 0. -1.
</event>
<event>
 7    1  0.1683291E-008  0.4614232E+02  0.7816164E-02  0.1320468E+00
        -11   -1    0    0    0    0  0.00000000000E+00  0.00000000000E+00  0.45593999997E+02  0.45594000000E+02  0.51100000000E-03 0.  1.
         11   -1    0    0    0    0 -0.00000000000E+00 -0.00000000000E+00 -0.45593999997E+02  0.45594000000E+02  0.51100000000E-03 0. -1.
    9900012    2    1    2    0    0  0.13363719432E+02 -0.14774085377E+02 -0.40401125799E+02  0.46142316948E+02  0.99999925853E+01 0.  0.
        -12    1    1    2    0    0 -0.13363719432E+02  0.14774085377E+02  0.40401125799E+02  0.45045683052E+02  0.00000000000E+00 0.  1.
         11    1    3    3    0    0  0.99867713878E+01 -0.92992703431E+01 -0.19217161608E+02  0.23569287901E+02  0.51100000000E-03 0. -1.
        -11    1    3    3    0    0  0.26940537669E+01 -0.49324840733E+00 -0.84269942464E+01  0.88608945361E+01  0.51100000000E-03 0.  1.
         12    1    3    3    0    0  0.68289427695E+00 -0.49815666262E+01 -0.12756969945E+02  0.13712134511E+02  0.00000000000E+00 0. -1.
</event>
<event>
 7    1  0.1683291E-008  0.4614231E+02  0.7816164E-02  0.1320468E+00
        -11   -1    0    0    0    0  0.00000000000E+00  0.00000000000E+00  0.45593999997E+02  0.45594000000E+02  0.51100000000E-03 0. -1.
         11   -1    0    0    0    0 -0.00000000000E+00 -0.00000000000E+00 -0.45593999997E+02  0.45594000000E+02  0.51100000000E-03 0.  1.
    9900012    2    1    2    0    0 -0.44912592628E+02 -0.34600773886E+01  0.32496702823E-01  0.46142310216E+02  0.99999311986E+01 0.  0.
        -12    1    1    2    0    0  0.44912592628E+02  0.34600773886E+01 -0.32496702823E-01  0.45045689784E+02  0.00000000000E+00 0.  1.
         11    1    3    3    0    0 -0.15868572900E+02 -0.17012428995E+01  0.37159201844E+01  0.16386393635E+02  0.51100000000E-03 0. -1.
        -11    1    3    3    0    0 -0.34545737084E+01 -0.18052753123E+01 -0.10140333368E+01  0.40275752419E+01  0.51100000000E-03 0.  1.
         12    1    3    3    0    0 -0.25589446019E+02  0.46440823216E-01 -0.26693901447E+01  0.25728341339E+02  0.00000000000E+00 0. -1.
</event>
<event>
 7    1  0.1683291E-008  0.4614232E+02  0.7816164E-02  0.1320468E+00
        -11   -1    0    0    0    0  0.00000000000E+00  0.00000000000E+00  0.45593999997E+02  0.45594000000E+02  0.51100000000E-03 0.  1.
         11   -1    0    0    0    0 -0.00000000000E+00 -0.00000000000E+00 -0.45593999997E+02  0.45594000000E+02  0.51100000000E-03 0. -1.
    9900012    2    1    2    0    0 -0.16337235044E+02  0.41407061123E+02 -0.69038755201E+01  0.46142318110E+02  0.10000003179E+02 0.  0.
        -12    1    1    2    0    0  0.16337235044E+02 -0.41407061123E+02  0.69038755201E+01  0.45045681890E+02  0.00000000000E+00 0.  1.
         11    1    3    3    0    0 -0.11079768949E+02  0.28774206690E+02 -0.28446263497E+01  0.30964627398E+02  0.51100000000E-03 0. -1.
        -11    1    3    3    0    0 -0.23697706194E+01  0.81120615627E+01 -0.48677266952E+01  0.97527493061E+01  0.51100000000E-03 0.  1.
        -12    1    3    3    0    0 -0.28876954762E+01  0.45207928708E+01  0.80847752483E+00  0.54249414055E+01  0.00000000000E+00 0.  1.
</event>
<event>
 7    1  0.1683291E-008  0.4614232E+02  0.7816164E-02  0.1320468E+00
        -11   -1    0    0    0    0  0.00000000000E+00  0.00000000000E+00  0.45593999997E+02  0.45594000000E+02  0.51100000000E-03 0. -1.
         11   -1    0    0    0    0 -0.00000000000E+00 -0.00000000000E+00 -0.45593999997E+02  0.45594000000E+02  0.51100000000E-03 0.  1.
    9900012    2    1    2    0    0  0.31728893661E+02  0.17562833659E+02  0.26719613668E+02  0.46142316814E+02  0.99999913649E+01 0.  0.
        -12    1    1    2    0    0 -0.31728893661E+02 -0.17562833659E+02 -0.26719613668E+02  0.45045683186E+02  0.00000000000E+00 0.  1.
         11    1    3    3    0    0  0.18428863081E+02  0.90022423037E+01  0.17013330770E+02  0.26648016532E+02  0.51100000000E-03 0. -1.
        -11    1    3    3    0    0  0.96452269431E+01  0.79110057342E+01  0.48556387953E+01  0.13386248275E+02  0.51100000000E-03 0.  1.
        -12    1    3    3    0    0  0.36548036369E+01  0.64958562144E+00  0.48506441030E+01  0.61080520068E+01  0.00000000000E+00 0.  1.
</event>
<event>
 7    1  0.1683291E-008  0.4614232E+02  0.7816164E-02  0.1320468E+00
        -11   -1    0    0    0    0  0.00000000000E+00  0.00000000000E+00  0.45593999997E+02  0.45594000000E+02  0.51100000000E-03 0. -1.
         11   -1    0    0    0    0 -0.00000000000E+00 -0.00000000000E+00 -0.45593999997E+02  0.45594000000E+02  0.51100000000E-03 0.  1.
    9900012    2    1    2    0    0 -0.15889156822E+02  0.18506917384E+02  0.37870069921E+02  0.46142317728E+02  0.99999996944E+01 0.  0.
        -12    1    1    2    0    0  0.15889156822E+02 -0.18506917384E+02 -0.37870069921E+02  0.45045682272E+02  0.00000000000E+00 0.  1.
         11    1    3    3    0    0 -0.37407324015E+01  0.73559662065E+01  0.10754339808E+02  0.13555778941E+02  0.51100000000E-03 0. -1.
        -11    1    3    3    0    0 -0.45477737656E+01  0.64747398990E+01  0.18764411318E+02  0.20364371716E+02  0.51100000000E-03 0.  1.
        -12    1    3    3    0    0 -0.76006506553E+01  0.46762112786E+01  0.83513187938E+01  0.12222167071E+02  0.00000000000E+00 0.  1.
</event>
<event>
 7    1  0.1683291E-008  0.4614232E+02  0.7816164E-02  0.1320468E+00
        -11   -1    0    0    0    0  0.00000000000E+00  0.00000000000E+00  0.45593999997E+02  0.45594000000E+02  0.51100000000E-03 0. -1.
         11   -1    0    0    0    0 -0.00000000000E+00 -0.00000000000E+00 -0.45593999997E+02  0.45594000000E+02  0.51100000000E-03 0.  1.
    9900012    2    1    2    0    0 -0.28783790041E+02 -0.21752650909E+02  0.26970895066E+02  0.46142316840E+02  0.99999915980E+01 0.  0.
        -12    1    1    2    0    0  0.28783790041E+02  0.21752650909E+02 -0.26970895066E+02  0.45045683160E+02  0.00000000000E+00 0.  1.
         11    1    3    3    0    0 -0.14064118191E+02 -0.94253905136E+01  0.13960802121E+02  0.21944051653E+02  0.51100000000E-03 0. -1.
        -11    1    3    3    0    0 -0.65251114373E+00 -0.21527468497E+01  0.41183788391E+01  0.46926681446E+01  0.51100000000E-03 0.  1.
         12    1    3    3    0    0 -0.14067160706E+02 -0.10174513546E+02  0.88917141066E+01  0.19505597042E+02  0.00000000000E+00 0. -1.
</event>
<event>
 7    1  0.1683291E-008  0.4614232E+02  0.7816164E-02  0.1320468E+00
        -11   -1    0    0    0    0  0.00000000000E+00  0.00000000000E+00  0.45593999997E+02  0.45594000000E+02  0.51100000000E-03 0.  1.
         11   -1    0    0    0    0 -0.00000000000E+00 -0.00000000000E+00 -0.45593999997E+02  0.45594000000E+02  0.51100000000E-03 0. -1.
    9900012    2    1    2    0    0 -0.28807987998E+02  0.42180831464E+01 -0.34371806544E+02  0.46142317820E+02  0.10000000539E+02 0.  0.
        -12    1    1    2    0    0  0.28807987998E+02 -0.42180831464E+01  0.34371806544E+02  0.45045682180E+02  0.00000000000E+00 0.  1.
         11    1    3    3    0    0 -0.12726333255E+02  0.39310201873E+01 -0.10486158919E+02  0.16952050229E+02  0.51100000000E-03 0. -1.
        -11    1    3    3    0    0 -0.12409190117E+00  0.46897525635E-01  0.23381260511E+00  0.26882480034E+00  0.51100000000E-03 0.  1.
         12    1    3    3    0    0 -0.15957562841E+02  0.24016543353E+00 -0.24119460231E+02  0.28921442791E+02  0.00000000000E+00 0. -1.
</event>
<event>
 7    1  0.1683291E-008  0.4614232E+02  0.7816164E-02  0.1320468E+00
        -11   -1    0    0    0    0  0.00000000000E+00  0.00000000000E+00  0.45593999997E+02  0.45594000000E+02  0.51100000000E-03 0.  1.
         11   -1    0    0    0    0 -0.00000000000E+00 -0.00000000000E+00 -0.45593999997E+02  0.45594000000E+02  0.51100000000E-03 0. -1.
    9900012    2    1    2    0    0 -0.24346815728E+02 -0.24903212779E+01 -0.37817249290E+02  0.46142317854E+02  0.10000000847E+02 0.  0.
        -12    1    1    2    0    0  0.24346815728E+02  0.24903212779E+01  0.37817249290E+02  0.45045682146E+02  0.00000000000E+00 0.  1.
         11    1    3    3    0    0 -0.12902778970E+02 -0.18745624381E+01 -0.26902355848E+02  0.29895358167E+02  0.51100000000E-03 0. -1.
        -11    1    3    3    0    0 -0.15570437455E+00 -0.48802203611E-01  0.28928982817E+00  0.33213607623E+00  0.51100000000E-03 0.  1.
         12    1    3    3    0    0 -0.11288332383E+02 -0.56695663621E+00 -0.11204183270E+02  0.15914823611E+02  0.00000000000E+00 0. -1.
</event>
<event>
 7    1  0.1683291E-008  0.4614232E+02  0.7816164E-02  0.1320468E+00
        -11   -1    0    0    0    0  0.00000000000E+00  0.00000000000E+00  0.45593999997E+02  0.45594000000E+02  0.51100000000E-03 0. -1.
         11   -1    0    0    0    0 -0.00000000000E+00 -0.00000000000E+00 -0.45593999997E+02  0.45594000000E+02  0.51100000000E-03 0.  1.
    9900012    2    1    2    0    0  0.10145119326E+02 -0.35876009156E+02  0.25280471223E+02  0.46142315364E+02  0.99999781400E+01 0.  0.
        -12    1    1    2    0    0 -0.10145119326E+02  0.35876009156E+02 -0.25280471223E+02  0.45045684636E+02  0.00000000000E+00 0.  1.
         11    1    3    3    0    0  0.43658871285E+01 -0.14373578511E+02  0.14211008837E+02  0.20678817714E+02  0.51100000000E-03 0. -1.
        -11    1    3    3    0    0  0.18876805189E+01 -0.50284543896E+01  0.25637987414E+00  0.53772132364E+01  0.51100000000E-03 0.  1.
        -12    1    3    3    0    0  0.38915516784E+01 -0.16473976255E+02  0.10813082512E+02  0.20086284413E+02  0.00000000000E+00 0.  1.
</event>
<event>
 7    1  0.1683291E-008  0.4614232E+02  0.7816164E-02  0.1320468E+00
        -11   -1    0    0    0    0  0.00000000000E+00  0.00000000000E+00  0.45593999997E+02  0.45594000000E+02  0.51100000000E-03 0.  1.
         11   -1    0    0    0    0 -0.00000000000E+00 -0.00000000000E+00 -0.45593999997E+02  0.45594000000E+02  0.51100000000E-03 0. -1.
    9900012    2    1    2    0    0  0.10385255681E+02  0.36971584214E+02 -0.23544890204E+02  0.46142318414E+02  0.10000005951E+02 0.  0.
        -12    1    1    2    0    0 -0.10385255681E+02 -0.36971584214E+02  0.23544890204E+02  0.45045681586E+02  0.00000000000E+00 0.  1.
         11    1    3    3    0    0  0.54693297924E+01  0.10482707587E+02 -0.72742888319E+01  0.13882219023E+02  0.51100000000E-03 0. -1.
        -11    1    3    3    0    0 -0.12393400891E+01  0.32978782460E+01 -0.39323009942E+01  0.52796738680E+01  0.51100000000E-03 0.  1.
        -12    1    3    3    0    0  0.61552659772E+01  0.23190998382E+02 -0.12338300378E+02  0.26980425523E+02  0.00000000000E+00 0.  1.
</event>
<event>
 7    1  0.1683291E-008  0.4614232E+02  0.7816164E-02  0.1320468E+00
        -11   -1    0    0    0    0  0.00000000000E+00  0.00000000000E+00  0.45593999997E+02  0.45594000000E+02  0.51100000000E-03 0.  1.
         11   -1    0    0    0    0 -0.00000000000E+00 -0.00000000000E+00 -0.45593999997E+02  0.45594000000E+02  0.51100000000E-03 0. -1.
    9900012    2    1    2    0    0 -0.26358743080E+02  0.33520942402E+02 -0.14514692431E+02  0.46142320821E+02  0.10000027906E+02 0.  0.
        -12    1    1    2    0    0  0.26358743080E+02 -0.33520942402E+02  0.14514692431E+02  0.45045679179E+02  0.00000000000E+00 0.  1.
         11    1    3    3    0    0 -0.87064893197E+01  0.71897888376E+01 -0.22569229948E+01  0.11514761025E+02  0.51100000000E-03 0. -1.
        -11    1    3    3    0    0 -0.11943695512E+02  0.21299380789E+02 -0.11464045050E+02  0.26976653122E+02  0.51100000000E-03 0.  1.
        -12    1    3    3    0    0 -0.57085582478E+01  0.50317727759E+01 -0.79372438579E+00  0.76509066742E+01  0.00000000000E+00 0.  1.
</event>
<event>
 7    1  0.1683291E-008  0.4614232E+02  0.7816164E-02  0.1320468E+00
        -11   -1    0    0    0    0  0.00000000000E+00  0.00000000000E+00  0.45593999997E+02  0.45594000000E+02  0.51100000000E-03 0. -1.
         11   -1    0    0    0    0 -0.00000000000E+00 -0.00000000000E+00 -0.45593999997E+02  0.45594000000E+02  0.51100000000E-03 0.  1.
    9900012    2    1    2    0    0 -0.19812531491E+02  0.39527767065E+02  0.86100315408E+01  0.46142318560E+02  0.10000007288E+02 0.  0.
        -12    1    1    2    0    0  0.19812531491E+02 -0.39527767065E+02 -0.86100315408E+01  0.45045681440E+02  0.00000000000E+00 0.  1.
         11    1    3    3    0    0 -0.13734328156E+02  0.26914438327E+02  0.89764981146E+01  0.31521362265E+02  0.51100000000E-03 0. -1.
        -11    1    3    3    0    0 -0.24765437450E+01  0.67469743259E+01 -0.21649746148E+01  0.75061339462E+01  0.51100000000E-03 0.  1.
        -12    1    3    3    0    0 -0.36016595909E+01  0.58663544114E+01  0.17985080410E+01  0.71148223494E+01  0.00000000000E+00 0.  1.
</event>
<event>
 7    1  0.1683291E-008  0.4614232E+02  0.7816164E-02  0.1320468E+00
        -11   -1    0    0    0    0  0.00000000000E+00  0.00000000000E+00  0.45593999997E+02  0.45594000000E+02  0.51100000000E-03 0. -1.
         11   -1    0    0    0    0 -0.00000000000E+00 -0.00000000000E+00 -0.45593999997E+02  0.45594000000E+02  0.51100000000E-03 0.  1.
    9900012    2    1    2    0    0 -0.32792323843E+02 -0.26556266198E+02  0.15765206221E+02  0.46142317581E+02  0.99999983580E+01 0.  0.
        -12    1    1    2    0    0  0.32792323843E+02  0.26556266198E+02 -0.15765206221E+02  0.45045682419E+02  0.00000000000E+00 0.  1.
         11    1    3    3    0    0 -0.15741138995E+01 -0.98033892818E+00 -0.49109789678E+00  0.19183525192E+01  0.51100000000E-03 0. -1.
        -11    1    3    3    0    0 -0.11256559461E+02 -0.62224471011E+01  0.21275853550E+01  0.13036701980E+02  0.51100000000E-03 0.  1.
         12    1    3    3    0    0 -0.19961650482E+02 -0.19353480169E+02  0.14128718763E+02  0.31187263081E+02  0.00000000000E+00 0. -1.
</event>
<event>
 7    1  0.1683291E-008  0.4614232E+02  0.7816164E-02  0.1320468E+00
        -11   -1    0    0    0    0  0.00000000000E+00  0.00000000000E+00  0.45593999997E+02  0.45594000000E+02  0.51100000000E-03 0. -1.
         11   -1    0    0    0    0 -0.00000000000E+00 -0.00000000000E+00 -0.45593999997E+02  0.45594000000E+02  0.51100000000E-03 0.  1.
    9900012    2    1    2    0    0  0.44898554877E+01  0.37020181189E+02  0.25267783786E+02  0.46142317465E+02  0.99999972996E+01 0.  0.
        -12    1    1    2    0    0 -0.44898554877E+01 -0.37020181189E+02 -0.25267783786E+02  0.45045682535E+02  0.00000000000E+00 0.  1.
         11    1    3    3    0    0  0.40651607513E+01  0.17235014772E+02  0.16270655664E+02  0.24047983328E+02  0.51100000000E-03 0. -1.
        -11    1    3    3    0    0 -0.63154784304E+00  0.41207325351E+00  0.14254047091E+00  0.76744712604E+00  0.51100000000E-03 0.  1.
         12    1    3    3    0    0  0.10562425794E+01  0.19373093164E+02  0.88545876508E+01  0.21326887011E+02  0.00000000000E+00 0. -1.
</event>
<event>
 7    1  0.1683291E-008  0.4614232E+02  0.7816164E-02  0.1320468E+00
        -11   -1    0    0    0    0  0.00000000000E+00  0.00000000000E+00  0.45593999997E+02  0.45594000000E+02  0.51100000000E-03 0.  1.
         11   -1    0    0    0    0 -0.00000000000E+00 -0.00000000000E+00 -0.45593999997E+02  0.45594000000E+02  0.51100000000E-03 0. -1.
    9900012    2    1    2    0    0 -0.65354983292E+01 -0.21724744802E+02 -0.38915756702E+02  0.46142318799E+02  0.10000009469E+02 0.  0.
        -12    1    1    2    0    0  0.65354983292E+01  0.21724744802E+02  0.38915756702E+02  0.45045681201E+02  0.00000000000E+00 0.  1.
         11    1    3    3    0    0  0.82390313506E+00 -0.14577983551E+01 -0.34769794276E+01  0.38591940377E+01  0.51100000000E-03 0. -1.
        -11    1    3    3    0    0  0.28856930735E+00  0.39136030130E+00 -0.32019573811E+01  0.32386673899E+01  0.51100000000E-03 0.  1.
        -12    1    3    3    0    0 -0.76479707716E+01 -0.20658306748E+02 -0.32236819894E+02  0.39044457372E+02  0.00000000000E+00 0.  1.
</event>
<event>
 7    1  0.1683291E-008  0.4614232E+02  0.7816164E-02  0.1320468E+00
        -11   -1    0    0    0    0  0.00000000000E+00  0.00000000000E+00  0.45593999997E+02  0.45594000000E+02  0.51100000000E-03 0.  1.
         11   -1    0    0    0    0 -0.00000000000E+00 -0.00000000000E+00 -0.45593999997E+02  0.45594000000E+02  0.51100000000E-03 0. -1.
    9900012    2    1    2    0    0  0.14739007313E+02 -0.86641103484E+01 -0.41675032712E+02  0.46142317674E+02  0.99999992046E+01 0.  0.
        -12    1    1    2    0    0 -0.14739007313E+02  0.86641103484E+01  0.41675032712E+02  0.45045682326E+02  0.00000000000E+00 0.  1.
         11    1    3    3    0    0  0.11034853269E-01 -0.50669842387E+00 -0.68504490362E+01  0.68691715162E+01  0.51100000000E-03 0. -1.
        -11    1    3    3    0    0  0.82083837165E+01 -0.55602618150E+01 -0.13007262614E+02  0.16354906165E+02  0.51100000000E-03 0.  1.
         12    1    3    3    0    0  0.65195887432E+01 -0.25971501096E+01 -0.21817321061E+02  0.22918239993E+02  0.00000000000E+00 0. -1.
</event>
<event>
 7    1  0.1683291E-008  0.4614232E+02  0.7816164E-02  0.1320468E+00
        -11   -1    0    0    0    0  0.00000000000E+00  0.00000000000E+00  0.45593999997E+02  0.45594000000E+02  0.51100000000E-03 0.  1.
         11   -1    0    0    0    0 -0.00000000000E+00 -0.00000000000E+00 -0.45593999997E+02  0.45594000000E+02  0.51100000000E-03 0. -1.
    9900012    2    1    2    0    0  0.26991867447E+02 -0.17995874319E+02 -0.31252217286E+02  0.46142317786E+02  0.10000000227E+02 0.  0.
        -12    1    1    2    0    0 -0.26991867447E+02  0.17995874319E+02  0.31252217286E+02  0.45045682214E+02  0.00000000000E+00 0.  1.
         11    1    3    3    0    0  0.12292403101E+02 -0.87583247150E+01 -0.15709746308E+02  0.21785489554E+02  0.51100000000E-03 0. -1.
        -11    1    3    3    0    0  0.19325302722E+01 -0.17154009438E+01 -0.65067884157E+01  0.70011120116E+01  0.51100000000E-03 0.  1.
        -12    1    3    3    0    0  0.12766934075E+02 -0.75221486604E+01 -0.90356825626E+01  0.17355716220E+02  0.00000000000E+00 0.  1.
</event>
<event>
 7    1  0.1683291E-008  0.4614232E+02  0.7816164E-02  0.1320468E+00
        -11   -1    0    0    0    0  0.00000000000E+00  0.00000000000E+00  0.45593999997E+02  0.45594000000E+02  0.51100000000E-03 0.  1.
         11   -1    0    0    0    0 -0.00000000000E+00 -0.00000000000E+00 -0.45593999997E+02  0.45594000000E+02  0.51100000000E-03 0. -1.
    9900012    2    1    2    0    0 -0.17747697613E+02  0.28353581250E+02 -0.30169638259E+02  0.46142318598E+02  0.10000007635E+02 0.  0.
        -12    1    1    2    0    0  0.17747697613E+02 -0.28353581250E+02  0.30169638259E+02  0.45045681402E+02  0.00000000000E+00 0.  1.
         11    1    3    3    0    0 -0.10766609675E+01  0.82190117326E+01 -0.57836462215E+01  0.10107517825E+02  0.51100000000E-03 0. -1.
        -11    1    3    3    0    0 -0.12924403567E+02  0.15226812094E+02 -0.15837480281E+02  0.25489640955E+02  0.51100000000E-03 0.  1.
        -12    1    3    3    0    0 -0.37466330787E+01  0.49077574231E+01 -0.85485117560E+01  0.10545159818E+02  0.00000000000E+00 0.  1.
</event>
<event>
 7    1  0.1683291E-008  0.4614232E+02  0.7816164E-02  0.1320468E+00
        -11   -1    0    0    0    0  0.00000000000E+00  0.00000000000E+00  0.45593999997E+02  0.45594000000E+02  0.51100000000E-03 0. -1.
         11   -1    0    0    0    0 -0.00000000000E+00 -0.00000000000E+00 -0.45593999997E+02  0.45594000000E+02  0.51100000000E-03 0.  1.
    9900012    2    1    2    0    0 -0.51187782464E+01 -0.18610823190E+02  0.40700723925E+02  0.46142316982E+02  0.99999928910E+01 0.  0.
        -12    1    1    2    0    0  0.51187782464E+01  0.18610823190E+02 -0.40700723925E+02  0.45045683018E+02  0.00000000000E+00 0.  1.
         11    1    3    3    0    0 -0.64052652859E+01 -0.98016095418E+01  0.25312352613E+02  0.27889319964E+02  0.51100000000E-03 0. -1.
        -11    1    3    3    0    0  0.19408390318E+01 -0.71742984068E+01  0.92439272497E+01  0.11861180592E+02  0.51100000000E-03 0.  1.
        -12    1    3    3    0    0 -0.65435199229E+00 -0.16349152416E+01  0.61444440627E+01  0.63918164255E+01  0.00000000000E+00 0.  1.
</event>
<event>
 7    1  0.1683291E-008  0.4614231E+02  0.7816164E-02  0.1320468E+00
        -11   -1    0    0    0    0  0.00000000000E+00  0.00000000000E+00  0.45593999997E+02  0.45594000000E+02  0.51100000000E-03 0.  1.
         11   -1    0    0    0    0 -0.00000000000E+00 -0.00000000000E+00 -0.45593999997E+02  0.45594000000E+02  0.51100000000E-03 0. -1.
    9900012    2    1    2    0    0 -0.18553715887E+02 -0.28337280864E+01 -0.40949282254E+02  0.46142310915E+02  0.99999375676E+01 0.  0.
        -12    1    1    2    0    0  0.18553715887E+02  0.28337280864E+01  0.40949282254E+02  0.45045689085E+02  0.00000000000E+00 0.  1.
         11    1    3    3    0    0 -0.99472394359E+01  0.21389529112E+01 -0.26139283157E+02  0.28049684778E+02  0.51100000000E-03 0. -1.
        -11    1    3    3    0    0 -0.73982003007E+01 -0.51642824204E+01 -0.11881670136E+02  0.14919023631E+02  0.51100000000E-03 0.  1.
        -12    1    3    3    0    0 -0.12082761508E+01  0.19160142276E+00 -0.29283289605E+01  0.31736025055E+01  0.00000000000E+00 0.  1.
</event>
<event>
 7    1  0.1683291E-008  0.4614232E+02  0.7816164E-02  0.1320468E+00
        -11   -1    0    0    0    0  0.00000000000E+00  0.00000000000E+00  0.45593999997E+02  0.45594000000E+02  0.51100000000E-03 0.  1.
         11   -1    0    0    0    0 -0.00000000000E+00 -0.00000000000E+00 -0.45593999997E+02  0.45594000000E+02  0.51100000000E-03 0. -1.
    9900012    2    1    2    0    0  0.14538412509E+02  0.79069283972E+01 -0.41895448624E+02  0.46142316850E+02  0.99999916962E+01 0.  0.
        -12    1    1    2    0    0 -0.14538412509E+02 -0.79069283972E+01  0.41895448624E+02  0.45045683150E+02  0.00000000000E+00 0.  1.
         11    1    3    3    0    0  0.51286787483E+01  0.48868402186E+00 -0.79543220380E+01  0.94769930422E+01  0.51100000000E-03 0. -1.
        -11    1    3    3    0    0  0.81733117312E+01  0.87280181830E+01 -0.30870283728E+02  0.33105222303E+02  0.51100000000E-03 0.  1.
        -12    1    3    3    0    0  0.12364220300E+01 -0.13097738077E+01 -0.30708428584E+01  0.35601015048E+01  0.00000000000E+00 0.  1.
</event>
<event>
 7    1  0.1683291E-008  0.4614232E+02  0.7816164E-02  0.1320468E+00
        -11   -1    0    0    0    0  0.00000000000E+00  0.00000000000E+00  0.45593999997E+02  0.45594000000E+02  0.51100000000E-03 0.  1.
         11   -1    0    0    0    0 -0.00000000000E+00 -0.00000000000E+00 -0.45593999997E+02  0.45594000000E+02  0.51100000000E-03 0. -1.
    9900012    2    1    2    0    0  0.31876134019E+02  0.29800821926E+02 -0.11177505119E+02  0.46142317320E+02  0.99999959756E+01 0.  0.
        -12    1    1    2    0    0 -0.31876134019E+02 -0.29800821926E+02  0.11177505119E+02  0.45045682680E+02  0.00000000000E+00 0.  1.
         11    1    3    3    0    0 -0.46489600750E+00  0.98632733131E+00  0.47893660973E+00  0.11909451875E+01  0.51100000000E-03 0.  1.
        -11    1    3    3    0    0  0.19949646313E+02  0.18836898332E+02 -0.85782470598E+01  0.28747233774E+02  0.51100000000E-03 0. -1.
        -12    1    3    3    0    0  0.12391383714E+02  0.99775962620E+01 -0.30781946684E+01  0.16204138358E+02  0.00000000000E+00 0.  1.
</event>
<event>
 7    1  0.1683291E-008  0.4614232E+02  0.7816164E-02  0.1320468E+00
        -11   -1    0    0    0    0  0.00000000000E+00  0.00000000000E+00  0.45593999997E+02  0.45594000000E+02  0.51100000000E-03 0.  1.
         11   -1    0    0    0    0 -0.00000000000E+00 -0.00000000000E+00 -0.45593999997E+02  0.45594000000E+02  0.51100000000E-03 0. -1.
    9900012    2    1    2    0    0  0.19992470933E+02 -0.23311422286E+02 -0.32954389497E+02  0.46142322182E+02  0.10000040312E+02 0.  0.
        -12    1    1    2    0    0 -0.19992470933E+02  0.23311422286E+02  0.32954389497E+02  0.45045677818E+02  0.00000000000E+00 0.  1.
         11    1    3    3    0    0  0.12731495774E+02 -0.20758804175E+02 -0.27010030170E+02  0.36367027174E+02  0.51100000000E-03 0. -1.
        -11    1    3    3    0    0  0.48300007209E+01 -0.17011416018E+01 -0.45289608124E+01  0.68362472172E+01  0.51100000000E-03 0.  1.
         12    1    3    3    0    0  0.24309744380E+01 -0.85147650937E+00 -0.14153985144E+01  0.29390477912E+01  0.00000000000E+00 0. -1.
</event>
<event>
 7    1  0.1683291E-008  0.4614232E+02  0.7816164E-02  0.1320468E+00
        -11   -1    0    0    0    0  0.00000000000E+00  0.00000000000E+00  0.45593999997E+02  0.45594000000E+02  0.51100000000E-03 0.  1.
         11   -1    0    0    0    0 -0.00000000000E+00 -0.00000000000E+00 -0.45593999997E+02  0.45594000000E+02  0.51100000000E-03 0. -1.
    9900012    2    1    2    0    0 -0.29808753824E+01  0.43622042024E+02 -0.10832580866E+02  0.46142323442E+02  0.10000051799E+02 0.  0.
        -12    1    1    2    0    0  0.29808753824E+01 -0.43622042024E+02  0.10832580866E+02  0.45045676558E+02  0.00000000000E+00 0.  1.
         11    1    3    3    0    0 -0.28560257964E+01  0.30191468631E+02 -0.54128137595E+01  0.30805522467E+02  0.51100000000E-03 0. -1.
        -11    1    3    3    0    0  0.22081711683E+01  0.43772287670E+01 -0.10359768592E+01  0.50109280479E+01  0.51100000000E-03 0.  1.
         12    1    3    3    0    0 -0.23330207543E+01  0.90533446264E+01 -0.43837902468E+01  0.10325872926E+02  0.00000000000E+00 0. -1.
</event>
<event>
 7    1  0.2259577E-008  0.4614232E+02  0.7816164E-02  0.1320468E+00
        -11   -1    0    0    0    0  0.00000000000E+00  0.00000000000E+00  0.45593999997E+02  0.45594000000E+02  0.51100000000E-03 0.  1.
         11   -1    0    0    0    0 -0.00000000000E+00 -0.00000000000E+00 -0.45593999997E+02  0.45594000000E+02  0.51100000000E-03 0. -1.
    9900012    2    1    2    0    0 -0.52400890183E+01 -0.36808319630E+02 -0.25432313368E+02  0.46142317741E+02  0.99999998196E+01 0.  0.
        -12    1    1    2    0    0  0.52400890183E+01  0.36808319630E+02  0.25432313368E+02  0.45045682259E+02  0.00000000000E+00 0.  1.
         11    1    3    3    0    0 -0.72566896764E+01 -0.31681209933E+02 -0.22007215026E+02  0.39251447379E+02  0.51100000000E-03 0. -1.
        -11    1    3    3    0    0  0.14155372060E-01 -0.84257608630E+00  0.27459972045E+00  0.88630700288E+00  0.51100000000E-03 0.  1.
         12    1    3    3    0    0  0.20024452860E+01 -0.42845336101E+01 -0.36996980630E+01  0.60045633594E+01  0.00000000000E+00 0. -1.
</event>
<event>
 7    1  0.1683291E-008  0.4614232E+02  0.7816164E-02  0.1320468E+00
        -11   -1    0    0    0    0  0.00000000000E+00  0.00000000000E+00  0.45593999997E+02  0.45594000000E+02  0.51100000000E-03 0. -1.
         11   -1    0    0    0    0 -0.00000000000E+00 -0.00000000000E+00 -0.45593999997E+02  0.45594000000E+02  0.51100000000E-03 0.  1.
    9900012    2    1    2    0    0 -0.26143381436E+02  0.12879085319E+02  0.34347721924E+02  0.46142320596E+02  0.10000025853E+02 0.  0.
        -12    1    1    2    0    0  0.26143381436E+02 -0.12879085319E+02 -0.34347721924E+02  0.45045679404E+02  0.00000000000E+00 0.  1.
         11    1    3    3    0    0 -0.18049279418E+02  0.87716571895E+01  0.23297346925E+02  0.30748737070E+02  0.51100000000E-03 0. -1.
        -11    1    3    3    0    0 -0.47939070997E+01 -0.58508675540E+00  0.63451412655E+01  0.79740008611E+01  0.51100000000E-03 0.  1.
        -12    1    3    3    0    0 -0.33001949184E+01  0.46925148852E+01  0.47052337329E+01  0.74195826654E+01  0.00000000000E+00 0.  1.
</event>
<event>
 7    1  0.1683291E-008  0.4614232E+02  0.7816164E-02  0.1320468E+00
        -11   -1    0    0    0    0  0.00000000000E+00  0.00000000000E+00  0.45593999997E+02  0.45594000000E+02  0.51100000000E-03 0.  1.
         11   -1    0    0    0    0 -0.00000000000E+00 -0.00000000000E+00 -0.45593999997E+02  0.45594000000E+02  0.51100000000E-03 0. -1.
    9900012    2    1    2    0    0 -0.38486321261E+02 -0.37232134843E+00 -0.23404656992E+02  0.46142317451E+02  0.99999971699E+01 0.  0.
        -12    1    1    2    0    0  0.38486321261E+02  0.37232134843E+00  0.23404656992E+02  0.45045682549E+02  0.00000000000E+00 0.  1.
         11    1    3    3    0    0 -0.79314846838E+01 -0.68428842192E+00 -0.53141442732E+01  0.95716680652E+01  0.51100000000E-03 0. -1.
        -11    1    3    3    0    0 -0.26046068624E+02  0.24988650551E+01 -0.17603081272E+02  0.31535860348E+02  0.51100000000E-03 0.  1.
        -12    1    3    3    0    0 -0.45087679530E+01 -0.21868979816E+01 -0.48743144650E+00  0.50347890374E+01  0.00000000000E+00 0.  1.
</event>
<event>
 7    1  0.1683291E-008  0.4614232E+02  0.7816164E-02  0.1320468E+00
        -11   -1    0    0    0    0  0.00000000000E+00  0.00000000000E+00  0.45593999997E+02  0.45594000000E+02  0.51100000000E-03 0.  1.
         11   -1    0    0    0    0 -0.00000000000E+00 -0.00000000000E+00 -0.45593999997E+02  0.45594000000E+02  0.51100000000E-03 0. -1.
    9900012    2    1    2    0    0  0.50792178798E+01  0.17744101135E+02 -0.41090897296E+02  0.46142318521E+02  0.10000006926E+02 0.  0.
        -12    1    1    2    0    0 -0.50792178798E+01 -0.17744101135E+02  0.41090897296E+02  0.45045681479E+02  0.00000000000E+00 0.  1.
         11    1    3    3    0    0 -0.21161453613E+01  0.44083748643E+01 -0.60392617665E+01  0.77707479099E+01  0.51100000000E-03 0.  1.
        -11    1    3    3    0    0  0.17441394988E+01  0.69164129604E+01 -0.17735219482E+02  0.19115878247E+02  0.51100000000E-03 0. -1.
        -12    1    3    3    0    0  0.54512237423E+01  0.64193133103E+01 -0.17316416047E+02  0.19255692363E+02  0.00000000000E+00 0.  1.
</event>
<event>
 7    1  0.1683291E-008  0.4614232E+02  0.7816164E-02  0.1320468E+00
        -11   -1    0    0    0    0  0.00000000000E+00  0.00000000000E+00  0.45593999997E+02  0.45594000000E+02  0.51100000000E-03 0.  1.
         11   -1    0    0    0    0 -0.00000000000E+00 -0.00000000000E+00 -0.45593999997E+02  0.45594000000E+02  0.51100000000E-03 0. -1.
    9900012    2    1    2    0    0  0.20134566493E+02 -0.21096212569E+02 -0.34331654562E+02  0.46142318103E+02  0.10000003116E+02 0.  0.
        -12    1    1    2    0    0 -0.20134566493E+02  0.21096212569E+02  0.34331654562E+02  0.45045681897E+02  0.00000000000E+00 0.  1.
         11    1    3    3    0    0  0.60455299893E+01 -0.88244718763E+01 -0.11932228544E+02  0.16024912325E+02  0.51100000000E-03 0. -1.
        -11    1    3    3    0    0  0.33978601962E+01 -0.49468726547E+01 -0.28041448151E+01  0.66242155294E+01  0.51100000000E-03 0.  1.
        -12    1    3    3    0    0  0.10691176308E+02 -0.73248680382E+01 -0.19595281203E+02  0.23493190248E+02  0.00000000000E+00 0.  1.
</event>
<event>
 7    1  0.1683291E-008  0.4614232E+02  0.7816164E-02  0.1320468E+00
        -11   -1    0    0    0    0  0.00000000000E+00  0.00000000000E+00  0.45593999997E+02  0.45594000000E+02  0.51100000000E-03 0. -1.
         11   -1    0    0    0    0 -0.00000000000E+00 -0.00000000000E+00 -0.45593999997E+02  0.45594000000E+02  0.51100000000E-03 0.  1.
    9900012    2    1    2    0    0  0.94949185111E+01  0.33124739539E+02  0.29012266869E+02  0.46142317899E+02  0.10000001262E+02 0.  0.
        -12    1    1    2    0    0 -0.94949185111E+01 -0.33124739539E+02 -0.29012266869E+02  0.45045682101E+02  0.00000000000E+00 0.  1.
         11    1    3    3    0    0  0.29368032198E+01  0.93085427828E+01  0.13822525710E+02  0.16921465633E+02  0.51100000000E-03 0. -1.
        -11    1    3    3    0    0  0.34851938256E+00  0.82632912434E-01  0.53738974856E+00  0.64581883003E+00  0.51100000000E-03 0.  1.
         12    1    3    3    0    0  0.62095959088E+01  0.23733563844E+02  0.14652351410E+02  0.28575033437E+02  0.00000000000E+00 0. -1.
</event>
<event>
 7    1  0.1683291E-008  0.4614232E+02  0.7816164E-02  0.1320468E+00
        -11   -1    0    0    0    0  0.00000000000E+00  0.00000000000E+00  0.45593999997E+02  0.45594000000E+02  0.51100000000E-03 0.  1.
         11   -1    0    0    0    0 -0.00000000000E+00 -0.00000000000E+00 -0.45593999997E+02  0.45594000000E+02  0.51100000000E-03 0. -1.
    9900012    2    1    2    0    0 -0.26620801380E+02 -0.19338484127E+02 -0.30764738057E+02  0.46142321604E+02  0.10000035045E+02 0.  0.
        -12    1    1    2    0    0  0.26620801380E+02  0.19338484127E+02  0.30764738057E+02  0.45045678396E+02  0.00000000000E+00 0.  1.
         11    1    3    3    0    0 -0.16404217423E+02 -0.14297932118E+02 -0.23437241905E+02  0.31981768564E+02  0.51100000000E-03 0. -1.
        -11    1    3    3    0    0 -0.28970670489E+01  0.16156732316E+00 -0.65899822435E+00  0.29754630575E+01  0.51100000000E-03 0.  1.
        -12    1    3    3    0    0 -0.73195169082E+01 -0.52021193329E+01 -0.66684979271E+01  0.11185089983E+02  0.00000000000E+00 0.  1.
</event>
<event>
 7    1  0.1683291E-008  0.4614232E+02  0.7816164E-02  0.1320468E+00
        -11   -1    0    0    0    0  0.00000000000E+00  0.00000000000E+00  0.45593999997E+02  0.45594000000E+02  0.51100000000E-03 0.  1.
         11   -1    0    0    0    0 -0.00000000000E+00 -0.00000000000E+00 -0.45593999997E+02  0.45594000000E+02  0.51100000000E-03 0. -1.
    9900012    2    1    2    0    0  0.34448887029E+02  0.13242160222E+02 -0.25826979586E+02  0.46142317639E+02  0.99999988823E+01 0.  0.
        -12    1    1    2    0    0 -0.34448887029E+02 -0.13242160222E+02  0.25826979586E+02  0.45045682361E+02  0.00000000000E+00 0.  1.
         11    1    3    3    0    0  0.17608347866E+02  0.95997038172E+01 -0.15540455813E+02  0.25371519369E+02  0.51100000000E-03 0. -1.
        -11    1    3    3    0    0  0.65800413570E+01  0.32619621934E+00 -0.12582772496E+01  0.67072058364E+01  0.51100000000E-03 0.  1.
        -12    1    3    3    0    0  0.10260497806E+02  0.33162601853E+01 -0.90282465234E+01  0.14063592434E+02  0.00000000000E+00 0.  1.
</event>
<event>
 7    1  0.1683291E-008  0.4614232E+02  0.7816164E-02  0.1320468E+00
        -11   -1    0    0    0    0  0.00000000000E+00  0.00000000000E+00  0.45593999997E+02  0.45594000000E+02  0.51100000000E-03 0.  1.
         11   -1    0    0    0    0 -0.00000000000E+00 -0.00000000000E+00 -0.45593999997E+02  0.45594000000E+02  0.51100000000E-03 0. -1.
    9900012    2    1    2    0    0  0.24761816646E+02  0.32675682113E+02 -0.18661878254E+02  0.46142318019E+02  0.10000002353E+02 0.  0.
        -12    1    1    2    0    0 -0.24761816646E+02 -0.32675682113E+02  0.18661878254E+02  0.45045681981E+02  0.00000000000E+00 0.  1.
         11    1    3    3    0    0  0.14515787514E+02  0.17860539217E+02 -0.95114891134E+01  0.24903320535E+02  0.51100000000E-03 0. -1.
        -11    1    3    3    0    0  0.84087806463E+01  0.11126333353E+02 -0.37424479752E+01  0.14439833896E+02  0.51100000000E-03 0.  1.
         12    1    3    3    0    0  0.18372484857E+01  0.36888095430E+01 -0.54079411654E+01  0.67991635876E+01  0.00000000000E+00 0. -1.
</event>
<event>
 7    1  0.1683291E-008  0.4614232E+02  0.7816164E-02  0.1320468E+00
        -11   -1    0    0    0    0  0.00000000000E+00  0.00000000000E+00  0.45593999997E+02  0.45594000000E+02  0.51100000000E-03 0. -1.
         11   -1    0    0    0    0 -0.00000000000E+00 -0.00000000000E+00 -0.45593999997E+02  0.45594000000E+02  0.51100000000E-03 0.  1.
    9900012    2    1    2    0    0 -0.40949152249E+02 -0.13173133901E+02  0.13369703637E+02  0.46142317610E+02  0.99999986192E+01 0.  0.
        -12    1    1    2    0    0  0.40949152249E+02  0.13173133901E+02 -0.13369703637E+02  0.45045682390E+02  0.00000000000E+00 0.  1.
         11    1    3    3    0    0 -0.29717194765E+02 -0.72753419692E+01  0.12718297378E+02  0.33133025125E+02  0.51100000000E-03 0. -1.
        -11    1    3    3    0    0 -0.96314111812E+01 -0.60481069456E+01  0.38248934505E+00  0.11379366297E+02  0.51100000000E-03 0.  1.
         12    1    3    3    0    0 -0.16005463029E+01  0.15031501407E+00  0.26891691431E+00  0.16299261879E+01  0.00000000000E+00 0. -1.
</event>
<event>
 7    1  0.1683291E-008  0.4614232E+02  0.7816164E-02  0.1320468E+00
        -11   -1    0    0    0    0  0.00000000000E+00  0.00000000000E+00  0.45593999997E+02  0.45594000000E+02  0.51100000000E-03 0.  1.
         11   -1    0    0    0    0 -0.00000000000E+00 -0.00000000000E+00 -0.45593999997E+02  0.45594000000E+02  0.51100000000E-03 0. -1.
    9900012    2    1    2    0    0  0.44130057546E+02  0.49141290045E+01 -0.75830729707E+01  0.46142316094E+02  0.99999847955E+01 0.  0.
        -12    1    1    2    0    0 -0.44130057546E+02 -0.49141290045E+01  0.75830729707E+01  0.45045683906E+02  0.00000000000E+00 0.  1.
         11    1    3    3    0    0  0.64169151652E+01 -0.27769798960E+00 -0.43116450151E+01  0.77359032704E+01  0.51100000000E-03 0. -1.
        -11    1    3    3    0    0  0.36582497302E+02  0.43948847614E+01 -0.34715577670E+01  0.37008726464E+02  0.51100000000E-03 0.  1.
        -12    1    3    3    0    0  0.11306450790E+01  0.79694223271E+00  0.20012981144E+00  0.13976863591E+01  0.00000000000E+00 0.  1.
</event>
<event>
 7    1  0.1683291E-008  0.4614232E+02  0.7816164E-02  0.1320468E+00
        -11   -1    0    0    0    0  0.00000000000E+00  0.00000000000E+00  0.45593999997E+02  0.45594000000E+02  0.51100000000E-03 0. -1.
         11   -1    0    0    0    0 -0.00000000000E+00 -0.00000000000E+00 -0.45593999997E+02  0.45594000000E+02  0.51100000000E-03 0.  1.
    9900012    2    1    2    0    0  0.50949828340E+01 -0.31689540440E+02  0.31605817598E+02  0.46142317305E+02  0.99999958438E+01 0.  0.
        -12    1    1    2    0    0 -0.50949828340E+01  0.31689540440E+02 -0.31605817598E+02  0.45045682695E+02  0.00000000000E+00 0.  1.
         11    1    3    3    0    0 -0.10448084092E+01 -0.55113046070E+01  0.49662204258E+01  0.74919589335E+01  0.51100000000E-03 0. -1.
        -11    1    3    3    0    0  0.72566990550E+01 -0.15139187528E+02  0.14271374340E+02  0.22034672814E+02  0.51100000000E-03 0.  1.
        -12    1    3    3    0    0 -0.11169078117E+01 -0.11039048304E+02  0.12368222833E+02  0.16615685558E+02  0.00000000000E+00 0.  1.
</event>
<event>
 7    1  0.1683291E-008  0.4614232E+02  0.7816164E-02  0.1320468E+00
        -11   -1    0    0    0    0  0.00000000000E+00  0.00000000000E+00  0.45593999997E+02  0.45594000000E+02  0.51100000000E-03 0.  1.
         11   -1    0    0    0    0 -0.00000000000E+00 -0.00000000000E+00 -0.45593999997E+02  0.45594000000E+02  0.51100000000E-03 0. -1.
    9900012    2    1    2    0    0  0.12167193799E+02 -0.30171169218E+02 -0.31157239309E+02  0.46142316319E+02  0.99999868479E+01 0.  0.
        -12    1    1    2    0    0 -0.12167193799E+02  0.30171169218E+02  0.31157239309E+02  0.45045683681E+02  0.00000000000E+00 0.  1.
         11    1    3    3    0    0  0.10315826091E+01 -0.26667824441E+01 -0.68726296308E+01  0.74437174574E+01  0.51100000000E-03 0. -1.
        -11    1    3    3    0    0  0.17623434553E+01 -0.81905282585E+01 -0.93048298652E+01  0.12520801360E+02  0.51100000000E-03 0.  1.
         12    1    3    3    0    0  0.93732677342E+01 -0.19313858516E+02 -0.14979779813E+02  0.26177797502E+02  0.00000000000E+00 0. -1.
</event>
<event>
 7    1  0.1683291E-008  0.4614232E+02  0.7816164E-02  0.1320468E+00
        -11   -1    0    0    0    0  0.00000000000E+00  0.00000000000E+00  0.45593999997E+02  0.45594000000E+02  0.51100000000E-03 0.  1.
         11   -1    0    0    0    0 -0.00000000000E+00 -0.00000000000E+00 -0.45593999997E+02  0.45594000000E+02  0.51100000000E-03 0. -1.
    9900012    2    1    2    0    0 -0.10232920213E+02  0.13991124970E+02 -0.41577027900E+02  0.46142317820E+02  0.10000000539E+02 0.  0.
        -12    1    1    2    0    0  0.10232920213E+02 -0.13991124970E+02  0.41577027900E+02  0.45045682180E+02  0.00000000000E+00 0.  1.
         11    1    3    3    0    0 -0.90079723939E+01  0.86202986496E+01 -0.34002179325E+02  0.36216036704E+02  0.51100000000E-03 0. -1.
        -11    1    3    3    0    0 -0.27576706317E+00  0.35163844933E+01 -0.21881614319E+01  0.41507900562E+01  0.51100000000E-03 0.  1.
        -12    1    3    3    0    0 -0.94918075637E+00  0.18544418270E+01 -0.53866871438E+01  0.57754910599E+01  0.00000000000E+00 0.  1.
</event>
<event>
 7    1  0.1683291E-008  0.4614232E+02  0.7816164E-02  0.1320468E+00
        -11   -1    0    0    0    0  0.00000000000E+00  0.00000000000E+00  0.45593999997E+02  0.45594000000E+02  0.51100000000E-03 0. -1.
         11   -1    0    0    0    0 -0.00000000000E+00 -0.00000000000E+00 -0.45593999997E+02  0.45594000000E+02  0.51100000000E-03 0.  1.
    9900012    2    1    2    0    0 -0.23687445039E+01 -0.23660832710E+02  0.38257909253E+02  0.46142316795E+02  0.99999911870E+01 0.  0.
        -12    1    1    2    0    0  0.23687445039E+01  0.23660832710E+02 -0.38257909253E+02  0.45045683205E+02  0.00000000000E+00 0.  1.
         11    1    3    3    0    0 -0.44675391404E-01 -0.77938655544E+01  0.64987734110E+01  0.10147925516E+02  0.51100000000E-03 0. -1.
        -11    1    3    3    0    0  0.34775951941E+00 -0.12545986741E+02  0.25506250818E+02  0.28426951139E+02  0.51100000000E-03 0.  1.
        -12    1    3    3    0    0 -0.26718286319E+01 -0.33209804143E+01  0.62528850236E+01  0.75674401397E+01  0.00000000000E+00 0.  1.
</event>
<event>
 7    1  0.1683291E-008  0.4614232E+02  0.7816164E-02  0.1320468E+00
        -11   -1    0    0    0    0  0.00000000000E+00  0.00000000000E+00  0.45593999997E+02  0.45594000000E+02  0.51100000000E-03 0. -1.
         11   -1    0    0    0    0 -0.00000000000E+00 -0.00000000000E+00 -0.45593999997E+02  0.45594000000E+02  0.51100000000E-03 0.  1.
    9900012    2    1    2    0    0 -0.36444102802E+02 -0.18643816185E+02  0.18797580311E+02  0.46142317227E+02  0.99999951256E+01 0.  0.
        -12    1    1    2    0    0  0.36444102802E+02  0.18643816185E+02 -0.18797580311E+02  0.45045682773E+02  0.00000000000E+00 0.  1.
         11    1    3    3    0    0 -0.17536654248E+02 -0.98950137254E+01  0.78014724112E+01  0.21594177708E+02  0.51100000000E-03 0. -1.
        -11    1    3    3    0    0 -0.73628352631E+01 -0.45769914803E+01  0.82540108044E+01  0.11970333694E+02  0.51100000000E-03 0.  1.
         12    1    3    3    0    0 -0.11544613291E+02 -0.41718109790E+01  0.27420970953E+01  0.12577805825E+02  0.00000000000E+00 0. -1.
</event>
<event>
 7    1  0.1683291E-008  0.4614232E+02  0.7816164E-02  0.1320468E+00
        -11   -1    0    0    0    0  0.00000000000E+00  0.00000000000E+00  0.45593999997E+02  0.45594000000E+02  0.51100000000E-03 0.  1.
         11   -1    0    0    0    0 -0.00000000000E+00 -0.00000000000E+00 -0.45593999997E+02  0.45594000000E+02  0.51100000000E-03 0. -1.
    9900012    2    1    2    0    0 -0.12332423877E+02 -0.29650519918E+02 -0.31589104222E+02  0.46142317458E+02  0.99999972390E+01 0.  0.
        -12    1    1    2    0    0  0.12332423877E+02  0.29650519918E+02  0.31589104222E+02  0.45045682542E+02  0.00000000000E+00 0.  1.
         11    1    3    3    0    0 -0.90448514347E+01 -0.18296547620E+02 -0.21816789816E+02  0.29875496823E+02  0.51100000000E-03 0. -1.
        -11    1    3    3    0    0 -0.28023137418E+01 -0.80247020251E+01 -0.35872393725E+01  0.92258924488E+01  0.51100000000E-03 0.  1.
        -12    1    3    3    0    0 -0.48525870021E+00 -0.33292702734E+01 -0.61850750338E+01  0.70409281869E+01  0.00000000000E+00 0.  1.
</event>
<event>
 7    1  0.1683291E-008  0.4614232E+02  0.7816164E-02  0.1320468E+00
        -11   -1    0    0    0    0  0.00000000000E+00  0.00000000000E+00  0.45593999997E+02  0.45594000000E+02  0.51100000000E-03 0.  1.
         11   -1    0    0    0    0 -0.00000000000E+00 -0.00000000000E+00 -0.45593999997E+02  0.45594000000E+02  0.51100000000E-03 0. -1.
    9900012    2    1    2    0    0  0.40635525668E+02  0.16234707892E+02 -0.10691202575E+02  0.46142317641E+02  0.99999989045E+01 0.  0.
        -12    1    1    2    0    0 -0.40635525668E+02 -0.16234707892E+02  0.10691202575E+02  0.45045682359E+02  0.00000000000E+00 0.  1.
         11    1    3    3    0    0  0.18958558037E+02  0.92435026673E+01 -0.38345265405E+01  0.21437650488E+02  0.51100000000E-03 0. -1.
        -11    1    3    3    0    0  0.14895823819E+02  0.19548808702E+01 -0.61321727199E+01  0.16226850248E+02  0.51100000000E-03 0.  1.
        -12    1    3    3    0    0  0.67811438126E+01  0.50363243545E+01 -0.72450331503E+00  0.84778169044E+01  0.00000000000E+00 0.  1.
</event>
<event>
 7    1  0.1683291E-008  0.4614232E+02  0.7816164E-02  0.1320468E+00
        -11   -1    0    0    0    0  0.00000000000E+00  0.00000000000E+00  0.45593999997E+02  0.45594000000E+02  0.51100000000E-03 0. -1.
         11   -1    0    0    0    0 -0.00000000000E+00 -0.00000000000E+00 -0.45593999997E+02  0.45594000000E+02  0.51100000000E-03 0.  1.
    9900012    2    1    2    0    0  0.11353789506E+02  0.12543586865E+02  0.41747614536E+02  0.46142318441E+02  0.10000006204E+02 0.  0.
        -12    1    1    2    0    0 -0.11353789506E+02 -0.12543586865E+02 -0.41747614536E+02  0.45045681559E+02  0.00000000000E+00 0.  1.
         11    1    3    3    0    0  0.11194574453E+01  0.89788141168E+00  0.91268123205E+01  0.92389436299E+01  0.51100000000E-03 0. -1.
        -11    1    3    3    0    0  0.96274503664E+01  0.11670145045E+02  0.24739276830E+02  0.28998481069E+02  0.51100000000E-03 0.  1.
        -12    1    3    3    0    0  0.60688169446E+00 -0.24439591849E-01  0.78815253854E+01  0.79048937429E+01  0.00000000000E+00 0.  1.
</event>
<event>
 7    1  0.1683291E-008  0.4614232E+02  0.7816164E-02  0.1320468E+00
        -11   -1    0    0    0    0  0.00000000000E+00  0.00000000000E+00  0.45593999997E+02  0.45594000000E+02  0.51100000000E-03 0.  1.
         11   -1    0    0    0    0 -0.00000000000E+00 -0.00000000000E+00 -0.45593999997E+02  0.45594000000E+02  0.51100000000E-03 0. -1.
    9900012    2    1    2    0    0  0.22790751513E+02  0.38634097328E+02  0.41354189538E+01  0.46142317401E+02  0.99999967162E+01 0.  0.
        -12    1    1    2    0    0 -0.22790751513E+02 -0.38634097328E+02 -0.41354189538E+01  0.45045682599E+02  0.00000000000E+00 0.  1.
         11    1    3    3    0    0  0.75275038787E+01  0.10287977772E+02 -0.94060728562E-01  0.12748123351E+02  0.51100000000E-03 0. -1.
        -11    1    3    3    0    0  0.58246491542E+01  0.12228755235E+02  0.56202257942E+01  0.14664785392E+02  0.51100000000E-03 0.  1.
        -12    1    3    3    0    0  0.94385984800E+01  0.16117364321E+02 -0.13907461119E+01  0.18729408658E+02  0.00000000000E+00 0.  1.
</event>
<event>
 7    1  0.1683291E-008  0.4614232E+02  0.7816164E-02  0.1320468E+00
        -11   -1    0    0    0    0  0.00000000000E+00  0.00000000000E+00  0.45593999997E+02  0.45594000000E+02  0.51100000000E-03 0. -1.
         11   -1    0    0    0    0 -0.00000000000E+00 -0.00000000000E+00 -0.45593999997E+02  0.45594000000E+02  0.51100000000E-03 0.  1.
    9900012    2    1    2    0    0 -0.14612982204E+00  0.40404695550E+02  0.19913631825E+02  0.46142317533E+02  0.99999979243E+01 0.  0.
        -12    1    1    2    0    0  0.14612982204E+00 -0.40404695550E+02 -0.19913631825E+02  0.45045682467E+02  0.00000000000E+00 0.  1.
         11    1    3    3    0    0  0.30000765633E+01  0.24688402765E+02  0.84230337107E+01  0.26257669120E+02  0.51100000000E-03 0. -1.
        -11    1    3    3    0    0 -0.43755399130E-01 -0.10087487669E+00  0.80362303302E-01  0.13619337948E+00  0.51100000000E-03 0.  1.
         12    1    3    3    0    0 -0.31024509862E+01  0.15817167661E+02  0.11410235811E+02  0.19748455034E+02  0.00000000000E+00 0. -1.
</event>
<event>
 7    1  0.2001806E-008  0.4614232E+02  0.7816164E-02  0.1320468E+00
        -11   -1    0    0    0    0  0.00000000000E+00  0.00000000000E+00  0.45593999997E+02  0.45594000000E+02  0.51100000000E-03 0.  1.
         11   -1    0    0    0    0 -0.00000000000E+00 -0.00000000000E+00 -0.45593999997E+02  0.45594000000E+02  0.51100000000E-03 0. -1.
    9900012    2    1    2    0    0  0.40224810143E+02  0.18355389571E+02 -0.86114741369E+01  0.46142321359E+02  0.10000032811E+02 0.  0.
        -12    1    1    2    0    0 -0.40224810143E+02 -0.18355389571E+02  0.86114741369E+01  0.45045678641E+02  0.00000000000E+00 0.  1.
         11    1    3    3    0    0  0.31515185322E+02  0.16980084255E+02 -0.47066967541E+01  0.36106552893E+02  0.51100000000E-03 0. -1.
        -11    1    3    3    0    0  0.22034688101E+01 -0.48016681891E+00 -0.19818040081E+01  0.30022295647E+01  0.51100000000E-03 0.  1.
         12    1    3    3    0    0  0.65061560110E+01  0.18554721355E+01 -0.19229733747E+01  0.70335389020E+01  0.00000000000E+00 0. -1.
</event>
<event>
 7    1  0.1683291E-008  0.4614232E+02  0.7816164E-02  0.1320468E+00
        -11   -1    0    0    0    0  0.00000000000E+00  0.00000000000E+00  0.45593999997E+02  0.45594000000E+02  0.51100000000E-03 0.  1.
         11   -1    0    0    0    0 -0.00000000000E+00 -0.00000000000E+00 -0.45593999997E+02  0.45594000000E+02  0.51100000000E-03 0. -1.
    9900012    2    1    2    0    0 -0.90965450575E+01 -0.44024672833E+02  0.28626135411E+01  0.46142317562E+02  0.99999981871E+01 0.  0.
        -12    1    1    2    0    0  0.90965450575E+01  0.44024672833E+02 -0.28626135411E+01  0.45045682438E+02  0.00000000000E+00 0.  1.
         11    1    3    3    0    0 -0.99265634526E+01 -0.28870351043E+02  0.16690865424E+01  0.30574821037E+02  0.51100000000E-03 0. -1.
        -11    1    3    3    0    0  0.19428930842E+01 -0.61695335324E+01  0.49975281132E+00  0.64875057362E+01  0.51100000000E-03 0.  1.
         12    1    3    3    0    0 -0.11128746891E+01 -0.89847882575E+01  0.69377418738E+00  0.90799907890E+01  0.00000000000E+00 0. -1.
</event>
<event>
 7    1  0.1683291E-008  0.4614232E+02  0.7816164E-02  0.1320468E+00
        -11   -1    0    0    0    0  0.00000000000E+00  0.00000000000E+00  0.45593999997E+02  0.45594000000E+02  0.51100000000E-03 0. -1.
         11   -1    0    0    0    0 -0.00000000000E+00 -0.00000000000E+00 -0.45593999997E+02  0.45594000000E+02  0.51100000000E-03 0.  1.
    9900012    2    1    2    0    0 -0.25904338375E+02 -0.35812691217E+02  0.86908061188E+01  0.46142315302E+02  0.99999775801E+01 0.  0.
        -12    1    1    2    0    0  0.25904338375E+02  0.35812691217E+02 -0.86908061188E+01  0.45045684698E+02  0.00000000000E+00 0.  1.
         11    1    3    3    0    0 -0.73848513094E+01 -0.12050975423E+02  0.56236701725E+01  0.15211433331E+02  0.51100000000E-03 0. -1.
        -11    1    3    3    0    0 -0.18235766383E+02 -0.22339670249E+02  0.41316515847E+01  0.29132019970E+02  0.51100000000E-03 0.  1.
        -12    1    3    3    0    0 -0.28372068218E+00 -0.14220455446E+01 -0.10645156384E+01  0.17988620016E+01  0.00000000000E+00 0.  1.
</event>
<event>
 7    1  0.1683291E-008  0.4614230E+02  0.7816164E-02  0.1320468E+00
        -11   -1    0    0    0    0  0.00000000000E+00  0.00000000000E+00  0.45593999997E+02  0.45594000000E+02  0.51100000000E-03 0.  1.
         11   -1    0    0    0    0 -0.00000000000E+00 -0.00000000000E+00 -0.45593999997E+02  0.45594000000E+02  0.51100000000E-03 0. -1.
    9900012    2    1    2    0    0  0.11113871987E+02  0.10827959327E+02 -0.42288912194E+02  0.46142301557E+02  0.99998522340E+01 0.  0.
        -12    1    1    2    0    0 -0.11113871987E+02 -0.10827959327E+02  0.42288912194E+02  0.45045698443E+02  0.00000000000E+00 0.  1.
         11    1    3    3    0    0  0.37809567935E+01  0.27193720998E+01 -0.20019134312E+02  0.20553743157E+02  0.51100000000E-03 0. -1.
        -11    1    3    3    0    0  0.42827385335E+00  0.64048627694E+00  0.30477428350E+00  0.82857032858E+00  0.51100000000E-03 0.  1.
        -12    1    3    3    0    0  0.69046413396E+01  0.74681009501E+01 -0.22574552165E+02  0.24759988071E+02  0.00000000000E+00 0.  1.
</event>
<event>
 7    1  0.1683291E-008  0.4614232E+02  0.7816164E-02  0.1320468E+00
        -11   -1    0    0    0    0  0.00000000000E+00  0.00000000000E+00  0.45593999997E+02  0.45594000000E+02  0.51100000000E-03 0. -1.
         11   -1    0    0    0    0 -0.00000000000E+00 -0.00000000000E+00 -0.45593999997E+02  0.45594000000E+02  0.51100000000E-03 0.  1.
    9900012    2    1    2    0    0 -0.34584623063E+02 -0.21793859903E+02  0.18922077872E+02  0.46142317489E+02  0.99999975160E+01 0.  0.
        -12    1    1    2    0    0  0.34584623063E+02  0.21793859903E+02 -0.18922077872E+02  0.45045682511E+02  0.00000000000E+00 0.  1.
         11    1    3    3    0    0 -0.92839449527E+01 -0.27783663355E+01  0.50215270822E+01  0.10914517299E+02  0.51100000000E-03 0. -1.
        -11    1    3    3    0    0 -0.10687771796E+02 -0.10773332481E+02  0.94249466330E+01  0.17864007893E+02  0.51100000000E-03 0.  1.
         12    1    3    3    0    0 -0.14612906315E+02 -0.82421610874E+01  0.44756041567E+01  0.17363792297E+02  0.00000000000E+00 0. -1.
</event>
<event>
 7    1  0.1683291E-008  0.4614232E+02  0.7816164E-02  0.1320468E+00
        -11   -1    0    0    0    0  0.00000000000E+00  0.00000000000E+00  0.45593999997E+02  0.45594000000E+02  0.51100000000E-03 0.  1.
         11   -1    0    0    0    0 -0.00000000000E+00 -0.00000000000E+00 -0.45593999997E+02  0.45594000000E+02  0.51100000000E-03 0. -1.
    9900012    2    1    2    0    0 -0.23312959750E+01 -0.20860310849E+02 -0.39856317589E+02  0.46142316950E+02  0.99999926074E+01 0.  0.
        -12    1    1    2    0    0  0.23312959750E+01  0.20860310849E+02  0.39856317589E+02  0.45045683050E+02  0.00000000000E+00 0.  1.
         11    1    3    3    0    0  0.12228555916E+01 -0.10532134241E+02 -0.28018238347E+02  0.29957351481E+02  0.51100000000E-03 0. -1.
        -11    1    3    3    0    0 -0.93859978492E+00 -0.48125226914E+01 -0.46907110681E+01  0.67855813898E+01  0.51100000000E-03 0.  1.
         12    1    3    3    0    0 -0.26155517817E+01 -0.55156539165E+01 -0.71473681745E+01  0.93993840794E+01  0.00000000000E+00 0. -1.
</event>
<event>
 7    1  0.1683291E-008  0.4614232E+02  0.7816164E-02  0.1320468E+00
        -11   -1    0    0    0    0  0.00000000000E+00  0.00000000000E+00  0.45593999997E+02  0.45594000000E+02  0.51100000000E-03 0.  1.
         11   -1    0    0    0    0 -0.00000000000E+00 -0.00000000000E+00 -0.45593999997E+02  0.45594000000E+02  0.51100000000E-03 0. -1.
    9900012    2    1    2    0    0 -0.20653425714E+02  0.15003533474E+02 -0.37113928505E+02  0.46142315417E+02  0.99999786282E+01 0.  0.
        -12    1    1    2    0    0  0.20653425714E+02 -0.15003533474E+02  0.37113928505E+02  0.45045684583E+02  0.00000000000E+00 0.  1.
         11    1    3    3    0    0 -0.39755100305E+01  0.33852486475E+01 -0.10234625860E+02  0.11489654266E+02  0.51100000000E-03 0. -1.
        -11    1    3    3    0    0 -0.89773573797E+01  0.53797600441E+01 -0.74658733032E+01  0.12855894683E+02  0.51100000000E-03 0.  1.
        -12    1    3    3    0    0 -0.77005583037E+01  0.62385247828E+01 -0.19413429342E+02  0.21796766468E+02  0.00000000000E+00 0.  1.
</event>
<event>
 7    1  0.1683291E-008  0.4614232E+02  0.7816164E-02  0.1320468E+00
        -11   -1    0    0    0    0  0.00000000000E+00  0.00000000000E+00  0.45593999997E+02  0.45594000000E+02  0.51100000000E-03 0. -1.
         11   -1    0    0    0    0 -0.00000000000E+00 -0.00000000000E+00 -0.45593999997E+02  0.45594000000E+02  0.51100000000E-03 0.  1.
    9900012    2    1    2    0    0  0.66066511057E+01 -0.35235356563E+02  0.27275176643E+02  0.46142318166E+02  0.10000003692E+02 0.  0.
        -12    1    1    2    0    0 -0.66066511057E+01  0.35235356563E+02 -0.27275176643E+02  0.45045681834E+02  0.00000000000E+00 0.  1.
         11    1    3    3    0    0  0.38511500369E+01 -0.16677291808E+02  0.99874889883E+01  0.19816996624E+02  0.51100000000E-03 0. -1.
        -11    1    3    3    0    0  0.43583216386E+01 -0.95725807721E+01  0.11138939354E+02  0.15320092700E+02  0.51100000000E-03 0.  1.
         12    1    3    3    0    0 -0.16028205697E+01 -0.89854839834E+01  0.61487483005E+01  0.11005228842E+02  0.00000000000E+00 0. -1.
</event>
<event>
 7    1  0.1683291E-008  0.4614232E+02  0.7816164E-02  0.1320468E+00
        -11   -1    0    0    0    0  0.00000000000E+00  0.00000000000E+00  0.45593999997E+02  0.45594000000E+02  0.51100000000E-03 0. -1.
         11   -1    0    0    0    0 -0.00000000000E+00 -0.00000000000E+00 -0.45593999997E+02  0.45594000000E+02  0.51100000000E-03 0.  1.
    9900012    2    1    2    0    0  0.38595312028E+02 -0.73837904457E+01  0.22022602933E+02  0.46142317500E+02  0.99999976216E+01 0.  0.
        -12    1    1    2    0    0 -0.38595312028E+02  0.73837904457E+01 -0.22022602933E+02  0.45045682500E+02  0.00000000000E+00 0.  1.
         11    1    3    3    0    0  0.17011944062E+02 -0.26042544554E+00  0.93366826016E+01  0.19407413646E+02  0.51100000000E-03 0. -1.
        -11    1    3    3    0    0  0.15968124988E+02 -0.24480308384E+01  0.96881050132E+01  0.18837018066E+02  0.51100000000E-03 0.  1.
        -12    1    3    3    0    0  0.56152429781E+01 -0.46753341618E+01  0.29978153183E+01  0.78978857873E+01  0.00000000000E+00 0.  1.
</event>
<event>
 7    1  0.1683291E-008  0.4614232E+02  0.7816164E-02  0.1320468E+00
        -11   -1    0    0    0    0  0.00000000000E+00  0.00000000000E+00  0.45593999997E+02  0.45594000000E+02  0.51100000000E-03 0. -1.
         11   -1    0    0    0    0 -0.00000000000E+00 -0.00000000000E+00 -0.45593999997E+02  0.45594000000E+02  0.51100000000E-03 0.  1.
    9900012    2    1    2    0    0 -0.43981230115E+02 -0.88476162116E+01  0.40601184563E+01  0.46142317888E+02  0.10000001159E+02 0.  0.
        -12    1    1    2    0    0  0.43981230115E+02  0.88476162116E+01 -0.40601184563E+01  0.45045682112E+02  0.00000000000E+00 0.  1.
         11    1    3    3    0    0 -0.11617693404E+02  0.12371591527E+01  0.28243184966E+01  0.12019905908E+02  0.51100000000E-03 0. -1.
        -11    1    3    3    0    0 -0.31722004848E+02 -0.95434805497E+01  0.71422160507E+00  0.33134177602E+02  0.51100000000E-03 0.  1.
         12    1    3    3    0    0 -0.64153186242E+00 -0.54129481461E+00  0.52157835463E+00  0.98823437850E+00  0.00000000000E+00 0. -1.
</event>
<event>
 7    1  0.1979907E-008  0.4614231E+02  0.7816164E-02  0.1320468E+00
        -11   -1    0    0    0    0  0.00000000000E+00  0.00000000000E+00  0.45593999997E+02  0.45594000000E+02  0.51100000000E-03 0. -1.
         11   -1    0    0    0    0 -0.00000000000E+00 -0.00000000000E+00 -0.45593999997E+02  0.45594000000E+02  0.51100000000E-03 0.  1.
    9900012    2    1    2    0    0  0.17179024290E+01 -0.42899955345E+01  0.44808020613E+02  0.46142312507E+02  0.99999520899E+01 0.  0.
        -12    1    1    2    0    0 -0.17179024290E+01  0.42899955345E+01 -0.44808020613E+02  0.45045687493E+02  0.00000000000E+00 0.  1.
         11    1    3    3    0    0 -0.21582909952E+01 -0.13015398704E+01  0.29942564808E+02  0.30048451101E+02  0.51100000000E-03 0. -1.
        -11    1    3    3    0    0 -0.33292027882E+00 -0.14623407968E+01  0.22193119568E+01  0.26785485511E+01  0.51100000000E-03 0.  1.
         12    1    3    3    0    0  0.42091137030E+01 -0.15261148672E+01  0.12646143848E+02  0.13415312855E+02  0.00000000000E+00 0. -1.
</event>
<event>
 7    1  0.1683291E-008  0.4614232E+02  0.7816164E-02  0.1320468E+00
        -11   -1    0    0    0    0  0.00000000000E+00  0.00000000000E+00  0.45593999997E+02  0.45594000000E+02  0.51100000000E-03 0. -1.
         11   -1    0    0    0    0 -0.00000000000E+00 -0.00000000000E+00 -0.45593999997E+02  0.45594000000E+02  0.51100000000E-03 0.  1.
    9900012    2    1    2    0    0  0.12880925590E+02 -0.43162972891E+02 -0.39112561777E+00  0.46142318164E+02  0.10000003671E+02 0.  0.
        -12    1    1    2    0    0 -0.12880925590E+02  0.43162972891E+02  0.39112561777E+00  0.45045681836E+02  0.00000000000E+00 0.  1.
         11    1    3    3    0    0  0.90813877324E+01 -0.26133111568E+02 -0.22269073660E+01  0.27755544312E+02  0.51100000000E-03 0. -1.
        -11    1    3    3    0    0  0.59670775218E+00 -0.10331126039E+02  0.32118062735E+01  0.10835309187E+02  0.51100000000E-03 0.  1.
         12    1    3    3    0    0  0.32028301057E+01 -0.66987352837E+01 -0.13760245252E+01  0.75514646646E+01  0.00000000000E+00 0. -1.
</event>
<event>
 7    1  0.1683291E-008  0.4614232E+02  0.7816164E-02  0.1320468E+00
        -11   -1    0    0    0    0  0.00000000000E+00  0.00000000000E+00  0.45593999997E+02  0.45594000000E+02  0.51100000000E-03 0.  1.
         11   -1    0    0    0    0 -0.00000000000E+00 -0.00000000000E+00 -0.45593999997E+02  0.45594000000E+02  0.51100000000E-03 0. -1.
    9900012    2    1    2    0    0  0.39089463085E+02 -0.20575907782E+02 -0.88181232606E+01  0.46142318707E+02  0.10000008623E+02 0.  0.
        -12    1    1    2    0    0 -0.39089463085E+02  0.20575907782E+02  0.88181232606E+01  0.45045681293E+02  0.00000000000E+00 0.  1.
         11    1    3    3    0    0  0.23257480574E+02 -0.84756804151E+01 -0.48300796797E+01  0.25220571586E+02  0.51100000000E-03 0. -1.
        -11    1    3    3    0    0  0.11552471624E+02 -0.10384855424E+02 -0.47603206826E+01  0.16247014374E+02  0.51100000000E-03 0.  1.
        -12    1    3    3    0    0  0.42795108873E+01 -0.17153719429E+01  0.77227710171E+00  0.46747327474E+01  0.00000000000E+00 0.  1.
</event>
<event>
 7    1  0.1683291E-008  0.4614232E+02  0.7816164E-02  0.1320468E+00
        -11   -1    0    0    0    0  0.00000000000E+00  0.00000000000E+00  0.45593999997E+02  0.45594000000E+02  0.51100000000E-03 0.  1.
         11   -1    0    0    0    0 -0.00000000000E+00 -0.00000000000E+00 -0.45593999997E+02  0.45594000000E+02  0.51100000000E-03 0. -1.
    9900012    2    1    2    0    0 -0.21511981906E+02 -0.18347722166E+02 -0.35067210636E+02  0.46142317233E+02  0.99999951812E+01 0.  0.
        -12    1    1    2    0    0  0.21511981906E+02  0.18347722166E+02  0.35067210636E+02  0.45045682767E+02  0.00000000000E+00 0.  1.
         11    1    3    3    0    0 -0.14178361816E+02 -0.62974691529E+01 -0.20084596745E+02  0.25378634482E+02  0.51100000000E-03 0. -1.
        -11    1    3    3    0    0 -0.73145955848E+01 -0.11681461733E+02 -0.15028502776E+02  0.20391560821E+02  0.51100000000E-03 0.  1.
        -12    1    3    3    0    0 -0.19024505115E-01 -0.36879128050E+00  0.45888885131E-01  0.37212192914E+00  0.00000000000E+00 0.  1.
</event>
<event>
 7    1  0.1683291E-008  0.4614232E+02  0.7816164E-02  0.1320468E+00
        -11   -1    0    0    0    0  0.00000000000E+00  0.00000000000E+00  0.45593999997E+02  0.45594000000E+02  0.51100000000E-03 0.  1.
         11   -1    0    0    0    0 -0.00000000000E+00 -0.00000000000E+00 -0.45593999997E+02  0.45594000000E+02  0.51100000000E-03 0. -1.
    9900012    2    1    2    0    0 -0.23580900602E+02  0.23020129951E+02 -0.30710389267E+02  0.46142320239E+02  0.10000022599E+02 0.  0.
        -12    1    1    2    0    0  0.23580900602E+02 -0.23020129951E+02  0.30710389267E+02  0.45045679761E+02  0.00000000000E+00 0.  1.
         11    1    3    3    0    0 -0.11174270730E+02  0.14596707398E+02 -0.12050725919E+02  0.21980632126E+02  0.51100000000E-03 0. -1.
        -11    1    3    3    0    0 -0.12239995007E+01  0.21576194422E+01 -0.23439628104E+01  0.34128665888E+01  0.51100000000E-03 0.  1.
         12    1    3    3    0    0 -0.11182630371E+02  0.62658031108E+01 -0.16315700537E+02  0.20748821525E+02  0.00000000000E+00 0. -1.
</event>
<event>
 7    1  0.1683291E-008  0.4614232E+02  0.7816164E-02  0.1320468E+00
        -11   -1    0    0    0    0  0.00000000000E+00  0.00000000000E+00  0.45593999997E+02  0.45594000000E+02  0.51100000000E-03 0. -1.
         11   -1    0    0    0    0 -0.00000000000E+00 -0.00000000000E+00 -0.45593999997E+02  0.45594000000E+02  0.51100000000E-03 0.  1.
    9900012    2    1    2    0    0 -0.74706849736E+01 -0.44372776580E+02  0.20877787079E+01  0.46142320348E+02  0.10000023590E+02 0.  0.
        -12    1    1    2    0    0  0.74706849736E+01  0.44372776580E+02 -0.20877787079E+01  0.45045679652E+02  0.00000000000E+00 0.  1.
         11    1    3    3    0    0 -0.35727574020E+01 -0.26935370806E+02 -0.21074809000E+01  0.27252894743E+02  0.51100000000E-03 0. -1.
        -11    1    3    3    0    0 -0.19380982281E+01 -0.28428430047E+01  0.20591176640E+01  0.40097315254E+01  0.51100000000E-03 0.  1.
        -12    1    3    3    0    0 -0.19598293435E+01 -0.14594562769E+02  0.21361419439E+01  0.14879694079E+02  0.00000000000E+00 0.  1.
</event>
<event>
 7    1  0.1683291E-008  0.4614232E+02  0.7816164E-02  0.1320468E+00
        -11   -1    0    0    0    0  0.00000000000E+00  0.00000000000E+00  0.45593999997E+02  0.45594000000E+02  0.51100000000E-03 0.  1.
         11   -1    0    0    0    0 -0.00000000000E+00 -0.00000000000E+00 -0.45593999997E+02  0.45594000000E+02  0.51100000000E-03 0. -1.
    9900012    2    1    2    0    0 -0.35108526438E+02  0.23251436530E+02 -0.15996108377E+02  0.46142318602E+02  0.10000007670E+02 0.  0.
        -12    1    1    2    0    0  0.35108526438E+02 -0.23251436530E+02  0.15996108377E+02  0.45045681398E+02  0.00000000000E+00 0.  1.
         11    1    3    3    0    0 -0.17315130922E+02  0.10584032559E+02 -0.52515452366E+01  0.20962209609E+02  0.51100000000E-03 0. -1.
        -11    1    3    3    0    0 -0.55828677196E+01  0.78574528018E+01 -0.41818609432E+01  0.10506947117E+02  0.51100000000E-03 0.  1.
        -12    1    3    3    0    0 -0.12210527796E+02  0.48099511693E+01 -0.65627021974E+01  0.14673161876E+02  0.00000000000E+00 0.  1.
</event>
<event>
 7    1  0.1683291E-008  0.4614232E+02  0.7816164E-02  0.1320468E+00
        -11   -1    0    0    0    0  0.00000000000E+00  0.00000000000E+00  0.45593999997E+02  0.45594000000E+02  0.51100000000E-03 0.  1.
         11   -1    0    0    0    0 -0.00000000000E+00 -0.00000000000E+00 -0.45593999997E+02  0.45594000000E+02  0.51100000000E-03 0. -1.
    9900012    2    1    2    0    0 -0.10416721188E+02  0.35600011990E+02 -0.25558648055E+02  0.46142318471E+02  0.10000006475E+02 0.  0.
        -12    1    1    2    0    0  0.10416721188E+02 -0.35600011990E+02  0.25558648055E+02  0.45045681529E+02  0.00000000000E+00 0.  1.
         11    1    3    3    0    0 -0.14363692148E+01  0.19811052470E+02 -0.13750614603E+02  0.24158235836E+02  0.51100000000E-03 0. -1.
        -11    1    3    3    0    0 -0.24551950917E+01  0.27578332373E+01 -0.40265062498E+01  0.54631840482E+01  0.51100000000E-03 0.  1.
         12    1    3    3    0    0 -0.65251568813E+01  0.13031126283E+02 -0.77815272020E+01  0.16520898587E+02  0.00000000000E+00 0. -1.
</event>
<event>
 7    1  0.1683291E-008  0.4614232E+02  0.7816164E-02  0.1320468E+00
        -11   -1    0    0    0    0  0.00000000000E+00  0.00000000000E+00  0.45593999997E+02  0.45594000000E+02  0.51100000000E-03 0.  1.
         11   -1    0    0    0    0 -0.00000000000E+00 -0.00000000000E+00 -0.45593999997E+02  0.45594000000E+02  0.51100000000E-03 0. -1.
    9900012    2    1    2    0    0  0.93720956929E+01 -0.30893479695E+02 -0.31414490163E+02  0.46142318103E+02  0.10000003122E+02 0.  0.
        -12    1    1    2    0    0 -0.93720956929E+01  0.30893479695E+02  0.31414490163E+02  0.45045681897E+02  0.00000000000E+00 0.  1.
         11    1    3    3    0    0  0.10393015716E+02 -0.23944894352E+02 -0.21455363761E+02  0.33789131027E+02  0.51100000000E-03 0. -1.
        -11    1    3    3    0    0  0.14273753513E+00 -0.16458766796E+01 -0.11767110158E+01  0.20282832949E+01  0.51100000000E-03 0.  1.
         12    1    3    3    0    0 -0.11636575582E+01 -0.53027086629E+01 -0.87824153861E+01  0.10324903781E+02  0.00000000000E+00 0. -1.
</event>
<event>
 7    1  0.2542539E-008  0.4614232E+02  0.7816164E-02  0.1320468E+00
        -11   -1    0    0    0    0  0.00000000000E+00  0.00000000000E+00  0.45593999997E+02  0.45594000000E+02  0.51100000000E-03 0.  1.
         11   -1    0    0    0    0 -0.00000000000E+00 -0.00000000000E+00 -0.45593999997E+02  0.45594000000E+02  0.51100000000E-03 0. -1.
    9900012    2    1    2    0    0 -0.37711355628E+02 -0.61149979536E+01 -0.23865747625E+02  0.46142318154E+02  0.10000003583E+02 0.  0.
        -12    1    1    2    0    0  0.37711355628E+02  0.61149979536E+01  0.23865747625E+02  0.45045681846E+02  0.00000000000E+00 0.  1.
         11    1    3    3    0    0 -0.35134765316E+02 -0.53853367627E+01 -0.23949285932E+02  0.42860493263E+02  0.51100000000E-03 0. -1.
        -11    1    3    3    0    0 -0.28234869553E+01 -0.48816557831E+00  0.28908065746E+00  0.28799222396E+01  0.51100000000E-03 0.  1.
         12    1    3    3    0    0  0.24689664310E+00 -0.24149561264E+00 -0.20554235013E+00  0.40190265115E+00  0.00000000000E+00 0. -1.
</event>
<event>
 7    1  0.1683291E-008  0.4614232E+02  0.7816164E-02  0.1320468E+00
        -11   -1    0    0    0    0  0.00000000000E+00  0.00000000000E+00  0.45593999997E+02  0.45594000000E+02  0.51100000000E-03 0. -1.
         11   -1    0    0    0    0 -0.00000000000E+00 -0.00000000000E+00 -0.45593999997E+02  0.45594000000E+02  0.51100000000E-03 0.  1.
    9900012    2    1    2    0    0  0.38903970982E+02  0.15596315800E+02  0.16503012078E+02  0.46142318383E+02  0.10000005671E+02 0.  0.
        -12    1    1    2    0    0 -0.38903970982E+02 -0.15596315800E+02 -0.16503012078E+02  0.45045681617E+02  0.00000000000E+00 0.  1.
         11    1    3    3    0    0  0.13062829705E+02  0.24631091440E+01  0.24967705975E+01  0.13525468207E+02  0.51100000000E-03 0. -1.
        -11    1    3    3    0    0  0.15908141771E+02  0.10716575527E+02  0.10057547691E+02  0.21657983089E+02  0.51100000000E-03 0.  1.
        -12    1    3    3    0    0  0.99329995056E+01  0.24166311297E+01  0.39486937892E+01  0.10958867087E+02  0.00000000000E+00 0.  1.
</event>
<event>
 7    1  0.1683291E-008  0.4614232E+02  0.7816164E-02  0.1320468E+00
        -11   -1    0    0    0    0  0.00000000000E+00  0.00000000000E+00  0.45593999997E+02  0.45594000000E+02  0.51100000000E-03 0.  1.
         11   -1    0    0    0    0 -0.00000000000E+00 -0.00000000000E+00 -0.45593999997E+02  0.45594000000E+02  0.51100000000E-03 0. -1.
    9900012    2    1    2    0    0 -0.32396145117E+02 -0.16450545287E+02 -0.26626732033E+02  0.46142317439E+02  0.99999970595E+01 0.  0.
        -12    1    1    2    0    0  0.32396145117E+02  0.16450545287E+02  0.26626732033E+02  0.45045682561E+02  0.00000000000E+00 0.  1.
         11    1    3    3    0    0 -0.66148324324E+01 -0.11402919322E+01 -0.76394723319E+01  0.10169454832E+02  0.51100000000E-03 0. -1.
        -11    1    3    3    0    0 -0.23593116068E+02 -0.12264875475E+02 -0.15132685179E+02  0.30595105119E+02  0.51100000000E-03 0.  1.
        -12    1    3    3    0    0 -0.21881966160E+01 -0.30453778793E+01 -0.38545745218E+01  0.53777574882E+01  0.00000000000E+00 0.  1.
</event>
<event>
 7    1  0.1683291E-008  0.4614232E+02  0.7816164E-02  0.1320468E+00
        -11   -1    0    0    0    0  0.00000000000E+00  0.00000000000E+00  0.45593999997E+02  0.45594000000E+02  0.51100000000E-03 0.  1.
         11   -1    0    0    0    0 -0.00000000000E+00 -0.00000000000E+00 -0.45593999997E+02  0.45594000000E+02  0.51100000000E-03 0. -1.
    9900012    2    1    2    0    0 -0.18710803708E+02  0.38263313093E+02 -0.14660772036E+02  0.46142317177E+02  0.99999946777E+01 0.  0.
        -12    1    1    2    0    0  0.18710803708E+02 -0.38263313093E+02  0.14660772036E+02  0.45045682823E+02  0.00000000000E+00 0.  1.
         11    1    3    3    0    0 -0.24485382826E+01  0.91276166603E+00 -0.14113577231E+01  0.29699165753E+01  0.51100000000E-03 0.  1.
        -11    1    3    3    0    0 -0.16683657772E+02  0.36597747700E+02 -0.12871095986E+02  0.42230376336E+02  0.51100000000E-03 0. -1.
         12    1    3    3    0    0  0.42139234641E+00  0.75280372703E+00 -0.37831832731E+00  0.94202426605E+00  0.00000000000E+00 0. -1.
</event>
<event>
 7    1  0.1683291E-008  0.4614232E+02  0.7816164E-02  0.1320468E+00
        -11   -1    0    0    0    0  0.00000000000E+00  0.00000000000E+00  0.45593999997E+02  0.45594000000E+02  0.51100000000E-03 0.  1.
         11   -1    0    0    0    0 -0.00000000000E+00 -0.00000000000E+00 -0.45593999997E+02  0.45594000000E+02  0.51100000000E-03 0. -1.
    9900012    2    1    2    0    0 -0.34914107576E+02  0.27247212653E+02  0.82284858662E+01  0.46142317800E+02  0.10000000359E+02 0.  0.
        -12    1    1    2    0    0  0.34914107576E+02 -0.27247212653E+02 -0.82284858662E+01  0.45045682200E+02  0.00000000000E+00 0.  1.
         11    1    3    3    0    0 -0.20595272451E+02  0.16907172953E+02  0.33417428414E+01  0.26854887638E+02  0.51100000000E-03 0. -1.
        -11    1    3    3    0    0 -0.10567734033E+02  0.63676688228E+01  0.59876042237E+01  0.13714066262E+02  0.51100000000E-03 0.  1.
        -12    1    3    3    0    0 -0.37511010918E+01  0.39723708772E+01 -0.11008611988E+01  0.55733639004E+01  0.00000000000E+00 0.  1.
</event>
<event>
 7    1  0.1683291E-008  0.4614232E+02  0.7816164E-02  0.1320468E+00
        -11   -1    0    0    0    0  0.00000000000E+00  0.00000000000E+00  0.45593999997E+02  0.45594000000E+02  0.51100000000E-03 0. -1.
         11   -1    0    0    0    0 -0.00000000000E+00 -0.00000000000E+00 -0.45593999997E+02  0.45594000000E+02  0.51100000000E-03 0.  1.
    9900012    2    1    2    0    0  0.37677513471E+02 -0.24151449522E+02 -0.51211507474E+01  0.46142315186E+02  0.99999765196E+01 0.  0.
        -12    1    1    2    0    0 -0.37677513471E+02  0.24151449522E+02  0.51211507474E+01  0.45045684814E+02  0.00000000000E+00 0.  1.
         11    1    3    3    0    0  0.13132411402E+02 -0.13196209583E+02 -0.27318841311E+01  0.18816571626E+02  0.51100000000E-03 0. -1.
        -11    1    3    3    0    0  0.23871541045E+02 -0.97431547561E+01 -0.18921112689E+01  0.25852652122E+02  0.51100000000E-03 0.  1.
        -12    1    3    3    0    0  0.67356102428E+00 -0.12120851829E+01 -0.49715534749E+00  0.14730914376E+01  0.00000000000E+00 0.  1.
</event>
<event>
 7    1  0.1683291E-008  0.4614232E+02  0.7816164E-02  0.1320468E+00
        -11   -1    0    0    0    0  0.00000000000E+00  0.00000000000E+00  0.45593999997E+02  0.45594000000E+02  0.51100000000E-03 0. -1.
         11   -1    0    0    0    0 -0.00000000000E+00 -0.00000000000E+00 -0.45593999997E+02  0.45594000000E+02  0.51100000000E-03 0.  1.
    9900012    2    1    2    0    0  0.33110089346E+02  0.51035275212E+01  0.30112944878E+02  0.46142318089E+02  0.10000002988E+02 0.  0.
        -12    1    1    2    0    0 -0.33110089346E+02 -0.51035275212E+01 -0.30112944878E+02  0.45045681911E+02  0.00000000000E+00 0.  1.
         11    1    3    3    0    0  0.83611836076E+01 -0.81721832144E+00  0.92224725240E+01  0.12475224921E+02  0.51100000000E-03 0. -1.
        -11    1    3    3    0    0  0.25180934385E+02  0.58971024185E+01  0.20057896799E+02  0.32728802265E+02  0.51100000000E-03 0.  1.
        -12    1    3    3    0    0 -0.43202864744E+00  0.23643424130E-01  0.83257555501E+00  0.93829090293E+00  0.00000000000E+00 0.  1.
</event>
<event>
 7    1  0.1683291E-008  0.4614232E+02  0.7816164E-02  0.1320468E+00
        -11   -1    0    0    0    0  0.00000000000E+00  0.00000000000E+00  0.45593999997E+02  0.45594000000E+02  0.51100000000E-03 0. -1.
         11   -1    0    0    0    0 -0.00000000000E+00 -0.00000000000E+00 -0.45593999997E+02  0.45594000000E+02  0.51100000000E-03 0.  1.
    9900012    2    1    2    0    0 -0.17527281240E+02  0.15394877861E+02  0.38534474476E+02  0.46142316798E+02  0.99999912166E+01 0.  0.
        -12    1    1    2    0    0  0.17527281240E+02 -0.15394877861E+02 -0.38534474476E+02  0.45045683202E+02  0.00000000000E+00 0.  1.
         11    1    3    3    0    0 -0.63696362328E+01  0.62121135810E+01  0.20106407613E+02  0.21987047283E+02  0.51100000000E-03 0. -1.
        -11    1    3    3    0    0 -0.56520570911E+00  0.27638826279E+01  0.15454001593E+01  0.32166390204E+01  0.51100000000E-03 0.  1.
         12    1    3    3    0    0 -0.10592439298E+02  0.64188816520E+01  0.16882666704E+02  0.20938630494E+02  0.00000000000E+00 0. -1.
</event>
<event>
 7    1  0.1683291E-008  0.4614232E+02  0.7816164E-02  0.1320468E+00
        -11   -1    0    0    0    0  0.00000000000E+00  0.00000000000E+00  0.45593999997E+02  0.45594000000E+02  0.51100000000E-03 0.  1.
         11   -1    0    0    0    0 -0.00000000000E+00 -0.00000000000E+00 -0.45593999997E+02  0.45594000000E+02  0.51100000000E-03 0. -1.
    9900012    2    1    2    0    0  0.25206393023E+02 -0.33459964884E+02  0.16558440857E+02  0.46142318044E+02  0.10000002582E+02 0.  0.
        -12    1    1    2    0    0 -0.25206393023E+02  0.33459964884E+02 -0.16558440857E+02  0.45045681956E+02  0.00000000000E+00 0.  1.
         11    1    3    3    0    0  0.13027459179E+02 -0.14281538521E+02  0.63445674536E+01  0.20345283769E+02  0.51100000000E-03 0. -1.
        -11    1    3    3    0    0  0.75482903729E+01 -0.12228306646E+02  0.98795906851E+01  0.17438878500E+02  0.51100000000E-03 0.  1.
         12    1    3    3    0    0  0.46306434706E+01 -0.69501197164E+01  0.33428271852E+00  0.83581557750E+01  0.00000000000E+00 0. -1.
</event>
<event>
 7    1  0.1683291E-008  0.4614232E+02  0.7816164E-02  0.1320468E+00
        -11   -1    0    0    0    0  0.00000000000E+00  0.00000000000E+00  0.45593999997E+02  0.45594000000E+02  0.51100000000E-03 0.  1.
         11   -1    0    0    0    0 -0.00000000000E+00 -0.00000000000E+00 -0.45593999997E+02  0.45594000000E+02  0.51100000000E-03 0. -1.
    9900012    2    1    2    0    0 -0.12706909207E+02 -0.40879175045E+02 -0.14019307527E+02  0.46142317881E+02  0.10000001098E+02 0.  0.
        -12    1    1    2    0    0  0.12706909207E+02  0.40879175045E+02  0.14019307527E+02  0.45045682119E+02  0.00000000000E+00 0.  1.
         11    1    3    3    0    0 -0.66333687395E+01 -0.11252228835E+02 -0.31916974509E+01  0.13446232463E+02  0.51100000000E-03 0. -1.
        -11    1    3    3    0    0 -0.15495068432E+01 -0.11888475842E+02 -0.73491483497E+01  0.14062247724E+02  0.51100000000E-03 0.  1.
         12    1    3    3    0    0 -0.45240336239E+01 -0.17738470368E+02 -0.34784617264E+01  0.18633837694E+02  0.00000000000E+00 0. -1.
</event>
<event>
 7    1  0.1683291E-008  0.4614232E+02  0.7816164E-02  0.1320468E+00
        -11   -1    0    0    0    0  0.00000000000E+00  0.00000000000E+00  0.45593999997E+02  0.45594000000E+02  0.51100000000E-03 0. -1.
         11   -1    0    0    0    0 -0.00000000000E+00 -0.00000000000E+00 -0.45593999997E+02  0.45594000000E+02  0.51100000000E-03 0.  1.
    9900012    2    1    2    0    0  0.42842365751E+02 -0.19803607412E+01 -0.13774006238E+02  0.46142318967E+02  0.10000011001E+02 0.  0.
        -12    1    1    2    0    0 -0.42842365751E+02  0.19803607412E+01  0.13774006238E+02  0.45045681033E+02  0.00000000000E+00 0.  1.
         11    1    3    3    0    0  0.16450652546E+02 -0.16386553119E+01 -0.91572449074E+01  0.18898790833E+02  0.51100000000E-03 0. -1.
        -11    1    3    3    0    0  0.77838340882E+01 -0.17876011800E+01  0.12190393605E+00  0.79873933121E+01  0.51100000000E-03 0.  1.
        -12    1    3    3    0    0  0.18607879117E+02  0.14458957507E+01 -0.47386652670E+01  0.19256134822E+02  0.00000000000E+00 0.  1.
</event>
<event>
 7    1  0.1683291E-008  0.4614232E+02  0.7816164E-02  0.1320468E+00
        -11   -1    0    0    0    0  0.00000000000E+00  0.00000000000E+00  0.45593999997E+02  0.45594000000E+02  0.51100000000E-03 0.  1.
         11   -1    0    0    0    0 -0.00000000000E+00 -0.00000000000E+00 -0.45593999997E+02  0.45594000000E+02  0.51100000000E-03 0. -1.
    9900012    2    1    2    0    0 -0.32047012124E+02  0.19570000309E+02 -0.24882070934E+02  0.46142319274E+02  0.10000013791E+02 0.  0.
        -12    1    1    2    0    0  0.32047012124E+02 -0.19570000309E+02  0.24882070934E+02  0.45045680726E+02  0.00000000000E+00 0.  1.
         11    1    3    3    0    0 -0.14901018356E+02  0.14568917242E+02 -0.12716778169E+02  0.24413319007E+02  0.51100000000E-03 0. -1.
        -11    1    3    3    0    0 -0.39577190419E+01  0.30608920248E+00 -0.21329308397E+01  0.45062872570E+01  0.51100000000E-03 0.  1.
         12    1    3    3    0    0 -0.13188274726E+02  0.46949938647E+01 -0.10032361925E+02  0.17222713010E+02  0.00000000000E+00 0. -1.
</event>
<event>
 7    1  0.1683291E-008  0.4614232E+02  0.7816164E-02  0.1320468E+00
        -11   -1    0    0    0    0  0.00000000000E+00  0.00000000000E+00  0.45593999997E+02  0.45594000000E+02  0.51100000000E-03 0.  1.
         11   -1    0    0    0    0 -0.00000000000E+00 -0.00000000000E+00 -0.45593999997E+02  0.45594000000E+02  0.51100000000E-03 0. -1.
    9900012    2    1    2    0    0  0.22245032784E+02  0.16661970067E+02 -0.35449269835E+02  0.46142318054E+02  0.10000002672E+02 0.  0.
        -12    1    1    2    0    0 -0.22245032784E+02 -0.16661970067E+02  0.35449269835E+02  0.45045681946E+02  0.00000000000E+00 0.  1.
         11    1    3    3    0    0 -0.38079015125E-01  0.16857444361E+01 -0.27307717595E+01  0.32094078860E+01  0.51100000000E-03 0. -1.
        -11    1    3    3    0    0  0.44751504972E+01  0.26944547819E+01 -0.25574633939E+01  0.58161566190E+01  0.51100000000E-03 0.  1.
         12    1    3    3    0    0  0.17807961302E+02  0.12281770849E+02 -0.30161034682E+02  0.37116753549E+02  0.00000000000E+00 0. -1.
</event>
<event>
 7    1  0.1683291E-008  0.4614232E+02  0.7816164E-02  0.1320468E+00
        -11   -1    0    0    0    0  0.00000000000E+00  0.00000000000E+00  0.45593999997E+02  0.45594000000E+02  0.51100000000E-03 0.  1.
         11   -1    0    0    0    0 -0.00000000000E+00 -0.00000000000E+00 -0.45593999997E+02  0.45594000000E+02  0.51100000000E-03 0. -1.
    9900012    2    1    2    0    0 -0.38386405733E+02 -0.91617249422E+00 -0.23553301309E+02  0.46142317414E+02  0.99999968303E+01 0.  0.
        -12    1    1    2    0    0  0.38386405733E+02  0.91617249422E+00  0.23553301309E+02  0.45045682586E+02  0.00000000000E+00 0.  1.
         11    1    3    3    0    0 -0.20365665701E+02 -0.72625340953E+00 -0.81083856426E+01  0.21932480512E+02  0.51100000000E-03 0. -1.
        -11    1    3    3    0    0 -0.44924437998E+00  0.28065500558E+00  0.30236382519E+00  0.60992777360E+00  0.51100000000E-03 0.  1.
         12    1    3    3    0    0 -0.17571495652E+02 -0.47057409027E+00 -0.15747279492E+02  0.23599909127E+02  0.00000000000E+00 0. -1.
</event>
<event>
 7    1  0.1683291E-008  0.4614232E+02  0.7816164E-02  0.1320468E+00
        -11   -1    0    0    0    0  0.00000000000E+00  0.00000000000E+00  0.45593999997E+02  0.45594000000E+02  0.51100000000E-03 0.  1.
         11   -1    0    0    0    0 -0.00000000000E+00 -0.00000000000E+00 -0.45593999997E+02  0.45594000000E+02  0.51100000000E-03 0. -1.
    9900012    2    1    2    0    0 -0.13171476443E+02 -0.94794223978E+01 -0.42021021727E+02  0.46142317547E+02  0.99999980501E+01 0.  0.
        -12    1    1    2    0    0  0.13171476443E+02  0.94794223978E+01  0.42021021727E+02  0.45045682453E+02  0.00000000000E+00 0.  1.
         11    1    3    3    0    0 -0.85275770640E+00  0.56220739289E-01 -0.52620443965E+01  0.53309912746E+01  0.51100000000E-03 0. -1.
        -11    1    3    3    0    0 -0.87962439775E+01 -0.10627741188E+02 -0.31495694281E+02  0.34384612101E+02  0.51100000000E-03 0.  1.
        -12    1    3    3    0    0 -0.35224747594E+01  0.10920980511E+01 -0.52632830494E+01  0.64267141715E+01  0.00000000000E+00 0.  1.
</event>
<event>
 7    1  0.1683291E-008  0.4614232E+02  0.7816164E-02  0.1320468E+00
        -11   -1    0    0    0    0  0.00000000000E+00  0.00000000000E+00  0.45593999997E+02  0.45594000000E+02  0.51100000000E-03 0.  1.
         11   -1    0    0    0    0 -0.00000000000E+00 -0.00000000000E+00 -0.45593999997E+02  0.45594000000E+02  0.51100000000E-03 0. -1.
    9900012    2    1    2    0    0  0.16425724916E+01 -0.38755939446E+02 -0.22899621324E+02  0.46142317149E+02  0.99999944201E+01 0.  0.
        -12    1    1    2    0    0 -0.16425724916E+01  0.38755939446E+02  0.22899621324E+02  0.45045682851E+02  0.00000000000E+00 0.  1.
         11    1    3    3    0    0 -0.29012653002E+01 -0.22824202356E+02 -0.11617798566E+02  0.25774692962E+02  0.51100000000E-03 0. -1.
        -11    1    3    3    0    0  0.51126888562E+01 -0.13262643736E+02 -0.97688082858E+01  0.17247229395E+02  0.51100000000E-03 0.  1.
        -12    1    3    3    0    0 -0.56885106443E+00 -0.26690933542E+01 -0.15130144720E+01  0.31203947923E+01  0.00000000000E+00 0.  1.
</event>
<event>
 7    1  0.1683291E-008  0.4614232E+02  0.7816164E-02  0.1320468E+00
        -11   -1    0    0    0    0  0.00000000000E+00  0.00000000000E+00  0.45593999997E+02  0.45594000000E+02  0.51100000000E-03 0.  1.
         11   -1    0    0    0    0 -0.00000000000E+00 -0.00000000000E+00 -0.45593999997E+02  0.45594000000E+02  0.51100000000E-03 0. -1.
    9900012    2    1    2    0    0 -0.40577779265E+02  0.19306925621E+02 -0.31304803120E+01  0.46142318142E+02  0.10000003474E+02 0.  0.
        -12    1    1    2    0    0  0.40577779265E+02 -0.19306925621E+02  0.31304803120E+01  0.45045681858E+02  0.00000000000E+00 0.  1.
         11    1    3    3    0    0 -0.15587597278E+02  0.50992922615E+01 -0.26994306457E+00  0.16402708312E+02  0.51100000000E-03 0. -1.
        -11    1    3    3    0    0 -0.55010632311E+01  0.55987670426E+01  0.15026334971E+01  0.79916078957E+01  0.51100000000E-03 0.  1.
         12    1    3    3    0    0 -0.19489118757E+02  0.86088663172E+01 -0.43631707446E+01  0.21748001934E+02  0.00000000000E+00 0. -1.
</event>
<event>
 7    1  0.1683291E-008  0.4614232E+02  0.7816164E-02  0.1320468E+00
        -11   -1    0    0    0    0  0.00000000000E+00  0.00000000000E+00  0.45593999997E+02  0.45594000000E+02  0.51100000000E-03 0.  1.
         11   -1    0    0    0    0 -0.00000000000E+00 -0.00000000000E+00 -0.45593999997E+02  0.45594000000E+02  0.51100000000E-03 0. -1.
    9900012    2    1    2    0    0 -0.16394268404E+02 -0.40155757433E+02  0.12159631768E+02  0.46142317230E+02  0.99999951555E+01 0.  0.
        -12    1    1    2    0    0  0.16394268404E+02  0.40155757433E+02 -0.12159631768E+02  0.45045682770E+02  0.00000000000E+00 0.  1.
         11    1    3    3    0    0 -0.75597333868E+01 -0.11392564691E+02  0.37607831609E+01  0.14180394542E+02  0.51100000000E-03 0. -1.
        -11    1    3    3    0    0 -0.86192708488E+01 -0.24550553586E+02  0.48900041024E+01  0.26475151590E+02  0.51100000000E-03 0.  1.
        -12    1    3    3    0    0 -0.21526416808E+00 -0.42126391560E+01  0.35088445050E+01  0.54867710979E+01  0.00000000000E+00 0.  1.
</event>
<event>
 7    1  0.1683291E-008  0.4614232E+02  0.7816164E-02  0.1320468E+00
        -11   -1    0    0    0    0  0.00000000000E+00  0.00000000000E+00  0.45593999997E+02  0.45594000000E+02  0.51100000000E-03 0.  1.
         11   -1    0    0    0    0 -0.00000000000E+00 -0.00000000000E+00 -0.45593999997E+02  0.45594000000E+02  0.51100000000E-03 0. -1.
    9900012    2    1    2    0    0  0.39242315298E+02 -0.18479024295E+02 -0.12152360945E+02  0.46142317350E+02  0.99999962524E+01 0.  0.
        -12    1    1    2    0    0 -0.39242315298E+02  0.18479024295E+02  0.12152360945E+02  0.45045682650E+02  0.00000000000E+00 0.  1.
         11    1    3    3    0    0  0.16431191705E+02 -0.78158215761E+01 -0.77348739366E+01  0.19771176061E+02  0.51100000000E-03 0. -1.
        -11    1    3    3    0    0  0.21911543844E+02 -0.85792349817E+01 -0.30678710070E+01  0.23730378405E+02  0.51100000000E-03 0.  1.
         12    1    3    3    0    0  0.89957974890E+00 -0.20839677376E+01 -0.13496160012E+01  0.26407628835E+01  0.00000000000E+00 0. -1.
</event>
<event>
 7    1  0.1683291E-008  0.4614232E+02  0.7816164E-02  0.1320468E+00
        -11   -1    0    0    0    0  0.00000000000E+00  0.00000000000E+00  0.45593999997E+02  0.45594000000E+02  0.51100000000E-03 0.  1.
         11   -1    0    0    0    0 -0.00000000000E+00 -0.00000000000E+00 -0.45593999997E+02  0.45594000000E+02  0.51100000000E-03 0. -1.
    9900012    2    1    2    0    0 -0.20324349996E+02  0.30840021506E+02 -0.25786185662E+02  0.46142317629E+02  0.99999987961E+01 0.  0.
        -12    1    1    2    0    0  0.20324349996E+02 -0.30840021506E+02  0.25786185662E+02  0.45045682371E+02  0.00000000000E+00 0.  1.
         11    1    3    3    0    0 -0.76202512901E+01  0.88569971934E+01 -0.10697789319E+02  0.15841632668E+02  0.51100000000E-03 0. -1.
        -11    1    3    3    0    0 -0.10912557889E+02  0.20831460366E+02 -0.11620607401E+02  0.26231129927E+02  0.51100000000E-03 0.  1.
         12    1    3    3    0    0 -0.17915408172E+01  0.11515639470E+01 -0.34677889427E+01  0.40695550340E+01  0.00000000000E+00 0. -1.
</event>
<event>
 7    1  0.1683291E-008  0.4614232E+02  0.7816164E-02  0.1320468E+00
        -11   -1    0    0    0    0  0.00000000000E+00  0.00000000000E+00  0.45593999997E+02  0.45594000000E+02  0.51100000000E-03 0.  1.
         11   -1    0    0    0    0 -0.00000000000E+00 -0.00000000000E+00 -0.45593999997E+02  0.45594000000E+02  0.51100000000E-03 0. -1.
    9900012    2    1    2    0    0 -0.99999660377E+00 -0.44878361869E+02 -0.37477852398E+01  0.46142320391E+02  0.10000023977E+02 0.  0.
        -12    1    1    2    0    0  0.99999660377E+00  0.44878361869E+02  0.37477852398E+01  0.45045679609E+02  0.00000000000E+00 0.  1.
         11    1    3    3    0    0 -0.42362204066E+01 -0.11123709057E+02 -0.11994686089E+01  0.11963326950E+02  0.51100000000E-03 0. -1.
        -11    1    3    3    0    0  0.16121022711E+01 -0.13954200718E+02  0.62150911779E+00  0.14060756213E+02  0.51100000000E-03 0.  1.
         12    1    3    3    0    0  0.16241215317E+01 -0.19800452094E+02 -0.31698257486E+01  0.20118237228E+02  0.00000000000E+00 0. -1.
</event>
<event>
 7    1  0.1683291E-008  0.4614232E+02  0.7816164E-02  0.1320468E+00
        -11   -1    0    0    0    0  0.00000000000E+00  0.00000000000E+00  0.45593999997E+02  0.45594000000E+02  0.51100000000E-03 0.  1.
         11   -1    0    0    0    0 -0.00000000000E+00 -0.00000000000E+00 -0.45593999997E+02  0.45594000000E+02  0.51100000000E-03 0. -1.
    9900012    2    1    2    0    0  0.11927364058E+02  0.39297445089E+02 -0.18508441865E+02  0.46142316254E+02  0.99999862545E+01 0.  0.
        -12    1    1    2    0    0 -0.11927364058E+02 -0.39297445089E+02  0.18508441865E+02  0.45045683746E+02  0.00000000000E+00 0.  1.
         11    1    3    3    0    0 -0.65060705573E+00  0.58950244335E+00  0.34090940072E+00  0.94181853470E+00  0.51100000000E-03 0.  1.
        -11    1    3    3    0    0  0.66297082817E+01  0.28256345956E+02 -0.12492826920E+02  0.31598177849E+02  0.51100000000E-03 0. -1.
        -12    1    3    3    0    0  0.59482628317E+01  0.10451596690E+02 -0.63565243453E+01  0.13602319870E+02  0.00000000000E+00 0.  1.
</event>
<event>
 7    1  0.1683291E-008  0.4614232E+02  0.7816164E-02  0.1320468E+00
        -11   -1    0    0    0    0  0.00000000000E+00  0.00000000000E+00  0.45593999997E+02  0.45594000000E+02  0.51100000000E-03 0.  1.
         11   -1    0    0    0    0 -0.00000000000E+00 -0.00000000000E+00 -0.45593999997E+02  0.45594000000E+02  0.51100000000E-03 0. -1.
    9900012    2    1    2    0    0 -0.29227546258E+02  0.18826417993E+02 -0.28643149226E+02  0.46142317940E+02  0.10000001627E+02 0.  0.
        -12    1    1    2    0    0  0.29227546258E+02 -0.18826417993E+02  0.28643149226E+02  0.45045682060E+02  0.00000000000E+00 0.  1.
         11    1    3    3    0    0 -0.21525531003E+01  0.40773681175E+01 -0.31406547419E+01  0.55787210079E+01  0.51100000000E-03 0.  1.
        -11    1    3    3    0    0 -0.11141619008E+02  0.24994462366E+01 -0.84296699133E+01  0.14193034936E+02  0.51100000000E-03 0. -1.
         12    1    3    3    0    0 -0.15933374150E+02  0.12249603639E+02 -0.17072824571E+02  0.26370561995E+02  0.00000000000E+00 0. -1.
</event>
<event>
 7    1  0.1683291E-008  0.4614232E+02  0.7816164E-02  0.1320468E+00
        -11   -1    0    0    0    0  0.00000000000E+00  0.00000000000E+00  0.45593999997E+02  0.45594000000E+02  0.51100000000E-03 0. -1.
         11   -1    0    0    0    0 -0.00000000000E+00 -0.00000000000E+00 -0.45593999997E+02  0.45594000000E+02  0.51100000000E-03 0.  1.
    9900012    2    1    2    0    0 -0.34679503045E+02 -0.13932670407E+02  0.25146096079E+02  0.46142318918E+02  0.10000010552E+02 0.  0.
        -12    1    1    2    0    0  0.34679503045E+02  0.13932670407E+02 -0.25146096079E+02  0.45045681082E+02  0.00000000000E+00 0.  1.
         11    1    3    3    0    0 -0.27514147113E+02 -0.12395884596E+02  0.15802343977E+02  0.34064649150E+02  0.51100000000E-03 0. -1.
        -11    1    3    3    0    0 -0.58964705238E-01 -0.36376675811E+00  0.14835900723E+00  0.39725778396E+00  0.51100000000E-03 0.  1.
         12    1    3    3    0    0 -0.71063912263E+01 -0.11730190533E+01  0.91953930945E+01  0.11680411984E+02  0.00000000000E+00 0. -1.
</event>
<event>
 7    1  0.1683291E-008  0.4614232E+02  0.7816164E-02  0.1320468E+00
        -11   -1    0    0    0    0  0.00000000000E+00  0.00000000000E+00  0.45593999997E+02  0.45594000000E+02  0.51100000000E-03 0.  1.
         11   -1    0    0    0    0 -0.00000000000E+00 -0.00000000000E+00 -0.45593999997E+02  0.45594000000E+02  0.51100000000E-03 0. -1.
    9900012    2    1    2    0    0  0.33347005627E+02  0.12566628494E+01 -0.30257421355E+02  0.46142317267E+02  0.99999954986E+01 0.  0.
        -12    1    1    2    0    0 -0.33347005627E+02 -0.12566628494E+01  0.30257421355E+02  0.45045682733E+02  0.00000000000E+00 0.  1.
         11    1    3    3    0    0  0.22596471404E+02  0.15129684616E+01 -0.14473300870E+02  0.26876867969E+02  0.51100000000E-03 0. -1.
        -11    1    3    3    0    0  0.88370901387E+01 -0.11502224885E+01 -0.13225948513E+02  0.15948131183E+02  0.51100000000E-03 0.  1.
         12    1    3    3    0    0  0.19134440845E+01  0.89391687633E+00 -0.25581719719E+01  0.33173181162E+01  0.00000000000E+00 0. -1.
</event>
<event>
 7    1  0.1683291E-008  0.4614232E+02  0.7816164E-02  0.1320468E+00
        -11   -1    0    0    0    0  0.00000000000E+00  0.00000000000E+00  0.45593999997E+02  0.45594000000E+02  0.51100000000E-03 0. -1.
         11   -1    0    0    0    0 -0.00000000000E+00 -0.00000000000E+00 -0.45593999997E+02  0.45594000000E+02  0.51100000000E-03 0.  1.
    9900012    2    1    2    0    0  0.36211557118E+02  0.10107937520E+02  0.24812621853E+02  0.46142317932E+02  0.10000001556E+02 0.  0.
        -12    1    1    2    0    0 -0.36211557118E+02 -0.10107937520E+02 -0.24812621853E+02  0.45045682068E+02  0.00000000000E+00 0.  1.
         11    1    3    3    0    0  0.17179771100E+02  0.93528631209E+01  0.13796169074E+02  0.23936475618E+02  0.51100000000E-03 0. -1.
        -11    1    3    3    0    0  0.41558118200E+00 -0.91133998107E-01 -0.18396000582E+00  0.46352418416E+00  0.51100000000E-03 0.  1.
         12    1    3    3    0    0  0.18616204835E+02  0.84620839768E+00  0.11200412784E+02  0.21742318130E+02  0.00000000000E+00 0. -1.
</event>
<event>
 7    1  0.1683291E-008  0.4614232E+02  0.7816164E-02  0.1320468E+00
        -11   -1    0    0    0    0  0.00000000000E+00  0.00000000000E+00  0.45593999997E+02  0.45594000000E+02  0.51100000000E-03 0.  1.
         11   -1    0    0    0    0 -0.00000000000E+00 -0.00000000000E+00 -0.45593999997E+02  0.45594000000E+02  0.51100000000E-03 0. -1.
    9900012    2    1    2    0    0  0.32073193842E+02 -0.12617607759E+02 -0.29003791241E+02  0.46142315466E+02  0.99999790695E+01 0.  0.
        -12    1    1    2    0    0 -0.32073193842E+02  0.12617607759E+02  0.29003791241E+02  0.45045684534E+02  0.00000000000E+00 0.  1.
         11    1    3    3    0    0  0.98169284167E+01 -0.36968198272E+01 -0.12083993468E+02  0.16001920471E+02  0.51100000000E-03 0. -1.
        -11    1    3    3    0    0  0.32193400767E+00  0.68164278621E+00 -0.14481663508E+01  0.16326250133E+01  0.51100000000E-03 0.  1.
         12    1    3    3    0    0  0.21934331418E+02 -0.96024307180E+01 -0.15471631423E+02  0.28507769982E+02  0.00000000000E+00 0. -1.
</event>
<event>
 7    1  0.1683291E-008  0.4614232E+02  0.7816164E-02  0.1320468E+00
        -11   -1    0    0    0    0  0.00000000000E+00  0.00000000000E+00  0.45593999997E+02  0.45594000000E+02  0.51100000000E-03 0.  1.
         11   -1    0    0    0    0 -0.00000000000E+00 -0.00000000000E+00 -0.45593999997E+02  0.45594000000E+02  0.51100000000E-03 0. -1.
    9900012    2    1    2    0    0 -0.24780288272E+02  0.87090122978E+01 -0.36595134801E+02  0.46142317931E+02  0.10000001546E+02 0.  0.
        -12    1    1    2    0    0  0.24780288272E+02 -0.87090122978E+01  0.36595134801E+02  0.45045682069E+02  0.00000000000E+00 0.  1.
         11    1    3    3    0    0 -0.19987282144E+02  0.51146650540E+01 -0.28995188078E+02  0.35586123392E+02  0.51100000000E-03 0. -1.
        -11    1    3    3    0    0 -0.14581346437E+01  0.36584677919E+01 -0.47385917547E+01  0.61615578633E+01  0.51100000000E-03 0.  1.
        -12    1    3    3    0    0 -0.33348714836E+01 -0.64120548068E-01 -0.28613549680E+01  0.43946366755E+01  0.00000000000E+00 0.  1.
</event>
<event>
 7    1  0.1683291E-008  0.4614232E+02  0.7816164E-02  0.1320468E+00
        -11   -1    0    0    0    0  0.00000000000E+00  0.00000000000E+00  0.45593999997E+02  0.45594000000E+02  0.51100000000E-03 0.  1.
         11   -1    0    0    0    0 -0.00000000000E+00 -0.00000000000E+00 -0.45593999997E+02  0.45594000000E+02  0.51100000000E-03 0. -1.
    9900012    2    1    2    0    0 -0.25252324395E+02 -0.12252001318E+02 -0.35232394369E+02  0.46142322775E+02  0.10000045723E+02 0.  0.
        -12    1    1    2    0    0  0.25252324395E+02  0.12252001318E+02  0.35232394369E+02  0.45045677225E+02  0.00000000000E+00 0.  1.
         11    1    3    3    0    0 -0.56187383198E+01 -0.31211738312E+01 -0.14484751101E+02  0.15846765004E+02  0.51100000000E-03 0. -1.
        -11    1    3    3    0    0 -0.10911048389E+02 -0.27026118435E+01 -0.10586910020E+02  0.15441429719E+02  0.51100000000E-03 0.  1.
         12    1    3    3    0    0 -0.87225376862E+01 -0.64282156437E+01 -0.10160733248E+02  0.14854128052E+02  0.00000000000E+00 0. -1.
</event>
<event>
 7    1  0.1683291E-008  0.4614232E+02  0.7816164E-02  0.1320468E+00
        -11   -1    0    0    0    0  0.00000000000E+00  0.00000000000E+00  0.45593999997E+02  0.45594000000E+02  0.51100000000E-03 0. -1.
         11   -1    0    0    0    0 -0.00000000000E+00 -0.00000000000E+00 -0.45593999997E+02  0.45594000000E+02  0.51100000000E-03 0.  1.
    9900012    2    1    2    0    0 -0.99533285910E+01  0.43328160036E+02  0.72605334191E+01  0.46142317103E+02  0.99999940005E+01 0.  0.
        -12    1    1    2    0    0  0.99533285910E+01 -0.43328160036E+02 -0.72605334191E+01  0.45045682897E+02  0.00000000000E+00 0.  1.
         11    1    3    3    0    0  0.19185024391E+01  0.43302528598E+01  0.59606676344E+00  0.47735769907E+01  0.51100000000E-03 0. -1.
        -11    1    3    3    0    0 -0.70333740495E+01  0.19234987253E+02  0.31813836556E+01  0.20726173969E+02  0.51100000000E-03 0.  1.
         12    1    3    3    0    0 -0.48384569805E+01  0.19762919923E+02  0.34830830001E+01  0.20642566144E+02  0.00000000000E+00 0. -1.
</event>
<event>
 7    1  0.1683291E-008  0.4614232E+02  0.7816164E-02  0.1320468E+00
        -11   -1    0    0    0    0  0.00000000000E+00  0.00000000000E+00  0.45593999997E+02  0.45594000000E+02  0.51100000000E-03 0.  1.
         11   -1    0    0    0    0 -0.00000000000E+00 -0.00000000000E+00 -0.45593999997E+02  0.45594000000E+02  0.51100000000E-03 0. -1.
    9900012    2    1    2    0    0  0.16892781154E+02  0.41758199293E+02 -0.12380117707E-01  0.46142318558E+02  0.10000007269E+02 0.  0.
        -12    1    1    2    0    0 -0.16892781154E+02 -0.41758199293E+02  0.12380117707E-01  0.45045681442E+02  0.00000000000E+00 0.  1.
         11    1    3    3    0    0  0.41213091159E+01  0.12950282976E+02 -0.95179263332E+00  0.13623543132E+02  0.51100000000E-03 0. -1.
        -11    1    3    3    0    0  0.10702011922E+02  0.28283482601E+02  0.16035098210E+01  0.30282993433E+02  0.51100000000E-03 0.  1.
        -12    1    3    3    0    0  0.20694601156E+01  0.52443371538E+00 -0.66409730534E+00  0.22357819936E+01  0.00000000000E+00 0.  1.
</event>
<event>
 7    1  0.1683291E-008  0.4614232E+02  0.7816164E-02  0.1320468E+00
        -11   -1    0    0    0    0  0.00000000000E+00  0.00000000000E+00  0.45593999997E+02  0.45594000000E+02  0.51100000000E-03 0.  1.
         11   -1    0    0    0    0 -0.00000000000E+00 -0.00000000000E+00 -0.45593999997E+02  0.45594000000E+02  0.51100000000E-03 0. -1.
    9900012    2    1    2    0    0  0.27411811234E+02  0.34773623972E+02 -0.82765346896E+01  0.46142319345E+02  0.10000014439E+02 0.  0.
        -12    1    1    2    0    0 -0.27411811234E+02 -0.34773623972E+02  0.82765346896E+01  0.45045680655E+02  0.00000000000E+00 0.  1.
         11    1    3    3    0    0  0.19910381143E+02  0.21756531703E+02 -0.41750909764E+01  0.29785925097E+02  0.51100000000E-03 0. -1.
        -11    1    3    3    0    0  0.41462200062E+01  0.30852044094E+01 -0.25361011326E+01  0.57568598909E+01  0.51100000000E-03 0.  1.
         12    1    3    3    0    0  0.33552100843E+01  0.99318878600E+01 -0.15653425806E+01  0.10599534356E+02  0.00000000000E+00 0. -1.
</event>
<event>
 7    1  0.1683291E-008  0.4614232E+02  0.7816164E-02  0.1320468E+00
        -11   -1    0    0    0    0  0.00000000000E+00  0.00000000000E+00  0.45593999997E+02  0.45594000000E+02  0.51100000000E-03 0.  1.
         11   -1    0    0    0    0 -0.00000000000E+00 -0.00000000000E+00 -0.45593999997E+02  0.45594000000E+02  0.51100000000E-03 0. -1.
    9900012    2    1    2    0    0  0.20863993492E+02 -0.98816805867E+01 -0.38680222876E+02  0.46142317883E+02  0.10000001114E+02 0.  0.
        -12    1    1    2    0    0 -0.20863993492E+02  0.98816805867E+01  0.38680222876E+02  0.45045682117E+02  0.00000000000E+00 0.  1.
         11    1    3    3    0    0  0.43461473004E+01  0.13071028692E+00 -0.10349475220E+02  0.11225761406E+02  0.51100000000E-03 0. -1.
        -11    1    3    3    0    0  0.12427862026E+02 -0.39102067209E+01 -0.19079095060E+02  0.23103102383E+02  0.51100000000E-03 0.  1.
        -12    1    3    3    0    0  0.40899841655E+01 -0.61021841527E+01 -0.92516525949E+01  0.11813454095E+02  0.00000000000E+00 0.  1.
</event>
<event>
 7    1  0.1683291E-008  0.4614232E+02  0.7816164E-02  0.1320468E+00
        -11   -1    0    0    0    0  0.00000000000E+00  0.00000000000E+00  0.45593999997E+02  0.45594000000E+02  0.51100000000E-03 0.  1.
         11   -1    0    0    0    0 -0.00000000000E+00 -0.00000000000E+00 -0.45593999997E+02  0.45594000000E+02  0.51100000000E-03 0. -1.
    9900012    2    1    2    0    0 -0.29851848992E+02 -0.56619087511E+01 -0.33255425334E+02  0.46142318597E+02  0.10000007620E+02 0.  0.
        -12    1    1    2    0    0  0.29851848992E+02  0.56619087511E+01  0.33255425334E+02  0.45045681403E+02  0.00000000000E+00 0.  1.
         11    1    3    3    0    0 -0.49035387570E+01  0.10125951603E+01 -0.10240989455E+02  0.11399469574E+02  0.51100000000E-03 0.  1.
        -11    1    3    3    0    0 -0.20511214967E+02 -0.58562558146E+01 -0.17316439770E+02  0.27474802240E+02  0.51100000000E-03 0. -1.
        -12    1    3    3    0    0 -0.44370952684E+01 -0.81824809679E+00 -0.56979961095E+01  0.72680467825E+01  0.00000000000E+00 0.  1.
</event>
<event>
 7    1  0.1683291E-008  0.4614232E+02  0.7816164E-02  0.1320468E+00
        -11   -1    0    0    0    0  0.00000000000E+00  0.00000000000E+00  0.45593999997E+02  0.45594000000E+02  0.51100000000E-03 0.  1.
         11   -1    0    0    0    0 -0.00000000000E+00 -0.00000000000E+00 -0.45593999997E+02  0.45594000000E+02  0.51100000000E-03 0. -1.
    9900012    2    1    2    0    0  0.39572043428E+02 -0.96192976971E+01 -0.19251906865E+02  0.46142318440E+02  0.10000006189E+02 0.  0.
        -12    1    1    2    0    0 -0.39572043428E+02  0.96192976971E+01  0.19251906865E+02  0.45045681560E+02  0.00000000000E+00 0.  1.
         11    1    3    3    0    0  0.15004450676E+02 -0.83224025454E+01 -0.99148984986E+01  0.19816688339E+02  0.51100000000E-03 0. -1.
        -11    1    3    3    0    0  0.18513319947E+02 -0.64065567695E+00 -0.70001722673E+01  0.19802925723E+02  0.51100000000E-03 0.  1.
         12    1    3    3    0    0  0.60542728055E+01 -0.65623947479E+00 -0.23368360993E+01  0.65227043783E+01  0.00000000000E+00 0. -1.
</event>
<event>
 7    1  0.1683291E-008  0.4614232E+02  0.7816164E-02  0.1320468E+00
        -11   -1    0    0    0    0  0.00000000000E+00  0.00000000000E+00  0.45593999997E+02  0.45594000000E+02  0.51100000000E-03 0.  1.
         11   -1    0    0    0    0 -0.00000000000E+00 -0.00000000000E+00 -0.45593999997E+02  0.45594000000E+02  0.51100000000E-03 0. -1.
    9900012    2    1    2    0    0 -0.44518898467E+02  0.61541716783E+01  0.30507818118E+01  0.46142318526E+02  0.10000006979E+02 0.  0.
        -12    1    1    2    0    0  0.44518898467E+02 -0.61541716783E+01 -0.30507818118E+01  0.45045681474E+02  0.00000000000E+00 0.  1.
         11    1    3    3    0    0 -0.24692454628E+02  0.55691141773E+01 -0.17492144776E+01  0.25373058543E+02  0.51100000000E-03 0. -1.
        -11    1    3    3    0    0 -0.18010147783E+02  0.13740250273E+01  0.34945442161E+01  0.18397423936E+02  0.51100000000E-03 0.  1.
         12    1    3    3    0    0 -0.18162960554E+01 -0.78896752628E+00  0.13054520733E+01  0.23718360470E+01  0.00000000000E+00 0. -1.
</event>
<event>
 7    1  0.1683291E-008  0.4614232E+02  0.7816164E-02  0.1320468E+00
        -11   -1    0    0    0    0  0.00000000000E+00  0.00000000000E+00  0.45593999997E+02  0.45594000000E+02  0.51100000000E-03 0.  1.
         11   -1    0    0    0    0 -0.00000000000E+00 -0.00000000000E+00 -0.45593999997E+02  0.45594000000E+02  0.51100000000E-03 0. -1.
    9900012    2    1    2    0    0  0.35264925216E+02  0.18090751485E+02 -0.21406149658E+02  0.46142317821E+02  0.10000000549E+02 0.  0.
        -12    1    1    2    0    0 -0.35264925216E+02 -0.18090751485E+02  0.21406149658E+02  0.45045682179E+02  0.00000000000E+00 0.  1.
         11    1    3    3    0    0  0.17379391935E+02  0.39354622353E+01 -0.10990534059E+02  0.20936164076E+02  0.51100000000E-03 0. -1.
        -11    1    3    3    0    0  0.13822587179E+02  0.11116042989E+02 -0.92299357412E+01  0.19995550558E+02  0.51100000000E-03 0.  1.
         12    1    3    3    0    0  0.40629461013E+01  0.30392462607E+01 -0.11856798577E+01  0.52106031878E+01  0.00000000000E+00 0. -1.
</event>
<event>
 7    1  0.1683291E-008  0.4614232E+02  0.7816164E-02  0.1320468E+00
        -11   -1    0    0    0    0  0.00000000000E+00  0.00000000000E+00  0.45593999997E+02  0.45594000000E+02  0.51100000000E-03 0. -1.
         11   -1    0    0    0    0 -0.00000000000E+00 -0.00000000000E+00 -0.45593999997E+02  0.45594000000E+02  0.51100000000E-03 0.  1.
    9900012    2    1    2    0    0  0.41121790642E+02  0.12118999971E+02 -0.13829016405E+02  0.46142317403E+02  0.99999967330E+01 0.  0.
        -12    1    1    2    0    0 -0.41121790642E+02 -0.12118999971E+02  0.13829016405E+02  0.45045682597E+02  0.00000000000E+00 0.  1.
         11    1    3    3    0    0  0.26775641355E+02  0.55628670123E+01 -0.43726207335E+01  0.27694769753E+02  0.51100000000E-03 0. -1.
        -11    1    3    3    0    0  0.11330583298E+02  0.45096811167E+01 -0.72696603211E+01  0.14197440019E+02  0.51100000000E-03 0.  1.
         12    1    3    3    0    0  0.30155659897E+01  0.20464518423E+01 -0.21867353500E+01  0.42501076306E+01  0.00000000000E+00 0. -1.
</event>
<event>
 7    1  0.1683291E-008  0.4614231E+02  0.7816164E-02  0.1320468E+00
        -11   -1    0    0    0    0  0.00000000000E+00  0.00000000000E+00  0.45593999997E+02  0.45594000000E+02  0.51100000000E-03 0.  1.
         11   -1    0    0    0    0 -0.00000000000E+00 -0.00000000000E+00 -0.45593999997E+02  0.45594000000E+02  0.51100000000E-03 0. -1.
    9900012    2    1    2    0    0  0.18677065063E+02  0.24522790634E+02 -0.32846828560E+02  0.46142310236E+02  0.99999313799E+01 0.  0.
        -12    1    1    2    0    0 -0.18677065063E+02 -0.24522790634E+02  0.32846828560E+02  0.45045689764E+02  0.00000000000E+00 0.  1.
         11    1    3    3    0    0  0.97345300844E+01  0.58542011964E+01 -0.12425938388E+02  0.16835578181E+02  0.51100000000E-03 0. -1.
        -11    1    3    3    0    0  0.72845613364E+01  0.16909037255E+02 -0.19189565722E+02  0.26593604638E+02  0.51100000000E-03 0.  1.
         12    1    3    3    0    0  0.16579736426E+01  0.17595521818E+01 -0.12313244509E+01  0.27131274175E+01  0.00000000000E+00 0. -1.
</event>
<event>
 7    1  0.1683291E-008  0.4614232E+02  0.7816164E-02  0.1320468E+00
        -11   -1    0    0    0    0  0.00000000000E+00  0.00000000000E+00  0.45593999997E+02  0.45594000000E+02  0.51100000000E-03 0.  1.
         11   -1    0    0    0    0 -0.00000000000E+00 -0.00000000000E+00 -0.45593999997E+02  0.45594000000E+02  0.51100000000E-03 0. -1.
    9900012    2    1    2    0    0 -0.34844241726E+02  0.14108081371E+02 -0.24818427910E+02  0.46142317573E+02  0.99999982820E+01 0.  0.
        -12    1    1    2    0    0  0.34844241726E+02 -0.14108081371E+02  0.24818427910E+02  0.45045682427E+02  0.00000000000E+00 0.  1.
         11    1    3    3    0    0 -0.25894235633E+02  0.88748600707E+01 -0.19050114776E+02  0.33349384605E+02  0.51100000000E-03 0. -1.
        -11    1    3    3    0    0 -0.32488930139E+01 -0.47828707824E+00 -0.10643188688E+01  0.34520775281E+01  0.51100000000E-03 0.  1.
        -12    1    3    3    0    0 -0.57011130786E+01  0.57115083782E+01 -0.47039942653E+01  0.93408554392E+01  0.00000000000E+00 0.  1.
</event>
<event>
 7    1  0.1683291E-008  0.4614232E+02  0.7816164E-02  0.1320468E+00
        -11   -1    0    0    0    0  0.00000000000E+00  0.00000000000E+00  0.45593999997E+02  0.45594000000E+02  0.51100000000E-03 0.  1.
         11   -1    0    0    0    0 -0.00000000000E+00 -0.00000000000E+00 -0.45593999997E+02  0.45594000000E+02  0.51100000000E-03 0. -1.
    9900012    2    1    2    0    0 -0.21174082759E+02  0.33938274905E+02 -0.20711474773E+02  0.46142317948E+02  0.10000001704E+02 0.  0.
        -12    1    1    2    0    0  0.21174082759E+02 -0.33938274905E+02  0.20711474773E+02  0.45045682052E+02  0.00000000000E+00 0.  1.
         11    1    3    3    0    0 -0.16506241828E+02  0.30264776276E+02 -0.18195942977E+02  0.38980829178E+02  0.51100000000E-03 0. -1.
        -11    1    3    3    0    0 -0.51264555717E+01  0.31872422736E+01 -0.22836061220E+01  0.64539846003E+01  0.51100000000E-03 0.  1.
         12    1    3    3    0    0  0.45861464036E+00  0.48625635573E+00 -0.23192567478E+00  0.70750416992E+00  0.00000000000E+00 0. -1.
</event>
<event>
 7    1  0.1683291E-008  0.4614232E+02  0.7816164E-02  0.1320468E+00
        -11   -1    0    0    0    0  0.00000000000E+00  0.00000000000E+00  0.45593999997E+02  0.45594000000E+02  0.51100000000E-03 0. -1.
         11   -1    0    0    0    0 -0.00000000000E+00 -0.00000000000E+00 -0.45593999997E+02  0.45594000000E+02  0.51100000000E-03 0.  1.
    9900012    2    1    2    0    0 -0.17490871878E+01  0.18890967191E+02  0.40855668047E+02  0.46142316977E+02  0.99999928508E+01 0.  0.
        -12    1    1    2    0    0  0.17490871878E+01 -0.18890967191E+02 -0.40855668047E+02  0.45045683023E+02  0.00000000000E+00 0.  1.
         11    1    3    3    0    0  0.55697520127E+00  0.89774870606E+01  0.21384309828E+02  0.23199012961E+02  0.51100000000E-03 0. -1.
        -11    1    3    3    0    0 -0.28593269526E+01  0.10158805826E+02  0.19656480856E+02  0.22310408476E+02  0.51100000000E-03 0.  1.
        -12    1    3    3    0    0  0.55326456353E+00 -0.24532569562E+00 -0.18512263687E+00  0.63289554025E+00  0.00000000000E+00 0.  1.
</event>
<event>
 7    1  0.1683291E-008  0.4614232E+02  0.7816164E-02  0.1320468E+00
        -11   -1    0    0    0    0  0.00000000000E+00  0.00000000000E+00  0.45593999997E+02  0.45594000000E+02  0.51100000000E-03 0.  1.
         11   -1    0    0    0    0 -0.00000000000E+00 -0.00000000000E+00 -0.45593999997E+02  0.45594000000E+02  0.51100000000E-03 0. -1.
    9900012    2    1    2    0    0 -0.43955206932E+02  0.14219629908E+01 -0.97484026098E+01  0.46142317092E+02  0.99999939012E+01 0.  0.
        -12    1    1    2    0    0  0.43955206932E+02 -0.14219629908E+01  0.97484026098E+01  0.45045682908E+02  0.00000000000E+00 0.  1.
         11    1    3    3    0    0 -0.12161814968E+02  0.84079728126E+00 -0.54617858600E+01  0.13358435104E+02  0.51100000000E-03 0. -1.
        -11    1    3    3    0    0 -0.16175541438E+02  0.32190745452E+01 -0.50912190443E+00  0.16500599599E+02  0.51100000000E-03 0.  1.
        -12    1    3    3    0    0 -0.15617850526E+02 -0.26379088357E+01 -0.37774948453E+01  0.16283282390E+02  0.00000000000E+00 0.  1.
</event>
<event>
 7    1  0.1683291E-008  0.4614232E+02  0.7816164E-02  0.1320468E+00
        -11   -1    0    0    0    0  0.00000000000E+00  0.00000000000E+00  0.45593999997E+02  0.45594000000E+02  0.51100000000E-03 0.  1.
         11   -1    0    0    0    0 -0.00000000000E+00 -0.00000000000E+00 -0.45593999997E+02  0.45594000000E+02  0.51100000000E-03 0. -1.
    9900012    2    1    2    0    0  0.34162062312E+02 -0.30270041498E+01 -0.29204523802E+02  0.46142318008E+02  0.10000002255E+02 0.  0.
        -12    1    1    2    0    0 -0.34162062312E+02  0.30270041498E+01  0.29204523802E+02  0.45045681992E+02  0.00000000000E+00 0.  1.
         11    1    3    3    0    0  0.84003998991E+01 -0.16038953892E+01 -0.60615860267E+01  0.10482462702E+02  0.51100000000E-03 0. -1.
        -11    1    3    3    0    0  0.36277131488E+01  0.28058944217E+01 -0.42693068964E+01  0.62658062396E+01  0.51100000000E-03 0.  1.
        -12    1    3    3    0    0  0.22133949265E+02 -0.42290031823E+01 -0.18873630879E+02  0.29394049067E+02  0.00000000000E+00 0.  1.
</event>
<event>
 7    1  0.1683291E-008  0.4614232E+02  0.7816164E-02  0.1320468E+00
        -11   -1    0    0    0    0  0.00000000000E+00  0.00000000000E+00  0.45593999997E+02  0.45594000000E+02  0.51100000000E-03 0.  1.
         11   -1    0    0    0    0 -0.00000000000E+00 -0.00000000000E+00 -0.45593999997E+02  0.45594000000E+02  0.51100000000E-03 0. -1.
    9900012    2    1    2    0    0  0.60605999350E+01 -0.11157939657E+02 -0.43219011509E+02  0.46142318245E+02  0.10000004415E+02 0.  0.
        -12    1    1    2    0    0 -0.60605999350E+01  0.11157939657E+02  0.43219011509E+02  0.45045681755E+02  0.00000000000E+00 0.  1.
         11    1    3    3    0    0  0.11943566550E+01 -0.87158045012E+01 -0.21897622997E+02  0.23598678545E+02  0.51100000000E-03 0. -1.
        -11    1    3    3    0    0  0.13214729860E+01  0.99901985593E+00 -0.19817118151E+01  0.25829273130E+01  0.51100000000E-03 0.  1.
         12    1    3    3    0    0  0.35447702940E+01 -0.34411550113E+01 -0.19339676697E+02  0.19960712387E+02  0.00000000000E+00 0. -1.
</event>
<event>
 7    1  0.1683291E-008  0.4614232E+02  0.7816164E-02  0.1320468E+00
        -11   -1    0    0    0    0  0.00000000000E+00  0.00000000000E+00  0.45593999997E+02  0.45594000000E+02  0.51100000000E-03 0.  1.
         11   -1    0    0    0    0 -0.00000000000E+00 -0.00000000000E+00 -0.45593999997E+02  0.45594000000E+02  0.51100000000E-03 0. -1.
    9900012    2    1    2    0    0 -0.38570350172E+02  0.68179408638E+01 -0.22247635390E+02  0.46142317516E+02  0.99999977614E+01 0.  0.
        -12    1    1    2    0    0  0.38570350172E+02 -0.68179408638E+01  0.22247635390E+02  0.45045682484E+02  0.00000000000E+00 0.  1.
         11    1    3    3    0    0 -0.30450235285E+02  0.35967826585E+01 -0.21229543217E+02  0.37294063601E+02  0.51100000000E-03 0. -1.
        -11    1    3    3    0    0 -0.37664636542E+01  0.18720117030E+01 -0.82558222508E+00  0.42862877349E+01  0.51100000000E-03 0.  1.
         12    1    3    3    0    0 -0.43536512330E+01  0.13491465023E+01 -0.19250994748E+00  0.45619661796E+01  0.00000000000E+00 0. -1.
</event>
<event>
 7    1  0.1683291E-008  0.4614232E+02  0.7816164E-02  0.1320468E+00
        -11   -1    0    0    0    0  0.00000000000E+00  0.00000000000E+00  0.45593999997E+02  0.45594000000E+02  0.51100000000E-03 0.  1.
         11   -1    0    0    0    0 -0.00000000000E+00 -0.00000000000E+00 -0.45593999997E+02  0.45594000000E+02  0.51100000000E-03 0. -1.
    9900012    2    1    2    0    0 -0.43658653496E+02 -0.81314913373E+01 -0.75441568888E+01  0.46142317858E+02  0.10000000887E+02 0.  0.
        -12    1    1    2    0    0  0.43658653496E+02  0.81314913373E+01  0.75441568888E+01  0.45045682142E+02  0.00000000000E+00 0.  1.
         11    1    3    3    0    0 -0.11109811104E+02 -0.22464062667E+01 -0.35288132032E+01  0.11871258011E+02  0.51100000000E-03 0. -1.
        -11    1    3    3    0    0 -0.10563860371E+01  0.13510654233E+01 -0.52175179363E-01  0.17158239268E+01  0.51100000000E-03 0.  1.
        -12    1    3    3    0    0 -0.31492456355E+02 -0.72361504939E+01 -0.39631685063E+01  0.32555235921E+02  0.00000000000E+00 0.  1.
</event>
<event>
 7    1  0.1683291E-008  0.4614232E+02  0.7816164E-02  0.1320468E+00
        -11   -1    0    0    0    0  0.00000000000E+00  0.00000000000E+00  0.45593999997E+02  0.45594000000E+02  0.51100000000E-03 0.  1.
         11   -1    0    0    0    0 -0.00000000000E+00 -0.00000000000E+00 -0.45593999997E+02  0.45594000000E+02  0.51100000000E-03 0. -1.
    9900012    2    1    2    0    0  0.24341288823E+01  0.23505005880E+02 -0.38349746063E+02  0.46142319764E+02  0.10000018260E+02 0.  0.
        -12    1    1    2    0    0 -0.24341288823E+01 -0.23505005880E+02  0.38349746063E+02  0.45045680236E+02  0.00000000000E+00 0.  1.
         11    1    3    3    0    0 -0.12121705062E-02  0.51257492228E+01 -0.43330354564E+01  0.67118181659E+01  0.51100000000E-03 0. -1.
        -11    1    3    3    0    0  0.43239333392E+01  0.11793769632E+02 -0.17431045057E+02  0.21485593631E+02  0.51100000000E-03 0.  1.
        -12    1    3    3    0    0 -0.18885922864E+01  0.65854870258E+01 -0.16585665550E+02  0.17944907966E+02  0.00000000000E+00 0.  1.
</event>
<event>
 7    1  0.1683291E-008  0.4614232E+02  0.7816164E-02  0.1320468E+00
        -11   -1    0    0    0    0  0.00000000000E+00  0.00000000000E+00  0.45593999997E+02  0.45594000000E+02  0.51100000000E-03 0.  1.
         11   -1    0    0    0    0 -0.00000000000E+00 -0.00000000000E+00 -0.45593999997E+02  0.45594000000E+02  0.51100000000E-03 0. -1.
    9900012    2    1    2    0    0 -0.18006959377E+02 -0.41148317514E+02 -0.34174431564E+01  0.46142317211E+02  0.99999949806E+01 0.  0.
        -12    1    1    2    0    0  0.18006959377E+02  0.41148317514E+02  0.34174431564E+01  0.45045682789E+02  0.00000000000E+00 0.  1.
         11    1    3    3    0    0 -0.14739706667E+02 -0.28078149352E+02 -0.38713981177E+01  0.31947287010E+02  0.51100000000E-03 0. -1.
        -11    1    3    3    0    0 -0.21922001552E+01 -0.91270989069E+01  0.23699109178E+01  0.96812268849E+01  0.51100000000E-03 0.  1.
        -12    1    3    3    0    0 -0.10750525548E+01 -0.39430692547E+01 -0.19159559565E+01  0.45138033155E+01  0.00000000000E+00 0.  1.
</event>
<event>
 7    1  0.1683291E-008  0.4614231E+02  0.7816164E-02  0.1320468E+00
        -11   -1    0    0    0    0  0.00000000000E+00  0.00000000000E+00  0.45593999997E+02  0.45594000000E+02  0.51100000000E-03 0.  1.
         11   -1    0    0    0    0 -0.00000000000E+00 -0.00000000000E+00 -0.45593999997E+02  0.45594000000E+02  0.51100000000E-03 0. -1.
    9900012    2    1    2    0    0 -0.41476667578E+02  0.15356248196E+02  0.85431594895E+01  0.46142313346E+02  0.99999597430E+01 0.  0.
        -12    1    1    2    0    0  0.41476667578E+02 -0.15356248196E+02 -0.85431594895E+01  0.45045686654E+02  0.00000000000E+00 0.  1.
         11    1    3    3    0    0 -0.34898702043E+02  0.13614390189E+02  0.10334151896E+02  0.38859564076E+02  0.51100000000E-03 0. -1.
        -11    1    3    3    0    0 -0.32882704119E+00 -0.13388870484E+00  0.26373377702E+00  0.44227725983E+00  0.51100000000E-03 0.  1.
         12    1    3    3    0    0 -0.62491384937E+01  0.18757467118E+01 -0.20547261831E+01  0.68404720106E+01  0.00000000000E+00 0. -1.
</event>
<event>
 7    1  0.1683291E-008  0.4614232E+02  0.7816164E-02  0.1320468E+00
        -11   -1    0    0    0    0  0.00000000000E+00  0.00000000000E+00  0.45593999997E+02  0.45594000000E+02  0.51100000000E-03 0.  1.
         11   -1    0    0    0    0 -0.00000000000E+00 -0.00000000000E+00 -0.45593999997E+02  0.45594000000E+02  0.51100000000E-03 0. -1.
    9900012    2    1    2    0    0  0.22802583923E+02 -0.34292049448E+01 -0.38696202371E+02  0.46142319207E+02  0.10000013188E+02 0.  0.
        -12    1    1    2    0    0 -0.22802583923E+02  0.34292049448E+01  0.38696202371E+02  0.45045680793E+02  0.00000000000E+00 0.  1.
         11    1    3    3    0    0  0.56192927642E+01 -0.32618564034E+01 -0.57994321721E+01  0.87091659845E+01  0.51100000000E-03 0.  1.
        -11    1    3    3    0    0  0.93848892066E+01  0.75457709683E+00 -0.22607292790E+02  0.24489492024E+02  0.51100000000E-03 0. -1.
         12    1    3    3    0    0  0.77984019522E+01 -0.92192563824E+00 -0.10289477409E+02  0.12943661199E+02  0.00000000000E+00 0. -1.
</event>
<event>
 7    1  0.1683291E-008  0.4614232E+02  0.7816164E-02  0.1320468E+00
        -11   -1    0    0    0    0  0.00000000000E+00  0.00000000000E+00  0.45593999997E+02  0.45594000000E+02  0.51100000000E-03 0.  1.
         11   -1    0    0    0    0 -0.00000000000E+00 -0.00000000000E+00 -0.45593999997E+02  0.45594000000E+02  0.51100000000E-03 0. -1.
    9900012    2    1    2    0    0 -0.39044802888E+02 -0.84626273173E+01 -0.20808671863E+02  0.46142317428E+02  0.99999969585E+01 0.  0.
        -12    1    1    2    0    0  0.39044802888E+02  0.84626273173E+01  0.20808671863E+02  0.45045682572E+02  0.00000000000E+00 0.  1.
         11    1    3    3    0    0 -0.30087604916E+02 -0.42316639921E+01 -0.18127098790E+02  0.35380258062E+02  0.51100000000E-03 0. -1.
        -11    1    3    3    0    0 -0.75628913366E+01 -0.44276259439E+01 -0.14327963382E+01  0.88799832475E+01  0.51100000000E-03 0.  1.
        -12    1    3    3    0    0 -0.13943066356E+01  0.19666261876E+00 -0.12487767354E+01  0.18820761181E+01  0.00000000000E+00 0.  1.
</event>
<event>
 7    1  0.1683291E-008  0.4614232E+02  0.7816164E-02  0.1320468E+00
        -11   -1    0    0    0    0  0.00000000000E+00  0.00000000000E+00  0.45593999997E+02  0.45594000000E+02  0.51100000000E-03 0.  1.
         11   -1    0    0    0    0 -0.00000000000E+00 -0.00000000000E+00 -0.45593999997E+02  0.45594000000E+02  0.51100000000E-03 0. -1.
    9900012    2    1    2    0    0  0.95733536394E+01 -0.44004567790E+02 -0.10307265670E+01  0.46142317815E+02  0.10000000490E+02 0.  0.
        -12    1    1    2    0    0 -0.95733536394E+01  0.44004567790E+02  0.10307265670E+01  0.45045682185E+02  0.00000000000E+00 0.  1.
         11    1    3    3    0    0  0.33861854026E+01 -0.16664522760E+02  0.15994220452E+01  0.17080126508E+02  0.51100000000E-03 0. -1.
        -11    1    3    3    0    0  0.38648258815E+01 -0.45936060578E+01 -0.14010386725E+01  0.61644955455E+01  0.51100000000E-03 0.  1.
        -12    1    3    3    0    0  0.23223423554E+01 -0.22746438972E+02 -0.12291099397E+01  0.22897695761E+02  0.00000000000E+00 0.  1.
</event>
<event>
 7    1  0.1683291E-008  0.4614232E+02  0.7816164E-02  0.1320468E+00
        -11   -1    0    0    0    0  0.00000000000E+00  0.00000000000E+00  0.45593999997E+02  0.45594000000E+02  0.51100000000E-03 0.  1.
         11   -1    0    0    0    0 -0.00000000000E+00 -0.00000000000E+00 -0.45593999997E+02  0.45594000000E+02  0.51100000000E-03 0. -1.
    9900012    2    1    2    0    0 -0.28885036307E+02  0.18678566215E+02 -0.29084005619E+02  0.46142317175E+02  0.99999946584E+01 0.  0.
        -12    1    1    2    0    0  0.28885036307E+02 -0.18678566215E+02  0.29084005619E+02  0.45045682825E+02  0.00000000000E+00 0.  1.
         11    1    3    3    0    0 -0.13280224586E+02  0.12388007983E+02 -0.18996847857E+02  0.26281311528E+02  0.51100000000E-03 0. -1.
        -11    1    3    3    0    0 -0.13471423965E+02  0.61707462972E+01 -0.78541146952E+01  0.16770345596E+02  0.51100000000E-03 0.  1.
        -12    1    3    3    0    0 -0.21333877556E+01  0.11981193449E+00 -0.22330430661E+01  0.30906600510E+01  0.00000000000E+00 0.  1.
</event>
<event>
 7    1  0.1683291E-008  0.4614231E+02  0.7816164E-02  0.1320468E+00
        -11   -1    0    0    0    0  0.00000000000E+00  0.00000000000E+00  0.45593999997E+02  0.45594000000E+02  0.51100000000E-03 0.  1.
         11   -1    0    0    0    0 -0.00000000000E+00 -0.00000000000E+00 -0.45593999997E+02  0.45594000000E+02  0.51100000000E-03 0. -1.
    9900012    2    1    2    0    0 -0.22738500241E+01 -0.16269131667E+02 -0.41943519549E+02  0.46142313510E+02  0.99999612390E+01 0.  0.
        -12    1    1    2    0    0  0.22738500241E+01  0.16269131667E+02  0.41943519549E+02  0.45045686490E+02  0.00000000000E+00 0.  1.
         11    1    3    3    0    0  0.77210018948E+00 -0.15158478711E+02 -0.36513990440E+02  0.39542978057E+02  0.51100000000E-03 0. -1.
        -11    1    3    3    0    0 -0.20505742285E+01 -0.92653467192E+00 -0.50312954958E+01  0.55115565671E+01  0.51100000000E-03 0.  1.
         12    1    3    3    0    0 -0.99537598509E+00 -0.18411828419E+00 -0.39823361383E+00  0.10877788863E+01  0.00000000000E+00 0. -1.
</event>
<event>
 7    1  0.1683291E-008  0.4614233E+02  0.7816164E-02  0.1320468E+00
        -11   -1    0    0    0    0  0.00000000000E+00  0.00000000000E+00  0.45593999997E+02  0.45594000000E+02  0.51100000000E-03 0.  1.
         11   -1    0    0    0    0 -0.00000000000E+00 -0.00000000000E+00 -0.45593999997E+02  0.45594000000E+02  0.51100000000E-03 0. -1.
    9900012    2    1    2    0    0 -0.27341795496E+02 -0.21637648097E+02 -0.28519300712E+02  0.46142333069E+02  0.10000139592E+02 0.  0.
        -12    1    1    2    0    0  0.27341795496E+02  0.21637648097E+02  0.28519300712E+02  0.45045666931E+02  0.00000000000E+00 0.  1.
         11    1    3    3    0    0 -0.10315027480E+02 -0.64825735632E+01 -0.74422887036E+01  0.14276246472E+02  0.51100000000E-03 0. -1.
        -11    1    3    3    0    0 -0.17495520178E+02 -0.13432532298E+02 -0.20040509262E+02  0.29801814743E+02  0.51100000000E-03 0.  1.
        -12    1    3    3    0    0  0.46875216256E+00 -0.17225422360E+01 -0.10365027464E+01  0.20642718542E+01  0.00000000000E+00 0.  1.
</event>
<event>
 7    1  0.1683291E-008  0.4614232E+02  0.7816164E-02  0.1320468E+00
        -11   -1    0    0    0    0  0.00000000000E+00  0.00000000000E+00  0.45593999997E+02  0.45594000000E+02  0.51100000000E-03 0. -1.
         11   -1    0    0    0    0 -0.00000000000E+00 -0.00000000000E+00 -0.45593999997E+02  0.45594000000E+02  0.51100000000E-03 0.  1.
    9900012    2    1    2    0    0  0.44448808837E+02 -0.65872841979E+01  0.31661373685E+01  0.46142319342E+02  0.10000014416E+02 0.  0.
        -12    1    1    2    0    0 -0.44448808837E+02  0.65872841979E+01 -0.31661373685E+01  0.45045680658E+02  0.00000000000E+00 0.  1.
         11    1    3    3    0    0  0.29635026429E+02 -0.53738777120E+01  0.49057239906E+00  0.30122317551E+02  0.51100000000E-03 0. -1.
        -11    1    3    3    0    0  0.50078961151E+01 -0.27007233278E+01  0.21686881962E+01  0.60890178803E+01  0.51100000000E-03 0.  1.
        -12    1    3    3    0    0  0.98058862929E+01  0.14873168418E+01  0.50687677322E+00  0.99309839110E+01  0.00000000000E+00 0.  1.
</event>
<event>
 7    1  0.1683291E-008  0.4614232E+02  0.7816164E-02  0.1320468E+00
        -11   -1    0    0    0    0  0.00000000000E+00  0.00000000000E+00  0.45593999997E+02  0.45594000000E+02  0.51100000000E-03 0.  1.
         11   -1    0    0    0    0 -0.00000000000E+00 -0.00000000000E+00 -0.45593999997E+02  0.45594000000E+02  0.51100000000E-03 0. -1.
    9900012    2    1    2    0    0  0.11123519985E+02 -0.43328991101E+01 -0.43435087001E+02  0.46142317695E+02  0.99999993947E+01 0.  0.
        -12    1    1    2    0    0 -0.11123519985E+02  0.43328991101E+01  0.43435087001E+02  0.45045682305E+02  0.00000000000E+00 0.  1.
         11    1    3    3    0    0  0.26293187555E+01  0.83659904034E+00 -0.13269607808E+02  0.13553438926E+02  0.51100000000E-03 0. -1.
        -11    1    3    3    0    0  0.64549689837E+00 -0.43944830132E+01 -0.11243656880E+02  0.12089167362E+02  0.51100000000E-03 0.  1.
        -12    1    3    3    0    0  0.78487043316E+01 -0.77501513726E+00 -0.18921822312E+02  0.20499711407E+02  0.00000000000E+00 0.  1.
</event>
<event>
 7    1  0.1893201E-008  0.4614232E+02  0.7816164E-02  0.1320468E+00
        -11   -1    0    0    0    0  0.00000000000E+00  0.00000000000E+00  0.45593999997E+02  0.45594000000E+02  0.51100000000E-03 0.  1.
         11   -1    0    0    0    0 -0.00000000000E+00 -0.00000000000E+00 -0.45593999997E+02  0.45594000000E+02  0.51100000000E-03 0. -1.
    9900012    2    1    2    0    0 -0.69719011264E+01 -0.36435026486E+02 -0.25553764469E+02  0.46142318310E+02  0.10000005006E+02 0.  0.
        -12    1    1    2    0    0  0.69719011264E+01  0.36435026486E+02  0.25553764469E+02  0.45045681690E+02  0.00000000000E+00 0.  1.
         11    1    3    3    0    0 -0.55919621079E+01 -0.16473455744E+02 -0.15584217647E+02  0.23356211685E+02  0.51100000000E-03 0. -1.
        -11    1    3    3    0    0 -0.25718254102E+01 -0.11653080112E+02 -0.44294000996E+01  0.12729027753E+02  0.51100000000E-03 0.  1.
         12    1    3    3    0    0  0.11918863917E+01 -0.83084906299E+01 -0.55401467230E+01  0.10057078872E+02  0.00000000000E+00 0. -1.
</event>
<event>
 7    1  0.1683291E-008  0.4614232E+02  0.7816164E-02  0.1320468E+00
        -11   -1    0    0    0    0  0.00000000000E+00  0.00000000000E+00  0.45593999997E+02  0.45594000000E+02  0.51100000000E-03 0.  1.
         11   -1    0    0    0    0 -0.00000000000E+00 -0.00000000000E+00 -0.45593999997E+02  0.45594000000E+02  0.51100000000E-03 0. -1.
    9900012    2    1    2    0    0 -0.33346830371E+02  0.25398089823E+02  0.16493616634E+02  0.46142318163E+02  0.10000003668E+02 0.  0.
        -12    1    1    2    0    0  0.33346830371E+02 -0.25398089823E+02 -0.16493616634E+02  0.45045681837E+02  0.00000000000E+00 0.  1.
         11    1    3    3    0    0 -0.15639082659E+02  0.12782455279E+02  0.11031051526E+02  0.23014260088E+02  0.51100000000E-03 0. -1.
        -11    1    3    3    0    0 -0.14631271445E+02  0.12043316020E+02  0.30890008518E+01  0.19200455499E+02  0.51100000000E-03 0.  1.
        -12    1    3    3    0    0 -0.30764762672E+01  0.57231852383E+00  0.23735642567E+01  0.39276025761E+01  0.00000000000E+00 0.  1.
</event>
<event>
 7    1  0.1683291E-008  0.4614232E+02  0.7816164E-02  0.1320468E+00
        -11   -1    0    0    0    0  0.00000000000E+00  0.00000000000E+00  0.45593999997E+02  0.45594000000E+02  0.51100000000E-03 0.  1.
         11   -1    0    0    0    0 -0.00000000000E+00 -0.00000000000E+00 -0.45593999997E+02  0.45594000000E+02  0.51100000000E-03 0. -1.
    9900012    2    1    2    0    0  0.26055081971E+02 -0.11934883635E+02 -0.34753484901E+02  0.46142318113E+02  0.10000003207E+02 0.  0.
        -12    1    1    2    0    0 -0.26055081971E+02  0.11934883635E+02  0.34753484901E+02  0.45045681887E+02  0.00000000000E+00 0.  1.
         11    1    3    3    0    0  0.15616195304E+02 -0.43388670397E+01 -0.17398472167E+02  0.23778102468E+02  0.51100000000E-03 0. -1.
        -11    1    3    3    0    0  0.11327362461E+01 -0.32625220910E+01 -0.68769455945E+01  0.76954221956E+01  0.51100000000E-03 0.  1.
        -12    1    3    3    0    0  0.93061504207E+01 -0.43334945039E+01 -0.10478067140E+02  0.14668793449E+02  0.00000000000E+00 0.  1.
</event>
<event>
 7    1  0.1683291E-008  0.4614232E+02  0.7816164E-02  0.1320468E+00
        -11   -1    0    0    0    0  0.00000000000E+00  0.00000000000E+00  0.45593999997E+02  0.45594000000E+02  0.51100000000E-03 0.  1.
         11   -1    0    0    0    0 -0.00000000000E+00 -0.00000000000E+00 -0.45593999997E+02  0.45594000000E+02  0.51100000000E-03 0. -1.
    9900012    2    1    2    0    0 -0.11358567581E+02 -0.82080051091E+01 -0.42810338820E+02  0.46142317463E+02  0.99999972792E+01 0.  0.
        -12    1    1    2    0    0  0.11358567581E+02  0.82080051091E+01  0.42810338820E+02  0.45045682537E+02  0.00000000000E+00 0.  1.
         11    1    3    3    0    0 -0.77289753160E+00  0.78663070677E+00 -0.90692715711E+01  0.91360738588E+01  0.51100000000E-03 0. -1.
        -11    1    3    3    0    0 -0.11484259670E+01  0.94895692033E+00 -0.33023916490E+01  0.36228707267E+01  0.51100000000E-03 0.  1.
         12    1    3    3    0    0 -0.94372440829E+01 -0.99435927362E+01 -0.30438675600E+02  0.33383372877E+02  0.00000000000E+00 0. -1.
</event>
<event>
 7    1  0.1683291E-008  0.4614232E+02  0.7816164E-02  0.1320468E+00
        -11   -1    0    0    0    0  0.00000000000E+00  0.00000000000E+00  0.45593999997E+02  0.45594000000E+02  0.51100000000E-03 0. -1.
         11   -1    0    0    0    0 -0.00000000000E+00 -0.00000000000E+00 -0.45593999997E+02  0.45594000000E+02  0.51100000000E-03 0.  1.
    9900012    2    1    2    0    0 -0.28745680467E+02 -0.31127764556E+02  0.15292527220E+02  0.46142320290E+02  0.10000023057E+02 0.  0.
        -12    1    1    2    0    0  0.28745680467E+02  0.31127764556E+02 -0.15292527220E+02  0.45045679710E+02  0.00000000000E+00 0.  1.
         11    1    3    3    0    0 -0.77268649108E+01 -0.58043093039E+01  0.26072629139E+01  0.10009608784E+02  0.51100000000E-03 0. -1.
        -11    1    3    3    0    0 -0.90493876709E+01 -0.76252629896E+01  0.79276260896E+01  0.14243711193E+02  0.51100000000E-03 0.  1.
        -12    1    3    3    0    0 -0.11969427885E+02 -0.17698192263E+02  0.47576382166E+01  0.21889000312E+02  0.00000000000E+00 0.  1.
</event>
<event>
 7    1  0.1683291E-008  0.4614232E+02  0.7816164E-02  0.1320468E+00
        -11   -1    0    0    0    0  0.00000000000E+00  0.00000000000E+00  0.45593999997E+02  0.45594000000E+02  0.51100000000E-03 0.  1.
         11   -1    0    0    0    0 -0.00000000000E+00 -0.00000000000E+00 -0.45593999997E+02  0.45594000000E+02  0.51100000000E-03 0. -1.
    9900012    2    1    2    0    0 -0.31157728940E+02 -0.31711219150E+02 -0.72600177000E+01  0.46142319301E+02  0.10000014038E+02 0.  0.
        -12    1    1    2    0    0  0.31157728940E+02  0.31711219150E+02  0.72600177000E+01  0.45045680699E+02  0.00000000000E+00 0.  1.
         11    1    3    3    0    0 -0.19480507252E+02 -0.19005469813E+02 -0.44549999302E+00  0.27219414323E+02  0.51100000000E-03 0. -1.
        -11    1    3    3    0    0 -0.38787490748E+01 -0.25984981052E+01 -0.31824251348E+01  0.56501961725E+01  0.51100000000E-03 0.  1.
         12    1    3    3    0    0 -0.77984726131E+01 -0.10107251232E+02 -0.36320925722E+01  0.13272708805E+02  0.00000000000E+00 0. -1.
</event>
<event>
 7    1  0.1683291E-008  0.4614232E+02  0.7816164E-02  0.1320468E+00
        -11   -1    0    0    0    0  0.00000000000E+00  0.00000000000E+00  0.45593999997E+02  0.45594000000E+02  0.51100000000E-03 0.  1.
         11   -1    0    0    0    0 -0.00000000000E+00 -0.00000000000E+00 -0.45593999997E+02  0.45594000000E+02  0.51100000000E-03 0. -1.
    9900012    2    1    2    0    0  0.18293658196E+02 -0.22692129287E+02 -0.34344181895E+02  0.46142317723E+02  0.99999996486E+01 0.  0.
        -12    1    1    2    0    0 -0.18293658196E+02  0.22692129287E+02  0.34344181895E+02  0.45045682277E+02  0.00000000000E+00 0.  1.
         11    1    3    3    0    0  0.72554390488E+01 -0.12266034313E+02 -0.23190577978E+02  0.27219476497E+02  0.51100000000E-03 0. -1.
        -11    1    3    3    0    0  0.53407807680E+01 -0.42420056933E+01 -0.58136020556E+01  0.89619484844E+01  0.51100000000E-03 0.  1.
         12    1    3    3    0    0  0.56974383795E+01 -0.61840892806E+01 -0.53400018618E+01  0.99608927413E+01  0.00000000000E+00 0. -1.
</event>
<event>
 7    1  0.1683291E-008  0.4614232E+02  0.7816164E-02  0.1320468E+00
        -11   -1    0    0    0    0  0.00000000000E+00  0.00000000000E+00  0.45593999997E+02  0.45594000000E+02  0.51100000000E-03 0.  1.
         11   -1    0    0    0    0 -0.00000000000E+00 -0.00000000000E+00 -0.45593999997E+02  0.45594000000E+02  0.51100000000E-03 0. -1.
    9900012    2    1    2    0    0  0.43182803681E+02 -0.11860036191E+02  0.48681087059E+01  0.46142317914E+02  0.10000001397E+02 0.  0.
        -12    1    1    2    0    0 -0.43182803681E+02  0.11860036191E+02 -0.48681087059E+01  0.45045682086E+02  0.00000000000E+00 0.  1.
         11    1    3    3    0    0  0.27328933367E+02 -0.48419455856E+01  0.11607926583E+01  0.27778813435E+02  0.51100000000E-03 0. -1.
        -11    1    3    3    0    0  0.11351042866E+02 -0.55624700771E+01  0.47746282033E+01  0.13512376632E+02  0.51100000000E-03 0.  1.
        -12    1    3    3    0    0  0.45028274481E+01 -0.14556205278E+01 -0.10673121557E+01  0.48511278468E+01  0.00000000000E+00 0.  1.
</event>
<event>
 7    1  0.1683291E-008  0.4614232E+02  0.7816164E-02  0.1320468E+00
        -11   -1    0    0    0    0  0.00000000000E+00  0.00000000000E+00  0.45593999997E+02  0.45594000000E+02  0.51100000000E-03 0. -1.
         11   -1    0    0    0    0 -0.00000000000E+00 -0.00000000000E+00 -0.45593999997E+02  0.45594000000E+02  0.51100000000E-03 0.  1.
    9900012    2    1    2    0    0  0.22172666987E+02 -0.18085958001E+02  0.34790579059E+02  0.46142318416E+02  0.10000005975E+02 0.  0.
        -12    1    1    2    0    0 -0.22172666987E+02  0.18085958001E+02 -0.34790579059E+02  0.45045681584E+02  0.00000000000E+00 0.  1.
         11    1    3    3    0    0 -0.81338319257E+00 -0.98742290956E+00  0.95817946405E+00  0.15983442579E+01  0.51100000000E-03 0. -1.
        -11    1    3    3    0    0  0.47916334008E+01 -0.22972115459E+01  0.84694154251E+01  0.99983963433E+01  0.51100000000E-03 0.  1.
         12    1    3    3    0    0  0.18194416778E+02 -0.14801323545E+02  0.25362984169E+02  0.34545577815E+02  0.00000000000E+00 0. -1.
</event>
<event>
 7    1  0.1683291E-008  0.4614232E+02  0.7816164E-02  0.1320468E+00
        -11   -1    0    0    0    0  0.00000000000E+00  0.00000000000E+00  0.45593999997E+02  0.45594000000E+02  0.51100000000E-03 0.  1.
         11   -1    0    0    0    0 -0.00000000000E+00 -0.00000000000E+00 -0.45593999997E+02  0.45594000000E+02  0.51100000000E-03 0. -1.
    9900012    2    1    2    0    0 -0.25106527289E+02  0.27797670226E+02 -0.25021297585E+02  0.46142317462E+02  0.99999972687E+01 0.  0.
        -12    1    1    2    0    0  0.25106527289E+02 -0.27797670226E+02  0.25021297585E+02  0.45045682538E+02  0.00000000000E+00 0.  1.
         11    1    3    3    0    0 -0.18559274291E+02  0.21711629517E+02 -0.17304196103E+02  0.33395759035E+02  0.51100000000E-03 0. -1.
        -11    1    3    3    0    0 -0.17555749210E+01 -0.51281571748E+00 -0.23747728915E+01  0.29974271986E+01  0.51100000000E-03 0.  1.
        -12    1    3    3    0    0 -0.47916780777E+01  0.65988564271E+01 -0.53423285901E+01  0.97491312285E+01  0.00000000000E+00 0.  1.
</event>
<event>
 7    1  0.1683291E-008  0.4614232E+02  0.7816164E-02  0.1320468E+00
        -11   -1    0    0    0    0  0.00000000000E+00  0.00000000000E+00  0.45593999997E+02  0.45594000000E+02  0.51100000000E-03 0.  1.
         11   -1    0    0    0    0 -0.00000000000E+00 -0.00000000000E+00 -0.45593999997E+02  0.45594000000E+02  0.51100000000E-03 0. -1.
    9900012    2    1    2    0    0  0.26622256313E+02 -0.16504271724E+02 -0.32372488636E+02  0.46142317223E+02  0.99999950944E+01 0.  0.
        -12    1    1    2    0    0 -0.26622256313E+02  0.16504271724E+02  0.32372488636E+02  0.45045682777E+02  0.00000000000E+00 0.  1.
         11    1    3    3    0    0 -0.46247992278E+00 -0.12215519283E+01 -0.87686845638E+00  0.15732054358E+01  0.51100000000E-03 0.  1.
        -11    1    3    3    0    0  0.16484158846E+02 -0.84165092408E+01 -0.22105734112E+02  0.28831035388E+02  0.51100000000E-03 0. -1.
         12    1    3    3    0    0  0.10600577390E+02 -0.68662105550E+01 -0.93898860681E+01  0.15738076399E+02  0.00000000000E+00 0. -1.
</event>
<event>
 7    1  0.1683291E-008  0.4614232E+02  0.7816164E-02  0.1320468E+00
        -11   -1    0    0    0    0  0.00000000000E+00  0.00000000000E+00  0.45593999997E+02  0.45594000000E+02  0.51100000000E-03 0. -1.
         11   -1    0    0    0    0 -0.00000000000E+00 -0.00000000000E+00 -0.45593999997E+02  0.45594000000E+02  0.51100000000E-03 0.  1.
    9900012    2    1    2    0    0  0.41064306749E+02  0.12692112398E+02  0.13481339019E+02  0.46142317547E+02  0.99999980447E+01 0.  0.
        -12    1    1    2    0    0 -0.41064306749E+02 -0.12692112398E+02 -0.13481339019E+02  0.45045682453E+02  0.00000000000E+00 0.  1.
         11    1    3    3    0    0  0.27939007194E+01  0.12678402149E+01  0.94239459221E+00  0.32095806375E+01  0.51100000000E-03 0. -1.
        -11    1    3    3    0    0  0.29899297574E+02  0.46725414181E+01  0.83698931370E+01  0.31398339926E+02  0.51100000000E-03 0.  1.
         12    1    3    3    0    0  0.83711084563E+01  0.67517307653E+01  0.41690512899E+01  0.11534396983E+02  0.00000000000E+00 0. -1.
</event>
<event>
 7    1  0.1683291E-008  0.4614232E+02  0.7816164E-02  0.1320468E+00
        -11   -1    0    0    0    0  0.00000000000E+00  0.00000000000E+00  0.45593999997E+02  0.45594000000E+02  0.51100000000E-03 0.  1.
         11   -1    0    0    0    0 -0.00000000000E+00 -0.00000000000E+00 -0.45593999997E+02  0.45594000000E+02  0.51100000000E-03 0. -1.
    9900012    2    1    2    0    0  0.40553752167E+02  0.19286251698E+02  0.35421929144E+01  0.46142318187E+02  0.10000003880E+02 0.  0.
        -12    1    1    2    0    0 -0.40553752167E+02 -0.19286251698E+02 -0.35421929144E+01  0.45045681813E+02  0.00000000000E+00 0.  1.
         11    1    3    3    0    0  0.27932620465E+02  0.17043029868E+02  0.25047386044E+01  0.32817219091E+02  0.51100000000E-03 0. -1.
        -11    1    3    3    0    0  0.91564253479E+01  0.11811810757E+01  0.22523009525E+01  0.95030612819E+01  0.51100000000E-03 0.  1.
         12    1    3    3    0    0  0.34647063537E+01  0.10620407541E+01 -0.12148466425E+01  0.38220378132E+01  0.00000000000E+00 0. -1.
</event>
<event>
 7    1  0.1683291E-008  0.4614232E+02  0.7816164E-02  0.1320468E+00
        -11   -1    0    0    0    0  0.00000000000E+00  0.00000000000E+00  0.45593999997E+02  0.45594000000E+02  0.51100000000E-03 0.  1.
         11   -1    0    0    0    0 -0.00000000000E+00 -0.00000000000E+00 -0.45593999997E+02  0.45594000000E+02  0.51100000000E-03 0. -1.
    9900012    2    1    2    0    0  0.17258545323E+02 -0.40219573436E+02  0.10660307027E+02  0.46142316300E+02  0.99999866801E+01 0.  0.
        -12    1    1    2    0    0 -0.17258545323E+02  0.40219573436E+02 -0.10660307027E+02  0.45045683700E+02  0.00000000000E+00 0.  1.
         11    1    3    3    0    0  0.11418139086E+02 -0.30038633274E+02  0.54245677541E+01  0.32590172211E+02  0.51100000000E-03 0. -1.
        -11    1    3    3    0    0  0.60177600781E+01 -0.69658013308E+01  0.45131308745E+01  0.10252032730E+02  0.51100000000E-03 0.  1.
        -12    1    3    3    0    0 -0.17735384111E+00 -0.32151388315E+01  0.72260839826E+00  0.33001113599E+01  0.00000000000E+00 0.  1.
</event>
<event>
 7    1  0.1683291E-008  0.4614232E+02  0.7816164E-02  0.1320468E+00
        -11   -1    0    0    0    0  0.00000000000E+00  0.00000000000E+00  0.45593999997E+02  0.45594000000E+02  0.51100000000E-03 0.  1.
         11   -1    0    0    0    0 -0.00000000000E+00 -0.00000000000E+00 -0.45593999997E+02  0.45594000000E+02  0.51100000000E-03 0. -1.
    9900012    2    1    2    0    0 -0.20447135744E+02  0.20511696157E+02 -0.34500702878E+02  0.46142317205E+02  0.99999949314E+01 0.  0.
        -12    1    1    2    0    0  0.20447135744E+02 -0.20511696157E+02  0.34500702878E+02  0.45045682795E+02  0.00000000000E+00 0.  1.
         11    1    3    3    0    0 -0.15657802974E+01  0.46402013606E+01 -0.62507012051E+01  0.79406802242E+01  0.51100000000E-03 0. -1.
        -11    1    3    3    0    0 -0.12305764988E+02  0.79309576889E+01 -0.11871546242E+02  0.18848489389E+02  0.51100000000E-03 0.  1.
        -12    1    3    3    0    0 -0.65755904595E+01  0.79405371075E+01 -0.16378455431E+02  0.19353147593E+02  0.00000000000E+00 0.  1.
</event>
<event>
 7    1  0.1683291E-008  0.4614231E+02  0.7816164E-02  0.1320468E+00
        -11   -1    0    0    0    0  0.00000000000E+00  0.00000000000E+00  0.45593999997E+02  0.45594000000E+02  0.51100000000E-03 0.  1.
         11   -1    0    0    0    0 -0.00000000000E+00 -0.00000000000E+00 -0.45593999997E+02  0.45594000000E+02  0.51100000000E-03 0. -1.
    9900012    2    1    2    0    0  0.36997350371E+02 -0.11322304234E+02 -0.23067630041E+02  0.46142311379E+02  0.99999418026E+01 0.  0.
        -12    1    1    2    0    0 -0.36997350371E+02  0.11322304234E+02  0.23067630041E+02  0.45045688621E+02  0.00000000000E+00 0.  1.
         11    1    3    3    0    0  0.64645778197E+00 -0.68877160472E+00  0.72965705032E+00  0.11936136978E+01  0.51100000000E-03 0. -1.
        -11    1    3    3    0    0  0.26921755355E+02 -0.81163844892E+01 -0.15317727182E+02  0.32020140144E+02  0.51100000000E-03 0.  1.
         12    1    3    3    0    0  0.94291372342E+01 -0.25171481405E+01 -0.84795599090E+01  0.12928557537E+02  0.00000000000E+00 0. -1.
</event>
<event>
 7    1  0.1683291E-008  0.4614232E+02  0.7816164E-02  0.1320468E+00
        -11   -1    0    0    0    0  0.00000000000E+00  0.00000000000E+00  0.45593999997E+02  0.45594000000E+02  0.51100000000E-03 0. -1.
         11   -1    0    0    0    0 -0.00000000000E+00 -0.00000000000E+00 -0.45593999997E+02  0.45594000000E+02  0.51100000000E-03 0.  1.
    9900012    2    1    2    0    0 -0.34997624903E+02 -0.12944977068E+01  0.28330267567E+02  0.46142317259E+02  0.99999954228E+01 0.  0.
        -12    1    1    2    0    0  0.34997624903E+02  0.12944977068E+01 -0.28330267567E+02  0.45045682741E+02  0.00000000000E+00 0.  1.
         11    1    3    3    0    0 -0.78008761795E+01 -0.16569115518E+01  0.99866382506E+01  0.12780139626E+02  0.51100000000E-03 0. -1.
        -11    1    3    3    0    0 -0.11111165242E+02  0.24259653672E+01  0.52858200611E+01  0.12541259705E+02  0.51100000000E-03 0.  1.
        -12    1    3    3    0    0 -0.16085583482E+02 -0.20635515223E+01  0.13057809255E+02  0.20820917928E+02  0.00000000000E+00 0.  1.
</event>
<event>
 7    1  0.1683291E-008  0.4614232E+02  0.7816164E-02  0.1320468E+00
        -11   -1    0    0    0    0  0.00000000000E+00  0.00000000000E+00  0.45593999997E+02  0.45594000000E+02  0.51100000000E-03 0.  1.
         11   -1    0    0    0    0 -0.00000000000E+00 -0.00000000000E+00 -0.45593999997E+02  0.45594000000E+02  0.51100000000E-03 0. -1.
    9900012    2    1    2    0    0  0.44345836771E+01  0.26571967371E+02 -0.36102332731E+02  0.46142318620E+02  0.10000007831E+02 0.  0.
        -12    1    1    2    0    0 -0.44345836771E+01 -0.26571967371E+02  0.36102332731E+02  0.45045681380E+02  0.00000000000E+00 0.  1.
         11    1    3    3    0    0  0.88784293552E+00  0.13535070594E+02 -0.12456263769E+02  0.18415887391E+02  0.51100000000E-03 0. -1.
        -11    1    3    3    0    0  0.67790741775E+00  0.79123628289E+01 -0.17542140748E+02  0.19255953528E+02  0.51100000000E-03 0.  1.
        -12    1    3    3    0    0  0.28688333238E+01  0.51245339486E+01 -0.61039282147E+01  0.84704777008E+01  0.00000000000E+00 0.  1.
</event>
<event>
 7    1  0.1683291E-008  0.4614232E+02  0.7816164E-02  0.1320468E+00
        -11   -1    0    0    0    0  0.00000000000E+00  0.00000000000E+00  0.45593999997E+02  0.45594000000E+02  0.51100000000E-03 0.  1.
         11   -1    0    0    0    0 -0.00000000000E+00 -0.00000000000E+00 -0.45593999997E+02  0.45594000000E+02  0.51100000000E-03 0. -1.
    9900012    2    1    2    0    0  0.29792517187E+02 -0.22855017231E+02 -0.24883078934E+02  0.46142317518E+02  0.99999977877E+01 0.  0.
        -12    1    1    2    0    0 -0.29792517187E+02  0.22855017231E+02  0.24883078934E+02  0.45045682482E+02  0.00000000000E+00 0.  1.
         11    1    3    3    0    0  0.12621984716E+02 -0.55339502218E+01 -0.76782256437E+01  0.15776382745E+02  0.51100000000E-03 0. -1.
        -11    1    3    3    0    0  0.36445823380E+01 -0.64178040309E+01 -0.72349732649E+01  0.10335183956E+02  0.51100000000E-03 0.  1.
        -12    1    3    3    0    0  0.13525950133E+02 -0.10903262979E+02 -0.99698800253E+01  0.20030750817E+02  0.00000000000E+00 0.  1.
</event>
<event>
 7    1  0.1683291E-008  0.4614232E+02  0.7816164E-02  0.1320468E+00
        -11   -1    0    0    0    0  0.00000000000E+00  0.00000000000E+00  0.45593999997E+02  0.45594000000E+02  0.51100000000E-03 0. -1.
         11   -1    0    0    0    0 -0.00000000000E+00 -0.00000000000E+00 -0.45593999997E+02  0.45594000000E+02  0.51100000000E-03 0.  1.
    9900012    2    1    2    0    0 -0.27739035400E+02  0.35156949116E+02 -0.48629762338E+01  0.46142315479E+02  0.99999791936E+01 0.  0.
        -12    1    1    2    0    0  0.27739035400E+02 -0.35156949116E+02  0.48629762338E+01  0.45045684521E+02  0.00000000000E+00 0.  1.
         11    1    3    3    0    0 -0.10583803716E+02  0.14524004755E+02  0.55334831428E+00  0.17979705500E+02  0.51100000000E-03 0. -1.
        -11    1    3    3    0    0 -0.10976673641E+02  0.12656397969E+02 -0.65945834792E+01  0.18004452374E+02  0.51100000000E-03 0.  1.
        -12    1    3    3    0    0 -0.61785580426E+01  0.79765463920E+01  0.11782589312E+01  0.10158157605E+02  0.00000000000E+00 0.  1.
</event>
<event>
 7    1  0.1683291E-008  0.4614232E+02  0.7816164E-02  0.1320468E+00
        -11   -1    0    0    0    0  0.00000000000E+00  0.00000000000E+00  0.45593999997E+02  0.45594000000E+02  0.51100000000E-03 0.  1.
         11   -1    0    0    0    0 -0.00000000000E+00 -0.00000000000E+00 -0.45593999997E+02  0.45594000000E+02  0.51100000000E-03 0. -1.
    9900012    2    1    2    0    0  0.52562913163E+00  0.37727676087E+02 -0.24606089856E+02  0.46142317777E+02  0.10000000144E+02 0.  0.
        -12    1    1    2    0    0 -0.52562913163E+00 -0.37727676087E+02  0.24606089856E+02  0.45045682223E+02  0.00000000000E+00 0.  1.
         11    1    3    3    0    0 -0.24879455120E+01  0.56803124552E+01 -0.27384645189E+01  0.67790125123E+01  0.51100000000E-03 0. -1.
        -11    1    3    3    0    0  0.33812099566E+01  0.15105782582E+02 -0.13127554472E+02  0.20296549827E+02  0.51100000000E-03 0.  1.
        -12    1    3    3    0    0 -0.36763531298E+00  0.16941581050E+02 -0.87400708648E+01  0.19066755438E+02  0.00000000000E+00 0.  1.
</event>
<event>
 7    1  0.1683291E-008  0.4614232E+02  0.7816164E-02  0.1320468E+00
        -11   -1    0    0    0    0  0.00000000000E+00  0.00000000000E+00  0.45593999997E+02  0.45594000000E+02  0.51100000000E-03 0.  1.
         11   -1    0    0    0    0 -0.00000000000E+00 -0.00000000000E+00 -0.45593999997E+02  0.45594000000E+02  0.51100000000E-03 0. -1.
    9900012    2    1    2    0    0 -0.34208524494E+02  0.48263104805E+01 -0.28906695230E+02  0.46142318187E+02  0.10000003882E+02 0.  0.
        -12    1    1    2    0    0  0.34208524494E+02 -0.48263104805E+01  0.28906695230E+02  0.45045681813E+02  0.00000000000E+00 0.  1.
         11    1    3    3    0    0 -0.24465767744E+02  0.53772530881E+01 -0.15221303667E+02  0.29311716559E+02  0.51100000000E-03 0. -1.
        -11    1    3    3    0    0 -0.44939152215E+01 -0.61707124882E+00 -0.67527056288E+01  0.81348069746E+01  0.51100000000E-03 0.  1.
         12    1    3    3    0    0 -0.52488415287E+01  0.66128641301E-01 -0.69326859337E+01  0.86957946530E+01  0.00000000000E+00 0. -1.
</event>
<event>
 7    1  0.1683291E-008  0.4614232E+02  0.7816164E-02  0.1320468E+00
        -11   -1    0    0    0    0  0.00000000000E+00  0.00000000000E+00  0.45593999997E+02  0.45594000000E+02  0.51100000000E-03 0.  1.
         11   -1    0    0    0    0 -0.00000000000E+00 -0.00000000000E+00 -0.45593999997E+02  0.45594000000E+02  0.51100000000E-03 0. -1.
    9900012    2    1    2    0    0  0.24567901970E+02  0.24470338295E+02 -0.28752987016E+02  0.46142317346E+02  0.99999962131E+01 0.  0.
        -12    1    1    2    0    0 -0.24567901970E+02 -0.24470338295E+02  0.28752987016E+02  0.45045682654E+02  0.00000000000E+00 0.  1.
         11    1    3    3    0    0  0.90876920041E+01  0.13260064701E+02 -0.10195836135E+02  0.19036032585E+02  0.51100000000E-03 0. -1.
        -11    1    3    3    0    0  0.84651247333E+01  0.78034622076E+01 -0.13797141804E+02  0.17969793583E+02  0.51100000000E-03 0.  1.
        -12    1    3    3    0    0  0.70150852323E+01  0.34068113865E+01 -0.47600090761E+01  0.91364911779E+01  0.00000000000E+00 0.  1.
</event>
<event>
 7    1  0.1683291E-008  0.4614232E+02  0.7816164E-02  0.1320468E+00
        -11   -1    0    0    0    0  0.00000000000E+00  0.00000000000E+00  0.45593999997E+02  0.45594000000E+02  0.51100000000E-03 0. -1.
         11   -1    0    0    0    0 -0.00000000000E+00 -0.00000000000E+00 -0.45593999997E+02  0.45594000000E+02  0.51100000000E-03 0.  1.
    9900012    2    1    2    0    0  0.13955599179E+02  0.37668264663E+02  0.20382752061E+02  0.46142317712E+02  0.99999995562E+01 0.  0.
        -12    1    1    2    0    0 -0.13955599179E+02 -0.37668264663E+02 -0.20382752061E+02  0.45045682288E+02  0.00000000000E+00 0.  1.
         11    1    3    3    0    0  0.29579428126E+01  0.18778940690E+02  0.99905802198E+01  0.21475794107E+02  0.51100000000E-03 0.  1.
        -11    1    3    3    0    0  0.38802521557E+01  0.29257840796E+01  0.28181181837E+01  0.56176827634E+01  0.51100000000E-03 0. -1.
        -12    1    3    3    0    0  0.71174042111E+01  0.15963539893E+02  0.75740536578E+01  0.19048840842E+02  0.00000000000E+00 0.  1.
</event>
<event>
 7    1  0.1683291E-008  0.4614232E+02  0.7816164E-02  0.1320468E+00
        -11   -1    0    0    0    0  0.00000000000E+00  0.00000000000E+00  0.45593999997E+02  0.45594000000E+02  0.51100000000E-03 0. -1.
         11   -1    0    0    0    0 -0.00000000000E+00 -0.00000000000E+00 -0.45593999997E+02  0.45594000000E+02  0.51100000000E-03 0.  1.
    9900012    2    1    2    0    0 -0.48615360290E+00  0.43372113285E+02  0.12154707892E+02  0.46142317853E+02  0.10000000837E+02 0.  0.
        -12    1    1    2    0    0  0.48615360290E+00 -0.43372113285E+02 -0.12154707892E+02  0.45045682147E+02  0.00000000000E+00 0.  1.
         11    1    3    3    0    0  0.28439968924E+01  0.22797301900E+02  0.90446251698E+01  0.24690292363E+02  0.51100000000E-03 0. -1.
        -11    1    3    3    0    0 -0.11561559207E+01  0.33114406263E+01 -0.84640012077E+00  0.36081475801E+01  0.51100000000E-03 0.  1.
         12    1    3    3    0    0 -0.21739945746E+01  0.17263370759E+02  0.39564828429E+01  0.17843877910E+02  0.00000000000E+00 0. -1.
</event>
<event>
 7    1  0.1683291E-008  0.4614232E+02  0.7816164E-02  0.1320468E+00
        -11   -1    0    0    0    0  0.00000000000E+00  0.00000000000E+00  0.45593999997E+02  0.45594000000E+02  0.51100000000E-03 0.  1.
         11   -1    0    0    0    0 -0.00000000000E+00 -0.00000000000E+00 -0.45593999997E+02  0.45594000000E+02  0.51100000000E-03 0. -1.
    9900012    2    1    2    0    0 -0.41024684812E+02 -0.20396869619E+00 -0.18602341916E+02  0.46142317722E+02  0.99999996394E+01 0.  0.
        -12    1    1    2    0    0  0.41024684812E+02  0.20396869619E+00  0.18602341916E+02  0.45045682278E+02  0.00000000000E+00 0.  1.
         11    1    3    3    0    0 -0.62806194672E+01 -0.19783313362E+01 -0.59087019152E+01  0.88471879346E+01  0.51100000000E-03 0. -1.
        -11    1    3    3    0    0 -0.27272079339E+02  0.30298763524E+01 -0.91008179099E+01  0.28909710290E+02  0.51100000000E-03 0.  1.
        -12    1    3    3    0    0 -0.74719860062E+01 -0.12555137124E+01 -0.35928220911E+01  0.83854194968E+01  0.00000000000E+00 0.  1.
</event>
<event>
 7    1  0.1683291E-008  0.4614232E+02  0.7816164E-02  0.1320468E+00
        -11   -1    0    0    0    0  0.00000000000E+00  0.00000000000E+00  0.45593999997E+02  0.45594000000E+02  0.51100000000E-03 0. -1.
         11   -1    0    0    0    0 -0.00000000000E+00 -0.00000000000E+00 -0.45593999997E+02  0.45594000000E+02  0.51100000000E-03 0.  1.
    9900012    2    1    2    0    0 -0.23827668774E+02 -0.59059950108E+00  0.38223119847E+02  0.46142317656E+02  0.99999990457E+01 0.  0.
        -12    1    1    2    0    0  0.23827668774E+02  0.59059950108E+00 -0.38223119847E+02  0.45045682344E+02  0.00000000000E+00 0.  1.
         11    1    3    3    0    0 -0.18181193428E+02  0.25427080799E+01  0.22097773598E+02  0.28728605206E+02  0.51100000000E-03 0. -1.
        -11    1    3    3    0    0 -0.32694832000E+01 -0.23675289343E+01  0.10866058802E+02  0.11591632664E+02  0.51100000000E-03 0.  1.
        -12    1    3    3    0    0 -0.23769921462E+01 -0.76577864667E+00  0.52592874468E+01  0.58220797870E+01  0.00000000000E+00 0.  1.
</event>
<event>
 7    1  0.1683291E-008  0.4614232E+02  0.7816164E-02  0.1320468E+00
        -11   -1    0    0    0    0  0.00000000000E+00  0.00000000000E+00  0.45593999997E+02  0.45594000000E+02  0.51100000000E-03 0.  1.
         11   -1    0    0    0    0 -0.00000000000E+00 -0.00000000000E+00 -0.45593999997E+02  0.45594000000E+02  0.51100000000E-03 0. -1.
    9900012    2    1    2    0    0 -0.60500136045E+01 -0.27103407186E+02 -0.35467113831E+02  0.46142317530E+02  0.99999978902E+01 0.  0.
        -12    1    1    2    0    0  0.60500136045E+01  0.27103407186E+02  0.35467113831E+02  0.45045682470E+02  0.00000000000E+00 0.  1.
         11    1    3    3    0    0 -0.48530713927E+01 -0.11995536631E+02 -0.14502043520E+02  0.19435906656E+02  0.51100000000E-03 0. -1.
        -11    1    3    3    0    0  0.19619710050E+01 -0.35863602297E+01 -0.27635306536E+01  0.49344109939E+01  0.51100000000E-03 0.  1.
        -12    1    3    3    0    0 -0.31589132168E+01 -0.11521510326E+02 -0.18201539657E+02  0.21771999880E+02  0.00000000000E+00 0.  1.
</event>
<event>
 7    1  0.1683291E-008  0.4614232E+02  0.7816164E-02  0.1320468E+00
        -11   -1    0    0    0    0  0.00000000000E+00  0.00000000000E+00  0.45593999997E+02  0.45594000000E+02  0.51100000000E-03 0.  1.
         11   -1    0    0    0    0 -0.00000000000E+00 -0.00000000000E+00 -0.45593999997E+02  0.45594000000E+02  0.51100000000E-03 0. -1.
    9900012    2    1    2    0    0  0.57186407448E+01  0.44546342081E+02 -0.34690154200E+01  0.46142317490E+02  0.99999975320E+01 0.  0.
        -12    1    1    2    0    0 -0.57186407448E+01 -0.44546342081E+02  0.34690154200E+01  0.45045682510E+02  0.00000000000E+00 0.  1.
         11    1    3    3    0    0 -0.20488388492E+00  0.46849581942E+01 -0.61736575738E+00  0.47298997270E+01  0.51100000000E-03 0. -1.
        -11    1    3    3    0    0  0.75867363736E+01  0.20181962466E+02 -0.12118157329E+01  0.21594876138E+02  0.51100000000E-03 0.  1.
        -12    1    3    3    0    0 -0.16632117439E+01  0.19679421421E+02 -0.16398339298E+01  0.19817541626E+02  0.00000000000E+00 0.  1.
</event>
<event>
 7    1  0.1683291E-008  0.4614232E+02  0.7816164E-02  0.1320468E+00
        -11   -1    0    0    0    0  0.00000000000E+00  0.00000000000E+00  0.45593999997E+02  0.45594000000E+02  0.51100000000E-03 0. -1.
         11   -1    0    0    0    0 -0.00000000000E+00 -0.00000000000E+00 -0.45593999997E+02  0.45594000000E+02  0.51100000000E-03 0.  1.
    9900012    2    1    2    0    0 -0.44365493458E+02  0.75751916230E+01 -0.18528426829E+01  0.46142316923E+02  0.99999923534E+01 0.  0.
        -12    1    1    2    0    0  0.44365493458E+02 -0.75751916230E+01  0.18528426829E+01  0.45045683077E+02  0.00000000000E+00 0.  1.
         11    1    3    3    0    0 -0.92584466204E+01  0.26622110864E+01 -0.35032274624E+01  0.10250795316E+02  0.51100000000E-03 0.  1.
        -11    1    3    3    0    0 -0.30886261704E+02  0.59677642100E+01  0.20395511652E+01  0.31523564851E+02  0.51100000000E-03 0. -1.
         12    1    3    3    0    0 -0.42207851334E+01 -0.10547836734E+01 -0.38916638578E+00  0.43679567553E+01  0.00000000000E+00 0. -1.
</event>
<event>
 7    1  0.1683291E-008  0.4614232E+02  0.7816164E-02  0.1320468E+00
        -11   -1    0    0    0    0  0.00000000000E+00  0.00000000000E+00  0.45593999997E+02  0.45594000000E+02  0.51100000000E-03 0. -1.
         11   -1    0    0    0    0 -0.00000000000E+00 -0.00000000000E+00 -0.45593999997E+02  0.45594000000E+02  0.51100000000E-03 0.  1.
    9900012    2    1    2    0    0  0.27223964035E+02  0.18347513557E+02  0.30843770642E+02  0.46142315868E+02  0.99999827371E+01 0.  0.
        -12    1    1    2    0    0 -0.27223964035E+02 -0.18347513557E+02 -0.30843770642E+02  0.45045684132E+02  0.00000000000E+00 0.  1.
         11    1    3    3    0    0  0.71438519803E+01  0.31399780639E+01  0.10815271844E+02  0.13336573349E+02  0.51100000000E-03 0. -1.
        -11    1    3    3    0    0  0.20311813567E+02  0.13807375452E+02  0.18826688669E+02  0.30946043265E+02  0.51100000000E-03 0.  1.
        -12    1    3    3    0    0 -0.23170151234E+00  0.14001600410E+01  0.12018101292E+01  0.18596992547E+01  0.00000000000E+00 0.  1.
</event>
<event>
 7    1  0.1683291E-008  0.4614232E+02  0.7816164E-02  0.1320468E+00
        -11   -1    0    0    0    0  0.00000000000E+00  0.00000000000E+00  0.45593999997E+02  0.45594000000E+02  0.51100000000E-03 0. -1.
         11   -1    0    0    0    0 -0.00000000000E+00 -0.00000000000E+00 -0.45593999997E+02  0.45594000000E+02  0.51100000000E-03 0.  1.
    9900012    2    1    2    0    0 -0.21740020454E+02  0.34308634538E+02  0.19478257615E+02  0.46142318598E+02  0.10000007635E+02 0.  0.
        -12    1    1    2    0    0  0.21740020454E+02 -0.34308634538E+02 -0.19478257615E+02  0.45045681402E+02  0.00000000000E+00 0.  1.
         11    1    3    3    0    0 -0.97819200362E+01  0.20779202679E+02  0.13209933024E+02  0.26494594813E+02  0.51100000000E-03 0. -1.
        -11    1    3    3    0    0 -0.80639897816E+01  0.67567737777E+01  0.52859636191E+01  0.11773841120E+02  0.51100000000E-03 0.  1.
        -12    1    3    3    0    0 -0.38941106366E+01  0.67726580815E+01  0.98236097149E+00  0.78738826647E+01  0.00000000000E+00 0.  1.
</event>
<event>
 7    1  0.1683291E-008  0.4614232E+02  0.7816164E-02  0.1320468E+00
        -11   -1    0    0    0    0  0.00000000000E+00  0.00000000000E+00  0.45593999997E+02  0.45594000000E+02  0.51100000000E-03 0.  1.
         11   -1    0    0    0    0 -0.00000000000E+00 -0.00000000000E+00 -0.45593999997E+02  0.45594000000E+02  0.51100000000E-03 0. -1.
    9900012    2    1    2    0    0  0.30458312549E+02 -0.32645283229E+02 -0.59741256929E+01  0.46142317651E+02  0.99999989993E+01 0.  0.
        -12    1    1    2    0    0 -0.30458312549E+02  0.32645283229E+02  0.59741256929E+01  0.45045682349E+02  0.00000000000E+00 0.  1.
         11    1    3    3    0    0  0.23055184037E+02 -0.23538996092E+02 -0.78157823365E+01  0.33863140755E+02  0.51100000000E-03 0. -1.
        -11    1    3    3    0    0  0.68684591258E-02  0.71229033962E-01  0.39776264757E+00  0.40414865574E+00  0.51100000000E-03 0.  1.
        -12    1    3    3    0    0  0.73962600535E+01 -0.91775161712E+01  0.14438939961E+01  0.11875028241E+02  0.00000000000E+00 0.  1.
</event>
<event>
 7    1  0.1683291E-008  0.4614230E+02  0.7816164E-02  0.1320468E+00
        -11   -1    0    0    0    0  0.00000000000E+00  0.00000000000E+00  0.45593999997E+02  0.45594000000E+02  0.51100000000E-03 0.  1.
         11   -1    0    0    0    0 -0.00000000000E+00 -0.00000000000E+00 -0.45593999997E+02  0.45594000000E+02  0.51100000000E-03 0. -1.
    9900012    2    1    2    0    0 -0.29969517152E+02 -0.29770326770E+01 -0.33497464532E+02  0.46142303069E+02  0.99998660284E+01 0.  0.
        -12    1    1    2    0    0  0.29969517152E+02  0.29770326770E+01  0.33497464532E+02  0.45045696931E+02  0.00000000000E+00 0.  1.
         11    1    3    3    0    0 -0.94870004242E+01 -0.10425315210E+01 -0.62309947627E+01  0.11398041280E+02  0.51100000000E-03 0. -1.
        -11    1    3    3    0    0 -0.92118597475E+01 -0.30056796054E+01 -0.16418064629E+02  0.19064241824E+02  0.51100000000E-03 0.  1.
        -12    1    3    3    0    0 -0.11270656980E+02  0.10711784494E+01 -0.10848405141E+02  0.15680019966E+02  0.00000000000E+00 0.  1.
</event>
<event>
 7    1  0.1683291E-008  0.4614232E+02  0.7816164E-02  0.1320468E+00
        -11   -1    0    0    0    0  0.00000000000E+00  0.00000000000E+00  0.45593999997E+02  0.45594000000E+02  0.51100000000E-03 0.  1.
         11   -1    0    0    0    0 -0.00000000000E+00 -0.00000000000E+00 -0.45593999997E+02  0.45594000000E+02  0.51100000000E-03 0. -1.
    9900012    2    1    2    0    0  0.30626745270E+02  0.16005777414E+02 -0.28895176105E+02  0.46142316094E+02  0.99999847951E+01 0.  0.
        -12    1    1    2    0    0 -0.30626745270E+02 -0.16005777414E+02  0.28895176105E+02  0.45045683906E+02  0.00000000000E+00 0.  1.
         11    1    3    3    0    0  0.12825875426E+02  0.37897436386E+01 -0.77996981026E+01  0.15482264952E+02  0.51100000000E-03 0. -1.
        -11    1    3    3    0    0  0.30405688117E+01  0.26770488123E+01 -0.14546151852E+01  0.43043646036E+01  0.51100000000E-03 0.  1.
         12    1    3    3    0    0  0.14760301031E+02  0.95389849627E+01 -0.19640862818E+02  0.26355686538E+02  0.00000000000E+00 0. -1.
</event>
<event>
 7    1  0.1683291E-008  0.4614232E+02  0.7816164E-02  0.1320468E+00
        -11   -1    0    0    0    0  0.00000000000E+00  0.00000000000E+00  0.45593999997E+02  0.45594000000E+02  0.51100000000E-03 0.  1.
         11   -1    0    0    0    0 -0.00000000000E+00 -0.00000000000E+00 -0.45593999997E+02  0.45594000000E+02  0.51100000000E-03 0. -1.
    9900012    2    1    2    0    0  0.37901470755E+01  0.37388040895E+02 -0.24837122422E+02  0.46142317998E+02  0.10000002163E+02 0.  0.
        -12    1    1    2    0    0 -0.37901470755E+01 -0.37388040895E+02  0.24837122422E+02  0.45045682002E+02  0.00000000000E+00 0.  1.
         11    1    3    3    0    0 -0.28942883684E+00  0.15939253746E+02 -0.13010128501E+02  0.20576856488E+02  0.51100000000E-03 0. -1.
        -11    1    3    3    0    0  0.47985001108E+01  0.21275298990E+02 -0.10906707855E+02  0.24384836004E+02  0.51100000000E-03 0.  1.
        -12    1    3    3    0    0 -0.71892419849E+00  0.17348815817E+00 -0.92028606616E+00  0.11806255070E+01  0.00000000000E+00 0.  1.
</event>
<event>
 7    1  0.1683291E-008  0.4614232E+02  0.7816164E-02  0.1320468E+00
        -11   -1    0    0    0    0  0.00000000000E+00  0.00000000000E+00  0.45593999997E+02  0.45594000000E+02  0.51100000000E-03 0.  1.
         11   -1    0    0    0    0 -0.00000000000E+00 -0.00000000000E+00 -0.45593999997E+02  0.45594000000E+02  0.51100000000E-03 0. -1.
    9900012    2    1    2    0    0  0.29305012372E+02 -0.29927553495E+02  0.16573206700E+02  0.46142318868E+02  0.10000010094E+02 0.  0.
        -12    1    1    2    0    0 -0.29305012372E+02  0.29927553495E+02 -0.16573206700E+02  0.45045681132E+02  0.00000000000E+00 0.  1.
         11    1    3    3    0    0  0.31725857736E+01 -0.59445449315E+01  0.40166035780E+01  0.78444897538E+01  0.51100000000E-03 0. -1.
        -11    1    3    3    0    0  0.57734039193E+01 -0.44040574676E+01  0.57009817929E+01  0.92319612574E+01  0.51100000000E-03 0.  1.
         12    1    3    3    0    0  0.20359022679E+02 -0.19578951096E+02  0.68556213290E+01  0.29065867857E+02  0.00000000000E+00 0. -1.
</event>
<event>
 7    1  0.1683291E-008  0.4614232E+02  0.7816164E-02  0.1320468E+00
        -11   -1    0    0    0    0  0.00000000000E+00  0.00000000000E+00  0.45593999997E+02  0.45594000000E+02  0.51100000000E-03 0.  1.
         11   -1    0    0    0    0 -0.00000000000E+00 -0.00000000000E+00 -0.45593999997E+02  0.45594000000E+02  0.51100000000E-03 0. -1.
    9900012    2    1    2    0    0 -0.33623882187E+01  0.26086755991E+02 -0.36568962670E+02  0.46142317372E+02  0.99999964497E+01 0.  0.
        -12    1    1    2    0    0  0.33623882187E+01 -0.26086755991E+02  0.36568962670E+02  0.45045682628E+02  0.00000000000E+00 0.  1.
         11    1    3    3    0    0  0.47878875629E-01  0.10249734106E+02 -0.19739568830E+02  0.22242075431E+02  0.51100000000E-03 0. -1.
        -11    1    3    3    0    0 -0.21008060527E+01  0.72434599570E+01 -0.43965108565E+01  0.87298571691E+01  0.51100000000E-03 0.  1.
        -12    1    3    3    0    0 -0.13094610417E+01  0.85935619282E+01 -0.12432882984E+02  0.15170384772E+02  0.00000000000E+00 0.  1.
</event>
<event>
 7    1  0.1683291E-008  0.4614232E+02  0.7816164E-02  0.1320468E+00
        -11   -1    0    0    0    0  0.00000000000E+00  0.00000000000E+00  0.45593999997E+02  0.45594000000E+02  0.51100000000E-03 0. -1.
         11   -1    0    0    0    0 -0.00000000000E+00 -0.00000000000E+00 -0.45593999997E+02  0.45594000000E+02  0.51100000000E-03 0.  1.
    9900012    2    1    2    0    0  0.27148708413E+02  0.20697789606E+02  0.29388137928E+02  0.46142317478E+02  0.99999974140E+01 0.  0.
        -12    1    1    2    0    0 -0.27148708413E+02 -0.20697789606E+02 -0.29388137928E+02  0.45045682522E+02  0.00000000000E+00 0.  1.
         11    1    3    3    0    0  0.16049199806E+02  0.11034450340E+02  0.14863883766E+02  0.24500427539E+02  0.51100000000E-03 0. -1.
        -11    1    3    3    0    0  0.81865875252E+01  0.99156176204E+01  0.13214603986E+02  0.18438151938E+02  0.51100000000E-03 0.  1.
        -12    1    3    3    0    0  0.29129210819E+01 -0.25227835456E+00  0.13096501756E+01  0.32037380011E+01  0.00000000000E+00 0.  1.
</event>
<event>
 7    1  0.1683291E-008  0.4614232E+02  0.7816164E-02  0.1320468E+00
        -11   -1    0    0    0    0  0.00000000000E+00  0.00000000000E+00  0.45593999997E+02  0.45594000000E+02  0.51100000000E-03 0.  1.
         11   -1    0    0    0    0 -0.00000000000E+00 -0.00000000000E+00 -0.45593999997E+02  0.45594000000E+02  0.51100000000E-03 0. -1.
    9900012    2    1    2    0    0  0.45002295211E+02  0.17283566504E+01 -0.95903371638E+00  0.46142317225E+02  0.99999951125E+01 0.  0.
        -12    1    1    2    0    0 -0.45002295211E+02 -0.17283566504E+01  0.95903371638E+00  0.45045682775E+02  0.00000000000E+00 0.  1.
         11    1    3    3    0    0  0.19049089642E+02  0.50306838595E+01 -0.20338616157E+01  0.19806872283E+02  0.51100000000E-03 0. -1.
        -11    1    3    3    0    0  0.16541940864E+02 -0.73476812459E+00  0.65601577240E+00  0.16571241616E+02  0.51100000000E-03 0.  1.
         12    1    3    3    0    0  0.94112647052E+01 -0.25675590845E+01  0.41881212693E+00  0.97642033265E+01  0.00000000000E+00 0. -1.
</event>
<event>
 7    1  0.1683291E-008  0.4614232E+02  0.7816164E-02  0.1320468E+00
        -11   -1    0    0    0    0  0.00000000000E+00  0.00000000000E+00  0.45593999997E+02  0.45594000000E+02  0.51100000000E-03 0.  1.
         11   -1    0    0    0    0 -0.00000000000E+00 -0.00000000000E+00 -0.45593999997E+02  0.45594000000E+02  0.51100000000E-03 0. -1.
    9900012    2    1    2    0    0 -0.27456333571E+02  0.21294368878E+02 -0.28667281688E+02  0.46142318315E+02  0.10000005050E+02 0.  0.
        -12    1    1    2    0    0  0.27456333571E+02 -0.21294368878E+02  0.28667281688E+02  0.45045681685E+02  0.00000000000E+00 0.  1.
         11    1    3    3    0    0 -0.13029309475E+02  0.13822591241E+02 -0.13681890862E+02  0.23409849889E+02  0.51100000000E-03 0. -1.
        -11    1    3    3    0    0 -0.18996899223E+01  0.32953315158E+01 -0.43382550050E+01  0.57696176952E+01  0.51100000000E-03 0.  1.
         12    1    3    3    0    0 -0.12527334174E+02  0.41764461210E+01 -0.10647135821E+02  0.16962850730E+02  0.00000000000E+00 0. -1.
</event>
<event>
 7    1  0.1683291E-008  0.4614232E+02  0.7816164E-02  0.1320468E+00
        -11   -1    0    0    0    0  0.00000000000E+00  0.00000000000E+00  0.45593999997E+02  0.45594000000E+02  0.51100000000E-03 0. -1.
         11   -1    0    0    0    0 -0.00000000000E+00 -0.00000000000E+00 -0.45593999997E+02  0.45594000000E+02  0.51100000000E-03 0.  1.
    9900012    2    1    2    0    0  0.48200801012E+01  0.67300782765E+01  0.44278509636E+02  0.46142317172E+02  0.99999946322E+01 0.  0.
        -12    1    1    2    0    0 -0.48200801012E+01 -0.67300782765E+01 -0.44278509636E+02  0.45045682828E+02  0.00000000000E+00 0.  1.
         11    1    3    3    0    0  0.25648794214E+01  0.90055341283E+01  0.34343578558E+02  0.35597185841E+02  0.51100000000E-03 0. -1.
        -11    1    3    3    0    0  0.96540497631E+00 -0.17371135335E+00  0.18703995008E+01  0.21120078022E+01  0.51100000000E-03 0.  1.
         12    1    3    3    0    0  0.12897957035E+01 -0.21017444985E+01  0.80645315773E+01  0.84331235289E+01  0.00000000000E+00 0. -1.
</event>
<event>
 7    1  0.1683291E-008  0.4614232E+02  0.7816164E-02  0.1320468E+00
        -11   -1    0    0    0    0  0.00000000000E+00  0.00000000000E+00  0.45593999997E+02  0.45594000000E+02  0.51100000000E-03 0. -1.
         11   -1    0    0    0    0 -0.00000000000E+00 -0.00000000000E+00 -0.45593999997E+02  0.45594000000E+02  0.51100000000E-03 0.  1.
    9900012    2    1    2    0    0 -0.33935051511E+02 -0.25078158856E+02  0.15767425167E+02  0.46142317975E+02  0.10000001954E+02 0.  0.
        -12    1    1    2    0    0  0.33935051511E+02  0.25078158856E+02 -0.15767425167E+02  0.45045682025E+02  0.00000000000E+00 0.  1.
         11    1    3    3    0    0 -0.30368467233E+01 -0.65924505165E+00  0.36267381551E+01  0.47760100466E+01  0.51100000000E-03 0. -1.
        -11    1    3    3    0    0 -0.43713596409E+01 -0.20008483615E+01  0.17145630113E+01  0.51041067638E+01  0.51100000000E-03 0.  1.
         12    1    3    3    0    0 -0.26526845147E+02 -0.22418065443E+02  0.10426124001E+02  0.36262201165E+02  0.00000000000E+00 0. -1.
</event>
<event>
 7    1  0.1683291E-008  0.4614232E+02  0.7816164E-02  0.1320468E+00
        -11   -1    0    0    0    0  0.00000000000E+00  0.00000000000E+00  0.45593999997E+02  0.45594000000E+02  0.51100000000E-03 0.  1.
         11   -1    0    0    0    0 -0.00000000000E+00 -0.00000000000E+00 -0.45593999997E+02  0.45594000000E+02  0.51100000000E-03 0. -1.
    9900012    2    1    2    0    0 -0.11052760383E+02 -0.30807792686E+02 -0.30948827781E+02  0.46142317152E+02  0.99999944446E+01 0.  0.
        -12    1    1    2    0    0  0.11052760383E+02  0.30807792686E+02  0.30948827781E+02  0.45045682848E+02  0.00000000000E+00 0.  1.
         11    1    3    3    0    0 -0.11085758375E+02 -0.23755787522E+02 -0.25375014860E+02  0.36484556444E+02  0.51100000000E-03 0. -1.
        -11    1    3    3    0    0  0.66271521465E+00  0.10244708808E+00 -0.74992673956E+00  0.10060204955E+01  0.51100000000E-03 0.  1.
        -12    1    3    3    0    0 -0.62971722204E+00 -0.71544522518E+01 -0.48238861813E+01  0.86517402119E+01  0.00000000000E+00 0.  1.
</event>
<event>
 7    1  0.1683291E-008  0.4614232E+02  0.7816164E-02  0.1320468E+00
        -11   -1    0    0    0    0  0.00000000000E+00  0.00000000000E+00  0.45593999997E+02  0.45594000000E+02  0.51100000000E-03 0.  1.
         11   -1    0    0    0    0 -0.00000000000E+00 -0.00000000000E+00 -0.45593999997E+02  0.45594000000E+02  0.51100000000E-03 0. -1.
    9900012    2    1    2    0    0  0.21170459102E+02 -0.38698752318E+02 -0.91286143035E+01  0.46142319090E+02  0.10000012116E+02 0.  0.
        -12    1    1    2    0    0 -0.21170459102E+02  0.38698752318E+02  0.91286143035E+01  0.45045680910E+02  0.00000000000E+00 0.  1.
         11    1    3    3    0    0  0.15112953623E+02 -0.32154320456E+02 -0.84181945434E+01  0.36512568943E+02  0.51100000000E-03 0. -1.
        -11    1    3    3    0    0  0.15498859509E+01 -0.12525174220E+01  0.13170626691E+01  0.23886399245E+01  0.51100000000E-03 0.  1.
         12    1    3    3    0    0  0.45076195277E+01 -0.52919144404E+01 -0.20274824292E+01  0.72411102223E+01  0.00000000000E+00 0. -1.
</event>
<event>
 7    1  0.1683291E-008  0.4614232E+02  0.7816164E-02  0.1320468E+00
        -11   -1    0    0    0    0  0.00000000000E+00  0.00000000000E+00  0.45593999997E+02  0.45594000000E+02  0.51100000000E-03 0.  1.
         11   -1    0    0    0    0 -0.00000000000E+00 -0.00000000000E+00 -0.45593999997E+02  0.45594000000E+02  0.51100000000E-03 0. -1.
    9900012    2    1    2    0    0 -0.21348981818E+02 -0.39287521877E+02 -0.54612394280E+01  0.46142317232E+02  0.99999951756E+01 0.  0.
        -12    1    1    2    0    0  0.21348981818E+02  0.39287521877E+02  0.54612394280E+01  0.45045682768E+02  0.00000000000E+00 0.  1.
         11    1    3    3    0    0 -0.51720986116E+01 -0.17761871932E+02 -0.50585592819E+01  0.19178730950E+02  0.51100000000E-03 0. -1.
        -11    1    3    3    0    0 -0.13244958520E+02 -0.18216564336E+02 -0.68872402985E+00  0.22533230648E+02  0.51100000000E-03 0.  1.
         12    1    3    3    0    0 -0.29319246870E+01 -0.33090856096E+01  0.28604388370E+00  0.44303556342E+01  0.00000000000E+00 0. -1.
</event>
<event>
 7    1  0.1683291E-008  0.4614232E+02  0.7816164E-02  0.1320468E+00
        -11   -1    0    0    0    0  0.00000000000E+00  0.00000000000E+00  0.45593999997E+02  0.45594000000E+02  0.51100000000E-03 0. -1.
         11   -1    0    0    0    0 -0.00000000000E+00 -0.00000000000E+00 -0.45593999997E+02  0.45594000000E+02  0.51100000000E-03 0.  1.
    9900012    2    1    2    0    0  0.31238100848E+02 -0.54761441481E+01  0.31989159725E+02  0.46142318306E+02  0.10000004972E+02 0.  0.
        -12    1    1    2    0    0 -0.31238100848E+02  0.54761441481E+01 -0.31989159725E+02  0.45045681694E+02  0.00000000000E+00 0.  1.
         11    1    3    3    0    0  0.28270002326E+02 -0.59812107134E+01  0.24855997680E+02  0.38115463188E+02  0.51100000000E-03 0. -1.
        -11    1    3    3    0    0  0.30356817575E+01  0.45776670377E+00  0.48356582884E+01  0.57278709335E+01  0.51100000000E-03 0.  1.
         12    1    3    3    0    0 -0.67583235112E-01  0.47299861590E-01  0.22975037571E+01  0.22989841854E+01  0.00000000000E+00 0. -1.
</event>
<event>
 7    1  0.1683291E-008  0.4614232E+02  0.7816164E-02  0.1320468E+00
        -11   -1    0    0    0    0  0.00000000000E+00  0.00000000000E+00  0.45593999997E+02  0.45594000000E+02  0.51100000000E-03 0. -1.
         11   -1    0    0    0    0 -0.00000000000E+00 -0.00000000000E+00 -0.45593999997E+02  0.45594000000E+02  0.51100000000E-03 0.  1.
    9900012    2    1    2    0    0  0.19602767882E+02 -0.20333926450E+02  0.35090972787E+02  0.46142318246E+02  0.10000004426E+02 0.  0.
        -12    1    1    2    0    0 -0.19602767882E+02  0.20333926450E+02 -0.35090972787E+02  0.45045681754E+02  0.00000000000E+00 0.  1.
         11    1    3    3    0    0  0.83778056303E+01 -0.11287444697E+02  0.15304375071E+02  0.20780229343E+02  0.51100000000E-03 0. -1.
        -11    1    3    3    0    0  0.48720899132E+01 -0.56807420817E+01  0.52403153551E+01  0.91361368205E+01  0.51100000000E-03 0.  1.
         12    1    3    3    0    0  0.63528723385E+01 -0.33657396711E+01  0.14546282360E+02  0.16225952083E+02  0.00000000000E+00 0. -1.
</event>
<event>
 7    1  0.1683291E-008  0.4614232E+02  0.7816164E-02  0.1320468E+00
        -11   -1    0    0    0    0  0.00000000000E+00  0.00000000000E+00  0.45593999997E+02  0.45594000000E+02  0.51100000000E-03 0.  1.
         11   -1    0    0    0    0 -0.00000000000E+00 -0.00000000000E+00 -0.45593999997E+02  0.45594000000E+02  0.51100000000E-03 0. -1.
    9900012    2    1    2    0    0 -0.16376966070E+02  0.21893532063E+02 -0.35799186218E+02  0.46142317657E+02  0.99999990512E+01 0.  0.
        -12    1    1    2    0    0  0.16376966070E+02 -0.21893532063E+02  0.35799186218E+02  0.45045682343E+02  0.00000000000E+00 0.  1.
         11    1    3    3    0    0 -0.36602036286E+01  0.32268944484E+01 -0.20952548878E+01  0.53103702027E+01  0.51100000000E-03 0. -1.
        -11    1    3    3    0    0 -0.49732138249E+01  0.83844677405E+01 -0.18497396189E+02  0.20908989002E+02  0.51100000000E-03 0.  1.
        -12    1    3    3    0    0 -0.77435486166E+01  0.10282169874E+02 -0.15206535141E+02  0.19922958453E+02  0.00000000000E+00 0.  1.
</event>
<event>
 7    1  0.1683291E-008  0.4614232E+02  0.7816164E-02  0.1320468E+00
        -11   -1    0    0    0    0  0.00000000000E+00  0.00000000000E+00  0.45593999997E+02  0.45594000000E+02  0.51100000000E-03 0.  1.
         11   -1    0    0    0    0 -0.00000000000E+00 -0.00000000000E+00 -0.45593999997E+02  0.45594000000E+02  0.51100000000E-03 0. -1.
    9900012    2    1    2    0    0 -0.15061335268E+02 -0.63348591661E+00 -0.42448420273E+02  0.46142317542E+02  0.99999979991E+01 0.  0.
        -12    1    1    2    0    0  0.15061335268E+02  0.63348591661E+00  0.42448420273E+02  0.45045682458E+02  0.00000000000E+00 0.  1.
         11    1    3    3    0    0 -0.96868362040E+01 -0.21667980323E+01 -0.14993776563E+02  0.17981744777E+02  0.51100000000E-03 0. -1.
        -11    1    3    3    0    0 -0.51504892146E+01  0.56991293791E+00 -0.24587230305E+02  0.25127360272E+02  0.51100000000E-03 0.  1.
        -12    1    3    3    0    0 -0.22400984938E+00  0.96339917776E+00 -0.28674134050E+01  0.30332124923E+01  0.00000000000E+00 0.  1.
</event>
<event>
 7    1  0.1683291E-008  0.4614232E+02  0.7816164E-02  0.1320468E+00
        -11   -1    0    0    0    0  0.00000000000E+00  0.00000000000E+00  0.45593999997E+02  0.45594000000E+02  0.51100000000E-03 0.  1.
         11   -1    0    0    0    0 -0.00000000000E+00 -0.00000000000E+00 -0.45593999997E+02  0.45594000000E+02  0.51100000000E-03 0. -1.
    9900012    2    1    2    0    0 -0.84287906784E+01  0.37010063239E+02  0.24255393218E+02  0.46142318815E+02  0.10000009611E+02 0.  0.
        -12    1    1    2    0    0  0.84287906784E+01 -0.37010063239E+02 -0.24255393218E+02  0.45045681185E+02  0.00000000000E+00 0.  1.
         11    1    3    3    0    0 -0.33805066637E+01  0.78165351524E+01  0.25148550970E+01  0.88797828528E+01  0.51100000000E-03 0. -1.
        -11    1    3    3    0    0 -0.43121352346E+01  0.24660305792E+02  0.15257158036E+02  0.29317333843E+02  0.51100000000E-03 0.  1.
        -12    1    3    3    0    0 -0.73614878005E+00  0.45332222945E+01  0.64833800849E+01  0.79452021197E+01  0.00000000000E+00 0.  1.
</event>
<event>
 7    1  0.1683291E-008  0.4614232E+02  0.7816164E-02  0.1320468E+00
        -11   -1    0    0    0    0  0.00000000000E+00  0.00000000000E+00  0.45593999997E+02  0.45594000000E+02  0.51100000000E-03 0.  1.
         11   -1    0    0    0    0 -0.00000000000E+00 -0.00000000000E+00 -0.45593999997E+02  0.45594000000E+02  0.51100000000E-03 0. -1.
    9900012    2    1    2    0    0 -0.28800578868E+02  0.34106585361E+02 -0.60316630123E+01  0.46142318000E+02  0.10000002182E+02 0.  0.
        -12    1    1    2    0    0  0.28800578868E+02 -0.34106585361E+02  0.60316630123E+01  0.45045682000E+02  0.00000000000E+00 0.  1.
         11    1    3    3    0    0 -0.15039905180E+02  0.16211538670E+02 -0.52479839403E+01  0.22727825887E+02  0.51100000000E-03 0. -1.
        -11    1    3    3    0    0 -0.12318083715E+02  0.11939185855E+02  0.46330815515E+00  0.17160827486E+02  0.51100000000E-03 0.  1.
         12    1    3    3    0    0 -0.14425899737E+01  0.59558608360E+01 -0.12469872272E+01  0.62536646277E+01  0.00000000000E+00 0. -1.
</event>
<event>
 7    1  0.1683291E-008  0.4614232E+02  0.7816164E-02  0.1320468E+00
        -11   -1    0    0    0    0  0.00000000000E+00  0.00000000000E+00  0.45593999997E+02  0.45594000000E+02  0.51100000000E-03 0.  1.
         11   -1    0    0    0    0 -0.00000000000E+00 -0.00000000000E+00 -0.45593999997E+02  0.45594000000E+02  0.51100000000E-03 0. -1.
    9900012    2    1    2    0    0  0.52071729533E+01  0.42166911314E+01 -0.44544566070E+02  0.46142317625E+02  0.99999987592E+01 0.  0.
        -12    1    1    2    0    0 -0.52071729533E+01 -0.42166911314E+01  0.44544566070E+02  0.45045682375E+02  0.00000000000E+00 0.  1.
         11    1    3    3    0    0  0.28798564200E+01  0.43754397435E+01 -0.18077038261E+02  0.18820663073E+02  0.51100000000E-03 0. -1.
        -11    1    3    3    0    0 -0.21327288330E+01 -0.77253308790E+00 -0.94918837444E+01  0.97591596424E+01  0.51100000000E-03 0.  1.
        -12    1    3    3    0    0  0.44600453663E+01  0.61378447583E+00 -0.16975644064E+02  0.17562494910E+02  0.00000000000E+00 0.  1.
</event>
<event>
 7    1  0.1683291E-008  0.4614232E+02  0.7816164E-02  0.1320468E+00
        -11   -1    0    0    0    0  0.00000000000E+00  0.00000000000E+00  0.45593999997E+02  0.45594000000E+02  0.51100000000E-03 0.  1.
         11   -1    0    0    0    0 -0.00000000000E+00 -0.00000000000E+00 -0.45593999997E+02  0.45594000000E+02  0.51100000000E-03 0. -1.
    9900012    2    1    2    0    0 -0.17840062447E+02 -0.41344330953E+02  0.12215010568E+01  0.46142316579E+02  0.99999892200E+01 0.  0.
        -12    1    1    2    0    0  0.17840062447E+02  0.41344330953E+02 -0.12215010568E+01  0.45045683421E+02  0.00000000000E+00 0.  1.
         11    1    3    3    0    0 -0.13463471507E+02 -0.25495228443E+02  0.15009371701E+01  0.28870825257E+02  0.51100000000E-03 0. -1.
        -11    1    3    3    0    0  0.76010988953E+00 -0.18247323071E+00 -0.33407608813E-01  0.78241923131E+00  0.51100000000E-03 0.  1.
        -12    1    3    3    0    0 -0.51367008289E+01 -0.15666629279E+02 -0.24602850441E+00  0.16489072090E+02  0.00000000000E+00 0.  1.
</event>
<event>
 7    1  0.1683291E-008  0.4614232E+02  0.7816164E-02  0.1320468E+00
        -11   -1    0    0    0    0  0.00000000000E+00  0.00000000000E+00  0.45593999997E+02  0.45594000000E+02  0.51100000000E-03 0.  1.
         11   -1    0    0    0    0 -0.00000000000E+00 -0.00000000000E+00 -0.45593999997E+02  0.45594000000E+02  0.51100000000E-03 0. -1.
    9900012    2    1    2    0    0 -0.14206410618E+02  0.72032450596E+01 -0.42135551262E+02  0.46142317386E+02  0.99999965776E+01 0.  0.
        -12    1    1    2    0    0  0.14206410618E+02 -0.72032450596E+01  0.42135551262E+02  0.45045682614E+02  0.00000000000E+00 0.  1.
         11    1    3    3    0    0 -0.42804299620E+01  0.44210139186E+01 -0.14080102968E+02  0.15366090739E+02  0.51100000000E-03 0. -1.
        -11    1    3    3    0    0 -0.10183561822E+02  0.40490422774E+01 -0.26883269057E+02  0.29031187200E+02  0.51100000000E-03 0.  1.
        -12    1    3    3    0    0  0.25758116568E+00 -0.12668111364E+01 -0.11721792362E+01  0.17450394477E+01  0.00000000000E+00 0.  1.
</event>
<event>
 7    1  0.1683291E-008  0.4614232E+02  0.7816164E-02  0.1320468E+00
        -11   -1    0    0    0    0  0.00000000000E+00  0.00000000000E+00  0.45593999997E+02  0.45594000000E+02  0.51100000000E-03 0.  1.
         11   -1    0    0    0    0 -0.00000000000E+00 -0.00000000000E+00 -0.45593999997E+02  0.45594000000E+02  0.51100000000E-03 0. -1.
    9900012    2    1    2    0    0  0.25487815390E+02 -0.87692187162E+01 -0.36091351130E+02  0.46142317003E+02  0.99999930900E+01 0.  0.
        -12    1    1    2    0    0 -0.25487815390E+02  0.87692187162E+01  0.36091351130E+02  0.45045682997E+02  0.00000000000E+00 0.  1.
         11    1    3    3    0    0  0.81670272795E+01 -0.62405251544E+00 -0.13333193651E+02  0.15648125425E+02  0.51100000000E-03 0. -1.
        -11    1    3    3    0    0  0.16263296455E+02 -0.88775422892E+01 -0.22558714312E+02  0.29192484655E+02  0.51100000000E-03 0.  1.
        -12    1    3    3    0    0  0.10574916552E+01  0.73237608837E+00 -0.19944316697E+00  0.13017069227E+01  0.00000000000E+00 0.  1.
</event>
<event>
 7    1  0.1683291E-008  0.4614232E+02  0.7816164E-02  0.1320468E+00
        -11   -1    0    0    0    0  0.00000000000E+00  0.00000000000E+00  0.45593999997E+02  0.45594000000E+02  0.51100000000E-03 0. -1.
         11   -1    0    0    0    0 -0.00000000000E+00 -0.00000000000E+00 -0.45593999997E+02  0.45594000000E+02  0.51100000000E-03 0.  1.
    9900012    2    1    2    0    0  0.40799385334E+02  0.10327666749E+02 -0.16058113421E+02  0.46142317068E+02  0.99999936842E+01 0.  0.
        -12    1    1    2    0    0 -0.40799385334E+02 -0.10327666749E+02  0.16058113421E+02  0.45045682932E+02  0.00000000000E+00 0.  1.
         11    1    3    3    0    0  0.21175341241E+02  0.32759006010E+01 -0.11070489807E+02  0.24118091679E+02  0.51100000000E-03 0. -1.
        -11    1    3    3    0    0  0.28813618560E+01  0.25896210948E+01 -0.22561808881E+01  0.44831613868E+01  0.51100000000E-03 0.  1.
         12    1    3    3    0    0  0.16742682237E+02  0.44621450534E+01 -0.27314427259E+01  0.17541064003E+02  0.00000000000E+00 0. -1.
</event>
<event>
 7    1  0.1683291E-008  0.4614232E+02  0.7816164E-02  0.1320468E+00
        -11   -1    0    0    0    0  0.00000000000E+00  0.00000000000E+00  0.45593999997E+02  0.45594000000E+02  0.51100000000E-03 0. -1.
         11   -1    0    0    0    0 -0.00000000000E+00 -0.00000000000E+00 -0.45593999997E+02  0.45594000000E+02  0.51100000000E-03 0.  1.
    9900012    2    1    2    0    0 -0.15301638710E+02 -0.26075630991E+02  0.33392136934E+02  0.46142317768E+02  0.10000000060E+02 0.  0.
        -12    1    1    2    0    0  0.15301638710E+02  0.26075630991E+02 -0.33392136934E+02  0.45045682232E+02  0.00000000000E+00 0.  1.
         11    1    3    3    0    0 -0.90731697855E+01 -0.11098563682E+02  0.17757880941E+02  0.22821981981E+02  0.51100000000E-03 0. -1.
        -11    1    3    3    0    0  0.32218393132E+00 -0.33602686229E+01  0.99979236130E+00  0.35206239121E+01  0.51100000000E-03 0.  1.
        -12    1    3    3    0    0 -0.65506528556E+01 -0.11616798685E+02  0.14634463631E+02  0.19799711874E+02  0.00000000000E+00 0.  1.
</event>
<event>
 7    1  0.1683291E-008  0.4614232E+02  0.7816164E-02  0.1320468E+00
        -11   -1    0    0    0    0  0.00000000000E+00  0.00000000000E+00  0.45593999997E+02  0.45594000000E+02  0.51100000000E-03 0. -1.
         11   -1    0    0    0    0 -0.00000000000E+00 -0.00000000000E+00 -0.45593999997E+02  0.45594000000E+02  0.51100000000E-03 0.  1.
    9900012    2    1    2    0    0  0.21916692063E+02 -0.14461980335E+02  0.36600861063E+02  0.46142319888E+02  0.10000019398E+02 0.  0.
        -12    1    1    2    0    0 -0.21916692063E+02  0.14461980335E+02 -0.36600861063E+02  0.45045680112E+02  0.00000000000E+00 0.  1.
         11    1    3    3    0    0  0.12469048802E+02 -0.94000068012E+01  0.24294869763E+02  0.28880408636E+02  0.51100000000E-03 0. -1.
        -11    1    3    3    0    0  0.16615699950E+01  0.85470120000E+00  0.40635147439E+01  0.44725251620E+01  0.51100000000E-03 0.  1.
        -12    1    3    3    0    0  0.77860732661E+01 -0.59166747336E+01  0.82424765556E+01  0.12789386091E+02  0.00000000000E+00 0.  1.
</event>
<event>
 7    1  0.1683291E-008  0.4614232E+02  0.7816164E-02  0.1320468E+00
        -11   -1    0    0    0    0  0.00000000000E+00  0.00000000000E+00  0.45593999997E+02  0.45594000000E+02  0.51100000000E-03 0.  1.
         11   -1    0    0    0    0 -0.00000000000E+00 -0.00000000000E+00 -0.45593999997E+02  0.45594000000E+02  0.51100000000E-03 0. -1.
    9900012    2    1    2    0    0 -0.16356813692E+02 -0.17930551540E+02 -0.37948167406E+02  0.46142318274E+02  0.10000004675E+02 0.  0.
        -12    1    1    2    0    0  0.16356813692E+02  0.17930551540E+02  0.37948167406E+02  0.45045681726E+02  0.00000000000E+00 0.  1.
         11    1    3    3    0    0 -0.11593428592E+02 -0.89733175038E+01 -0.20256760755E+02  0.25005286842E+02  0.51100000000E-03 0. -1.
        -11    1    3    3    0    0  0.67994987176E+00 -0.42776033716E+01 -0.76949851506E+01  0.88302332450E+01  0.51100000000E-03 0.  1.
        -12    1    3    3    0    0 -0.54433349727E+01 -0.46796306646E+01 -0.99964215009E+01  0.12306798187E+02  0.00000000000E+00 0.  1.
</event>
<event>
 7    1  0.1683291E-008  0.4614232E+02  0.7816164E-02  0.1320468E+00
        -11   -1    0    0    0    0  0.00000000000E+00  0.00000000000E+00  0.45593999997E+02  0.45594000000E+02  0.51100000000E-03 0.  1.
         11   -1    0    0    0    0 -0.00000000000E+00 -0.00000000000E+00 -0.45593999997E+02  0.45594000000E+02  0.51100000000E-03 0. -1.
    9900012    2    1    2    0    0 -0.44778830590E+02  0.10168162843E+01  0.47891576452E+01  0.46142316352E+02  0.99999871471E+01 0.  0.
        -12    1    1    2    0    0  0.44778830590E+02 -0.10168162843E+01 -0.47891576452E+01  0.45045683648E+02  0.00000000000E+00 0.  1.
         11    1    3    3    0    0 -0.17164170896E+02 -0.40900192555E+01  0.11478838014E+01  0.17682043364E+02  0.51100000000E-03 0. -1.
        -11    1    3    3    0    0 -0.41041201030E+00  0.13156588779E+00  0.44703285371E+00  0.62095590379E+00  0.51100000000E-03 0.  1.
         12    1    3    3    0    0 -0.27204247684E+02  0.49752696521E+01  0.31942409901E+01  0.27839317084E+02  0.00000000000E+00 0. -1.
</event>
<event>
 7    1  0.1683291E-008  0.4614232E+02  0.7816164E-02  0.1320468E+00
        -11   -1    0    0    0    0  0.00000000000E+00  0.00000000000E+00  0.45593999997E+02  0.45594000000E+02  0.51100000000E-03 0.  1.
         11   -1    0    0    0    0 -0.00000000000E+00 -0.00000000000E+00 -0.45593999997E+02  0.45594000000E+02  0.51100000000E-03 0. -1.
    9900012    2    1    2    0    0 -0.66649087646E+01 -0.66018881281E+01 -0.44058002138E+02  0.46142317764E+02  0.10000000029E+02 0.  0.
        -12    1    1    2    0    0  0.66649087646E+01  0.66018881281E+01  0.44058002138E+02  0.45045682236E+02  0.00000000000E+00 0.  1.
         11    1    3    3    0    0 -0.17589975296E+01  0.42941160725E+00 -0.33841170974E+01  0.38380614154E+01  0.51100000000E-03 0. -1.
        -11    1    3    3    0    0  0.17532671647E+01  0.13139540497E+00 -0.83561760283E+01  0.85391386322E+01  0.51100000000E-03 0.  1.
         12    1    3    3    0    0 -0.66591783996E+01 -0.71626951403E+01 -0.32317709012E+02  0.33765117717E+02  0.00000000000E+00 0. -1.
</event>
<event>
 7    1  0.1683291E-008  0.4614232E+02  0.7816164E-02  0.1320468E+00
        -11   -1    0    0    0    0  0.00000000000E+00  0.00000000000E+00  0.45593999997E+02  0.45594000000E+02  0.51100000000E-03 0.  1.
         11   -1    0    0    0    0 -0.00000000000E+00 -0.00000000000E+00 -0.45593999997E+02  0.45594000000E+02  0.51100000000E-03 0. -1.
    9900012    2    1    2    0    0 -0.92321909873E+01 -0.28823122682E+02 -0.33363269323E+02  0.46142317726E+02  0.99999996823E+01 0.  0.
        -12    1    1    2    0    0  0.92321909873E+01  0.28823122682E+02  0.33363269323E+02  0.45045682274E+02  0.00000000000E+00 0.  1.
         11    1    3    3    0    0 -0.85724970396E+01 -0.13814828470E+02 -0.16080626962E+02  0.22867526208E+02  0.51100000000E-03 0. -1.
        -11    1    3    3    0    0  0.11583415603E+00 -0.14444215217E+02 -0.15129290372E+02  0.20917557175E+02  0.51100000000E-03 0.  1.
        -12    1    3    3    0    0 -0.77552810381E+00 -0.56407899541E+00 -0.21533519899E+01  0.23572343425E+01  0.00000000000E+00 0.  1.
</event>
<event>
 7    1  0.1683291E-008  0.4614233E+02  0.7816164E-02  0.1320468E+00
        -11   -1    0    0    0    0  0.00000000000E+00  0.00000000000E+00  0.45593999997E+02  0.45594000000E+02  0.51100000000E-03 0. -1.
         11   -1    0    0    0    0 -0.00000000000E+00 -0.00000000000E+00 -0.45593999997E+02  0.45594000000E+02  0.51100000000E-03 0.  1.
    9900012    2    1    2    0    0  0.18879313951E+02 -0.30561707492E+02  0.27178412488E+02  0.46142328006E+02  0.10000093420E+02 0.  0.
        -12    1    1    2    0    0 -0.18879313951E+02  0.30561707492E+02 -0.27178412488E+02  0.45045671994E+02  0.00000000000E+00 0.  1.
         11    1    3    3    0    0  0.67685729756E+01 -0.85046440053E+01  0.97499512565E+01  0.14601510180E+02  0.51100000000E-03 0. -1.
        -11    1    3    3    0    0 -0.82287855743E+00 -0.14641380049E+01  0.10334775835E+00  0.16827091959E+01  0.51100000000E-03 0.  1.
        -12    1    3    3    0    0  0.12933619533E+02 -0.20592925481E+02  0.17325113473E+02  0.29858108630E+02  0.00000000000E+00 0.  1.
</event>
<event>
 7    1  0.1683291E-008  0.4614232E+02  0.7816164E-02  0.1320468E+00
        -11   -1    0    0    0    0  0.00000000000E+00  0.00000000000E+00  0.45593999997E+02  0.45594000000E+02  0.51100000000E-03 0.  1.
         11   -1    0    0    0    0 -0.00000000000E+00 -0.00000000000E+00 -0.45593999997E+02  0.45594000000E+02  0.51100000000E-03 0. -1.
    9900012    2    1    2    0    0 -0.31202666839E+02  0.27790712885E+02 -0.16828051518E+02  0.46142318094E+02  0.10000003034E+02 0.  0.
        -12    1    1    2    0    0  0.31202666839E+02 -0.27790712885E+02  0.16828051518E+02  0.45045681906E+02  0.00000000000E+00 0.  1.
         11    1    3    3    0    0 -0.25976424807E+02  0.25942720237E+02 -0.13072229812E+02  0.38970278053E+02  0.51100000000E-03 0. -1.
        -11    1    3    3    0    0 -0.42744895121E+01  0.18132460495E+01 -0.40645394808E+01  0.61708673035E+01  0.51100000000E-03 0.  1.
        -12    1    3    3    0    0 -0.95175251963E+00  0.34746598571E-01  0.30871777476E+00  0.10011727369E+01  0.00000000000E+00 0.  1.
</event>
<event>
 7    1  0.1683291E-008  0.4614232E+02  0.7816164E-02  0.1320468E+00
        -11   -1    0    0    0    0  0.00000000000E+00  0.00000000000E+00  0.45593999997E+02  0.45594000000E+02  0.51100000000E-03 0.  1.
         11   -1    0    0    0    0 -0.00000000000E+00 -0.00000000000E+00 -0.45593999997E+02  0.45594000000E+02  0.51100000000E-03 0. -1.
    9900012    2    1    2    0    0 -0.15301708541E+02  0.21431777266E+02 -0.36546548216E+02  0.46142317105E+02  0.99999940138E+01 0.  0.
        -12    1    1    2    0    0  0.15301708541E+02 -0.21431777266E+02  0.36546548216E+02  0.45045682895E+02  0.00000000000E+00 0.  1.
         11    1    3    3    0    0  0.10208808732E+01  0.61034663222E+00 -0.31296862423E+01  0.33480825864E+01  0.51100000000E-03 0.  1.
        -11    1    3    3    0    0 -0.11120624878E+02  0.11169796818E+02 -0.19219646589E+02  0.24856135539E+02  0.51100000000E-03 0. -1.
        -12    1    3    3    0    0 -0.52019645353E+01  0.96516338157E+01 -0.14197215384E+02  0.17938098980E+02  0.00000000000E+00 0.  1.
</event>
<event>
 7    1  0.1683291E-008  0.4614232E+02  0.7816164E-02  0.1320468E+00
        -11   -1    0    0    0    0  0.00000000000E+00  0.00000000000E+00  0.45593999997E+02  0.45594000000E+02  0.51100000000E-03 0.  1.
         11   -1    0    0    0    0 -0.00000000000E+00 -0.00000000000E+00 -0.45593999997E+02  0.45594000000E+02  0.51100000000E-03 0. -1.
    9900012    2    1    2    0    0  0.22440411144E+02 -0.36437000200E+02 -0.14067209836E+02  0.46142318426E+02  0.10000006061E+02 0.  0.
        -12    1    1    2    0    0 -0.22440411144E+02  0.36437000200E+02  0.14067209836E+02  0.45045681574E+02  0.00000000000E+00 0.  1.
         11    1    3    3    0    0  0.76722929228E+01 -0.13661809336E+02 -0.93564396096E+01  0.18249714394E+02  0.51100000000E-03 0. -1.
        -11    1    3    3    0    0  0.12360050840E+02 -0.15478984529E+02 -0.34505343684E+01  0.20106615989E+02  0.51100000000E-03 0.  1.
        -12    1    3    3    0    0  0.24080673813E+01 -0.72962063345E+01 -0.12602358585E+01  0.77859880431E+01  0.00000000000E+00 0.  1.
</event>
<event>
 7    1  0.1683291E-008  0.4614232E+02  0.7816164E-02  0.1320468E+00
        -11   -1    0    0    0    0  0.00000000000E+00  0.00000000000E+00  0.45593999997E+02  0.45594000000E+02  0.51100000000E-03 0. -1.
         11   -1    0    0    0    0 -0.00000000000E+00 -0.00000000000E+00 -0.45593999997E+02  0.45594000000E+02  0.51100000000E-03 0.  1.
    9900012    2    1    2    0    0 -0.29480278048E+02  0.27276049239E+02 -0.20397152854E+02  0.46142317627E+02  0.99999987814E+01 0.  0.
        -12    1    1    2    0    0  0.29480278048E+02 -0.27276049239E+02  0.20397152854E+02  0.45045682373E+02  0.00000000000E+00 0.  1.
         11    1    3    3    0    0 -0.24015655154E+02  0.21939112317E+02 -0.13142955216E+02  0.35082953322E+02  0.51100000000E-03 0. -1.
        -11    1    3    3    0    0 -0.18190813414E+01  0.49364428852E+00 -0.33653417730E+01  0.38572356838E+01  0.51100000000E-03 0.  1.
         12    1    3    3    0    0 -0.36455415522E+01  0.48432926339E+01 -0.38888558641E+01  0.72021286213E+01  0.00000000000E+00 0. -1.
</event>
<event>
 7    1  0.1683291E-008  0.4614232E+02  0.7816164E-02  0.1320468E+00
        -11   -1    0    0    0    0  0.00000000000E+00  0.00000000000E+00  0.45593999997E+02  0.45594000000E+02  0.51100000000E-03 0.  1.
         11   -1    0    0    0    0 -0.00000000000E+00 -0.00000000000E+00 -0.45593999997E+02  0.45594000000E+02  0.51100000000E-03 0. -1.
    9900012    2    1    2    0    0 -0.18242359279E+02  0.24287485227E+02 -0.33263310478E+02  0.46142318357E+02  0.10000005432E+02 0.  0.
        -12    1    1    2    0    0  0.18242359279E+02 -0.24287485227E+02  0.33263310478E+02  0.45045681643E+02  0.00000000000E+00 0.  1.
         11    1    3    3    0    0 -0.11100705167E+02  0.15329215242E+02 -0.19619366929E+02  0.27260411847E+02  0.51100000000E-03 0. -1.
        -11    1    3    3    0    0 -0.25426624028E+01 -0.33217229754E+00 -0.17504394921E+01  0.31047559013E+01  0.51100000000E-03 0.  1.
         12    1    3    3    0    0 -0.45989917101E+01  0.92904422831E+01 -0.11893504057E+02  0.15777150608E+02  0.00000000000E+00 0. -1.
</event>
<event>
 7    1  0.1683291E-008  0.4614232E+02  0.7816164E-02  0.1320468E+00
        -11   -1    0    0    0    0  0.00000000000E+00  0.00000000000E+00  0.45593999997E+02  0.45594000000E+02  0.51100000000E-03 0.  1.
         11   -1    0    0    0    0 -0.00000000000E+00 -0.00000000000E+00 -0.45593999997E+02  0.45594000000E+02  0.51100000000E-03 0. -1.
    9900012    2    1    2    0    0  0.38748346626E+02  0.12911913452E+02 -0.18998990124E+02  0.46142317621E+02  0.99999987236E+01 0.  0.
        -12    1    1    2    0    0 -0.38748346626E+02 -0.12911913452E+02  0.18998990124E+02  0.45045682379E+02  0.00000000000E+00 0.  1.
         11    1    3    3    0    0  0.19311825827E+02  0.35511485829E+01 -0.98057034587E+01  0.21947872189E+02  0.51100000000E-03 0. -1.
        -11    1    3    3    0    0  0.10885305656E+02  0.41602573109E+01 -0.18919247211E+01  0.11805803637E+02  0.51100000000E-03 0.  1.
         12    1    3    3    0    0  0.85512151436E+01  0.52005075580E+01 -0.73013619440E+01  0.12388641795E+02  0.00000000000E+00 0. -1.
</event>
<event>
 7    1  0.1683291E-008  0.4614232E+02  0.7816164E-02  0.1320468E+00
        -11   -1    0    0    0    0  0.00000000000E+00  0.00000000000E+00  0.45593999997E+02  0.45594000000E+02  0.51100000000E-03 0. -1.
         11   -1    0    0    0    0 -0.00000000000E+00 -0.00000000000E+00 -0.45593999997E+02  0.45594000000E+02  0.51100000000E-03 0.  1.
    9900012    2    1    2    0    0  0.12664329993E+01  0.13931332137E+02  0.42818542950E+02  0.46142317765E+02  0.10000000038E+02 0.  0.
        -12    1    1    2    0    0 -0.12664329993E+01 -0.13931332137E+02 -0.42818542950E+02  0.45045682235E+02  0.00000000000E+00 0.  1.
         11    1    3    3    0    0 -0.16120298578E+01  0.25534761632E+01  0.15292060665E+02  0.15587366693E+02  0.51100000000E-03 0.  1.
        -11    1    3    3    0    0  0.45381594058E+01  0.53912814345E+01  0.14965396068E+02  0.16541580518E+02  0.51100000000E-03 0. -1.
        -12    1    3    3    0    0 -0.16596965487E+01  0.59865745392E+01  0.12561086217E+02  0.14013370554E+02  0.00000000000E+00 0.  1.
</event>
<event>
 7    1  0.1683291E-008  0.4614232E+02  0.7816164E-02  0.1320468E+00
        -11   -1    0    0    0    0  0.00000000000E+00  0.00000000000E+00  0.45593999997E+02  0.45594000000E+02  0.51100000000E-03 0.  1.
         11   -1    0    0    0    0 -0.00000000000E+00 -0.00000000000E+00 -0.45593999997E+02  0.45594000000E+02  0.51100000000E-03 0. -1.
    9900012    2    1    2    0    0 -0.14493294835E+02 -0.40832692730E+02 -0.12318649675E+02  0.46142317404E+02  0.99999967402E+01 0.  0.
        -12    1    1    2    0    0  0.14493294835E+02  0.40832692730E+02  0.12318649675E+02  0.45045682596E+02  0.00000000000E+00 0.  1.
         11    1    3    3    0    0 -0.13334388999E+02 -0.35128945086E+02 -0.10762136730E+02  0.39085448700E+02  0.51100000000E-03 0. -1.
        -11    1    3    3    0    0 -0.60707137539E+00 -0.37521719677E+01 -0.27611315169E+01  0.46979971951E+01  0.51100000000E-03 0.  1.
         12    1    3    3    0    0 -0.55183446009E+00 -0.19515756763E+01  0.12046185711E+01  0.23588715085E+01  0.00000000000E+00 0. -1.
</event>
<event>
 7    1  0.1683291E-008  0.4614232E+02  0.7816164E-02  0.1320468E+00
        -11   -1    0    0    0    0  0.00000000000E+00  0.00000000000E+00  0.45593999997E+02  0.45594000000E+02  0.51100000000E-03 0.  1.
         11   -1    0    0    0    0 -0.00000000000E+00 -0.00000000000E+00 -0.45593999997E+02  0.45594000000E+02  0.51100000000E-03 0. -1.
    9900012    2    1    2    0    0  0.11860443331E+02  0.39330847162E+02 -0.18480468272E+02  0.46142319164E+02  0.10000012790E+02 0.  0.
        -12    1    1    2    0    0 -0.11860443331E+02 -0.39330847162E+02  0.18480468272E+02  0.45045680836E+02  0.00000000000E+00 0.  1.
         11    1    3    3    0    0  0.59709812084E+01  0.27150807838E+02 -0.99767261096E+01  0.29535640284E+02  0.51100000000E-03 0. -1.
        -11    1    3    3    0    0  0.10094809053E+01  0.54472796535E+01 -0.53844658923E+01  0.77255666801E+01  0.51100000000E-03 0.  1.
        -12    1    3    3    0    0  0.48799812172E+01  0.67327596699E+01 -0.31192762698E+01  0.88811121995E+01  0.00000000000E+00 0.  1.
</event>
<event>
 7    1  0.1683291E-008  0.4614232E+02  0.7816164E-02  0.1320468E+00
        -11   -1    0    0    0    0  0.00000000000E+00  0.00000000000E+00  0.45593999997E+02  0.45594000000E+02  0.51100000000E-03 0.  1.
         11   -1    0    0    0    0 -0.00000000000E+00 -0.00000000000E+00 -0.45593999997E+02  0.45594000000E+02  0.51100000000E-03 0. -1.
    9900012    2    1    2    0    0 -0.27347764386E+02 -0.17776015294E+02 -0.31068095331E+02  0.46142317807E+02  0.10000000423E+02 0.  0.
        -12    1    1    2    0    0  0.27347764386E+02  0.17776015294E+02  0.31068095331E+02  0.45045682193E+02  0.00000000000E+00 0.  1.
         11    1    3    3    0    0 -0.12701730108E+02 -0.64086333038E+01 -0.11105312514E+02  0.18048060695E+02  0.51100000000E-03 0. -1.
        -11    1    3    3    0    0 -0.93530598953E+00 -0.22892267687E+00  0.48052062270E+00  0.10761520413E+01  0.51100000000E-03 0.  1.
        -12    1    3    3    0    0 -0.13710728289E+02 -0.11138459314E+02 -0.20443303440E+02  0.27018105072E+02  0.00000000000E+00 0.  1.
</event>
<event>
 7    1  0.1683291E-008  0.4614232E+02  0.7816164E-02  0.1320468E+00
        -11   -1    0    0    0    0  0.00000000000E+00  0.00000000000E+00  0.45593999997E+02  0.45594000000E+02  0.51100000000E-03 0.  1.
         11   -1    0    0    0    0 -0.00000000000E+00 -0.00000000000E+00 -0.45593999997E+02  0.45594000000E+02  0.51100000000E-03 0. -1.
    9900012    2    1    2    0    0 -0.12619175497E+02  0.91631892868E+01 -0.42259978545E+02  0.46142318578E+02  0.10000007451E+02 0.  0.
        -12    1    1    2    0    0  0.12619175497E+02 -0.91631892868E+01  0.42259978545E+02  0.45045681422E+02  0.00000000000E+00 0.  1.
         11    1    3    3    0    0 -0.54410965305E+01  0.40752783564E+01 -0.11433679446E+02  0.13301971698E+02  0.51100000000E-03 0. -1.
        -11    1    3    3    0    0 -0.66962086390E+00  0.42668580515E+01 -0.16948701274E+02  0.17490367202E+02  0.51100000000E-03 0.  1.
         12    1    3    3    0    0 -0.65084581025E+01  0.82105287884E+00 -0.13877597825E+02  0.15349979678E+02  0.00000000000E+00 0. -1.
</event>
<event>
 7    1  0.1683291E-008  0.4614232E+02  0.7816164E-02  0.1320468E+00
        -11   -1    0    0    0    0  0.00000000000E+00  0.00000000000E+00  0.45593999997E+02  0.45594000000E+02  0.51100000000E-03 0. -1.
         11   -1    0    0    0    0 -0.00000000000E+00 -0.00000000000E+00 -0.45593999997E+02  0.45594000000E+02  0.51100000000E-03 0.  1.
    9900012    2    1    2    0    0 -0.42527706450E+02 -0.14768433187E+02 -0.15495612546E+01  0.46142316802E+02  0.99999912535E+01 0.  0.
        -12    1    1    2    0    0  0.42527706450E+02  0.14768433187E+02  0.15495612546E+01  0.45045683198E+02  0.00000000000E+00 0.  1.
         11    1    3    3    0    0 -0.96223333182E+01 -0.19356249266E+01 -0.20587442706E+01  0.10028677409E+02  0.51100000000E-03 0. -1.
        -11    1    3    3    0    0 -0.20732486598E+01 -0.31526703463E+01  0.42834041831E+00  0.37975210457E+01  0.51100000000E-03 0.  1.
        -12    1    3    3    0    0 -0.30832124472E+02 -0.96801379137E+01  0.80842597706E-01  0.32316118347E+02  0.00000000000E+00 0.  1.
</event>
<event>
 7    1  0.1683291E-008  0.4614232E+02  0.7816164E-02  0.1320468E+00
        -11   -1    0    0    0    0  0.00000000000E+00  0.00000000000E+00  0.45593999997E+02  0.45594000000E+02  0.51100000000E-03 0. -1.
         11   -1    0    0    0    0 -0.00000000000E+00 -0.00000000000E+00 -0.45593999997E+02  0.45594000000E+02  0.51100000000E-03 0.  1.
    9900012    2    1    2    0    0 -0.18369039943E+02  0.39534779375E+02 -0.11344300830E+02  0.46142316855E+02  0.99999917388E+01 0.  0.
        -12    1    1    2    0    0  0.18369039943E+02 -0.39534779375E+02  0.11344300830E+02  0.45045683145E+02  0.00000000000E+00 0.  1.
         11    1    3    3    0    0 -0.87761508674E+00  0.74854923579E+01 -0.29987681745E+01  0.81114372898E+01  0.51100000000E-03 0.  1.
        -11    1    3    3    0    0 -0.14912541476E+02  0.27135176462E+02 -0.45215804373E+01  0.31291314846E+02  0.51100000000E-03 0. -1.
         12    1    3    3    0    0 -0.25788833808E+01  0.49141105553E+01 -0.38239522179E+01  0.67395647194E+01  0.00000000000E+00 0. -1.
</event>
<event>
 7    1  0.1683291E-008  0.4614232E+02  0.7816164E-02  0.1320468E+00
        -11   -1    0    0    0    0  0.00000000000E+00  0.00000000000E+00  0.45593999997E+02  0.45594000000E+02  0.51100000000E-03 0.  1.
         11   -1    0    0    0    0 -0.00000000000E+00 -0.00000000000E+00 -0.45593999997E+02  0.45594000000E+02  0.51100000000E-03 0. -1.
    9900012    2    1    2    0    0  0.16913585022E+02  0.90476538469E+01 -0.40757623979E+02  0.46142319731E+02  0.10000017963E+02 0.  0.
        -12    1    1    2    0    0 -0.16913585022E+02 -0.90476538469E+01  0.40757623979E+02  0.45045680269E+02  0.00000000000E+00 0.  1.
         11    1    3    3    0    0  0.10822463614E+02  0.30599812112E+01 -0.22432272540E+02  0.25093745342E+02  0.51100000000E-03 0. -1.
        -11    1    3    3    0    0  0.57723235978E+01  0.69833129836E+01 -0.17537331017E+02  0.19739411324E+02  0.51100000000E-03 0.  1.
        -12    1    3    3    0    0  0.31879781019E+00 -0.99564034784E+00 -0.78802042189E+00  0.13091630652E+01  0.00000000000E+00 0.  1.
</event>
<event>
 7    1  0.1683291E-008  0.4614232E+02  0.7816164E-02  0.1320468E+00
        -11   -1    0    0    0    0  0.00000000000E+00  0.00000000000E+00  0.45593999997E+02  0.45594000000E+02  0.51100000000E-03 0.  1.
         11   -1    0    0    0    0 -0.00000000000E+00 -0.00000000000E+00 -0.45593999997E+02  0.45594000000E+02  0.51100000000E-03 0. -1.
    9900012    2    1    2    0    0  0.25047343150E+02  0.33761761746E+02 -0.16182935471E+02  0.46142319236E+02  0.10000013448E+02 0.  0.
        -12    1    1    2    0    0 -0.25047343150E+02 -0.33761761746E+02  0.16182935471E+02  0.45045680764E+02  0.00000000000E+00 0.  1.
         11    1    3    3    0    0  0.17713566840E+02  0.21113225229E+02 -0.68764273726E+01  0.28404647215E+02  0.51100000000E-03 0. -1.
        -11    1    3    3    0    0  0.25660604501E+01  0.31407769543E+01 -0.45236854039E+01  0.60755967612E+01  0.51100000000E-03 0.  1.
         12    1    3    3    0    0  0.47677158593E+01  0.95077595630E+01 -0.47828226945E+01  0.11662075259E+02  0.00000000000E+00 0. -1.
</event>
<event>
 7    1  0.1683291E-008  0.4614232E+02  0.7816164E-02  0.1320468E+00
        -11   -1    0    0    0    0  0.00000000000E+00  0.00000000000E+00  0.45593999997E+02  0.45594000000E+02  0.51100000000E-03 0.  1.
         11   -1    0    0    0    0 -0.00000000000E+00 -0.00000000000E+00 -0.45593999997E+02  0.45594000000E+02  0.51100000000E-03 0. -1.
    9900012    2    1    2    0    0  0.71664251312E+01 -0.55511390688E+01 -0.44124150933E+02  0.46142317746E+02  0.99999998628E+01 0.  0.
        -12    1    1    2    0    0 -0.71664251312E+01  0.55511390688E+01  0.44124150933E+02  0.45045682254E+02  0.00000000000E+00 0.  1.
         11    1    3    3    0    0  0.84095604274E+01 -0.72588832982E+01 -0.34472692882E+02  0.36218484896E+02  0.51100000000E-03 0. -1.
        -11    1    3    3    0    0 -0.34144932255E+00  0.11100603125E+01 -0.38110857571E+01  0.39841180262E+01  0.51100000000E-03 0.  1.
         12    1    3    3    0    0 -0.90168597369E+00  0.59768391686E+00 -0.58403722941E+01  0.59397148242E+01  0.00000000000E+00 0. -1.
</event>
<event>
 7    1  0.1683291E-008  0.4614232E+02  0.7816164E-02  0.1320468E+00
        -11   -1    0    0    0    0  0.00000000000E+00  0.00000000000E+00  0.45593999997E+02  0.45594000000E+02  0.51100000000E-03 0.  1.
         11   -1    0    0    0    0 -0.00000000000E+00 -0.00000000000E+00 -0.45593999997E+02  0.45594000000E+02  0.51100000000E-03 0. -1.
    9900012    2    1    2    0    0  0.10283814995E+02  0.30295598261E+02 -0.31710145967E+02  0.46142317831E+02  0.10000000636E+02 0.  0.
        -12    1    1    2    0    0 -0.10283814995E+02 -0.30295598261E+02  0.31710145967E+02  0.45045682169E+02  0.00000000000E+00 0.  1.
         11    1    3    3    0    0  0.20057360540E+01  0.55939628594E+01 -0.21449254428E+01  0.63179191992E+01  0.51100000000E-03 0. -1.
        -11    1    3    3    0    0 -0.68731671098E+00  0.45127880191E+00 -0.79195181225E+00  0.11415974563E+01  0.51100000000E-03 0.  1.
         12    1    3    3    0    0  0.89653956524E+01  0.24250356600E+02 -0.28773268712E+02  0.38682801175E+02  0.00000000000E+00 0. -1.
</event>
<event>
 7    1  0.1683291E-008  0.4614232E+02  0.7816164E-02  0.1320468E+00
        -11   -1    0    0    0    0  0.00000000000E+00  0.00000000000E+00  0.45593999997E+02  0.45594000000E+02  0.51100000000E-03 0.  1.
         11   -1    0    0    0    0 -0.00000000000E+00 -0.00000000000E+00 -0.45593999997E+02  0.45594000000E+02  0.51100000000E-03 0. -1.
    9900012    2    1    2    0    0  0.26019606305E+02 -0.13361620481E+02 -0.34257270694E+02  0.46142318636E+02  0.10000007981E+02 0.  0.
        -12    1    1    2    0    0 -0.26019606305E+02  0.13361620481E+02  0.34257270694E+02  0.45045681364E+02  0.00000000000E+00 0.  1.
         11    1    3    3    0    0  0.71238183256E+01 -0.12001911161E+00 -0.81709074832E+01  0.10840983419E+02  0.51100000000E-03 0. -1.
        -11    1    3    3    0    0  0.11390935338E+02 -0.66488601136E+01 -0.18674462025E+02  0.22862551933E+02  0.51100000000E-03 0.  1.
        -12    1    3    3    0    0  0.75048526415E+01 -0.65927412554E+01 -0.74119011853E+01  0.12438783285E+02  0.00000000000E+00 0.  1.
</event>
<event>
 7    1  0.1683291E-008  0.4614232E+02  0.7816164E-02  0.1320468E+00
        -11   -1    0    0    0    0  0.00000000000E+00  0.00000000000E+00  0.45593999997E+02  0.45594000000E+02  0.51100000000E-03 0.  1.
         11   -1    0    0    0    0 -0.00000000000E+00 -0.00000000000E+00 -0.45593999997E+02  0.45594000000E+02  0.51100000000E-03 0. -1.
    9900012    2    1    2    0    0 -0.38130176313E+02  0.27838896726E+01 -0.23821274063E+02  0.46142317795E+02  0.10000000305E+02 0.  0.
        -12    1    1    2    0    0  0.38130176313E+02 -0.27838896726E+01  0.23821274063E+02  0.45045682205E+02  0.00000000000E+00 0.  1.
         11    1    3    3    0    0 -0.16147473804E+02  0.19692149880E+01 -0.59869556625E+01  0.17333850014E+02  0.51100000000E-03 0. -1.
        -11    1    3    3    0    0 -0.47022909182E+01  0.14909212122E+01 -0.63834385912E+01  0.80673833706E+01  0.51100000000E-03 0.  1.
        -12    1    3    3    0    0 -0.17280411590E+02 -0.67624652761E+00 -0.11450879809E+02  0.20741084410E+02  0.00000000000E+00 0.  1.
</event>
<event>
 7    1  0.1683291E-008  0.4614232E+02  0.7816164E-02  0.1320468E+00
        -11   -1    0    0    0    0  0.00000000000E+00  0.00000000000E+00  0.45593999997E+02  0.45594000000E+02  0.51100000000E-03 0.  1.
         11   -1    0    0    0    0 -0.00000000000E+00 -0.00000000000E+00 -0.45593999997E+02  0.45594000000E+02  0.51100000000E-03 0. -1.
    9900012    2    1    2    0    0  0.28898619120E+02  0.27558152000E+02 -0.20845419338E+02  0.46142318342E+02  0.10000005293E+02 0.  0.
        -12    1    1    2    0    0 -0.28898619120E+02 -0.27558152000E+02  0.20845419338E+02  0.45045681658E+02  0.00000000000E+00 0.  1.
         11    1    3    3    0    0  0.24297687935E+02  0.20407963065E+02 -0.19064402312E+02  0.37017752919E+02  0.51100000000E-03 0. -1.
        -11    1    3    3    0    0  0.29727062442E+01  0.37812675475E+01  0.34280278293E+00  0.48220826091E+01  0.51100000000E-03 0.  1.
        -12    1    3    3    0    0  0.16282249409E+01  0.33689213878E+01 -0.21238198089E+01  0.43024828130E+01  0.00000000000E+00 0.  1.
</event>
<event>
 7    1  0.1683291E-008  0.4614232E+02  0.7816164E-02  0.1320468E+00
        -11   -1    0    0    0    0  0.00000000000E+00  0.00000000000E+00  0.45593999997E+02  0.45594000000E+02  0.51100000000E-03 0.  1.
         11   -1    0    0    0    0 -0.00000000000E+00 -0.00000000000E+00 -0.45593999997E+02  0.45594000000E+02  0.51100000000E-03 0. -1.
    9900012    2    1    2    0    0 -0.12773662154E+02 -0.25622310183E+01 -0.43120552353E+02  0.46142317545E+02  0.99999980323E+01 0.  0.
        -12    1    1    2    0    0  0.12773662154E+02  0.25622310183E+01  0.43120552353E+02  0.45045682455E+02  0.00000000000E+00 0.  1.
         11    1    3    3    0    0 -0.12342358353E+02 -0.46702337735E+01 -0.40709368853E+02  0.42794831533E+02  0.51100000000E-03 0. -1.
        -11    1    3    3    0    0  0.17562693078E-01  0.14776645968E+01 -0.11701082914E+01  0.18849283232E+01  0.51100000000E-03 0.  1.
         12    1    3    3    0    0 -0.44886649429E+00  0.63033815835E+00 -0.12410752080E+01  0.14625576896E+01  0.00000000000E+00 0. -1.
</event>
<event>
 7    1  0.1683291E-008  0.4614232E+02  0.7816164E-02  0.1320468E+00
        -11   -1    0    0    0    0  0.00000000000E+00  0.00000000000E+00  0.45593999997E+02  0.45594000000E+02  0.51100000000E-03 0.  1.
         11   -1    0    0    0    0 -0.00000000000E+00 -0.00000000000E+00 -0.45593999997E+02  0.45594000000E+02  0.51100000000E-03 0. -1.
    9900012    2    1    2    0    0 -0.49591396381E+01  0.33419054261E+02 -0.29794080394E+02  0.46142317852E+02  0.10000000831E+02 0.  0.
        -12    1    1    2    0    0  0.49591396381E+01 -0.33419054261E+02  0.29794080394E+02  0.45045682148E+02  0.00000000000E+00 0.  1.
         11    1    3    3    0    0 -0.28719596877E+01  0.96579443042E+01 -0.14829907807E+02  0.17929032502E+02  0.51100000000E-03 0. -1.
        -11    1    3    3    0    0 -0.21475610446E+01  0.18997856816E+02 -0.12579335290E+02  0.22886027586E+02  0.51100000000E-03 0.  1.
         12    1    3    3    0    0  0.60381094312E-01  0.47632531405E+01 -0.23848372966E+01  0.53272577644E+01  0.00000000000E+00 0. -1.
</event>
<event>
 7    1  0.1683291E-008  0.4614232E+02  0.7816164E-02  0.1320468E+00
        -11   -1    0    0    0    0  0.00000000000E+00  0.00000000000E+00  0.45593999997E+02  0.45594000000E+02  0.51100000000E-03 0. -1.
         11   -1    0    0    0    0 -0.00000000000E+00 -0.00000000000E+00 -0.45593999997E+02  0.45594000000E+02  0.51100000000E-03 0.  1.
    9900012    2    1    2    0    0 -0.21715431056E+02 -0.29781476002E+02  0.25896278197E+02  0.46142317818E+02  0.10000000515E+02 0.  0.
        -12    1    1    2    0    0  0.21715431056E+02  0.29781476002E+02 -0.25896278197E+02  0.45045682182E+02  0.00000000000E+00 0.  1.
         11    1    3    3    0    0 -0.23739411728E+01 -0.39236557331E+01  0.80967312784E+00  0.46568489174E+01  0.51100000000E-03 0. -1.
        -11    1    3    3    0    0 -0.10349895684E+02 -0.97292245526E+01  0.14015521317E+02  0.19955274719E+02  0.51100000000E-03 0.  1.
         12    1    3    3    0    0 -0.89915941999E+01 -0.16128595716E+02  0.11071083752E+02  0.21530194181E+02  0.00000000000E+00 0. -1.
</event>
<event>
 7    1  0.1683291E-008  0.4614232E+02  0.7816164E-02  0.1320468E+00
        -11   -1    0    0    0    0  0.00000000000E+00  0.00000000000E+00  0.45593999997E+02  0.45594000000E+02  0.51100000000E-03 0.  1.
         11   -1    0    0    0    0 -0.00000000000E+00 -0.00000000000E+00 -0.45593999997E+02  0.45594000000E+02  0.51100000000E-03 0. -1.
    9900012    2    1    2    0    0 -0.19237069484E+02 -0.40555379038E+02 -0.37828432605E+01  0.46142317473E+02  0.99999973711E+01 0.  0.
        -12    1    1    2    0    0  0.19237069484E+02  0.40555379038E+02  0.37828432605E+01  0.45045682527E+02  0.00000000000E+00 0.  1.
         11    1    3    3    0    0 -0.65916546788E+01 -0.18998452558E+02  0.22505733652E+00  0.20110737482E+02  0.51100000000E-03 0. -1.
        -11    1    3    3    0    0 -0.48248267543E+01 -0.55785680752E+01 -0.36713131152E+01  0.82388054492E+01  0.51100000000E-03 0.  1.
         12    1    3    3    0    0 -0.78205880505E+01 -0.15978358405E+02 -0.33658748177E+00  0.17792774542E+02  0.00000000000E+00 0. -1.
</event>
<event>
 7    1  0.1683291E-008  0.4614232E+02  0.7816164E-02  0.1320468E+00
        -11   -1    0    0    0    0  0.00000000000E+00  0.00000000000E+00  0.45593999997E+02  0.45594000000E+02  0.51100000000E-03 0.  1.
         11   -1    0    0    0    0 -0.00000000000E+00 -0.00000000000E+00 -0.45593999997E+02  0.45594000000E+02  0.51100000000E-03 0. -1.
    9900012    2    1    2    0    0  0.41841452552E+02  0.39956538369E+01 -0.16200034601E+02  0.46142317385E+02  0.99999965663E+01 0.  0.
        -12    1    1    2    0    0 -0.41841452552E+02 -0.39956538369E+01  0.16200034601E+02  0.45045682615E+02  0.00000000000E+00 0.  1.
         11    1    3    3    0    0  0.11107346283E+02  0.39200190413E+01 -0.35848694699E+01  0.12312228885E+02  0.51100000000E-03 0. -1.
        -11    1    3    3    0    0  0.14898808003E+00 -0.32584952402E+00  0.44458251912E+00  0.57098970019E+00  0.51100000000E-03 0.  1.
         12    1    3    3    0    0  0.30585118189E+02  0.40148431964E+00 -0.13059747650E+02  0.33259098799E+02  0.00000000000E+00 0. -1.
</event>
<event>
 7    1  0.1683291E-008  0.4614232E+02  0.7816164E-02  0.1320468E+00
        -11   -1    0    0    0    0  0.00000000000E+00  0.00000000000E+00  0.45593999997E+02  0.45594000000E+02  0.51100000000E-03 0.  1.
         11   -1    0    0    0    0 -0.00000000000E+00 -0.00000000000E+00 -0.45593999997E+02  0.45594000000E+02  0.51100000000E-03 0. -1.
    9900012    2    1    2    0    0 -0.27701287063E+02  0.20749873390E+02 -0.28830453719E+02  0.46142316386E+02  0.99999874578E+01 0.  0.
        -12    1    1    2    0    0  0.27701287063E+02 -0.20749873390E+02  0.28830453719E+02  0.45045683614E+02  0.00000000000E+00 0.  1.
         11    1    3    3    0    0 -0.12981138021E+02  0.86324730104E+01 -0.12126647228E+02  0.19750572342E+02  0.51100000000E-03 0. -1.
        -11    1    3    3    0    0 -0.36393666392E+01  0.72429329838E+01 -0.86353624835E+01  0.11843755875E+02  0.51100000000E-03 0.  1.
        -12    1    3    3    0    0 -0.11080782403E+02  0.48744673956E+01 -0.80684440078E+01  0.14547988169E+02  0.00000000000E+00 0.  1.
</event>
<event>
 7    1  0.1683291E-008  0.4614232E+02  0.7816164E-02  0.1320468E+00
        -11   -1    0    0    0    0  0.00000000000E+00  0.00000000000E+00  0.45593999997E+02  0.45594000000E+02  0.51100000000E-03 0.  1.
         11   -1    0    0    0    0 -0.00000000000E+00 -0.00000000000E+00 -0.45593999997E+02  0.45594000000E+02  0.51100000000E-03 0. -1.
    9900012    2    1    2    0    0  0.12336412156E+02 -0.30778567093E+02 -0.30489444595E+02  0.46142317755E+02  0.99999999472E+01 0.  0.
        -12    1    1    2    0    0 -0.12336412156E+02  0.30778567093E+02  0.30489444595E+02  0.45045682245E+02  0.00000000000E+00 0.  1.
         11    1    3    3    0    0 -0.74679535068E+00 -0.20361320158E+00 -0.78664844207E+00  0.11036202536E+01  0.51100000000E-03 0.  1.
        -11    1    3    3    0    0  0.10316781367E+02 -0.25518462045E+02 -0.21092878845E+02  0.34677621330E+02  0.51100000000E-03 0. -1.
         12    1    3    3    0    0  0.27664261404E+01 -0.50564918470E+01 -0.86099173076E+01  0.10361076172E+02  0.00000000000E+00 0. -1.
</event>
<event>
 7    1  0.1683291E-008  0.4614232E+02  0.7816164E-02  0.1320468E+00
        -11   -1    0    0    0    0  0.00000000000E+00  0.00000000000E+00  0.45593999997E+02  0.45594000000E+02  0.51100000000E-03 0.  1.
         11   -1    0    0    0    0 -0.00000000000E+00 -0.00000000000E+00 -0.45593999997E+02  0.45594000000E+02  0.51100000000E-03 0. -1.
    9900012    2    1    2    0    0  0.11414850890E+02 -0.42577440565E+02  0.92723372854E+01  0.46142317580E+02  0.99999983501E+01 0.  0.
        -12    1    1    2    0    0 -0.11414850890E+02  0.42577440565E+02 -0.92723372854E+01  0.45045682420E+02  0.00000000000E+00 0.  1.
         11    1    3    3    0    0  0.47852714036E+00 -0.14031088178E+02  0.25453207109E+01  0.14268114152E+02  0.51100000000E-03 0. -1.
        -11    1    3    3    0    0  0.22768411286E+01 -0.55029249634E+01  0.38462809668E+01  0.70894334198E+01  0.51100000000E-03 0.  1.
        -12    1    3    3    0    0  0.86594826214E+01 -0.23043427424E+02  0.28807356077E+01  0.24784770008E+02  0.00000000000E+00 0.  1.
</event>
<event>
 7    1  0.1683291E-008  0.4614232E+02  0.7816164E-02  0.1320468E+00
        -11   -1    0    0    0    0  0.00000000000E+00  0.00000000000E+00  0.45593999997E+02  0.45594000000E+02  0.51100000000E-03 0. -1.
         11   -1    0    0    0    0 -0.00000000000E+00 -0.00000000000E+00 -0.45593999997E+02  0.45594000000E+02  0.51100000000E-03 0.  1.
    9900012    2    1    2    0    0 -0.24283443076E+02  0.28882347566E+02  0.24601584031E+02  0.46142317128E+02  0.99999942274E+01 0.  0.
        -12    1    1    2    0    0  0.24283443076E+02 -0.28882347566E+02 -0.24601584031E+02  0.45045682872E+02  0.00000000000E+00 0.  1.
         11    1    3    3    0    0 -0.63374317429E+01  0.59250079506E+01  0.62891351983E+01  0.10715501953E+02  0.51100000000E-03 0. -1.
        -11    1    3    3    0    0 -0.17316924980E+02  0.20213587748E+02  0.13483714461E+02  0.29837486093E+02  0.51100000000E-03 0.  1.
        -12    1    3    3    0    0 -0.62908635275E+00  0.27437518676E+01  0.48287343717E+01  0.55893290816E+01  0.00000000000E+00 0.  1.
</event>
<event>
 7    1  0.1683291E-008  0.4614232E+02  0.7816164E-02  0.1320468E+00
        -11   -1    0    0    0    0  0.00000000000E+00  0.00000000000E+00  0.45593999997E+02  0.45594000000E+02  0.51100000000E-03 0. -1.
         11   -1    0    0    0    0 -0.00000000000E+00 -0.00000000000E+00 -0.45593999997E+02  0.45594000000E+02  0.51100000000E-03 0.  1.
    9900012    2    1    2    0    0  0.56169622379E+01 -0.29168600729E+02  0.33863786107E+02  0.46142317157E+02  0.99999944953E+01 0.  0.
        -12    1    1    2    0    0 -0.56169622379E+01  0.29168600729E+02 -0.33863786107E+02  0.45045682843E+02  0.00000000000E+00 0.  1.
         11    1    3    3    0    0  0.26348898620E+01 -0.97150289998E+01  0.18188883733E+02  0.20788456527E+02  0.51100000000E-03 0. -1.
        -11    1    3    3    0    0  0.18124038348E+00 -0.39110085224E+00 -0.11164356653E+00  0.44527800338E+00  0.51100000000E-03 0.  1.
         12    1    3    3    0    0  0.28008319924E+01 -0.19062470876E+02  0.15786545941E+02  0.24908582627E+02  0.00000000000E+00 0. -1.
</event>
<event>
 7    1  0.1683291E-008  0.4614233E+02  0.7816164E-02  0.1320468E+00
        -11   -1    0    0    0    0  0.00000000000E+00  0.00000000000E+00  0.45593999997E+02  0.45594000000E+02  0.51100000000E-03 0.  1.
         11   -1    0    0    0    0 -0.00000000000E+00 -0.00000000000E+00 -0.45593999997E+02  0.45594000000E+02  0.51100000000E-03 0. -1.
    9900012    2    1    2    0    0 -0.27789679120E+02 -0.35172338710E+02 -0.44444523456E+01  0.46142325040E+02  0.10000066378E+02 0.  0.
        -12    1    1    2    0    0  0.27789679120E+02  0.35172338710E+02  0.44444523456E+01  0.45045674960E+02  0.00000000000E+00 0.  1.
         11    1    3    3    0    0 -0.28029687606E+01 -0.66158265209E+01 -0.11893938874E+01  0.72828876490E+01  0.51100000000E-03 0.  1.
        -11    1    3    3    0    0 -0.15158700045E+02 -0.17547349755E+02  0.18047113154E+01  0.23258388888E+02  0.51100000000E-03 0. -1.
         12    1    3    3    0    0 -0.98280103149E+01 -0.11009162434E+02 -0.50597697736E+01  0.15601048503E+02  0.00000000000E+00 0. -1.
</event>
<event>
 7    1  0.1683291E-008  0.4614232E+02  0.7816164E-02  0.1320468E+00
        -11   -1    0    0    0    0  0.00000000000E+00  0.00000000000E+00  0.45593999997E+02  0.45594000000E+02  0.51100000000E-03 0.  1.
         11   -1    0    0    0    0 -0.00000000000E+00 -0.00000000000E+00 -0.45593999997E+02  0.45594000000E+02  0.51100000000E-03 0. -1.
    9900012    2    1    2    0    0  0.26975586812E+02  0.35333186636E+02 -0.72799122823E+01  0.46142317803E+02  0.10000000386E+02 0.  0.
        -12    1    1    2    0    0 -0.26975586812E+02 -0.35333186636E+02  0.72799122823E+01  0.45045682197E+02  0.00000000000E+00 0.  1.
         11    1    3    3    0    0  0.53493657527E+01  0.30435569538E+01  0.10753462356E+00  0.61555273408E+01  0.51100000000E-03 0. -1.
        -11    1    3    3    0    0  0.89941183656E+01  0.18307528780E+02 -0.49212087712E+01  0.20982804180E+02  0.51100000000E-03 0.  1.
         12    1    3    3    0    0  0.12632102693E+02  0.13982100902E+02 -0.24662381347E+01  0.19003986283E+02  0.00000000000E+00 0. -1.
</event>
<event>
 7    1  0.1683291E-008  0.4614232E+02  0.7816164E-02  0.1320468E+00
        -11   -1    0    0    0    0  0.00000000000E+00  0.00000000000E+00  0.45593999997E+02  0.45594000000E+02  0.51100000000E-03 0.  1.
         11   -1    0    0    0    0 -0.00000000000E+00 -0.00000000000E+00 -0.45593999997E+02  0.45594000000E+02  0.51100000000E-03 0. -1.
    9900012    2    1    2    0    0  0.33803371760E+02  0.28893872621E+02  0.71825990007E+01  0.46142317124E+02  0.99999941876E+01 0.  0.
        -12    1    1    2    0    0 -0.33803371760E+02 -0.28893872621E+02 -0.71825990007E+01  0.45045682876E+02  0.00000000000E+00 0.  1.
         11    1    3    3    0    0  0.85631976696E+01  0.73912454879E+01  0.37010973953E+00  0.11317943527E+02  0.51100000000E-03 0.  1.
        -11    1    3    3    0    0  0.17463399838E+02  0.17987900115E+02  0.23138941898E+01  0.25177152163E+02  0.51100000000E-03 0. -1.
        -12    1    3    3    0    0  0.77767742521E+01  0.35147270182E+01  0.44985950714E+01  0.96472214340E+01  0.00000000000E+00 0.  1.
</event>
<event>
 7    1  0.1683291E-008  0.4614232E+02  0.7816164E-02  0.1320468E+00
        -11   -1    0    0    0    0  0.00000000000E+00  0.00000000000E+00  0.45593999997E+02  0.45594000000E+02  0.51100000000E-03 0.  1.
         11   -1    0    0    0    0 -0.00000000000E+00 -0.00000000000E+00 -0.45593999997E+02  0.45594000000E+02  0.51100000000E-03 0. -1.
    9900012    2    1    2    0    0  0.43170848795E+02  0.31991788869E+01 -0.12456188565E+02  0.46142316912E+02  0.99999922607E+01 0.  0.
        -12    1    1    2    0    0 -0.43170848795E+02 -0.31991788869E+01  0.12456188565E+02  0.45045683088E+02  0.00000000000E+00 0.  1.
         11    1    3    3    0    0  0.36418402276E+02 -0.92384099887E+00 -0.10396290706E+02  0.37884513554E+02  0.51100000000E-03 0. -1.
        -11    1    3    3    0    0  0.18519078746E+01  0.11023061492E+01 -0.35313830711E-01  0.21554324277E+01  0.51100000000E-03 0.  1.
         12    1    3    3    0    0  0.49005386451E+01  0.30207137365E+01 -0.20245840286E+01  0.61023709310E+01  0.00000000000E+00 0. -1.
</event>
<event>
 7    1  0.1683291E-008  0.4614232E+02  0.7816164E-02  0.1320468E+00
        -11   -1    0    0    0    0  0.00000000000E+00  0.00000000000E+00  0.45593999997E+02  0.45594000000E+02  0.51100000000E-03 0.  1.
         11   -1    0    0    0    0 -0.00000000000E+00 -0.00000000000E+00 -0.45593999997E+02  0.45594000000E+02  0.51100000000E-03 0. -1.
    9900012    2    1    2    0    0 -0.87916677658E+01 -0.21627735487E+02 -0.38523511984E+02  0.46142319408E+02  0.10000015017E+02 0.  0.
        -12    1    1    2    0    0  0.87916677658E+01  0.21627735487E+02  0.38523511984E+02  0.45045680592E+02  0.00000000000E+00 0.  1.
         11    1    3    3    0    0  0.36270816766E+00 -0.27681675179E+01 -0.13837525946E+01  0.31159396859E+01  0.51100000000E-03 0. -1.
        -11    1    3    3    0    0 -0.32209604041E+01 -0.46298405858E+01 -0.15189447116E+02  0.16202756362E+02  0.51100000000E-03 0.  1.
         12    1    3    3    0    0 -0.59334155294E+01 -0.14229727384E+02 -0.21950312274E+02  0.26823623360E+02  0.00000000000E+00 0. -1.
</event>
<event>
 7    1  0.1683291E-008  0.4614232E+02  0.7816164E-02  0.1320468E+00
        -11   -1    0    0    0    0  0.00000000000E+00  0.00000000000E+00  0.45593999997E+02  0.45594000000E+02  0.51100000000E-03 0.  1.
         11   -1    0    0    0    0 -0.00000000000E+00 -0.00000000000E+00 -0.45593999997E+02  0.45594000000E+02  0.51100000000E-03 0. -1.
    9900012    2    1    2    0    0 -0.25652551712E+01  0.44276473860E+02 -0.78820469955E+01  0.46142319447E+02  0.10000015377E+02 0.  0.
        -12    1    1    2    0    0  0.25652551712E+01 -0.44276473860E+02  0.78820469955E+01  0.45045680553E+02  0.00000000000E+00 0.  1.
         11    1    3    3    0    0 -0.20471874730E+00  0.22365533255E+02 -0.45026866381E+01  0.22815196137E+02  0.51100000000E-03 0. -1.
        -11    1    3    3    0    0 -0.25219797921E+01  0.22832387024E+01  0.44991807443E-01  0.34022912232E+01  0.51100000000E-03 0.  1.
        -12    1    3    3    0    0  0.16144336817E+00  0.19627701903E+02 -0.34243521648E+01  0.19924832087E+02  0.00000000000E+00 0.  1.
</event>
<event>
 7    1  0.1683291E-008  0.4614232E+02  0.7816164E-02  0.1320468E+00
        -11   -1    0    0    0    0  0.00000000000E+00  0.00000000000E+00  0.45593999997E+02  0.45594000000E+02  0.51100000000E-03 0.  1.
         11   -1    0    0    0    0 -0.00000000000E+00 -0.00000000000E+00 -0.45593999997E+02  0.45594000000E+02  0.51100000000E-03 0. -1.
    9900012    2    1    2    0    0 -0.25981145963E+02  0.45836161436E+00 -0.36795154354E+02  0.46142318466E+02  0.10000006429E+02 0.  0.
        -12    1    1    2    0    0  0.25981145963E+02 -0.45836161436E+00  0.36795154354E+02  0.45045681534E+02  0.00000000000E+00 0.  1.
         11    1    3    3    0    0 -0.19890346017E+02 -0.10908638384E+00 -0.32536538849E+02  0.38134815131E+02  0.51100000000E-03 0. -1.
        -11    1    3    3    0    0 -0.28925075938E+01 -0.11936552752E+01 -0.18987670557E+01  0.36601543258E+01  0.51100000000E-03 0.  1.
         12    1    3    3    0    0 -0.31982923517E+01  0.17611032734E+01 -0.23598484497E+01  0.43473490097E+01  0.00000000000E+00 0. -1.
</event>
<event>
 7    1  0.1683291E-008  0.4614232E+02  0.7816164E-02  0.1320468E+00
        -11   -1    0    0    0    0  0.00000000000E+00  0.00000000000E+00  0.45593999997E+02  0.45594000000E+02  0.51100000000E-03 0. -1.
         11   -1    0    0    0    0 -0.00000000000E+00 -0.00000000000E+00 -0.45593999997E+02  0.45594000000E+02  0.51100000000E-03 0.  1.
    9900012    2    1    2    0    0  0.19400019564E+01  0.43508075885E+02  0.11506398567E+02  0.46142317823E+02  0.10000000566E+02 0.  0.
        -12    1    1    2    0    0 -0.19400019564E+01 -0.43508075885E+02 -0.11506398567E+02  0.45045682177E+02  0.00000000000E+00 0.  1.
         11    1    3    3    0    0 -0.23062867249E+01  0.23128081441E+02  0.81245267048E+01  0.24621840793E+02  0.51100000000E-03 0. -1.
        -11    1    3    3    0    0  0.50845643830E+01  0.17325431604E+02  0.24696094892E+01  0.18224224168E+02  0.51100000000E-03 0.  1.
        -12    1    3    3    0    0 -0.83827570165E+00  0.30545628398E+01  0.91226237322E+00  0.32962528623E+01  0.00000000000E+00 0.  1.
</event>
<event>
 7    1  0.1683291E-008  0.4614232E+02  0.7816164E-02  0.1320468E+00
        -11   -1    0    0    0    0  0.00000000000E+00  0.00000000000E+00  0.45593999997E+02  0.45594000000E+02  0.51100000000E-03 0.  1.
         11   -1    0    0    0    0 -0.00000000000E+00 -0.00000000000E+00 -0.45593999997E+02  0.45594000000E+02  0.51100000000E-03 0. -1.
    9900012    2    1    2    0    0  0.43423002042E+02 -0.17093067550E+01  0.11858956139E+02  0.46142315672E+02  0.99999809487E+01 0.  0.
        -12    1    1    2    0    0 -0.43423002042E+02  0.17093067550E+01 -0.11858956139E+02  0.45045684328E+02  0.00000000000E+00 0.  1.
         11    1    3    3    0    0  0.22392732526E+02  0.84329075456E+00  0.10334440939E+02  0.24676836894E+02  0.51100000000E-03 0. -1.
        -11    1    3    3    0    0  0.94311327833E+01 -0.14883583503E+01 -0.82356409654E+00  0.95833049746E+01  0.51100000000E-03 0.  1.
        -12    1    3    3    0    0  0.11599136732E+02 -0.10642391593E+01  0.23480792958E+01  0.11882173804E+02  0.00000000000E+00 0.  1.
</event>
<event>
 7    1  0.2012495E-008  0.4614232E+02  0.7816164E-02  0.1320468E+00
        -11   -1    0    0    0    0  0.00000000000E+00  0.00000000000E+00  0.45593999997E+02  0.45594000000E+02  0.51100000000E-03 0. -1.
         11   -1    0    0    0    0 -0.00000000000E+00 -0.00000000000E+00 -0.45593999997E+02  0.45594000000E+02  0.51100000000E-03 0.  1.
    9900012    2    1    2    0    0 -0.26787730101E+01 -0.42781294021E+02  0.13845523894E+02  0.46142317911E+02  0.10000001365E+02 0.  0.
        -12    1    1    2    0    0  0.26787730101E+01  0.42781294021E+02 -0.13845523894E+02  0.45045682089E+02  0.00000000000E+00 0.  1.
         11    1    3    3    0    0 -0.58998428862E+01 -0.31498356719E+02  0.10608371292E+02  0.33756364790E+02  0.51100000000E-03 0. -1.
        -11    1    3    3    0    0  0.30303278044E+01 -0.11196790562E+02  0.28480546300E+01  0.11944137513E+02  0.51100000000E-03 0.  1.
         12    1    3    3    0    0  0.19074207166E+00 -0.86146739460E-01  0.38909797288E+00  0.44181560761E+00  0.00000000000E+00 0. -1.
</event>
<event>
 7    1  0.1683291E-008  0.4614232E+02  0.7816164E-02  0.1320468E+00
        -11   -1    0    0    0    0  0.00000000000E+00  0.00000000000E+00  0.45593999997E+02  0.45594000000E+02  0.51100000000E-03 0.  1.
         11   -1    0    0    0    0 -0.00000000000E+00 -0.00000000000E+00 -0.45593999997E+02  0.45594000000E+02  0.51100000000E-03 0. -1.
    9900012    2    1    2    0    0 -0.15069532342E+02 -0.41706415617E+02 -0.79118765384E+01  0.46142315424E+02  0.99999786843E+01 0.  0.
        -12    1    1    2    0    0  0.15069532342E+02  0.41706415617E+02  0.79118765384E+01  0.45045684576E+02  0.00000000000E+00 0.  1.
         11    1    3    3    0    0 -0.20270441564E+01 -0.18411926993E+01 -0.20608278103E+01  0.34272306740E+01  0.51100000000E-03 0. -1.
        -11    1    3    3    0    0 -0.11741436020E+02 -0.29969110305E+02 -0.29565602098E+01  0.32322594896E+02  0.51100000000E-03 0.  1.
         12    1    3    3    0    0 -0.13010521666E+01 -0.98961126126E+01 -0.28944885183E+01  0.10392489854E+02  0.00000000000E+00 0. -1.
</event>
<event>
 7    1  0.1683291E-008  0.4614232E+02  0.7816164E-02  0.1320468E+00
        -11   -1    0    0    0    0  0.00000000000E+00  0.00000000000E+00  0.45593999997E+02  0.45594000000E+02  0.51100000000E-03 0. -1.
         11   -1    0    0    0    0 -0.00000000000E+00 -0.00000000000E+00 -0.45593999997E+02  0.45594000000E+02  0.51100000000E-03 0.  1.
    9900012    2    1    2    0    0  0.42163302463E+02 -0.14910947394E+02  0.53882253327E+01  0.46142318752E+02  0.10000009040E+02 0.  0.
        -12    1    1    2    0    0 -0.42163302463E+02  0.14910947394E+02 -0.53882253327E+01  0.45045681248E+02  0.00000000000E+00 0.  1.
         11    1    3    3    0    0  0.28281365874E+02 -0.99751183358E+01  0.41004789407E+01  0.30268012312E+02  0.51100000000E-03 0. -1.
        -11    1    3    3    0    0  0.12767970726E+01 -0.18884742978E+01 -0.13374796674E+01  0.26429903632E+01  0.51100000000E-03 0.  1.
        -12    1    3    3    0    0  0.12605139517E+02 -0.30473547605E+01  0.26252260594E+01  0.13231316078E+02  0.00000000000E+00 0.  1.
</event>
<event>
 7    1  0.1683291E-008  0.4614232E+02  0.7816164E-02  0.1320468E+00
        -11   -1    0    0    0    0  0.00000000000E+00  0.00000000000E+00  0.45593999997E+02  0.45594000000E+02  0.51100000000E-03 0.  1.
         11   -1    0    0    0    0 -0.00000000000E+00 -0.00000000000E+00 -0.45593999997E+02  0.45594000000E+02  0.51100000000E-03 0. -1.
    9900012    2    1    2    0    0  0.19162625470E+01  0.12786242762E+02 -0.43150357999E+02  0.46142318059E+02  0.10000002714E+02 0.  0.
        -12    1    1    2    0    0 -0.19162625470E+01 -0.12786242762E+02  0.43150357999E+02  0.45045681941E+02  0.00000000000E+00 0.  1.
         11    1    3    3    0    0 -0.26338090195E+01  0.61225717967E+01 -0.14595041437E+02  0.16044876757E+02  0.51100000000E-03 0. -1.
        -11    1    3    3    0    0  0.42879007169E+01  0.67160323964E+01 -0.19871685094E+02  0.21409695291E+02  0.51100000000E-03 0.  1.
        -12    1    3    3    0    0  0.26217084966E+00 -0.52361430614E-01 -0.86836314682E+01  0.86877460109E+01  0.00000000000E+00 0.  1.
</event>
<event>
 7    1  0.1683291E-008  0.4614232E+02  0.7816164E-02  0.1320468E+00
        -11   -1    0    0    0    0  0.00000000000E+00  0.00000000000E+00  0.45593999997E+02  0.45594000000E+02  0.51100000000E-03 0.  1.
         11   -1    0    0    0    0 -0.00000000000E+00 -0.00000000000E+00 -0.45593999997E+02  0.45594000000E+02  0.51100000000E-03 0. -1.
    9900012    2    1    2    0    0  0.45211519711E-01 -0.12804592941E+02 -0.43187426381E+02  0.46142318277E+02  0.10000004701E+02 0.  0.
        -12    1    1    2    0    0 -0.45211519711E-01  0.12804592941E+02  0.43187426381E+02  0.45045681723E+02  0.00000000000E+00 0.  1.
         11    1    3    3    0    0 -0.25533754893E+01  0.38428882488E+00 -0.69022355152E+01  0.73694137934E+01  0.51100000000E-03 0. -1.
        -11    1    3    3    0    0  0.89420101704E+00 -0.10692790268E+01 -0.29718495107E+01  0.32825055783E+01  0.51100000000E-03 0.  1.
         12    1    3    3    0    0  0.17043859919E+01 -0.12119602740E+02 -0.33313341355E+02  0.35490398905E+02  0.00000000000E+00 0. -1.
</event>
<event>
 7    1  0.1683291E-008  0.4614232E+02  0.7816164E-02  0.1320468E+00
        -11   -1    0    0    0    0  0.00000000000E+00  0.00000000000E+00  0.45593999997E+02  0.45594000000E+02  0.51100000000E-03 0.  1.
         11   -1    0    0    0    0 -0.00000000000E+00 -0.00000000000E+00 -0.45593999997E+02  0.45594000000E+02  0.51100000000E-03 0. -1.
    9900012    2    1    2    0    0 -0.38736504841E+01  0.43820755248E+02  0.96876129567E+01  0.46142316484E+02  0.99999883574E+01 0.  0.
        -12    1    1    2    0    0  0.38736504841E+01 -0.43820755248E+02 -0.96876129567E+01  0.45045683516E+02  0.00000000000E+00 0.  1.
         11    1    3    3    0    0 -0.52366849755E+01  0.21954179019E+02  0.22348344261E+01  0.22680461439E+02  0.51100000000E-03 0. -1.
        -11    1    3    3    0    0  0.31673437161E+00  0.91384551889E+01  0.51190323805E+01  0.10479321384E+02  0.51100000000E-03 0.  1.
         12    1    3    3    0    0  0.10463001198E+01  0.12728121040E+02  0.23337461501E+01  0.12982533661E+02  0.00000000000E+00 0. -1.
</event>
<event>
 7    1  0.1683291E-008  0.4614232E+02  0.7816164E-02  0.1320468E+00
        -11   -1    0    0    0    0  0.00000000000E+00  0.00000000000E+00  0.45593999997E+02  0.45594000000E+02  0.51100000000E-03 0.  1.
         11   -1    0    0    0    0 -0.00000000000E+00 -0.00000000000E+00 -0.45593999997E+02  0.45594000000E+02  0.51100000000E-03 0. -1.
    9900012    2    1    2    0    0 -0.89326634588E+01  0.16512227786E+02 -0.40947128297E+02  0.46142318091E+02  0.10000003006E+02 0.  0.
        -12    1    1    2    0    0  0.89326634588E+01 -0.16512227786E+02  0.40947128297E+02  0.45045681909E+02  0.00000000000E+00 0.  1.
         11    1    3    3    0    0 -0.70969969952E+01  0.73947759179E+01 -0.12768490408E+02  0.16373283873E+02  0.51100000000E-03 0. -1.
        -11    1    3    3    0    0 -0.20049405374E+00  0.64749910425E+01 -0.18265134393E+02  0.19379908192E+02  0.51100000000E-03 0.  1.
         12    1    3    3    0    0 -0.16351724098E+01  0.26424608252E+01 -0.99135034957E+01  0.10389126026E+02  0.00000000000E+00 0. -1.
</event>
<event>
 7    1  0.1683291E-008  0.4614232E+02  0.7816164E-02  0.1320468E+00
        -11   -1    0    0    0    0  0.00000000000E+00  0.00000000000E+00  0.45593999997E+02  0.45594000000E+02  0.51100000000E-03 0.  1.
         11   -1    0    0    0    0 -0.00000000000E+00 -0.00000000000E+00 -0.45593999997E+02  0.45594000000E+02  0.51100000000E-03 0. -1.
    9900012    2    1    2    0    0 -0.22563388952E+02  0.12713191056E+02 -0.36856230045E+02  0.46142318287E+02  0.10000004799E+02 0.  0.
        -12    1    1    2    0    0  0.22563388952E+02 -0.12713191056E+02  0.36856230045E+02  0.45045681713E+02  0.00000000000E+00 0.  1.
         11    1    3    3    0    0 -0.37560859852E+01  0.55216805553E+01 -0.59433265831E+01  0.89398137127E+01  0.51100000000E-03 0. -1.
        -11    1    3    3    0    0 -0.58720998573E+00 -0.47243899654E+00 -0.41807347877E+00  0.86185838023E+00  0.51100000000E-03 0.  1.
         12    1    3    3    0    0 -0.18220092981E+02  0.76639494973E+01 -0.30494829983E+02  0.36340646195E+02  0.00000000000E+00 0. -1.
</event>
<event>
 7    1  0.1683291E-008  0.4614232E+02  0.7816164E-02  0.1320468E+00
        -11   -1    0    0    0    0  0.00000000000E+00  0.00000000000E+00  0.45593999997E+02  0.45594000000E+02  0.51100000000E-03 0.  1.
         11   -1    0    0    0    0 -0.00000000000E+00 -0.00000000000E+00 -0.45593999997E+02  0.45594000000E+02  0.51100000000E-03 0. -1.
    9900012    2    1    2    0    0  0.27006476720E+02  0.24120364891E+02 -0.26794994780E+02  0.46142317271E+02  0.99999955282E+01 0.  0.
        -12    1    1    2    0    0 -0.27006476720E+02 -0.24120364891E+02  0.26794994780E+02  0.45045682729E+02  0.00000000000E+00 0.  1.
         11    1    3    3    0    0  0.15120908974E+02  0.11290524730E+02 -0.15368805050E+02  0.24337584223E+02  0.51100000000E-03 0. -1.
        -11    1    3    3    0    0  0.85972558759E+01  0.11375036098E+02 -0.64103979573E+01  0.15633216466E+02  0.51100000000E-03 0.  1.
        -12    1    3    3    0    0  0.32883118701E+01  0.14548040624E+01 -0.50157917732E+01  0.61715165824E+01  0.00000000000E+00 0.  1.
</event>
<event>
 7    1  0.1683291E-008  0.4614231E+02  0.7816164E-02  0.1320468E+00
        -11   -1    0    0    0    0  0.00000000000E+00  0.00000000000E+00  0.45593999997E+02  0.45594000000E+02  0.51100000000E-03 0. -1.
         11   -1    0    0    0    0 -0.00000000000E+00 -0.00000000000E+00 -0.45593999997E+02  0.45594000000E+02  0.51100000000E-03 0.  1.
    9900012    2    1    2    0    0 -0.37504267095E+02  0.10418429148E+02  0.22671569164E+02  0.46142314695E+02  0.99999720413E+01 0.  0.
        -12    1    1    2    0    0  0.37504267095E+02 -0.10418429148E+02 -0.22671569164E+02  0.45045685305E+02  0.00000000000E+00 0.  1.
         11    1    3    3    0    0 -0.23534461327E+02  0.25361160540E+01  0.12607156161E+02  0.26818708793E+02  0.51100000000E-03 0. -1.
        -11    1    3    3    0    0 -0.59273522905E+01  0.50189422837E+01  0.33319257336E+01  0.84513322132E+01  0.51100000000E-03 0.  1.
        -12    1    3    3    0    0 -0.80424534772E+01  0.28633708108E+01  0.67324872697E+01  0.10872273689E+02  0.00000000000E+00 0.  1.
</event>
<event>
 7    1  0.1922154E-008  0.4614232E+02  0.7816164E-02  0.1320468E+00
        -11   -1    0    0    0    0  0.00000000000E+00  0.00000000000E+00  0.45593999997E+02  0.45594000000E+02  0.51100000000E-03 0.  1.
         11   -1    0    0    0    0 -0.00000000000E+00 -0.00000000000E+00 -0.45593999997E+02  0.45594000000E+02  0.51100000000E-03 0. -1.
    9900012    2    1    2    0    0  0.19527402507E+02  0.37337648521E+02 -0.15927773769E+02  0.46142318487E+02  0.10000006617E+02 0.  0.
        -12    1    1    2    0    0 -0.19527402507E+02 -0.37337648521E+02  0.15927773769E+02  0.45045681513E+02  0.00000000000E+00 0.  1.
         11    1    3    3    0    0  0.86231280937E+01  0.23764017879E+02 -0.12584683471E+02  0.28239354493E+02  0.51100000000E-03 0. -1.
        -11    1    3    3    0    0  0.60800821218E+01  0.62818449301E+01 -0.70634018062E+00  0.87708546360E+01  0.51100000000E-03 0.  1.
         12    1    3    3    0    0  0.48241922914E+01  0.72917857125E+01 -0.26367501166E+01  0.91321093576E+01  0.00000000000E+00 0. -1.
</event>
<event>
 7    1  0.1683291E-008  0.4614232E+02  0.7816164E-02  0.1320468E+00
        -11   -1    0    0    0    0  0.00000000000E+00  0.00000000000E+00  0.45593999997E+02  0.45594000000E+02  0.51100000000E-03 0.  1.
         11   -1    0    0    0    0 -0.00000000000E+00 -0.00000000000E+00 -0.45593999997E+02  0.45594000000E+02  0.51100000000E-03 0. -1.
    9900012    2    1    2    0    0  0.31048303189E+02 -0.31591552317E+02 -0.81908580376E+01  0.46142318031E+02  0.10000002457E+02 0.  0.
        -12    1    1    2    0    0 -0.31048303189E+02  0.31591552317E+02  0.81908580376E+01  0.45045681969E+02  0.00000000000E+00 0.  1.
         11    1    3    3    0    0  0.83535285990E+01 -0.96542403420E+01 -0.54774765625E+01  0.13892031759E+02  0.51100000000E-03 0. -1.
        -11    1    3    3    0    0 -0.35306012978E+00 -0.24711616333E+00 -0.26653664393E+00  0.50671480844E+00  0.51100000000E-03 0.  1.
         12    1    3    3    0    0  0.23047834720E+02 -0.21690195811E+02 -0.24468448311E+01  0.31743571463E+02  0.00000000000E+00 0. -1.
</event>
<event>
 7    1  0.1683291E-008  0.4614232E+02  0.7816164E-02  0.1320468E+00
        -11   -1    0    0    0    0  0.00000000000E+00  0.00000000000E+00  0.45593999997E+02  0.45594000000E+02  0.51100000000E-03 0.  1.
         11   -1    0    0    0    0 -0.00000000000E+00 -0.00000000000E+00 -0.45593999997E+02  0.45594000000E+02  0.51100000000E-03 0. -1.
    9900012    2    1    2    0    0  0.19793481299E+02 -0.14047837034E+02 -0.37947201598E+02  0.46142315009E+02  0.99999749009E+01 0.  0.
        -12    1    1    2    0    0 -0.19793481299E+02  0.14047837034E+02  0.37947201598E+02  0.45045684991E+02  0.00000000000E+00 0.  1.
         11    1    3    3    0    0  0.82507261548E+01 -0.41208987099E+01 -0.90189041969E+01  0.12899493069E+02  0.51100000000E-03 0. -1.
        -11    1    3    3    0    0  0.14661481821E+01 -0.49040938521E+01 -0.89409847979E+01  0.10302472345E+02  0.51100000000E-03 0.  1.
         12    1    3    3    0    0  0.10076606962E+02 -0.50228444718E+01 -0.19987312603E+02  0.22940349595E+02  0.00000000000E+00 0. -1.
</event>
<event>
 7    1  0.1683291E-008  0.4614232E+02  0.7816164E-02  0.1320468E+00
        -11   -1    0    0    0    0  0.00000000000E+00  0.00000000000E+00  0.45593999997E+02  0.45594000000E+02  0.51100000000E-03 0. -1.
         11   -1    0    0    0    0 -0.00000000000E+00 -0.00000000000E+00 -0.45593999997E+02  0.45594000000E+02  0.51100000000E-03 0.  1.
    9900012    2    1    2    0    0 -0.18663109749E+02 -0.40707881198E+02 -0.48652020980E+01  0.46142318203E+02  0.10000004027E+02 0.  0.
        -12    1    1    2    0    0  0.18663109749E+02  0.40707881198E+02  0.48652020980E+01  0.45045681797E+02  0.00000000000E+00 0.  1.
         11    1    3    3    0    0 -0.26784936235E+01 -0.10851522212E+02 -0.21003066970E+01  0.11372825106E+02  0.51100000000E-03 0. -1.
        -11    1    3    3    0    0  0.68403301724E-01 -0.32786729543E+01 -0.17184156401E+01  0.37023408711E+01  0.51100000000E-03 0.  1.
        -12    1    3    3    0    0 -0.16053019427E+02 -0.26577686032E+02 -0.10464797610E+01  0.31067152226E+02  0.00000000000E+00 0.  1.
</event>
<event>
 7    1  0.1683291E-008  0.4614232E+02  0.7816164E-02  0.1320468E+00
        -11   -1    0    0    0    0  0.00000000000E+00  0.00000000000E+00  0.45593999997E+02  0.45594000000E+02  0.51100000000E-03 0.  1.
         11   -1    0    0    0    0 -0.00000000000E+00 -0.00000000000E+00 -0.45593999997E+02  0.45594000000E+02  0.51100000000E-03 0. -1.
    9900012    2    1    2    0    0 -0.80350043004E+01 -0.18210890324E+02 -0.40409350362E+02  0.46142318551E+02  0.10000007206E+02 0.  0.
        -12    1    1    2    0    0  0.80350043004E+01  0.18210890324E+02  0.40409350362E+02  0.45045681449E+02  0.00000000000E+00 0.  1.
         11    1    3    3    0    0 -0.88156679408E+01 -0.11210142512E+02 -0.22559432453E+02  0.26689160519E+02  0.51100000000E-03 0. -1.
        -11    1    3    3    0    0  0.16358679686E+01 -0.21770484969E+01 -0.48720222109E+01  0.55814160258E+01  0.51100000000E-03 0.  1.
         12    1    3    3    0    0 -0.85520432809E+00 -0.48236993151E+01 -0.12977895698E+02  0.13871742006E+02  0.00000000000E+00 0. -1.
</event>
<event>
 7    1  0.1683291E-008  0.4614232E+02  0.7816164E-02  0.1320468E+00
        -11   -1    0    0    0    0  0.00000000000E+00  0.00000000000E+00  0.45593999997E+02  0.45594000000E+02  0.51100000000E-03 0.  1.
         11   -1    0    0    0    0 -0.00000000000E+00 -0.00000000000E+00 -0.45593999997E+02  0.45594000000E+02  0.51100000000E-03 0. -1.
    9900012    2    1    2    0    0 -0.15263954815E+01  0.43712553756E+02 -0.10770156654E+02  0.46142317483E+02  0.99999974645E+01 0.  0.
        -12    1    1    2    0    0  0.15263954815E+01 -0.43712553756E+02  0.10770156654E+02  0.45045682517E+02  0.00000000000E+00 0.  1.
         11    1    3    3    0    0 -0.18515318433E+01  0.36074833259E+01  0.70285957891E+00  0.41153514992E+01  0.51100000000E-03 0. -1.
        -11    1    3    3    0    0  0.14032908995E+01  0.60340691100E+01 -0.30914425185E+01  0.69235996763E+01  0.51100000000E-03 0.  1.
         12    1    3    3    0    0 -0.10781545376E+01  0.34071001320E+02 -0.83815737144E+01  0.35103366307E+02  0.00000000000E+00 0. -1.
</event>
<event>
 7    1  0.1683291E-008  0.4614232E+02  0.7816164E-02  0.1320468E+00
        -11   -1    0    0    0    0  0.00000000000E+00  0.00000000000E+00  0.45593999997E+02  0.45594000000E+02  0.51100000000E-03 0.  1.
         11   -1    0    0    0    0 -0.00000000000E+00 -0.00000000000E+00 -0.45593999997E+02  0.45594000000E+02  0.51100000000E-03 0. -1.
    9900012    2    1    2    0    0 -0.24376635550E+02  0.20320092011E+02 -0.31968531323E+02  0.46142317687E+02  0.99999993247E+01 0.  0.
        -12    1    1    2    0    0  0.24376635550E+02 -0.20320092011E+02  0.31968531323E+02  0.45045682313E+02  0.00000000000E+00 0.  1.
         11    1    3    3    0    0 -0.30455052796E+01  0.33271276965E+01 -0.70395783967E+01  0.83606546024E+01  0.51100000000E-03 0. -1.
        -11    1    3    3    0    0 -0.16339439804E+02  0.13725800887E+02 -0.14608097981E+02  0.25860615422E+02  0.51100000000E-03 0.  1.
        -12    1    3    3    0    0 -0.49916904660E+01  0.32671634278E+01 -0.10320854946E+02  0.11921047663E+02  0.00000000000E+00 0.  1.
</event>
<event>
 7    1  0.1683291E-008  0.4614232E+02  0.7816164E-02  0.1320468E+00
        -11   -1    0    0    0    0  0.00000000000E+00  0.00000000000E+00  0.45593999997E+02  0.45594000000E+02  0.51100000000E-03 0.  1.
         11   -1    0    0    0    0 -0.00000000000E+00 -0.00000000000E+00 -0.45593999997E+02  0.45594000000E+02  0.51100000000E-03 0. -1.
    9900012    2    1    2    0    0  0.31718322664E+01  0.44931573455E+02  0.45463794929E+00  0.46142317535E+02  0.99999979346E+01 0.  0.
        -12    1    1    2    0    0 -0.31718322664E+01 -0.44931573455E+02 -0.45463794929E+00  0.45045682465E+02  0.00000000000E+00 0.  1.
         11    1    3    3    0    0  0.32420458821E+01  0.40152494949E+02  0.33958823788E+01  0.40426052609E+02  0.51100000000E-03 0. -1.
        -11    1    3    3    0    0  0.46368825586E+00  0.32117078522E+01 -0.19927460109E+01  0.38080324384E+01  0.51100000000E-03 0.  1.
         12    1    3    3    0    0 -0.53390187154E+00  0.15673706540E+01 -0.94849841863E+00  0.19082324873E+01  0.00000000000E+00 0. -1.
</event>
<event>
 7    1  0.1683291E-008  0.4614232E+02  0.7816164E-02  0.1320468E+00
        -11   -1    0    0    0    0  0.00000000000E+00  0.00000000000E+00  0.45593999997E+02  0.45594000000E+02  0.51100000000E-03 0. -1.
         11   -1    0    0    0    0 -0.00000000000E+00 -0.00000000000E+00 -0.45593999997E+02  0.45594000000E+02  0.51100000000E-03 0.  1.
    9900012    2    1    2    0    0 -0.26545027256E+01 -0.30171898343E+02  0.33342512539E+02  0.46142323440E+02  0.10000051783E+02 0.  0.
        -12    1    1    2    0    0  0.26545027256E+01  0.30171898343E+02 -0.33342512539E+02  0.45045676560E+02  0.00000000000E+00 0.  1.
         11    1    3    3    0    0 -0.56718686045E+01 -0.13527477651E+02  0.13884312293E+02  0.20197447194E+02  0.51100000000E-03 0. -1.
        -11    1    3    3    0    0  0.27761385078E+01 -0.72872113940E+01  0.90859763573E+01  0.11973527531E+02  0.51100000000E-03 0.  1.
        -12    1    3    3    0    0  0.24122737119E+00 -0.93572092983E+01  0.10372223889E+02  0.13971348714E+02  0.00000000000E+00 0.  1.
</event>
<event>
 7    1  0.1683291E-008  0.4614232E+02  0.7816164E-02  0.1320468E+00
        -11   -1    0    0    0    0  0.00000000000E+00  0.00000000000E+00  0.45593999997E+02  0.45594000000E+02  0.51100000000E-03 0. -1.
         11   -1    0    0    0    0 -0.00000000000E+00 -0.00000000000E+00 -0.45593999997E+02  0.45594000000E+02  0.51100000000E-03 0.  1.
    9900012    2    1    2    0    0  0.39842905329E+02  0.19578902545E+02  0.76369523071E+01  0.46142316849E+02  0.99999916851E+01 0.  0.
        -12    1    1    2    0    0 -0.39842905329E+02 -0.19578902545E+02 -0.76369523071E+01  0.45045683151E+02  0.00000000000E+00 0.  1.
         11    1    3    3    0    0  0.29565836071E+02  0.13309304935E+02  0.41353646962E+01  0.32686044451E+02  0.51100000000E-03 0. -1.
        -11    1    3    3    0    0  0.45224859973E+01  0.51413948001E+01  0.32685605633E+01  0.75875100332E+01  0.51100000000E-03 0.  1.
        -12    1    3    3    0    0  0.57545832614E+01  0.11282028101E+01  0.23302704763E+00  0.58687623651E+01  0.00000000000E+00 0.  1.
</event>
<event>
 7    1  0.1683291E-008  0.4614232E+02  0.7816164E-02  0.1320468E+00
        -11   -1    0    0    0    0  0.00000000000E+00  0.00000000000E+00  0.45593999997E+02  0.45594000000E+02  0.51100000000E-03 0.  1.
         11   -1    0    0    0    0 -0.00000000000E+00 -0.00000000000E+00 -0.45593999997E+02  0.45594000000E+02  0.51100000000E-03 0. -1.
    9900012    2    1    2    0    0 -0.12258700791E+02 -0.14425154343E+02 -0.40874841187E+02  0.46142318021E+02  0.10000002365E+02 0.  0.
        -12    1    1    2    0    0  0.12258700791E+02  0.14425154343E+02  0.40874841187E+02  0.45045681979E+02  0.00000000000E+00 0.  1.
         11    1    3    3    0    0 -0.42749552519E+01 -0.25755658871E+01 -0.57826057408E+01  0.76385411866E+01  0.51100000000E-03 0. -1.
        -11    1    3    3    0    0 -0.88926472665E+01 -0.86859788141E+01 -0.29543243266E+02  0.32051967589E+02  0.51100000000E-03 0.  1.
        -12    1    3    3    0    0  0.90890172776E+00 -0.31636096419E+01 -0.55489921806E+01  0.64518092453E+01  0.00000000000E+00 0.  1.
</event>
<event>
 7    1  0.1683291E-008  0.4614232E+02  0.7816164E-02  0.1320468E+00
        -11   -1    0    0    0    0  0.00000000000E+00  0.00000000000E+00  0.45593999997E+02  0.45594000000E+02  0.51100000000E-03 0.  1.
         11   -1    0    0    0    0 -0.00000000000E+00 -0.00000000000E+00 -0.45593999997E+02  0.45594000000E+02  0.51100000000E-03 0. -1.
    9900012    2    1    2    0    0  0.79694759206E+01 -0.40521747001E+02 -0.17988577051E+02  0.46142318401E+02  0.10000005831E+02 0.  0.
        -12    1    1    2    0    0 -0.79694759206E+01  0.40521747001E+02  0.17988577051E+02  0.45045681599E+02  0.00000000000E+00 0.  1.
         11    1    3    3    0    0  0.57900820779E+01 -0.18307848840E+02 -0.85854906229E+01  0.21033616643E+02  0.51100000000E-03 0. -1.
        -11    1    3    3    0    0 -0.22764478805E+00 -0.18205251291E+02 -0.55037633861E+01  0.19020368251E+02  0.51100000000E-03 0.  1.
        -12    1    3    3    0    0  0.24070386307E+01 -0.40086468699E+01 -0.38993230424E+01  0.60883335065E+01  0.00000000000E+00 0.  1.
</event>
<event>
 7    1  0.1683291E-008  0.4614232E+02  0.7816164E-02  0.1320468E+00
        -11   -1    0    0    0    0  0.00000000000E+00  0.00000000000E+00  0.45593999997E+02  0.45594000000E+02  0.51100000000E-03 0.  1.
         11   -1    0    0    0    0 -0.00000000000E+00 -0.00000000000E+00 -0.45593999997E+02  0.45594000000E+02  0.51100000000E-03 0. -1.
    9900012    2    1    2    0    0  0.12386724121E+02  0.36104504563E+02 -0.23919601825E+02  0.46142317237E+02  0.99999952166E+01 0.  0.
        -12    1    1    2    0    0 -0.12386724121E+02 -0.36104504563E+02  0.23919601825E+02  0.45045682763E+02  0.00000000000E+00 0.  1.
         11    1    3    3    0    0  0.13782323547E+01  0.10035110520E+02 -0.92707966259E+01  0.13731374218E+02  0.51100000000E-03 0. -1.
        -11    1    3    3    0    0  0.35061210913E+00  0.22609706242E+01 -0.31760384830E+01  0.39143502297E+01  0.51100000000E-03 0.  1.
         12    1    3    3    0    0  0.10657879657E+02  0.23808423418E+02 -0.11472766716E+02  0.28496592789E+02  0.00000000000E+00 0. -1.
</event>
<event>
 7    1  0.1683291E-008  0.4614232E+02  0.7816164E-02  0.1320468E+00
        -11   -1    0    0    0    0  0.00000000000E+00  0.00000000000E+00  0.45593999997E+02  0.45594000000E+02  0.51100000000E-03 0.  1.
         11   -1    0    0    0    0 -0.00000000000E+00 -0.00000000000E+00 -0.45593999997E+02  0.45594000000E+02  0.51100000000E-03 0. -1.
    9900012    2    1    2    0    0 -0.81895336758E+01  0.42120601182E+01 -0.44094257884E+02  0.46142317737E+02  0.99999997758E+01 0.  0.
        -12    1    1    2    0    0  0.81895336758E+01 -0.42120601182E+01  0.44094257884E+02  0.45045682263E+02  0.00000000000E+00 0.  1.
         11    1    3    3    0    0 -0.40991143883E+01  0.49369639706E+01 -0.17468924747E+02  0.18610203763E+02  0.51100000000E-03 0. -1.
        -11    1    3    3    0    0 -0.42491606890E+01 -0.26603269681E+01 -0.20616689107E+02  0.21217459229E+02  0.51100000000E-03 0.  1.
         12    1    3    3    0    0  0.15874140150E+00  0.19354231158E+01 -0.60086440299E+01  0.63146547449E+01  0.00000000000E+00 0. -1.
</event>
<event>
 7    1  0.1683291E-008  0.4614232E+02  0.7816164E-02  0.1320468E+00
        -11   -1    0    0    0    0  0.00000000000E+00  0.00000000000E+00  0.45593999997E+02  0.45594000000E+02  0.51100000000E-03 0.  1.
         11   -1    0    0    0    0 -0.00000000000E+00 -0.00000000000E+00 -0.45593999997E+02  0.45594000000E+02  0.51100000000E-03 0. -1.
    9900012    2    1    2    0    0  0.10381261515E+02  0.42200078496E+02 -0.11853111365E+02  0.46142318023E+02  0.10000002389E+02 0.  0.
        -12    1    1    2    0    0 -0.10381261515E+02 -0.42200078496E+02  0.11853111365E+02  0.45045681977E+02  0.00000000000E+00 0.  1.
         11    1    3    3    0    0  0.24875430942E+00  0.15918541528E+01 -0.24577911315E+01  0.29388119806E+01  0.51100000000E-03 0. -1.
        -11    1    3    3    0    0  0.70340354273E+01  0.18183299858E+02 -0.34684160409E+01  0.19802524036E+02  0.51100000000E-03 0.  1.
         12    1    3    3    0    0  0.30984717784E+01  0.22424924486E+02 -0.59269041926E+01  0.23400982006E+02  0.00000000000E+00 0. -1.
</event>
<event>
 7    1  0.1683291E-008  0.4614232E+02  0.7816164E-02  0.1320468E+00
        -11   -1    0    0    0    0  0.00000000000E+00  0.00000000000E+00  0.45593999997E+02  0.45594000000E+02  0.51100000000E-03 0.  1.
         11   -1    0    0    0    0 -0.00000000000E+00 -0.00000000000E+00 -0.45593999997E+02  0.45594000000E+02  0.51100000000E-03 0. -1.
    9900012    2    1    2    0    0  0.21712730922E+01  0.32572290166E+02 -0.31039410885E+02  0.46142317171E+02  0.99999946169E+01 0.  0.
        -12    1    1    2    0    0 -0.21712730922E+01 -0.32572290166E+02  0.31039410885E+02  0.45045682829E+02  0.00000000000E+00 0.  1.
         11    1    3    3    0    0  0.61630565444E+00  0.29381993285E+02 -0.26405450836E+02  0.39508596484E+02  0.51100000000E-03 0. -1.
        -11    1    3    3    0    0 -0.45273015049E+00 -0.39236017296E+00 -0.32681315868E+00  0.68243548874E+00  0.51100000000E-03 0.  1.
         12    1    3    3    0    0  0.20076975883E+01  0.35826570537E+01 -0.43071468902E+01  0.59512851977E+01  0.00000000000E+00 0. -1.
</event>
<event>
 7    1  0.1683291E-008  0.4614232E+02  0.7816164E-02  0.1320468E+00
        -11   -1    0    0    0    0  0.00000000000E+00  0.00000000000E+00  0.45593999997E+02  0.45594000000E+02  0.51100000000E-03 0.  1.
         11   -1    0    0    0    0 -0.00000000000E+00 -0.00000000000E+00 -0.45593999997E+02  0.45594000000E+02  0.51100000000E-03 0. -1.
    9900012    2    1    2    0    0 -0.22315403399E+02 -0.13718999025E+02 -0.36645944413E+02  0.46142318686E+02  0.10000008434E+02 0.  0.
        -12    1    1    2    0    0  0.22315403399E+02  0.13718999025E+02  0.36645944413E+02  0.45045681314E+02  0.00000000000E+00 0.  1.
         11    1    3    3    0    0 -0.72764186838E+00 -0.29016695941E+01 -0.27998039026E+01  0.40973224521E+01  0.51100000000E-03 0. -1.
        -11    1    3    3    0    0 -0.94722335484E+00 -0.17980761698E+01 -0.53388256131E+01  0.57125624009E+01  0.51100000000E-03 0.  1.
         12    1    3    3    0    0 -0.20640538176E+02 -0.90192532614E+01 -0.28507314897E+02  0.36332433833E+02  0.00000000000E+00 0. -1.
</event>
<event>
 7    1  0.1683291E-008  0.4614232E+02  0.7816164E-02  0.1320468E+00
        -11   -1    0    0    0    0  0.00000000000E+00  0.00000000000E+00  0.45593999997E+02  0.45594000000E+02  0.51100000000E-03 0. -1.
         11   -1    0    0    0    0 -0.00000000000E+00 -0.00000000000E+00 -0.45593999997E+02  0.45594000000E+02  0.51100000000E-03 0.  1.
    9900012    2    1    2    0    0  0.36424938303E+02 -0.19977434849E+02  0.17413770140E+02  0.46142318475E+02  0.10000006514E+02 0.  0.
        -12    1    1    2    0    0 -0.36424938303E+02  0.19977434849E+02 -0.17413770140E+02  0.45045681525E+02  0.00000000000E+00 0.  1.
         11    1    3    3    0    0  0.11309510858E+02 -0.66441454513E+01  0.20649976901E+01  0.13278325208E+02  0.51100000000E-03 0. -1.
        -11    1    3    3    0    0  0.26521088865E+01 -0.25040235589E+00  0.32176934025E+01  0.41773118125E+01  0.51100000000E-03 0.  1.
         12    1    3    3    0    0  0.22463318559E+02 -0.13082887042E+02  0.12131079047E+02  0.28686681455E+02  0.00000000000E+00 0. -1.
</event>
<event>
 7    1  0.1683291E-008  0.4614232E+02  0.7816164E-02  0.1320468E+00
        -11   -1    0    0    0    0  0.00000000000E+00  0.00000000000E+00  0.45593999997E+02  0.45594000000E+02  0.51100000000E-03 0. -1.
         11   -1    0    0    0    0 -0.00000000000E+00 -0.00000000000E+00 -0.45593999997E+02  0.45594000000E+02  0.51100000000E-03 0.  1.
    9900012    2    1    2    0    0 -0.38795891718E+02 -0.18271834670E+02  0.13788846282E+02  0.46142318318E+02  0.10000005076E+02 0.  0.
        -12    1    1    2    0    0  0.38795891718E+02  0.18271834670E+02 -0.13788846282E+02  0.45045681682E+02  0.00000000000E+00 0.  1.
         11    1    3    3    0    0 -0.25229080205E+02 -0.92435350008E+01  0.12443614904E+02  0.29610690290E+02  0.51100000000E-03 0. -1.
        -11    1    3    3    0    0 -0.39609294572E+01 -0.13796154457E+01  0.19579382374E+00  0.41988851408E+01  0.51100000000E-03 0.  1.
         12    1    3    3    0    0 -0.96058820563E+01 -0.76486842233E+01  0.11494375542E+01  0.12332742887E+02  0.00000000000E+00 0. -1.
</event>
<event>
 7    1  0.1683291E-008  0.4614232E+02  0.7816164E-02  0.1320468E+00
        -11   -1    0    0    0    0  0.00000000000E+00  0.00000000000E+00  0.45593999997E+02  0.45594000000E+02  0.51100000000E-03 0.  1.
         11   -1    0    0    0    0 -0.00000000000E+00 -0.00000000000E+00 -0.45593999997E+02  0.45594000000E+02  0.51100000000E-03 0. -1.
    9900012    2    1    2    0    0  0.17993505879E+02  0.19309289585E+01 -0.41250679680E+02  0.46142319691E+02  0.10000017598E+02 0.  0.
        -12    1    1    2    0    0 -0.17993505879E+02 -0.19309289585E+01  0.41250679680E+02  0.45045680309E+02  0.00000000000E+00 0.  1.
         11    1    3    3    0    0  0.75686298367E+01 -0.32911540378E+01 -0.15876346324E+02  0.17893412905E+02  0.51100000000E-03 0. -1.
        -11    1    3    3    0    0  0.88892187176E+01  0.34206291754E+01 -0.23009247939E+02  0.24902698736E+02  0.51100000000E-03 0.  1.
        -12    1    3    3    0    0  0.15356573244E+01  0.18014538209E+01 -0.23650854167E+01  0.33462080502E+01  0.00000000000E+00 0.  1.
</event>
<event>
 7    1  0.1683291E-008  0.4614232E+02  0.7816164E-02  0.1320468E+00
        -11   -1    0    0    0    0  0.00000000000E+00  0.00000000000E+00  0.45593999997E+02  0.45594000000E+02  0.51100000000E-03 0.  1.
         11   -1    0    0    0    0 -0.00000000000E+00 -0.00000000000E+00 -0.45593999997E+02  0.45594000000E+02  0.51100000000E-03 0. -1.
    9900012    2    1    2    0    0  0.17874448257E+01  0.44862614475E+02 -0.36420188525E+01  0.46142318322E+02  0.10000005112E+02 0.  0.
        -12    1    1    2    0    0 -0.17874448257E+01 -0.44862614475E+02  0.36420188525E+01  0.45045681678E+02  0.00000000000E+00 0.  1.
         11    1    3    3    0    0  0.10196762775E+01  0.15453126009E+02 -0.28638853817E+01  0.15749307378E+02  0.51100000000E-03 0. -1.
        -11    1    3    3    0    0 -0.60291293515E+00  0.30553851617E+00 -0.10579778314E+01  0.12554581415E+01  0.51100000000E-03 0.  1.
        -12    1    3    3    0    0  0.13706814833E+01  0.29103949950E+02  0.27984436054E+00  0.29137552802E+02  0.00000000000E+00 0.  1.
</event>
<event>
 7    1  0.1683291E-008  0.4614232E+02  0.7816164E-02  0.1320468E+00
        -11   -1    0    0    0    0  0.00000000000E+00  0.00000000000E+00  0.45593999997E+02  0.45594000000E+02  0.51100000000E-03 0.  1.
         11   -1    0    0    0    0 -0.00000000000E+00 -0.00000000000E+00 -0.45593999997E+02  0.45594000000E+02  0.51100000000E-03 0. -1.
    9900012    2    1    2    0    0 -0.16805195815E+02 -0.32374833812E+02 -0.26430455648E+02  0.46142318115E+02  0.10000003226E+02 0.  0.
        -12    1    1    2    0    0  0.16805195815E+02  0.32374833812E+02  0.26430455648E+02  0.45045681885E+02  0.00000000000E+00 0.  1.
         11    1    3    3    0    0 -0.82816779470E+01 -0.19513425037E+02 -0.19569851466E+02  0.28850286531E+02  0.51100000000E-03 0. -1.
        -11    1    3    3    0    0 -0.25980151942E+01 -0.72304564216E+01 -0.37057471749E+01  0.85300495544E+01  0.51100000000E-03 0.  1.
         12    1    3    3    0    0 -0.59255026740E+01 -0.56309523533E+01 -0.31548570078E+01  0.87619820295E+01  0.00000000000E+00 0. -1.
</event>
<event>
 7    1  0.1683291E-008  0.4614232E+02  0.7816164E-02  0.1320468E+00
        -11   -1    0    0    0    0  0.00000000000E+00  0.00000000000E+00  0.45593999997E+02  0.45594000000E+02  0.51100000000E-03 0.  1.
         11   -1    0    0    0    0 -0.00000000000E+00 -0.00000000000E+00 -0.45593999997E+02  0.45594000000E+02  0.51100000000E-03 0. -1.
    9900012    2    1    2    0    0  0.14462649298E+02  0.22803370788E+01 -0.42599827794E+02  0.46142317743E+02  0.99999998352E+01 0.  0.
        -12    1    1    2    0    0 -0.14462649298E+02 -0.22803370788E+01  0.42599827794E+02  0.45045682257E+02  0.00000000000E+00 0.  1.
         11    1    3    3    0    0  0.94987122358E+01  0.35772010404E+01 -0.18210400892E+02  0.20848035935E+02  0.51100000000E-03 0. -1.
        -11    1    3    3    0    0  0.12710638282E+01 -0.23829979879E+01 -0.74914134194E+01  0.79633885970E+01  0.51100000000E-03 0.  1.
         12    1    3    3    0    0  0.36928732342E+01  0.10861340263E+01 -0.16898013482E+02  0.17330893211E+02  0.00000000000E+00 0. -1.
</event>
<event>
 7    1  0.1683291E-008  0.4614232E+02  0.7816164E-02  0.1320468E+00
        -11   -1    0    0    0    0  0.00000000000E+00  0.00000000000E+00  0.45593999997E+02  0.45594000000E+02  0.51100000000E-03 0.  1.
         11   -1    0    0    0    0 -0.00000000000E+00 -0.00000000000E+00 -0.45593999997E+02  0.45594000000E+02  0.51100000000E-03 0. -1.
    9900012    2    1    2    0    0 -0.32854524000E+02  0.25420369530E+02 -0.17421213506E+02  0.46142316363E+02  0.99999872499E+01 0.  0.
        -12    1    1    2    0    0  0.32854524000E+02 -0.25420369530E+02  0.17421213506E+02  0.45045683637E+02  0.00000000000E+00 0.  1.
         11    1    3    3    0    0 -0.22957413594E+01  0.24867003546E+01 -0.39933381012E+01  0.52345827430E+01  0.51100000000E-03 0.  1.
        -11    1    3    3    0    0 -0.21328763484E+02  0.18156028506E+02 -0.11773082156E+02  0.30383597328E+02  0.51100000000E-03 0. -1.
         12    1    3    3    0    0 -0.92300191565E+01  0.47776406697E+01 -0.16547932491E+01  0.10524136292E+02  0.00000000000E+00 0. -1.
</event>
<event>
 7    1  0.1683291E-008  0.4614232E+02  0.7816164E-02  0.1320468E+00
        -11   -1    0    0    0    0  0.00000000000E+00  0.00000000000E+00  0.45593999997E+02  0.45594000000E+02  0.51100000000E-03 0. -1.
         11   -1    0    0    0    0 -0.00000000000E+00 -0.00000000000E+00 -0.45593999997E+02  0.45594000000E+02  0.51100000000E-03 0.  1.
    9900012    2    1    2    0    0  0.14363812614E+02 -0.41932123583E+02  0.80306556459E+01  0.46142317287E+02  0.99999956791E+01 0.  0.
        -12    1    1    2    0    0 -0.14363812614E+02  0.41932123583E+02 -0.80306556459E+01  0.45045682713E+02  0.00000000000E+00 0.  1.
         11    1    3    3    0    0  0.10797243196E+01 -0.86907955330E+00  0.14986011214E+01  0.20413009231E+01  0.51100000000E-03 0. -1.
        -11    1    3    3    0    0  0.64464925111E+01 -0.11632438473E+02  0.62093581771E+00  0.13313769267E+02  0.51100000000E-03 0.  1.
         12    1    3    3    0    0  0.68375957829E+01 -0.29430605556E+02  0.59111187068E+01  0.30787247098E+02  0.00000000000E+00 0. -1.
</event>
<event>
 7    1  0.1683291E-008  0.4614232E+02  0.7816164E-02  0.1320468E+00
        -11   -1    0    0    0    0  0.00000000000E+00  0.00000000000E+00  0.45593999997E+02  0.45594000000E+02  0.51100000000E-03 0.  1.
         11   -1    0    0    0    0 -0.00000000000E+00 -0.00000000000E+00 -0.45593999997E+02  0.45594000000E+02  0.51100000000E-03 0. -1.
    9900012    2    1    2    0    0  0.97580599468E+01 -0.19465113648E+02 -0.39433527933E+02  0.46142317537E+02  0.99999979598E+01 0.  0.
        -12    1    1    2    0    0 -0.97580599468E+01  0.19465113648E+02  0.39433527933E+02  0.45045682463E+02  0.00000000000E+00 0.  1.
         11    1    3    3    0    0  0.22261058121E+01 -0.13300931867E+01 -0.29008873496E+01  0.38909950717E+01  0.51100000000E-03 0. -1.
        -11    1    3    3    0    0  0.21487698460E+01 -0.57340483309E+01 -0.48718681598E+01  0.78250636891E+01  0.51100000000E-03 0.  1.
        -12    1    3    3    0    0  0.53831842888E+01 -0.12400972131E+02 -0.31660772424E+02  0.34426258777E+02  0.00000000000E+00 0.  1.
</event>
<event>
 7    1  0.1683291E-008  0.4614232E+02  0.7816164E-02  0.1320468E+00
        -11   -1    0    0    0    0  0.00000000000E+00  0.00000000000E+00  0.45593999997E+02  0.45594000000E+02  0.51100000000E-03 0.  1.
         11   -1    0    0    0    0 -0.00000000000E+00 -0.00000000000E+00 -0.45593999997E+02  0.45594000000E+02  0.51100000000E-03 0. -1.
    9900012    2    1    2    0    0  0.43111063126E+02  0.12704056742E+02  0.30260208713E+01  0.46142316257E+02  0.99999862845E+01 0.  0.
        -12    1    1    2    0    0 -0.43111063126E+02 -0.12704056742E+02 -0.30260208713E+01  0.45045683743E+02  0.00000000000E+00 0.  1.
         11    1    3    3    0    0  0.19905937289E+02  0.99556293154E+01 -0.11545666478E+01  0.22286630944E+02  0.51100000000E-03 0. -1.
        -11    1    3    3    0    0  0.17571398658E+02  0.17685593024E+01  0.41322216684E+01  0.18137174779E+02  0.51100000000E-03 0.  1.
         12    1    3    3    0    0  0.56337271794E+01  0.97986812382E+00  0.48365850807E-01  0.57185105340E+01  0.00000000000E+00 0. -1.
</event>
<event>
 7    1  0.1683291E-008  0.4614232E+02  0.7816164E-02  0.1320468E+00
        -11   -1    0    0    0    0  0.00000000000E+00  0.00000000000E+00  0.45593999997E+02  0.45594000000E+02  0.51100000000E-03 0. -1.
         11   -1    0    0    0    0 -0.00000000000E+00 -0.00000000000E+00 -0.45593999997E+02  0.45594000000E+02  0.51100000000E-03 0.  1.
    9900012    2    1    2    0    0 -0.27878423834E+02  0.33154509755E+02  0.12356595790E+02  0.46142317719E+02  0.99999996202E+01 0.  0.
        -12    1    1    2    0    0  0.27878423834E+02 -0.33154509755E+02 -0.12356595790E+02  0.45045682281E+02  0.00000000000E+00 0.  1.
         11    1    3    3    0    0 -0.21428794067E+02  0.23638624412E+02  0.11507778580E+02  0.33917646548E+02  0.51100000000E-03 0. -1.
        -11    1    3    3    0    0 -0.14514864215E+01  0.33350183874E+01  0.20662249582E+01  0.41831144277E+01  0.51100000000E-03 0.  1.
        -12    1    3    3    0    0 -0.49981433458E+01  0.61808669557E+01 -0.12174077487E+01  0.80415567433E+01  0.00000000000E+00 0.  1.
</event>
<event>
 7    1  0.1683291E-008  0.4614232E+02  0.7816164E-02  0.1320468E+00
        -11   -1    0    0    0    0  0.00000000000E+00  0.00000000000E+00  0.45593999997E+02  0.45594000000E+02  0.51100000000E-03 0.  1.
         11   -1    0    0    0    0 -0.00000000000E+00 -0.00000000000E+00 -0.45593999997E+02  0.45594000000E+02  0.51100000000E-03 0. -1.
    9900012    2    1    2    0    0 -0.60804003240E+01 -0.39680848411E+02 -0.20434595161E+02  0.46142315655E+02  0.99999807955E+01 0.  0.
        -12    1    1    2    0    0  0.60804003240E+01  0.39680848411E+02  0.20434595161E+02  0.45045684345E+02  0.00000000000E+00 0.  1.
         11    1    3    3    0    0 -0.46934753130E+01 -0.74034104081E+01 -0.51127943782E+01  0.10147899428E+02  0.51100000000E-03 0.  1.
        -11    1    3    3    0    0 -0.20239710275E+01 -0.16652987323E+02 -0.61601625943E+01  0.17870815565E+02  0.51100000000E-03 0. -1.
         12    1    3    3    0    0  0.63704601652E+00 -0.15624450680E+02 -0.91616381883E+01  0.18123600662E+02  0.00000000000E+00 0. -1.
</event>
<event>
 7    1  0.1683291E-008  0.4614232E+02  0.7816164E-02  0.1320468E+00
        -11   -1    0    0    0    0  0.00000000000E+00  0.00000000000E+00  0.45593999997E+02  0.45594000000E+02  0.51100000000E-03 0.  1.
         11   -1    0    0    0    0 -0.00000000000E+00 -0.00000000000E+00 -0.45593999997E+02  0.45594000000E+02  0.51100000000E-03 0. -1.
    9900012    2    1    2    0    0 -0.34288230993E+02 -0.18759224710E+02 -0.22394689288E+02  0.46142318691E+02  0.10000008477E+02 0.  0.
        -12    1    1    2    0    0  0.34288230993E+02  0.18759224710E+02  0.22394689288E+02  0.45045681309E+02  0.00000000000E+00 0.  1.
         11    1    3    3    0    0 -0.16568924018E+02 -0.11741904476E+02 -0.96530568977E+01  0.22485174484E+02  0.51100000000E-03 0. -1.
        -11    1    3    3    0    0 -0.82006111061E+01 -0.29443159839E+01 -0.24322834086E+01  0.90462711637E+01  0.51100000000E-03 0.  1.
        -12    1    3    3    0    0 -0.95186958683E+01 -0.40730042498E+01 -0.10309348982E+02  0.14610873043E+02  0.00000000000E+00 0.  1.
</event>
<event>
 7    1  0.1683291E-008  0.4614232E+02  0.7816164E-02  0.1320468E+00
        -11   -1    0    0    0    0  0.00000000000E+00  0.00000000000E+00  0.45593999997E+02  0.45594000000E+02  0.51100000000E-03 0.  1.
         11   -1    0    0    0    0 -0.00000000000E+00 -0.00000000000E+00 -0.45593999997E+02  0.45594000000E+02  0.51100000000E-03 0. -1.
    9900012    2    1    2    0    0 -0.28182375999E+02  0.11060471129E+01 -0.35123267484E+02  0.46142316789E+02  0.99999911355E+01 0.  0.
        -12    1    1    2    0    0  0.28182375999E+02 -0.11060471129E+01  0.35123267484E+02  0.45045683211E+02  0.00000000000E+00 0.  1.
         11    1    3    3    0    0 -0.17709289526E+02 -0.33348749887E+01 -0.19168249258E+02  0.26308973880E+02  0.51100000000E-03 0. -1.
        -11    1    3    3    0    0 -0.10183121839E+02  0.34640814908E+01 -0.14747481622E+02  0.18253329708E+02  0.51100000000E-03 0.  1.
        -12    1    3    3    0    0 -0.28996463422E+00  0.97684061078E+00 -0.12075366034E+01  0.15800132014E+01  0.00000000000E+00 0.  1.
</event>
<event>
 7    1  0.1683291E-008  0.4614232E+02  0.7816164E-02  0.1320468E+00
        -11   -1    0    0    0    0  0.00000000000E+00  0.00000000000E+00  0.45593999997E+02  0.45594000000E+02  0.51100000000E-03 0. -1.
         11   -1    0    0    0    0 -0.00000000000E+00 -0.00000000000E+00 -0.45593999997E+02  0.45594000000E+02  0.51100000000E-03 0.  1.
    9900012    2    1    2    0    0  0.33951065339E+02 -0.29516766515E+02  0.22801835546E+01  0.46142316742E+02  0.99999907038E+01 0.  0.
        -12    1    1    2    0    0 -0.33951065339E+02  0.29516766515E+02 -0.22801835546E+01  0.45045683258E+02  0.00000000000E+00 0.  1.
         11    1    3    3    0    0  0.27672995528E+02 -0.24880467157E+02  0.14291931191E+01  0.37240769604E+02  0.51100000000E-03 0. -1.
        -11    1    3    3    0    0  0.30188887773E+01  0.11081384063E+00  0.86846671411E+00  0.31432791559E+01  0.51100000000E-03 0.  1.
         12    1    3    3    0    0  0.32591810335E+01 -0.47471131986E+01 -0.17476278621E-01  0.57582679818E+01  0.00000000000E+00 0. -1.
</event>
<event>
 7    1  0.1683291E-008  0.4614232E+02  0.7816164E-02  0.1320468E+00
        -11   -1    0    0    0    0  0.00000000000E+00  0.00000000000E+00  0.45593999997E+02  0.45594000000E+02  0.51100000000E-03 0. -1.
         11   -1    0    0    0    0 -0.00000000000E+00 -0.00000000000E+00 -0.45593999997E+02  0.45594000000E+02  0.51100000000E-03 0.  1.
    9900012    2    1    2    0    0  0.31410189913E+02  0.21763576263E+02  0.23850789301E+02  0.46142318382E+02  0.10000005664E+02 0.  0.
        -12    1    1    2    0    0 -0.31410189913E+02 -0.21763576263E+02 -0.23850789301E+02  0.45045681618E+02  0.00000000000E+00 0.  1.
         11    1    3    3    0    0  0.24927696045E+02  0.16455638202E+02  0.13533193169E+02  0.32792154189E+02  0.51100000000E-03 0. -1.
        -11    1    3    3    0    0  0.63284741675E+01  0.49990913896E+01  0.94927921747E+01  0.12456066937E+02  0.51100000000E-03 0.  1.
         12    1    3    3    0    0  0.15401970050E+00  0.30884667108E+00  0.82480395780E+00  0.89409725599E+00  0.00000000000E+00 0. -1.
</event>
<event>
 7    1  0.1683291E-008  0.4614232E+02  0.7816164E-02  0.1320468E+00
        -11   -1    0    0    0    0  0.00000000000E+00  0.00000000000E+00  0.45593999997E+02  0.45594000000E+02  0.51100000000E-03 0. -1.
         11   -1    0    0    0    0 -0.00000000000E+00 -0.00000000000E+00 -0.45593999997E+02  0.45594000000E+02  0.51100000000E-03 0.  1.
    9900012    2    1    2    0    0  0.23322472863E+01  0.10817652914E+02  0.43665232008E+02  0.46142317873E+02  0.10000001017E+02 0.  0.
        -12    1    1    2    0    0 -0.23322472863E+01 -0.10817652914E+02 -0.43665232008E+02  0.45045682127E+02  0.00000000000E+00 0.  1.
         11    1    3    3    0    0 -0.17791573501E+01  0.41337552567E-01  0.13787180416E+02  0.13901562997E+02  0.51100000000E-03 0. -1.
        -11    1    3    3    0    0  0.80895406339E+00  0.24257111043E-01  0.29258406472E+01  0.30357105985E+01  0.51100000000E-03 0.  1.
         12    1    3    3    0    0  0.33024505730E+01  0.10752058250E+02  0.26952210945E+02  0.29205044277E+02  0.00000000000E+00 0. -1.
</event>
<event>
 7    1  0.1683291E-008  0.4614232E+02  0.7816164E-02  0.1320468E+00
        -11   -1    0    0    0    0  0.00000000000E+00  0.00000000000E+00  0.45593999997E+02  0.45594000000E+02  0.51100000000E-03 0.  1.
         11   -1    0    0    0    0 -0.00000000000E+00 -0.00000000000E+00 -0.45593999997E+02  0.45594000000E+02  0.51100000000E-03 0. -1.
    9900012    2    1    2    0    0 -0.12911531631E+02 -0.36291028634E+02 -0.23353086908E+02  0.46142322333E+02  0.10000041691E+02 0.  0.
        -12    1    1    2    0    0  0.12911531631E+02  0.36291028634E+02  0.23353086908E+02  0.45045677667E+02  0.00000000000E+00 0.  1.
         11    1    3    3    0    0 -0.51812362540E+01 -0.16066159454E+02 -0.14821562315E+02  0.22464313887E+02  0.51100000000E-03 0. -1.
        -11    1    3    3    0    0 -0.26274423637E+01 -0.10787038546E+02 -0.61345744565E+01  0.12684504641E+02  0.51100000000E-03 0.  1.
        -12    1    3    3    0    0 -0.51028530132E+01 -0.94378306335E+01 -0.23969501367E+01  0.10993503804E+02  0.00000000000E+00 0.  1.
</event>
<event>
 7    1  0.1683291E-008  0.4614232E+02  0.7816164E-02  0.1320468E+00
        -11   -1    0    0    0    0  0.00000000000E+00  0.00000000000E+00  0.45593999997E+02  0.45594000000E+02  0.51100000000E-03 0.  1.
         11   -1    0    0    0    0 -0.00000000000E+00 -0.00000000000E+00 -0.45593999997E+02  0.45594000000E+02  0.51100000000E-03 0. -1.
    9900012    2    1    2    0    0 -0.13961409783E+02  0.32710636591E+02 -0.27644291197E+02  0.46142317131E+02  0.99999942521E+01 0.  0.
        -12    1    1    2    0    0  0.13961409783E+02 -0.32710636591E+02  0.27644291197E+02  0.45045682869E+02  0.00000000000E+00 0.  1.
         11    1    3    3    0    0 -0.35958673557E+01  0.11662518495E+02 -0.74659566933E+01  0.14306820377E+02  0.51100000000E-03 0. -1.
        -11    1    3    3    0    0  0.11018668532E+01  0.19922950502E+01 -0.28126213138E+01  0.36185893723E+01  0.51100000000E-03 0.  1.
        -12    1    3    3    0    0 -0.11467409281E+02  0.19055823046E+02 -0.17365713190E+02  0.28216907381E+02  0.00000000000E+00 0.  1.
</event>
<event>
 7    1  0.1683291E-008  0.4614232E+02  0.7816164E-02  0.1320468E+00
        -11   -1    0    0    0    0  0.00000000000E+00  0.00000000000E+00  0.45593999997E+02  0.45594000000E+02  0.51100000000E-03 0.  1.
         11   -1    0    0    0    0 -0.00000000000E+00 -0.00000000000E+00 -0.45593999997E+02  0.45594000000E+02  0.51100000000E-03 0. -1.
    9900012    2    1    2    0    0  0.12373323272E+02 -0.24205957086E+02 -0.35917766819E+02  0.46142318071E+02  0.10000002822E+02 0.  0.
        -12    1    1    2    0    0 -0.12373323272E+02  0.24205957086E+02  0.35917766819E+02  0.45045681929E+02  0.00000000000E+00 0.  1.
         11    1    3    3    0    0 -0.13998128576E+01 -0.38560821638E+01 -0.34162738424E+01  0.53385178577E+01  0.51100000000E-03 0. -1.
        -11    1    3    3    0    0  0.20452363323E+00 -0.93985307393E+00 -0.93739739097E+00  0.13430814744E+01  0.51100000000E-03 0.  1.
         12    1    3    3    0    0  0.13568612497E+02 -0.19410021848E+02 -0.31564095586E+02  0.39460718738E+02  0.00000000000E+00 0. -1.
</event>
<event>
 7    1  0.1683291E-008  0.4614232E+02  0.7816164E-02  0.1320468E+00
        -11   -1    0    0    0    0  0.00000000000E+00  0.00000000000E+00  0.45593999997E+02  0.45594000000E+02  0.51100000000E-03 0.  1.
         11   -1    0    0    0    0 -0.00000000000E+00 -0.00000000000E+00 -0.45593999997E+02  0.45594000000E+02  0.51100000000E-03 0. -1.
    9900012    2    1    2    0    0  0.17590151200E+02  0.11605149811E+02 -0.39812318321E+02  0.46142316395E+02  0.99999875413E+01 0.  0.
        -12    1    1    2    0    0 -0.17590151200E+02 -0.11605149811E+02  0.39812318321E+02  0.45045683605E+02  0.00000000000E+00 0.  1.
         11    1    3    3    0    0  0.11962589871E+02  0.12558720977E+02 -0.30762048576E+02  0.35314708860E+02  0.51100000000E-03 0. -1.
        -11    1    3    3    0    0  0.15971222892E+01 -0.41347406708E+00 -0.41114623073E+01  0.44301109440E+01  0.51100000000E-03 0.  1.
         12    1    3    3    0    0  0.40304390390E+01 -0.54009709866E+00 -0.49388074372E+01  0.63974965905E+01  0.00000000000E+00 0. -1.
</event>
<event>
 7    1  0.1683291E-008  0.4614232E+02  0.7816164E-02  0.1320468E+00
        -11   -1    0    0    0    0  0.00000000000E+00  0.00000000000E+00  0.45593999997E+02  0.45594000000E+02  0.51100000000E-03 0.  1.
         11   -1    0    0    0    0 -0.00000000000E+00 -0.00000000000E+00 -0.45593999997E+02  0.45594000000E+02  0.51100000000E-03 0. -1.
    9900012    2    1    2    0    0 -0.67781220426E+00  0.25731365849E+02 -0.36966888942E+02  0.46142317678E+02  0.99999992425E+01 0.  0.
        -12    1    1    2    0    0  0.67781220426E+00 -0.25731365849E+02  0.36966888942E+02  0.45045682322E+02  0.00000000000E+00 0.  1.
         11    1    3    3    0    0 -0.56294588162E+00  0.16362012726E+02 -0.17935580796E+02  0.24284098238E+02  0.51100000000E-03 0. -1.
        -11    1    3    3    0    0 -0.15685556441E+01  0.11140566881E+01 -0.15481645576E+01  0.24694742095E+01  0.51100000000E-03 0.  1.
         12    1    3    3    0    0  0.14536893214E+01  0.82552964347E+01 -0.17483143588E+02  0.19388745230E+02  0.00000000000E+00 0. -1.
</event>
<event>
 7    1  0.1683291E-008  0.4614232E+02  0.7816164E-02  0.1320468E+00
        -11   -1    0    0    0    0  0.00000000000E+00  0.00000000000E+00  0.45593999997E+02  0.45594000000E+02  0.51100000000E-03 0. -1.
         11   -1    0    0    0    0 -0.00000000000E+00 -0.00000000000E+00 -0.45593999997E+02  0.45594000000E+02  0.51100000000E-03 0.  1.
    9900012    2    1    2    0    0 -0.32602205056E+02  0.29904078601E+02 -0.84826753134E+01  0.46142317944E+02  0.10000001664E+02 0.  0.
        -12    1    1    2    0    0  0.32602205056E+02 -0.29904078601E+02  0.84826753134E+01  0.45045682056E+02  0.00000000000E+00 0.  1.
         11    1    3    3    0    0 -0.56702095509E+01  0.30074448382E+01 -0.22493264800E+01  0.68011374549E+01  0.51100000000E-03 0. -1.
        -11    1    3    3    0    0 -0.23423233060E+02  0.24212275272E+02 -0.79299786449E+01  0.34608765976E+02  0.51100000000E-03 0.  1.
        -12    1    3    3    0    0 -0.35087624454E+01  0.26843584908E+01  0.16966298115E+01  0.47324145130E+01  0.00000000000E+00 0.  1.
</event>
<event>
 7    1  0.1683291E-008  0.4614232E+02  0.7816164E-02  0.1320468E+00
        -11   -1    0    0    0    0  0.00000000000E+00  0.00000000000E+00  0.45593999997E+02  0.45594000000E+02  0.51100000000E-03 0.  1.
         11   -1    0    0    0    0 -0.00000000000E+00 -0.00000000000E+00 -0.45593999997E+02  0.45594000000E+02  0.51100000000E-03 0. -1.
    9900012    2    1    2    0    0 -0.36212841672E+02 -0.26305484558E+02  0.50759533510E+01  0.46142315165E+02  0.99999763311E+01 0.  0.
        -12    1    1    2    0    0  0.36212841672E+02  0.26305484558E+02 -0.50759533510E+01  0.45045684835E+02  0.00000000000E+00 0.  1.
         11    1    3    3    0    0 -0.16134734491E+02 -0.15908455829E+02 -0.50368234615E+00  0.22664119664E+02  0.51100000000E-03 0. -1.
        -11    1    3    3    0    0 -0.93078651509E+01 -0.34941629160E+01  0.33602984107E+01  0.10494624044E+02  0.51100000000E-03 0.  1.
         12    1    3    3    0    0 -0.10770242030E+02 -0.69028658133E+01  0.22193372865E+01  0.12983571458E+02  0.00000000000E+00 0. -1.
</event>
<event>
 7    1  0.1683291E-008  0.4614232E+02  0.7816164E-02  0.1320468E+00
        -11   -1    0    0    0    0  0.00000000000E+00  0.00000000000E+00  0.45593999997E+02  0.45594000000E+02  0.51100000000E-03 0.  1.
         11   -1    0    0    0    0 -0.00000000000E+00 -0.00000000000E+00 -0.45593999997E+02  0.45594000000E+02  0.51100000000E-03 0. -1.
    9900012    2    1    2    0    0 -0.13204230211E+02  0.35637734926E+02 -0.24180852285E+02  0.46142318039E+02  0.10000002532E+02 0.  0.
        -12    1    1    2    0    0  0.13204230211E+02 -0.35637734926E+02  0.24180852285E+02  0.45045681961E+02  0.00000000000E+00 0.  1.
         11    1    3    3    0    0 -0.85570935775E+01  0.25987908458E+02 -0.21212188747E+02  0.34620112481E+02  0.51100000000E-03 0. -1.
        -11    1    3    3    0    0 -0.44424003726E+01  0.97777863688E+01 -0.25489227981E+01  0.11037981475E+02  0.51100000000E-03 0.  1.
         12    1    3    3    0    0 -0.20473626136E+00 -0.12795990152E+00 -0.41974074038E+00  0.48422408268E+00  0.00000000000E+00 0. -1.
</event>
<event>
 7    1  0.1683291E-008  0.4614233E+02  0.7816164E-02  0.1320468E+00
        -11   -1    0    0    0    0  0.00000000000E+00  0.00000000000E+00  0.45593999997E+02  0.45594000000E+02  0.51100000000E-03 0. -1.
         11   -1    0    0    0    0 -0.00000000000E+00 -0.00000000000E+00 -0.45593999997E+02  0.45594000000E+02  0.51100000000E-03 0.  1.
    9900012    2    1    2    0    0 -0.41675051335E+02  0.13107454255E+02  0.10977131778E+02  0.46142326702E+02  0.10000081528E+02 0.  0.
        -12    1    1    2    0    0  0.41675051335E+02 -0.13107454255E+02 -0.10977131778E+02  0.45045673298E+02  0.00000000000E+00 0.  1.
         11    1    3    3    0    0 -0.18294728167E+02  0.38898581305E+01  0.46747863146E+01  0.19279048274E+02  0.51100000000E-03 0. -1.
        -11    1    3    3    0    0 -0.20248147741E+02  0.61773122459E+01  0.72869644883E+01  0.22388535576E+02  0.51100000000E-03 0.  1.
        -12    1    3    3    0    0 -0.31321754271E+01  0.30402838788E+01 -0.98461902535E+00  0.44747428524E+01  0.00000000000E+00 0.  1.
</event>
<event>
 7    1  0.1683291E-008  0.4614232E+02  0.7816164E-02  0.1320468E+00
        -11   -1    0    0    0    0  0.00000000000E+00  0.00000000000E+00  0.45593999997E+02  0.45594000000E+02  0.51100000000E-03 0. -1.
         11   -1    0    0    0    0 -0.00000000000E+00 -0.00000000000E+00 -0.45593999997E+02  0.45594000000E+02  0.51100000000E-03 0.  1.
    9900012    2    1    2    0    0 -0.77638911390E+01  0.42971186774E+02 -0.11059502035E+02  0.46142317814E+02  0.10000000479E+02 0.  0.
        -12    1    1    2    0    0  0.77638911390E+01 -0.42971186774E+02  0.11059502035E+02  0.45045682186E+02  0.00000000000E+00 0.  1.
         11    1    3    3    0    0 -0.56258799077E+01  0.36369749566E+02 -0.10226038506E+02  0.38196610740E+02  0.51100000000E-03 0. -1.
        -11    1    3    3    0    0 -0.17834919131E+01  0.45635637672E+01 -0.22974331722E+01  0.54115762124E+01  0.51100000000E-03 0.  1.
         12    1    3    3    0    0 -0.35451931817E+00  0.20378734406E+01  0.14639696429E+01  0.25341308613E+01  0.00000000000E+00 0. -1.
</event>
<event>
 7    1  0.1683291E-008  0.4614232E+02  0.7816164E-02  0.1320468E+00
        -11   -1    0    0    0    0  0.00000000000E+00  0.00000000000E+00  0.45593999997E+02  0.45594000000E+02  0.51100000000E-03 0.  1.
         11   -1    0    0    0    0 -0.00000000000E+00 -0.00000000000E+00 -0.45593999997E+02  0.45594000000E+02  0.51100000000E-03 0. -1.
    9900012    2    1    2    0    0 -0.12491436206E+02 -0.31338461031E+02 -0.29849262937E+02  0.46142316342E+02  0.99999870637E+01 0.  0.
        -12    1    1    2    0    0  0.12491436206E+02  0.31338461031E+02  0.29849262937E+02  0.45045683658E+02  0.00000000000E+00 0.  1.
         11    1    3    3    0    0 -0.17638707968E+01 -0.13468130105E+02 -0.13800122490E+02  0.19363500451E+02  0.51100000000E-03 0.  1.
        -11    1    3    3    0    0 -0.11917643406E+01 -0.27941393126E+00 -0.17303295433E+00  0.12362504006E+01  0.51100000000E-03 0. -1.
         12    1    3    3    0    0 -0.95358010689E+01 -0.17590916995E+02 -0.15876107494E+02  0.25542565491E+02  0.00000000000E+00 0. -1.
</event>
<event>
 7    1  0.1683291E-008  0.4614232E+02  0.7816164E-02  0.1320468E+00
        -11   -1    0    0    0    0  0.00000000000E+00  0.00000000000E+00  0.45593999997E+02  0.45594000000E+02  0.51100000000E-03 0.  1.
         11   -1    0    0    0    0 -0.00000000000E+00 -0.00000000000E+00 -0.45593999997E+02  0.45594000000E+02  0.51100000000E-03 0. -1.
    9900012    2    1    2    0    0  0.35879061486E+02  0.25790485201E+02  0.87554126896E+01  0.46142318393E+02  0.10000005766E+02 0.  0.
        -12    1    1    2    0    0 -0.35879061486E+02 -0.25790485201E+02 -0.87554126896E+01  0.45045681607E+02  0.00000000000E+00 0.  1.
         11    1    3    3    0    0  0.13448642985E+02  0.14130326966E+02  0.35150508831E+01  0.19821395543E+02  0.51100000000E-03 0. -1.
        -11    1    3    3    0    0  0.60658324988E+01  0.10741013151E+01  0.24612077169E+01  0.66336687607E+01  0.51100000000E-03 0.  1.
        -12    1    3    3    0    0  0.16364586002E+02  0.10586056920E+02  0.27791540896E+01  0.19687254090E+02  0.00000000000E+00 0.  1.
</event>
<event>
 7    1  0.1683291E-008  0.4614232E+02  0.7816164E-02  0.1320468E+00
        -11   -1    0    0    0    0  0.00000000000E+00  0.00000000000E+00  0.45593999997E+02  0.45594000000E+02  0.51100000000E-03 0.  1.
         11   -1    0    0    0    0 -0.00000000000E+00 -0.00000000000E+00 -0.45593999997E+02  0.45594000000E+02  0.51100000000E-03 0. -1.
    9900012    2    1    2    0    0 -0.41503870924E+02 -0.21777563885E+01 -0.17372379861E+02  0.46142317559E+02  0.99999981597E+01 0.  0.
        -12    1    1    2    0    0  0.41503870924E+02  0.21777563885E+01  0.17372379861E+02  0.45045682441E+02  0.00000000000E+00 0.  1.
         11    1    3    3    0    0 -0.38072849257E+02 -0.44622180095E+01 -0.16878880855E+02  0.41884959822E+02  0.51100000000E-03 0. -1.
        -11    1    3    3    0    0 -0.21742252107E+01  0.14858909844E+01 -0.76812736380E+00  0.27432001736E+01  0.51100000000E-03 0.  1.
         12    1    3    3    0    0 -0.12567964553E+01  0.79857063656E+00  0.27462835786E+00  0.15141575634E+01  0.00000000000E+00 0. -1.
</event>
<event>
 7    1  0.1683291E-008  0.4614232E+02  0.7816164E-02  0.1320468E+00
        -11   -1    0    0    0    0  0.00000000000E+00  0.00000000000E+00  0.45593999997E+02  0.45594000000E+02  0.51100000000E-03 0. -1.
         11   -1    0    0    0    0 -0.00000000000E+00 -0.00000000000E+00 -0.45593999997E+02  0.45594000000E+02  0.51100000000E-03 0.  1.
    9900012    2    1    2    0    0 -0.20520750457E+02  0.33068702800E+02  0.22681997722E+02  0.46142319576E+02  0.10000016546E+02 0.  0.
        -12    1    1    2    0    0  0.20520750457E+02 -0.33068702800E+02 -0.22681997722E+02  0.45045680424E+02  0.00000000000E+00 0.  1.
         11    1    3    3    0    0 -0.45472658967E+01  0.33725230347E+01  0.27348524071E+01  0.62873648458E+01  0.51100000000E-03 0.  1.
        -11    1    3    3    0    0 -0.14988222973E+02  0.28741573359E+02  0.16995691202E+02  0.36600251184E+02  0.51100000000E-03 0. -1.
        -12    1    3    3    0    0 -0.98526158750E+00  0.95460640643E+00  0.29514541133E+01  0.32547035456E+01  0.00000000000E+00 0.  1.
</event>
<event>
 7    1  0.1683291E-008  0.4614232E+02  0.7816164E-02  0.1320468E+00
        -11   -1    0    0    0    0  0.00000000000E+00  0.00000000000E+00  0.45593999997E+02  0.45594000000E+02  0.51100000000E-03 0.  1.
         11   -1    0    0    0    0 -0.00000000000E+00 -0.00000000000E+00 -0.45593999997E+02  0.45594000000E+02  0.51100000000E-03 0. -1.
    9900012    2    1    2    0    0 -0.12262035728E+02 -0.19819668688E+02 -0.38547848767E+02  0.46142318391E+02  0.10000005741E+02 0.  0.
        -12    1    1    2    0    0  0.12262035728E+02  0.19819668688E+02  0.38547848767E+02  0.45045681609E+02  0.00000000000E+00 0.  1.
         11    1    3    3    0    0 -0.10618709790E+02 -0.13458584412E+02 -0.33654849886E+02  0.37769556697E+02  0.51100000000E-03 0. -1.
        -11    1    3    3    0    0 -0.18728832243E+01 -0.60845673878E+01 -0.48648661073E+01  0.80122764787E+01  0.51100000000E-03 0.  1.
         12    1    3    3    0    0  0.22955728669E+00 -0.27651688787E+00 -0.28132773561E-01  0.36048521482E+00  0.00000000000E+00 0. -1.
</event>
<event>
 7    1  0.1683291E-008  0.4614232E+02  0.7816164E-02  0.1320468E+00
        -11   -1    0    0    0    0  0.00000000000E+00  0.00000000000E+00  0.45593999997E+02  0.45594000000E+02  0.51100000000E-03 0.  1.
         11   -1    0    0    0    0 -0.00000000000E+00 -0.00000000000E+00 -0.45593999997E+02  0.45594000000E+02  0.51100000000E-03 0. -1.
    9900012    2    1    2    0    0  0.23975565324E+01  0.30777345947E+02 -0.32804270703E+02  0.46142317885E+02  0.10000001125E+02 0.  0.
        -12    1    1    2    0    0 -0.23975565324E+01 -0.30777345947E+02  0.32804270703E+02  0.45045682115E+02  0.00000000000E+00 0.  1.
         11    1    3    3    0    0  0.47376905315E+01  0.11369628137E+02 -0.10127825107E+02  0.15946378812E+02  0.51100000000E-03 0. -1.
        -11    1    3    3    0    0 -0.12510069250E+01  0.71732648167E+01 -0.57270251732E+01  0.92638849330E+01  0.51100000000E-03 0.  1.
         12    1    3    3    0    0 -0.10891270740E+01  0.12234452993E+02 -0.16949420423E+02  0.20932054140E+02  0.00000000000E+00 0. -1.
</event>
<event>
 7    1  0.1683291E-008  0.4614232E+02  0.7816164E-02  0.1320468E+00
        -11   -1    0    0    0    0  0.00000000000E+00  0.00000000000E+00  0.45593999997E+02  0.45594000000E+02  0.51100000000E-03 0.  1.
         11   -1    0    0    0    0 -0.00000000000E+00 -0.00000000000E+00 -0.45593999997E+02  0.45594000000E+02  0.51100000000E-03 0. -1.
    9900012    2    1    2    0    0 -0.10056915856E+02  0.13003706046E+02 -0.41938949591E+02  0.46142318516E+02  0.10000006888E+02 0.  0.
        -12    1    1    2    0    0  0.10056915856E+02 -0.13003706046E+02  0.41938949591E+02  0.45045681484E+02  0.00000000000E+00 0.  1.
         11    1    3    3    0    0 -0.85472933110E+00  0.60771887601E+01 -0.11626234714E+02  0.13146563024E+02  0.51100000000E-03 0. -1.
        -11    1    3    3    0    0 -0.19530510469E+01  0.37898584569E+01 -0.16905599962E+02  0.17434928903E+02  0.51100000000E-03 0.  1.
        -12    1    3    3    0    0 -0.72491354785E+01  0.31366588292E+01 -0.13407114916E+02  0.15560826590E+02  0.00000000000E+00 0.  1.
</event>
<event>
 7    1  0.1683291E-008  0.4614231E+02  0.7816164E-02  0.1320468E+00
        -11   -1    0    0    0    0  0.00000000000E+00  0.00000000000E+00  0.45593999997E+02  0.45594000000E+02  0.51100000000E-03 0.  1.
         11   -1    0    0    0    0 -0.00000000000E+00 -0.00000000000E+00 -0.45593999997E+02  0.45594000000E+02  0.51100000000E-03 0. -1.
    9900012    2    1    2    0    0  0.21299427322E+02 -0.32163555299E+01 -0.39561390314E+02  0.46142310410E+02  0.99999329630E+01 0.  0.
        -12    1    1    2    0    0 -0.21299427322E+02  0.32163555299E+01  0.39561390314E+02  0.45045689590E+02  0.00000000000E+00 0.  1.
         11    1    3    3    0    0  0.10795036032E-01 -0.93760455512E+00 -0.56547220035E+01  0.57319368483E+01  0.51100000000E-03 0. -1.
        -11    1    3    3    0    0  0.18519076636E+02 -0.17365340666E+01 -0.25646848611E+02  0.31681739124E+02  0.51100000000E-03 0.  1.
         12    1    3    3    0    0  0.27695556501E+01 -0.54221690824E+00 -0.82598196995E+01  0.87286344375E+01  0.00000000000E+00 0. -1.
</event>
<event>
 7    1  0.1683291E-008  0.4614232E+02  0.7816164E-02  0.1320468E+00
        -11   -1    0    0    0    0  0.00000000000E+00  0.00000000000E+00  0.45593999997E+02  0.45594000000E+02  0.51100000000E-03 0. -1.
         11   -1    0    0    0    0 -0.00000000000E+00 -0.00000000000E+00 -0.45593999997E+02  0.45594000000E+02  0.51100000000E-03 0.  1.
    9900012    2    1    2    0    0 -0.87602965390E+01 -0.43170450595E+02  0.94171579207E+01  0.46142318039E+02  0.10000002535E+02 0.  0.
        -12    1    1    2    0    0  0.87602965390E+01  0.43170450595E+02 -0.94171579207E+01  0.45045681961E+02  0.00000000000E+00 0.  1.
         11    1    3    3    0    0  0.57789686648E+00 -0.11009487443E+02  0.43643255088E+01  0.11857070294E+02  0.51100000000E-03 0. -1.
        -11    1    3    3    0    0 -0.37525945188E+00 -0.17539621137E+00  0.65887913444E+00  0.77827081540E+00  0.51100000000E-03 0.  1.
         12    1    3    3    0    0 -0.89629339536E+01 -0.31985566941E+02  0.43939532775E+01  0.33506976930E+02  0.00000000000E+00 0. -1.
</event>
<event>
 7    1  0.1683291E-008  0.4614232E+02  0.7816164E-02  0.1320468E+00
        -11   -1    0    0    0    0  0.00000000000E+00  0.00000000000E+00  0.45593999997E+02  0.45594000000E+02  0.51100000000E-03 0.  1.
         11   -1    0    0    0    0 -0.00000000000E+00 -0.00000000000E+00 -0.45593999997E+02  0.45594000000E+02  0.51100000000E-03 0. -1.
    9900012    2    1    2    0    0  0.21272306537E+02 -0.49493496185E+01 -0.39396781515E+02  0.46142317845E+02  0.10000000766E+02 0.  0.
        -12    1    1    2    0    0 -0.21272306537E+02  0.49493496185E+01  0.39396781515E+02  0.45045682155E+02  0.00000000000E+00 0.  1.
         11    1    3    3    0    0  0.55795223796E+01  0.11683840633E+01 -0.52668108562E+01  0.77611525021E+01  0.51100000000E-03 0. -1.
        -11    1    3    3    0    0 -0.59698968293E-01 -0.93381308502E+00 -0.24615640338E+01  0.26334138676E+01  0.51100000000E-03 0.  1.
         12    1    3    3    0    0  0.15752483126E+02 -0.51839205968E+01 -0.31668406625E+02  0.35747751475E+02  0.00000000000E+00 0. -1.
</event>
<event>
 7    1  0.1683291E-008  0.4614232E+02  0.7816164E-02  0.1320468E+00
        -11   -1    0    0    0    0  0.00000000000E+00  0.00000000000E+00  0.45593999997E+02  0.45594000000E+02  0.51100000000E-03 0. -1.
         11   -1    0    0    0    0 -0.00000000000E+00 -0.00000000000E+00 -0.45593999997E+02  0.45594000000E+02  0.51100000000E-03 0.  1.
    9900012    2    1    2    0    0  0.36637530009E+02 -0.24902685781E+02 -0.81646267285E+01  0.46142317700E+02  0.99999994435E+01 0.  0.
        -12    1    1    2    0    0 -0.36637530009E+02  0.24902685781E+02  0.81646267285E+01  0.45045682300E+02  0.00000000000E+00 0.  1.
         11    1    3    3    0    0  0.21795112687E+02 -0.14795697988E+02 -0.63066086228E+01  0.27087135851E+02  0.51100000000E-03 0. -1.
        -11    1    3    3    0    0  0.11791895950E+02 -0.78879220871E+01  0.11457511585E+01  0.14233090701E+02  0.51100000000E-03 0.  1.
         12    1    3    3    0    0  0.30505213722E+01 -0.22190657052E+01 -0.30037692642E+01  0.48220911479E+01  0.00000000000E+00 0. -1.
</event>
<event>
 7    1  0.1683291E-008  0.4614232E+02  0.7816164E-02  0.1320468E+00
        -11   -1    0    0    0    0  0.00000000000E+00  0.00000000000E+00  0.45593999997E+02  0.45594000000E+02  0.51100000000E-03 0.  1.
         11   -1    0    0    0    0 -0.00000000000E+00 -0.00000000000E+00 -0.45593999997E+02  0.45594000000E+02  0.51100000000E-03 0. -1.
    9900012    2    1    2    0    0 -0.34484625272E+02 -0.22812221545E+00 -0.28980544747E+02  0.46142318812E+02  0.10000009580E+02 0.  0.
        -12    1    1    2    0    0  0.34484625272E+02  0.22812221545E+00  0.28980544747E+02  0.45045681188E+02  0.00000000000E+00 0.  1.
         11    1    3    3    0    0 -0.23741473086E+02 -0.38425730824E+01 -0.19453434292E+02  0.30933137865E+02  0.51100000000E-03 0. -1.
        -11    1    3    3    0    0 -0.13491641775E+01  0.11102580228E+01 -0.30882468089E+01  0.35482651351E+01  0.51100000000E-03 0.  1.
         12    1    3    3    0    0 -0.93939880084E+01  0.25041928441E+01 -0.64388636460E+01  0.11660915811E+02  0.00000000000E+00 0. -1.
</event>
<event>
 7    1  0.1683291E-008  0.4614232E+02  0.7816164E-02  0.1320468E+00
        -11   -1    0    0    0    0  0.00000000000E+00  0.00000000000E+00  0.45593999997E+02  0.45594000000E+02  0.51100000000E-03 0.  1.
         11   -1    0    0    0    0 -0.00000000000E+00 -0.00000000000E+00 -0.45593999997E+02  0.45594000000E+02  0.51100000000E-03 0. -1.
    9900012    2    1    2    0    0 -0.40068878345E+01  0.17287259049E+02 -0.41403008207E+02  0.46142316920E+02  0.99999923329E+01 0.  0.
        -12    1    1    2    0    0  0.40068878345E+01 -0.17287259049E+02  0.41403008207E+02  0.45045683080E+02  0.00000000000E+00 0.  1.
         11    1    3    3    0    0  0.39175467611E-01  0.53344520693E+00 -0.53601238641E+01  0.53867454558E+01  0.51100000000E-03 0. -1.
        -11    1    3    3    0    0 -0.13779611518E+01  0.13580751826E+02 -0.20204139362E+02  0.24383249266E+02  0.51100000000E-03 0.  1.
        -12    1    3    3    0    0 -0.26681021503E+01  0.31730620158E+01 -0.15838744980E+02  0.16372322199E+02  0.00000000000E+00 0.  1.
</event>
<event>
 7    1  0.1683291E-008  0.4614232E+02  0.7816164E-02  0.1320468E+00
        -11   -1    0    0    0    0  0.00000000000E+00  0.00000000000E+00  0.45593999997E+02  0.45594000000E+02  0.51100000000E-03 0.  1.
         11   -1    0    0    0    0 -0.00000000000E+00 -0.00000000000E+00 -0.45593999997E+02  0.45594000000E+02  0.51100000000E-03 0. -1.
    9900012    2    1    2    0    0  0.11730204347E+02 -0.37993879944E+02  0.21165558072E+02  0.46142318123E+02  0.10000003302E+02 0.  0.
        -12    1    1    2    0    0 -0.11730204347E+02  0.37993879944E+02 -0.21165558072E+02  0.45045681877E+02  0.00000000000E+00 0.  1.
         11    1    3    3    0    0  0.85892628425E+01 -0.25758180187E+02  0.14692251076E+02  0.30872666303E+02  0.51100000000E-03 0. -1.
        -11    1    3    3    0    0  0.25727295708E+01 -0.10626023970E+02  0.75178903287E+01  0.13268383402E+02  0.51100000000E-03 0.  1.
        -12    1    3    3    0    0  0.56821193389E+00 -0.16096757870E+01 -0.10445833326E+01  0.20012684177E+01  0.00000000000E+00 0.  1.
</event>
<event>
 7    1  0.1683291E-008  0.4614232E+02  0.7816164E-02  0.1320468E+00
        -11   -1    0    0    0    0  0.00000000000E+00  0.00000000000E+00  0.45593999997E+02  0.45594000000E+02  0.51100000000E-03 0. -1.
         11   -1    0    0    0    0 -0.00000000000E+00 -0.00000000000E+00 -0.45593999997E+02  0.45594000000E+02  0.51100000000E-03 0.  1.
    9900012    2    1    2    0    0  0.27086788227E+02  0.35966419027E+02 -0.13550296729E+01  0.46142317638E+02  0.99999988731E+01 0.  0.
        -12    1    1    2    0    0 -0.27086788227E+02 -0.35966419027E+02  0.13550296729E+01  0.45045682362E+02  0.00000000000E+00 0.  1.
         11    1    3    3    0    0  0.66742019399E+01  0.10262200871E+02  0.25471765296E+01  0.12503833284E+02  0.51100000000E-03 0. -1.
        -11    1    3    3    0    0  0.15558669703E+02  0.22915374338E+02 -0.21906267830E+01  0.27784625783E+02  0.51100000000E-03 0.  1.
        -12    1    3    3    0    0  0.48539165850E+01  0.27888438180E+01 -0.17115794195E+01  0.58538585707E+01  0.00000000000E+00 0.  1.
</event>
<event>
 7    1  0.1683291E-008  0.4614232E+02  0.7816164E-02  0.1320468E+00
        -11   -1    0    0    0    0  0.00000000000E+00  0.00000000000E+00  0.45593999997E+02  0.45594000000E+02  0.51100000000E-03 0.  1.
         11   -1    0    0    0    0 -0.00000000000E+00 -0.00000000000E+00 -0.45593999997E+02  0.45594000000E+02  0.51100000000E-03 0. -1.
    9900012    2    1    2    0    0 -0.25049284270E+02  0.37305436885E+02 -0.31545452288E+01  0.46142318528E+02  0.10000006993E+02 0.  0.
        -12    1    1    2    0    0  0.25049284270E+02 -0.37305436885E+02  0.31545452288E+01  0.45045681472E+02  0.00000000000E+00 0.  1.
         11    1    3    3    0    0 -0.14097239247E+02  0.21987186072E+02  0.24208337468E+01  0.26230305794E+02  0.51100000000E-03 0. -1.
        -11    1    3    3    0    0 -0.27059226962E+01  0.19911779901E+01 -0.17132547994E+01  0.37712132921E+01  0.51100000000E-03 0.  1.
         12    1    3    3    0    0 -0.82461223277E+01  0.13327072823E+02 -0.38621241762E+01  0.16140799442E+02  0.00000000000E+00 0. -1.
</event>
<event>
 7    1  0.1683291E-008  0.4614232E+02  0.7816164E-02  0.1320468E+00
        -11   -1    0    0    0    0  0.00000000000E+00  0.00000000000E+00  0.45593999997E+02  0.45594000000E+02  0.51100000000E-03 0.  1.
         11   -1    0    0    0    0 -0.00000000000E+00 -0.00000000000E+00 -0.45593999997E+02  0.45594000000E+02  0.51100000000E-03 0. -1.
    9900012    2    1    2    0    0 -0.68036530408E+01  0.38886726525E+02 -0.21694384306E+02  0.46142317577E+02  0.99999983223E+01 0.  0.
        -12    1    1    2    0    0  0.68036530408E+01 -0.38886726525E+02  0.21694384306E+02  0.45045682423E+02  0.00000000000E+00 0.  1.
         11    1    3    3    0    0  0.11551623126E+01  0.38911827084E+01 -0.39696958249E+01  0.56775160099E+01  0.51100000000E-03 0. -1.
        -11    1    3    3    0    0 -0.64411148625E+00  0.13652163678E+02 -0.49425659295E+01  0.14533595939E+02  0.51100000000E-03 0.  1.
         12    1    3    3    0    0 -0.73147038671E+01  0.21343380139E+02 -0.12782122551E+02  0.25931205628E+02  0.00000000000E+00 0. -1.
</event>
<event>
 7    1  0.1683291E-008  0.4614232E+02  0.7816164E-02  0.1320468E+00
        -11   -1    0    0    0    0  0.00000000000E+00  0.00000000000E+00  0.45593999997E+02  0.45594000000E+02  0.51100000000E-03 0.  1.
         11   -1    0    0    0    0 -0.00000000000E+00 -0.00000000000E+00 -0.45593999997E+02  0.45594000000E+02  0.51100000000E-03 0. -1.
    9900012    2    1    2    0    0 -0.22598306164E+02  0.11010871156E+02 -0.37379015242E+02  0.46142317571E+02  0.99999982620E+01 0.  0.
        -12    1    1    2    0    0  0.22598306164E+02 -0.11010871156E+02  0.37379015242E+02  0.45045682429E+02  0.00000000000E+00 0.  1.
         11    1    3    3    0    0 -0.85829562007E+01  0.15087713424E+01 -0.80496657972E+01  0.11863416364E+02  0.51100000000E-03 0. -1.
        -11    1    3    3    0    0 -0.30281579791E+01  0.59949655188E+00 -0.25861690748E+01  0.40270842562E+01  0.51100000000E-03 0.  1.
         12    1    3    3    0    0 -0.10987191984E+02  0.89026032617E+01 -0.26743180370E+02  0.30251816951E+02  0.00000000000E+00 0. -1.
</event>
<event>
 7    1  0.1683291E-008  0.4614232E+02  0.7816164E-02  0.1320468E+00
        -11   -1    0    0    0    0  0.00000000000E+00  0.00000000000E+00  0.45593999997E+02  0.45594000000E+02  0.51100000000E-03 0.  1.
         11   -1    0    0    0    0 -0.00000000000E+00 -0.00000000000E+00 -0.45593999997E+02  0.45594000000E+02  0.51100000000E-03 0. -1.
    9900012    2    1    2    0    0 -0.34967743271E+02  0.86130873409E+00 -0.28383598279E+02  0.46142316816E+02  0.99999913842E+01 0.  0.
        -12    1    1    2    0    0  0.34967743271E+02 -0.86130873409E+00  0.28383598279E+02  0.45045683184E+02  0.00000000000E+00 0.  1.
         11    1    3    3    0    0 -0.25781123009E+02  0.30788863495E+01 -0.20137791880E+02  0.32858431290E+02  0.51100000000E-03 0.  1.
        -11    1    3    3    0    0 -0.39401177093E+01 -0.20652588985E+00 -0.61094308450E+01  0.72727110500E+01  0.51100000000E-03 0. -1.
         12    1    3    3    0    0 -0.52465025526E+01 -0.20110517256E+01 -0.21363755547E+01  0.60111744766E+01  0.00000000000E+00 0. -1.
</event>
<event>
 7    1  0.1683291E-008  0.4614232E+02  0.7816164E-02  0.1320468E+00
        -11   -1    0    0    0    0  0.00000000000E+00  0.00000000000E+00  0.45593999997E+02  0.45594000000E+02  0.51100000000E-03 0.  1.
         11   -1    0    0    0    0 -0.00000000000E+00 -0.00000000000E+00 -0.45593999997E+02  0.45594000000E+02  0.51100000000E-03 0. -1.
    9900012    2    1    2    0    0  0.30266921049E+02 -0.30794166007E+02 -0.12835356511E+02  0.46142317114E+02  0.99999941029E+01 0.  0.
        -12    1    1    2    0    0 -0.30266921049E+02  0.30794166007E+02  0.12835356511E+02  0.45045682886E+02  0.00000000000E+00 0.  1.
         11    1    3    3    0    0  0.69181043581E+01 -0.96882131612E+01  0.56556877874E+00  0.11918116901E+02  0.51100000000E-03 0. -1.
        -11    1    3    3    0    0  0.79275402735E+01 -0.77311679883E+01 -0.44237951001E+01  0.11924211362E+02  0.51100000000E-03 0.  1.
         12    1    3    3    0    0  0.15421276417E+02 -0.13374784858E+02 -0.89771301901E+01  0.22299988851E+02  0.00000000000E+00 0. -1.
</event>
<event>
 7    1  0.1683291E-008  0.4614232E+02  0.7816164E-02  0.1320468E+00
        -11   -1    0    0    0    0  0.00000000000E+00  0.00000000000E+00  0.45593999997E+02  0.45594000000E+02  0.51100000000E-03 0.  1.
         11   -1    0    0    0    0 -0.00000000000E+00 -0.00000000000E+00 -0.45593999997E+02  0.45594000000E+02  0.51100000000E-03 0. -1.
    9900012    2    1    2    0    0  0.19502975850E+02 -0.28546401303E+02 -0.28876468615E+02  0.46142317254E+02  0.99999953791E+01 0.  0.
        -12    1    1    2    0    0 -0.19502975850E+02  0.28546401303E+02  0.28876468615E+02  0.45045682746E+02  0.00000000000E+00 0.  1.
         11    1    3    3    0    0  0.12896842035E+02 -0.15733137867E+02 -0.17578482518E+02  0.26886115553E+02  0.51100000000E-03 0. -1.
        -11    1    3    3    0    0  0.60118082557E+01 -0.13254923171E+02 -0.96878699715E+01  0.17483982716E+02  0.51100000000E-03 0.  1.
        -12    1    3    3    0    0  0.59432555933E+00  0.44165973601E+00 -0.16101161256E+01  0.17722189850E+01  0.00000000000E+00 0.  1.
</event>
<event>
 7    1  0.1683291E-008  0.4614232E+02  0.7816164E-02  0.1320468E+00
        -11   -1    0    0    0    0  0.00000000000E+00  0.00000000000E+00  0.45593999997E+02  0.45594000000E+02  0.51100000000E-03 0.  1.
         11   -1    0    0    0    0 -0.00000000000E+00 -0.00000000000E+00 -0.45593999997E+02  0.45594000000E+02  0.51100000000E-03 0. -1.
    9900012    2    1    2    0    0  0.10161618974E+02  0.10348024993E+02 -0.42647078783E+02  0.46142318185E+02  0.10000003869E+02 0.  0.
        -12    1    1    2    0    0 -0.10161618974E+02 -0.10348024993E+02  0.42647078783E+02  0.45045681815E+02  0.00000000000E+00 0.  1.
         11    1    3    3    0    0  0.56972149191E+01  0.35677239330E+01 -0.19091138477E+02  0.20240021752E+02  0.51100000000E-03 0. -1.
        -11    1    3    3    0    0  0.32481193108E+01  0.81984847096E+01 -0.18070632920E+02  0.20107540998E+02  0.51100000000E-03 0.  1.
        -12    1    3    3    0    0  0.12162847440E+01 -0.14181836498E+01 -0.54853073854E+01  0.57947554353E+01  0.00000000000E+00 0.  1.
</event>
<event>
 7    1  0.1683291E-008  0.4614232E+02  0.7816164E-02  0.1320468E+00
        -11   -1    0    0    0    0  0.00000000000E+00  0.00000000000E+00  0.45593999997E+02  0.45594000000E+02  0.51100000000E-03 0.  1.
         11   -1    0    0    0    0 -0.00000000000E+00 -0.00000000000E+00 -0.45593999997E+02  0.45594000000E+02  0.51100000000E-03 0. -1.
    9900012    2    1    2    0    0  0.15129741843E+02 -0.58991224941E+01 -0.42016722264E+02  0.46142315586E+02  0.99999801699E+01 0.  0.
        -12    1    1    2    0    0 -0.15129741843E+02  0.58991224941E+01  0.42016722264E+02  0.45045684414E+02  0.00000000000E+00 0.  1.
         11    1    3    3    0    0 -0.23001824432E+00  0.11781034379E+01 -0.20848086339E+01  0.24056731707E+01  0.51100000000E-03 0. -1.
        -11    1    3    3    0    0  0.14787554629E+02 -0.65152141980E+01 -0.32848578388E+02  0.36608044066E+02  0.51100000000E-03 0.  1.
        -12    1    3    3    0    0  0.57220545808E+00 -0.56201173395E+00 -0.70833352427E+01  0.71285983500E+01  0.00000000000E+00 0.  1.
</event>
<event>
 7    1  0.1683291E-008  0.4614232E+02  0.7816164E-02  0.1320468E+00
        -11   -1    0    0    0    0  0.00000000000E+00  0.00000000000E+00  0.45593999997E+02  0.45594000000E+02  0.51100000000E-03 0.  1.
         11   -1    0    0    0    0 -0.00000000000E+00 -0.00000000000E+00 -0.45593999997E+02  0.45594000000E+02  0.51100000000E-03 0. -1.
    9900012    2    1    2    0    0 -0.27049443742E+02 -0.45368315321E+01 -0.35733154238E+02  0.46142316978E+02  0.99999928581E+01 0.  0.
        -12    1    1    2    0    0  0.27049443742E+02  0.45368315321E+01  0.35733154238E+02  0.45045683022E+02  0.00000000000E+00 0.  1.
         11    1    3    3    0    0 -0.19657250469E+02 -0.63382229330E+01 -0.27142256608E+02  0.34106929794E+02  0.51100000000E-03 0. -1.
        -11    1    3    3    0    0 -0.70317712444E+00  0.28069720329E+00 -0.32629053778E+01  0.33495971032E+01  0.51100000000E-03 0.  1.
         12    1    3    3    0    0 -0.66890161485E+01  0.15206941976E+01 -0.53279922522E+01  0.86857900802E+01  0.00000000000E+00 0. -1.
</event>
<event>
 7    1  0.1683291E-008  0.4614232E+02  0.7816164E-02  0.1320468E+00
        -11   -1    0    0    0    0  0.00000000000E+00  0.00000000000E+00  0.45593999997E+02  0.45594000000E+02  0.51100000000E-03 0. -1.
         11   -1    0    0    0    0 -0.00000000000E+00 -0.00000000000E+00 -0.45593999997E+02  0.45594000000E+02  0.51100000000E-03 0.  1.
    9900012    2    1    2    0    0 -0.36855283615E+02  0.20292392756E+02  0.16094107367E+02  0.46142318453E+02  0.10000006306E+02 0.  0.
        -12    1    1    2    0    0  0.36855283615E+02 -0.20292392756E+02 -0.16094107367E+02  0.45045681547E+02  0.00000000000E+00 0.  1.
         11    1    3    3    0    0 -0.13563841372E+02  0.59489774355E+01  0.79549095302E+01  0.16812159623E+02  0.51100000000E-03 0. -1.
        -11    1    3    3    0    0  0.11892398918E+00  0.96211662817E+00  0.10907475205E+01  0.14592949449E+01  0.51100000000E-03 0.  1.
        -12    1    3    3    0    0 -0.23410366232E+02  0.13381298693E+02  0.70484503166E+01  0.27870863885E+02  0.00000000000E+00 0.  1.
</event>
<event>
 7    1  0.1683291E-008  0.4614232E+02  0.7816164E-02  0.1320468E+00
        -11   -1    0    0    0    0  0.00000000000E+00  0.00000000000E+00  0.45593999997E+02  0.45594000000E+02  0.51100000000E-03 0.  1.
         11   -1    0    0    0    0 -0.00000000000E+00 -0.00000000000E+00 -0.45593999997E+02  0.45594000000E+02  0.51100000000E-03 0. -1.
    9900012    2    1    2    0    0 -0.22175489042E+02  0.33310212595E+02 -0.20683106633E+02  0.46142317883E+02  0.10000001109E+02 0.  0.
        -12    1    1    2    0    0  0.22175489042E+02 -0.33310212595E+02  0.20683106633E+02  0.45045682117E+02  0.00000000000E+00 0.  1.
         11    1    3    3    0    0 -0.13802753208E+02  0.21699645232E+02 -0.12463466164E+02  0.28578463716E+02  0.51100000000E-03 0. -1.
        -11    1    3    3    0    0 -0.22823835780E+01  0.29589873579E+01 -0.54830222386E+01  0.66353910293E+01  0.51100000000E-03 0.  1.
        -12    1    3    3    0    0 -0.60903522565E+01  0.86515800054E+01 -0.27366182305E+01  0.10928463137E+02  0.00000000000E+00 0.  1.
</event>
<event>
 7    1  0.1683291E-008  0.4614231E+02  0.7816164E-02  0.1320468E+00
        -11   -1    0    0    0    0  0.00000000000E+00  0.00000000000E+00  0.45593999997E+02  0.45594000000E+02  0.51100000000E-03 0.  1.
         11   -1    0    0    0    0 -0.00000000000E+00 -0.00000000000E+00 -0.45593999997E+02  0.45594000000E+02  0.51100000000E-03 0. -1.
    9900012    2    1    2    0    0 -0.11280217351E+02  0.16406583993E+02 -0.40406616892E+02  0.46142312188E+02  0.99999491754E+01 0.  0.
        -12    1    1    2    0    0  0.11280217351E+02 -0.16406583993E+02  0.40406616892E+02  0.45045687812E+02  0.00000000000E+00 0.  1.
         11    1    3    3    0    0 -0.40093304965E+01  0.21411168730E+01 -0.17893249461E+02  0.18461513725E+02  0.51100000000E-03 0. -1.
        -11    1    3    3    0    0 -0.64392201013E+01  0.11106318187E+02 -0.18019598936E+02  0.22125094469E+02  0.51100000000E-03 0.  1.
         12    1    3    3    0    0 -0.83166675309E+00  0.31591489335E+01 -0.44937684951E+01  0.55557039932E+01  0.00000000000E+00 0. -1.
</event>
<event>
 7    1  0.1683291E-008  0.4614232E+02  0.7816164E-02  0.1320468E+00
        -11   -1    0    0    0    0  0.00000000000E+00  0.00000000000E+00  0.45593999997E+02  0.45594000000E+02  0.51100000000E-03 0. -1.
         11   -1    0    0    0    0 -0.00000000000E+00 -0.00000000000E+00 -0.45593999997E+02  0.45594000000E+02  0.51100000000E-03 0.  1.
    9900012    2    1    2    0    0 -0.40414039992E+02  0.16890765035E+02  0.10512880180E+02  0.46142320722E+02  0.10000027000E+02 0.  0.
        -12    1    1    2    0    0  0.40414039992E+02 -0.16890765035E+02 -0.10512880180E+02  0.45045679278E+02  0.00000000000E+00 0.  1.
         11    1    3    3    0    0 -0.15495277744E+02  0.22524148097E+01  0.58693933596E+01  0.16722044836E+02  0.51100000000E-03 0. -1.
        -11    1    3    3    0    0 -0.19215329979E+01  0.45138824384E+00  0.78859031158E+00  0.21255388374E+01  0.51100000000E-03 0.  1.
         12    1    3    3    0    0 -0.22997229250E+02  0.14186961982E+02  0.38548965089E+01  0.27294737049E+02  0.00000000000E+00 0. -1.
</event>
<event>
 7    1  0.1683291E-008  0.4614232E+02  0.7816164E-02  0.1320468E+00
        -11   -1    0    0    0    0  0.00000000000E+00  0.00000000000E+00  0.45593999997E+02  0.45594000000E+02  0.51100000000E-03 0.  1.
         11   -1    0    0    0    0 -0.00000000000E+00 -0.00000000000E+00 -0.45593999997E+02  0.45594000000E+02  0.51100000000E-03 0. -1.
    9900012    2    1    2    0    0  0.24194758684E+02 -0.75025289084E+01 -0.37248345802E+02  0.46142317046E+02  0.99999934819E+01 0.  0.
        -12    1    1    2    0    0 -0.24194758684E+02  0.75025289084E+01  0.37248345802E+02  0.45045682954E+02  0.00000000000E+00 0.  1.
         11    1    3    3    0    0  0.85003234411E+01 -0.16576995246E+01 -0.13060836904E+02  0.15671277140E+02  0.51100000000E-03 0. -1.
        -11    1    3    3    0    0  0.52449271409E+01 -0.22658178895E+01 -0.27182648539E+01  0.63270969251E+01  0.51100000000E-03 0.  1.
        -12    1    3    3    0    0  0.10449508102E+02 -0.35790114943E+01 -0.21469244044E+02  0.24143942981E+02  0.00000000000E+00 0.  1.
</event>
<event>
 7    1  0.1683291E-008  0.4614232E+02  0.7816164E-02  0.1320468E+00
        -11   -1    0    0    0    0  0.00000000000E+00  0.00000000000E+00  0.45593999997E+02  0.45594000000E+02  0.51100000000E-03 0.  1.
         11   -1    0    0    0    0 -0.00000000000E+00 -0.00000000000E+00 -0.45593999997E+02  0.45594000000E+02  0.51100000000E-03 0. -1.
    9900012    2    1    2    0    0 -0.42274122029E+02 -0.14696659750E+02 -0.51010086832E+01  0.46142317734E+02  0.99999997571E+01 0.  0.
        -12    1    1    2    0    0  0.42274122029E+02  0.14696659750E+02  0.51010086832E+01  0.45045682266E+02  0.00000000000E+00 0.  1.
         11    1    3    3    0    0 -0.29634429054E+02 -0.61056289916E+01 -0.53586145990E+01  0.30727721058E+02  0.51100000000E-03 0. -1.
        -11    1    3    3    0    0 -0.20110112777E+01 -0.58945668990E+00  0.25171499384E+00  0.21106838341E+01  0.51100000000E-03 0.  1.
         12    1    3    3    0    0 -0.10628681698E+02 -0.80015740688E+01  0.58909219726E-02  0.13303912842E+02  0.00000000000E+00 0. -1.
</event>
<event>
 7    1  0.1683291E-008  0.4614232E+02  0.7816164E-02  0.1320468E+00
        -11   -1    0    0    0    0  0.00000000000E+00  0.00000000000E+00  0.45593999997E+02  0.45594000000E+02  0.51100000000E-03 0.  1.
         11   -1    0    0    0    0 -0.00000000000E+00 -0.00000000000E+00 -0.45593999997E+02  0.45594000000E+02  0.51100000000E-03 0. -1.
    9900012    2    1    2    0    0  0.26762731571E+02  0.21934620613E+02 -0.28839938734E+02  0.46142318201E+02  0.10000004010E+02 0.  0.
        -12    1    1    2    0    0 -0.26762731571E+02 -0.21934620613E+02  0.28839938734E+02  0.45045681799E+02  0.00000000000E+00 0.  1.
         11    1    3    3    0    0  0.79018447903E+01  0.92076191552E+01 -0.81230350729E+01  0.14601475975E+02  0.51100000000E-03 0. -1.
        -11    1    3    3    0    0  0.17514686306E+01  0.19895220546E+01 -0.59666983303E+01  0.65289608358E+01  0.51100000000E-03 0.  1.
         12    1    3    3    0    0  0.17109418150E+02  0.10737479404E+02 -0.14750205330E+02  0.25011881390E+02  0.00000000000E+00 0. -1.
</event>
<event>
 7    1  0.1683291E-008  0.4614232E+02  0.7816164E-02  0.1320468E+00
        -11   -1    0    0    0    0  0.00000000000E+00  0.00000000000E+00  0.45593999997E+02  0.45594000000E+02  0.51100000000E-03 0.  1.
         11   -1    0    0    0    0 -0.00000000000E+00 -0.00000000000E+00 -0.45593999997E+02  0.45594000000E+02  0.51100000000E-03 0. -1.
    9900012    2    1    2    0    0 -0.43653918154E+02  0.30929348038E+01 -0.10671582096E+02  0.46142317851E+02  0.10000000816E+02 0.  0.
        -12    1    1    2    0    0  0.43653918154E+02 -0.30929348038E+01  0.10671582096E+02  0.45045682149E+02  0.00000000000E+00 0.  1.
         11    1    3    3    0    0 -0.14197428810E+02 -0.37628543501E+00 -0.76637708784E+01  0.16138214272E+02  0.51100000000E-03 0. -1.
        -11    1    3    3    0    0 -0.13007537820E+02  0.31932202663E-01 -0.53206340574E+00  0.13018454268E+02  0.51100000000E-03 0.  1.
         12    1    3    3    0    0 -0.16448951524E+02  0.34372880362E+01 -0.24757478120E+01  0.16985649311E+02  0.00000000000E+00 0. -1.
</event>
<event>
 7    1  0.1683291E-008  0.4614232E+02  0.7816164E-02  0.1320468E+00
        -11   -1    0    0    0    0  0.00000000000E+00  0.00000000000E+00  0.45593999997E+02  0.45594000000E+02  0.51100000000E-03 0.  1.
         11   -1    0    0    0    0 -0.00000000000E+00 -0.00000000000E+00 -0.45593999997E+02  0.45594000000E+02  0.51100000000E-03 0. -1.
    9900012    2    1    2    0    0 -0.40121806443E+02 -0.36163786626E+01 -0.20156288524E+02  0.46142317477E+02  0.99999974119E+01 0.  0.
        -12    1    1    2    0    0  0.40121806443E+02  0.36163786626E+01  0.20156288524E+02  0.45045682523E+02  0.00000000000E+00 0.  1.
         11    1    3    3    0    0 -0.26761325131E+01 -0.41804400711E+00 -0.22135722245E+01  0.34980492097E+01  0.51100000000E-03 0. -1.
        -11    1    3    3    0    0 -0.29931806174E+02 -0.23000585466E+01 -0.99221617254E+01  0.31617282991E+02  0.51100000000E-03 0.  1.
        -12    1    3    3    0    0 -0.75138677559E+01 -0.89827610894E+00 -0.80205545737E+01  0.11026985277E+02  0.00000000000E+00 0.  1.
</event>
<event>
 7    1  0.1683291E-008  0.4614232E+02  0.7816164E-02  0.1320468E+00
        -11   -1    0    0    0    0  0.00000000000E+00  0.00000000000E+00  0.45593999997E+02  0.45594000000E+02  0.51100000000E-03 0.  1.
         11   -1    0    0    0    0 -0.00000000000E+00 -0.00000000000E+00 -0.45593999997E+02  0.45594000000E+02  0.51100000000E-03 0. -1.
    9900012    2    1    2    0    0  0.21602734132E+02 -0.19570025170E+02 -0.34343114335E+02  0.46142317528E+02  0.99999978726E+01 0.  0.
        -12    1    1    2    0    0 -0.21602734132E+02  0.19570025170E+02  0.34343114335E+02  0.45045682472E+02  0.00000000000E+00 0.  1.
         11    1    3    3    0    0  0.70730818666E+01 -0.49198924941E+01 -0.10115377770E+02  0.13287388643E+02  0.51100000000E-03 0. -1.
        -11    1    3    3    0    0  0.90145292838E+01 -0.11961837344E+02 -0.12067905424E+02  0.19234906614E+02  0.51100000000E-03 0.  1.
        -12    1    3    3    0    0  0.55151229821E+01 -0.26882953318E+01 -0.12159831141E+02  0.13620022271E+02  0.00000000000E+00 0.  1.
</event>
<event>
 7    1  0.1683291E-008  0.4614232E+02  0.7816164E-02  0.1320468E+00
        -11   -1    0    0    0    0  0.00000000000E+00  0.00000000000E+00  0.45593999997E+02  0.45594000000E+02  0.51100000000E-03 0. -1.
         11   -1    0    0    0    0 -0.00000000000E+00 -0.00000000000E+00 -0.45593999997E+02  0.45594000000E+02  0.51100000000E-03 0.  1.
    9900012    2    1    2    0    0 -0.19050655106E+02  0.25118747542E+02  0.32175060527E+02  0.46142318098E+02  0.10000003076E+02 0.  0.
        -12    1    1    2    0    0  0.19050655106E+02 -0.25118747542E+02 -0.32175060527E+02  0.45045681902E+02  0.00000000000E+00 0.  1.
         11    1    3    3    0    0 -0.12838162432E+02  0.14266982355E+02  0.18825350580E+02  0.26884177965E+02  0.51100000000E-03 0. -1.
        -11    1    3    3    0    0 -0.41684347837E+01  0.11056139213E+02  0.11627481320E+02  0.16577466180E+02  0.51100000000E-03 0.  1.
         12    1    3    3    0    0 -0.20440578902E+01 -0.20437402531E+00  0.17222286273E+01  0.26806739536E+01  0.00000000000E+00 0. -1.
</event>
<event>
 7    1  0.1683291E-008  0.4614232E+02  0.7816164E-02  0.1320468E+00
        -11   -1    0    0    0    0  0.00000000000E+00  0.00000000000E+00  0.45593999997E+02  0.45594000000E+02  0.51100000000E-03 0.  1.
         11   -1    0    0    0    0 -0.00000000000E+00 -0.00000000000E+00 -0.45593999997E+02  0.45594000000E+02  0.51100000000E-03 0. -1.
    9900012    2    1    2    0    0  0.25400107827E+01  0.28302144083E+02 -0.34952117495E+02  0.46142317278E+02  0.99999955970E+01 0.  0.
        -12    1    1    2    0    0 -0.25400107827E+01 -0.28302144083E+02  0.34952117495E+02  0.45045682722E+02  0.00000000000E+00 0.  1.
         11    1    3    3    0    0 -0.35698986333E+00  0.23751738426E+01 -0.30800390666E+00  0.24215200211E+01  0.51100000000E-03 0.  1.
        -11    1    3    3    0    0  0.21753563412E+01  0.25449965640E+02 -0.32032648173E+02  0.40969787351E+02  0.51100000000E-03 0. -1.
         12    1    3    3    0    0  0.72164430491E+00  0.47700460026E+00 -0.26114654150E+01  0.27510099064E+01  0.00000000000E+00 0. -1.
</event>
<event>
 7    1  0.1683291E-008  0.4614232E+02  0.7816164E-02  0.1320468E+00
        -11   -1    0    0    0    0  0.00000000000E+00  0.00000000000E+00  0.45593999997E+02  0.45594000000E+02  0.51100000000E-03 0.  1.
         11   -1    0    0    0    0 -0.00000000000E+00 -0.00000000000E+00 -0.45593999997E+02  0.45594000000E+02  0.51100000000E-03 0. -1.
    9900012    2    1    2    0    0 -0.17551497960E+02 -0.10753670928E+02 -0.40067654809E+02  0.46142317844E+02  0.10000000755E+02 0.  0.
        -12    1    1    2    0    0  0.17551497960E+02  0.10753670928E+02  0.40067654809E+02  0.45045682156E+02  0.00000000000E+00 0.  1.
         11    1    3    3    0    0 -0.29459218398E+01 -0.38555918007E+01 -0.99737846188E+01  0.11091457231E+02  0.51100000000E-03 0. -1.
        -11    1    3    3    0    0 -0.28313232837E+01 -0.19983081566E+01 -0.14488761428E+02  0.14897443908E+02  0.51100000000E-03 0.  1.
         12    1    3    3    0    0 -0.11774252836E+02 -0.48997709701E+01 -0.15605108762E+02  0.20153416705E+02  0.00000000000E+00 0. -1.
</event>
<event>
 7    1  0.1683291E-008  0.4614232E+02  0.7816164E-02  0.1320468E+00
        -11   -1    0    0    0    0  0.00000000000E+00  0.00000000000E+00  0.45593999997E+02  0.45594000000E+02  0.51100000000E-03 0.  1.
         11   -1    0    0    0    0 -0.00000000000E+00 -0.00000000000E+00 -0.45593999997E+02  0.45594000000E+02  0.51100000000E-03 0. -1.
    9900012    2    1    2    0    0  0.82986260584E+01 -0.20806022640E+02 -0.39081398640E+02  0.46142317718E+02  0.99999996096E+01 0.  0.
        -12    1    1    2    0    0 -0.82986260584E+01  0.20806022640E+02  0.39081398640E+02  0.45045682282E+02  0.00000000000E+00 0.  1.
         11    1    3    3    0    0  0.57679936353E+01 -0.19017849652E+02 -0.31170322832E+02  0.36966706395E+02  0.51100000000E-03 0. -1.
        -11    1    3    3    0    0  0.12756073506E+01  0.81422330515E-01 -0.62450587018E+01  0.63745244654E+01  0.51100000000E-03 0.  1.
         12    1    3    3    0    0  0.12550250725E+01 -0.18695953186E+01 -0.16660171057E+01  0.28010868577E+01  0.00000000000E+00 0. -1.
</event>
<event>
 7    1  0.1683291E-008  0.4614232E+02  0.7816164E-02  0.1320468E+00
        -11   -1    0    0    0    0  0.00000000000E+00  0.00000000000E+00  0.45593999997E+02  0.45594000000E+02  0.51100000000E-03 0.  1.
         11   -1    0    0    0    0 -0.00000000000E+00 -0.00000000000E+00 -0.45593999997E+02  0.45594000000E+02  0.51100000000E-03 0. -1.
    9900012    2    1    2    0    0  0.21099744639E+02 -0.93831791349E-01 -0.39798310838E+02  0.46142316813E+02  0.99999913532E+01 0.  0.
        -12    1    1    2    0    0 -0.21099744639E+02  0.93831791349E-01  0.39798310838E+02  0.45045683187E+02  0.00000000000E+00 0.  1.
         11    1    3    3    0    0  0.11448715824E+02  0.94839814914E+00 -0.25709029998E+02  0.28158955534E+02  0.51100000000E-03 0. -1.
        -11    1    3    3    0    0  0.30564956352E+01 -0.29201004576E+01 -0.65178621020E+01  0.77686343003E+01  0.51100000000E-03 0.  1.
        -12    1    3    3    0    0  0.65945331801E+01  0.18778705171E+01 -0.75714187382E+01  0.10214726979E+02  0.00000000000E+00 0.  1.
</event>
<event>
 7    1  0.1683291E-008  0.4614232E+02  0.7816164E-02  0.1320468E+00
        -11   -1    0    0    0    0  0.00000000000E+00  0.00000000000E+00  0.45593999997E+02  0.45594000000E+02  0.51100000000E-03 0. -1.
         11   -1    0    0    0    0 -0.00000000000E+00 -0.00000000000E+00 -0.45593999997E+02  0.45594000000E+02  0.51100000000E-03 0.  1.
    9900012    2    1    2    0    0  0.79281179359E+01  0.15410234923E+01  0.44315726937E+02  0.46142318061E+02  0.10000002733E+02 0.  0.
        -12    1    1    2    0    0 -0.79281179359E+01 -0.15410234923E+01 -0.44315726937E+02  0.45045681939E+02  0.00000000000E+00 0.  1.
         11    1    3    3    0    0  0.24619333249E+01  0.30232868997E+01  0.21486543285E+02  0.21837420223E+02  0.51100000000E-03 0. -1.
        -11    1    3    3    0    0  0.22972141333E+01 -0.36026601005E+01  0.14998650316E+02  0.15595379576E+02  0.51100000000E-03 0.  1.
         12    1    3    3    0    0  0.31689704776E+01  0.21203966931E+01  0.78305333362E+01  0.87095182618E+01  0.00000000000E+00 0. -1.
</event>
<event>
 7    1  0.1683291E-008  0.4614232E+02  0.7816164E-02  0.1320468E+00
        -11   -1    0    0    0    0  0.00000000000E+00  0.00000000000E+00  0.45593999997E+02  0.45594000000E+02  0.51100000000E-03 0.  1.
         11   -1    0    0    0    0 -0.00000000000E+00 -0.00000000000E+00 -0.45593999997E+02  0.45594000000E+02  0.51100000000E-03 0. -1.
    9900012    2    1    2    0    0  0.30177135212E+02  0.33442723388E+02  0.19566352836E+00  0.46142317394E+02  0.99999966567E+01 0.  0.
        -12    1    1    2    0    0 -0.30177135212E+02 -0.33442723388E+02 -0.19566352836E+00  0.45045682606E+02  0.00000000000E+00 0.  1.
         11    1    3    3    0    0  0.14722782165E+02  0.95675172889E+01 -0.12159576091E+01  0.17600461781E+02  0.51100000000E-03 0. -1.
        -11    1    3    3    0    0  0.10518366905E+02  0.14814849094E+02  0.38394061441E+00  0.18173145206E+02  0.51100000000E-03 0.  1.
         12    1    3    3    0    0  0.49359861425E+01  0.90603570054E+01  0.10276805231E+01  0.10368710408E+02  0.00000000000E+00 0. -1.
</event>
<event>
 7    1  0.1683291E-008  0.4614232E+02  0.7816164E-02  0.1320468E+00
        -11   -1    0    0    0    0  0.00000000000E+00  0.00000000000E+00  0.45593999997E+02  0.45594000000E+02  0.51100000000E-03 0. -1.
         11   -1    0    0    0    0 -0.00000000000E+00 -0.00000000000E+00 -0.45593999997E+02  0.45594000000E+02  0.51100000000E-03 0.  1.
    9900012    2    1    2    0    0  0.32383319393E+02 -0.24511694134E+02  0.19483607989E+02  0.46142317582E+02  0.99999983632E+01 0.  0.
        -12    1    1    2    0    0 -0.32383319393E+02  0.24511694134E+02 -0.19483607989E+02  0.45045682418E+02  0.00000000000E+00 0.  1.
         11    1    3    3    0    0  0.19333358467E+02 -0.18993034891E+02  0.11742780885E+02  0.29536537156E+02  0.51100000000E-03 0. -1.
        -11    1    3    3    0    0  0.34914577601E+01 -0.29310941726E+01  0.38477147843E+01  0.59654421178E+01  0.51100000000E-03 0.  1.
         12    1    3    3    0    0  0.95585031659E+01 -0.25875650706E+01  0.38931123202E+01  0.10640338308E+02  0.00000000000E+00 0. -1.
</event>
<event>
 7    1  0.1683291E-008  0.4614232E+02  0.7816164E-02  0.1320468E+00
        -11   -1    0    0    0    0  0.00000000000E+00  0.00000000000E+00  0.45593999997E+02  0.45594000000E+02  0.51100000000E-03 0. -1.
         11   -1    0    0    0    0 -0.00000000000E+00 -0.00000000000E+00 -0.45593999997E+02  0.45594000000E+02  0.51100000000E-03 0.  1.
    9900012    2    1    2    0    0  0.33289385074E+02  0.15967160872E+02  0.25806586682E+02  0.46142319840E+02  0.10000018958E+02 0.  0.
        -12    1    1    2    0    0 -0.33289385074E+02 -0.15967160872E+02 -0.25806586682E+02  0.45045680160E+02  0.00000000000E+00 0.  1.
         11    1    3    3    0    0  0.31329253043E+01  0.24981200195E+01  0.45119798142E+01  0.60343837049E+01  0.51100000000E-03 0. -1.
        -11    1    3    3    0    0  0.27363606692E+02  0.92629052906E+01  0.17327866310E+02  0.33687139041E+02  0.51100000000E-03 0.  1.
        -12    1    3    3    0    0  0.27928530769E+01  0.42061355616E+01  0.39667405581E+01  0.64207970944E+01  0.00000000000E+00 0.  1.
</event>
<event>
 7    1  0.1683291E-008  0.4614232E+02  0.7816164E-02  0.1320468E+00
        -11   -1    0    0    0    0  0.00000000000E+00  0.00000000000E+00  0.45593999997E+02  0.45594000000E+02  0.51100000000E-03 0.  1.
         11   -1    0    0    0    0 -0.00000000000E+00 -0.00000000000E+00 -0.45593999997E+02  0.45594000000E+02  0.51100000000E-03 0. -1.
    9900012    2    1    2    0    0 -0.40339380841E+02 -0.22402686545E+01 -0.19920568871E+02  0.46142317472E+02  0.99999973593E+01 0.  0.
        -12    1    1    2    0    0  0.40339380841E+02  0.22402686545E+01  0.19920568871E+02  0.45045682528E+02  0.00000000000E+00 0.  1.
         11    1    3    3    0    0 -0.13752029013E+02 -0.17506572814E+01 -0.63971899551E+01  0.15267846687E+02  0.51100000000E-03 0. -1.
        -11    1    3    3    0    0 -0.11933486447E+02  0.12599335599E+01 -0.20329142991E+01  0.12170795873E+02  0.51100000000E-03 0.  1.
        -12    1    3    3    0    0 -0.14653865381E+02 -0.17495449330E+01 -0.11490464617E+02  0.18703674911E+02  0.00000000000E+00 0.  1.
</event>
<event>
 7    1  0.2393595E-008  0.4614231E+02  0.7816164E-02  0.1320468E+00
        -11   -1    0    0    0    0  0.00000000000E+00  0.00000000000E+00  0.45593999997E+02  0.45594000000E+02  0.51100000000E-03 0.  1.
         11   -1    0    0    0    0 -0.00000000000E+00 -0.00000000000E+00 -0.45593999997E+02  0.45594000000E+02  0.51100000000E-03 0. -1.
    9900012    2    1    2    0    0  0.26033538036E+02 -0.30878091355E+02 -0.19947735126E+02  0.46142314690E+02  0.99999719980E+01 0.  0.
        -12    1    1    2    0    0 -0.26033538036E+02  0.30878091355E+02  0.19947735126E+02  0.45045685310E+02  0.00000000000E+00 0.  1.
         11    1    3    3    0    0  0.21523884851E+02 -0.26809069077E+02 -0.16374126098E+02  0.38080386153E+02  0.51100000000E-03 0. -1.
        -11    1    3    3    0    0  0.21533152919E+01 -0.19839014082E+01 -0.39240928569E+01  0.48960327362E+01  0.51100000000E-03 0.  1.
         12    1    3    3    0    0  0.23563378932E+01 -0.20851208696E+01  0.35048382923E+00  0.31658958009E+01  0.00000000000E+00 0. -1.
</event>
<event>
 7    1  0.1683291E-008  0.4614232E+02  0.7816164E-02  0.1320468E+00
        -11   -1    0    0    0    0  0.00000000000E+00  0.00000000000E+00  0.45593999997E+02  0.45594000000E+02  0.51100000000E-03 0. -1.
         11   -1    0    0    0    0 -0.00000000000E+00 -0.00000000000E+00 -0.45593999997E+02  0.45594000000E+02  0.51100000000E-03 0.  1.
    9900012    2    1    2    0    0  0.44102302003E+02  0.70444866827E+01  0.58716086360E+01  0.46142316271E+02  0.99999864150E+01 0.  0.
        -12    1    1    2    0    0 -0.44102302003E+02 -0.70444866827E+01 -0.58716086360E+01  0.45045683729E+02  0.00000000000E+00 0.  1.
         11    1    3    3    0    0  0.20177010837E+02  0.45739362933E+01  0.23580775575E+01  0.20822900604E+02  0.51100000000E-03 0. -1.
        -11    1    3    3    0    0  0.13434198484E+02  0.49039156611E+01  0.22161157112E+01  0.14471946891E+02  0.51100000000E-03 0.  1.
         12    1    3    3    0    0  0.10491092683E+02 -0.24333652717E+01  0.12974153672E+01  0.10847468776E+02  0.00000000000E+00 0. -1.
</event>
<event>
 7    1  0.1683291E-008  0.4614232E+02  0.7816164E-02  0.1320468E+00
        -11   -1    0    0    0    0  0.00000000000E+00  0.00000000000E+00  0.45593999997E+02  0.45594000000E+02  0.51100000000E-03 0.  1.
         11   -1    0    0    0    0 -0.00000000000E+00 -0.00000000000E+00 -0.45593999997E+02  0.45594000000E+02  0.51100000000E-03 0. -1.
    9900012    2    1    2    0    0 -0.33495790968E+02  0.28744238635E+02 -0.89952352074E+01  0.46142317369E+02  0.99999964205E+01 0.  0.
        -12    1    1    2    0    0  0.33495790968E+02 -0.28744238635E+02  0.89952352074E+01  0.45045682631E+02  0.00000000000E+00 0.  1.
         11    1    3    3    0    0 -0.47036458311E+01  0.10307402191E+01 -0.19523519381E+01  0.51959972916E+01  0.51100000000E-03 0. -1.
        -11    1    3    3    0    0 -0.24790591109E+02  0.25533462866E+02 -0.49468931821E+01  0.35930528606E+02  0.51100000000E-03 0.  1.
        -12    1    3    3    0    0 -0.40015540275E+01  0.21800355504E+01 -0.20959900872E+01  0.50157914712E+01  0.00000000000E+00 0.  1.
</event>
<event>
 7    1  0.1683291E-008  0.4614232E+02  0.7816164E-02  0.1320468E+00
        -11   -1    0    0    0    0  0.00000000000E+00  0.00000000000E+00  0.45593999997E+02  0.45594000000E+02  0.51100000000E-03 0.  1.
         11   -1    0    0    0    0 -0.00000000000E+00 -0.00000000000E+00 -0.45593999997E+02  0.45594000000E+02  0.51100000000E-03 0. -1.
    9900012    2    1    2    0    0  0.23104740845E+02  0.16861419536E+02 -0.34799094403E+02  0.46142317748E+02  0.99999998802E+01 0.  0.
        -12    1    1    2    0    0 -0.23104740845E+02 -0.16861419536E+02  0.34799094403E+02  0.45045682252E+02  0.00000000000E+00 0.  1.
         11    1    3    3    0    0  0.21659001952E+00  0.19871712500E+01 -0.74764122274E+00  0.21341809840E+01  0.51100000000E-03 0. -1.
        -11    1    3    3    0    0  0.35704634895E+01  0.12291974456E+00 -0.43183848082E+01  0.56046200947E+01  0.51100000000E-03 0.  1.
         12    1    3    3    0    0  0.19317687336E+02  0.14751328541E+02 -0.29733068372E+02  0.38403516669E+02  0.00000000000E+00 0. -1.
</event>
<event>
 7    1  0.1683291E-008  0.4614232E+02  0.7816164E-02  0.1320468E+00
        -11   -1    0    0    0    0  0.00000000000E+00  0.00000000000E+00  0.45593999997E+02  0.45594000000E+02  0.51100000000E-03 0.  1.
         11   -1    0    0    0    0 -0.00000000000E+00 -0.00000000000E+00 -0.45593999997E+02  0.45594000000E+02  0.51100000000E-03 0. -1.
    9900012    2    1    2    0    0  0.13152807859E+02 -0.35228165319E+02 -0.24801079373E+02  0.46142317362E+02  0.99999963564E+01 0.  0.
        -12    1    1    2    0    0 -0.13152807859E+02  0.35228165319E+02  0.24801079373E+02  0.45045682638E+02  0.00000000000E+00 0.  1.
         11    1    3    3    0    0  0.56868050174E+01 -0.11634727752E+02 -0.91491380458E+01  0.15856019942E+02  0.51100000000E-03 0. -1.
        -11    1    3    3    0    0  0.87196131228E+00 -0.63358499224E+00 -0.31401870913E+01  0.33200183286E+01  0.51100000000E-03 0.  1.
        -12    1    3    3    0    0  0.65940415295E+01 -0.22959852575E+02 -0.12511754236E+02  0.26966279091E+02  0.00000000000E+00 0.  1.
</event>
<event>
 7    1  0.1683291E-008  0.4614232E+02  0.7816164E-02  0.1320468E+00
        -11   -1    0    0    0    0  0.00000000000E+00  0.00000000000E+00  0.45593999997E+02  0.45594000000E+02  0.51100000000E-03 0.  1.
         11   -1    0    0    0    0 -0.00000000000E+00 -0.00000000000E+00 -0.45593999997E+02  0.45594000000E+02  0.51100000000E-03 0. -1.
    9900012    2    1    2    0    0 -0.25646216518E+02 -0.17494195085E+02 -0.32639520901E+02  0.46142316433E+02  0.99999878905E+01 0.  0.
        -12    1    1    2    0    0  0.25646216518E+02  0.17494195085E+02  0.32639520901E+02  0.45045683567E+02  0.00000000000E+00 0.  1.
         11    1    3    3    0    0 -0.14972871057E+02 -0.12546725768E+02 -0.20263797589E+02  0.28146557306E+02  0.51100000000E-03 0. -1.
        -11    1    3    3    0    0 -0.91320752893E+01 -0.32707578928E+01 -0.64536349896E+01  0.11650839503E+02  0.51100000000E-03 0.  1.
        -12    1    3    3    0    0 -0.15412701719E+01 -0.16767114239E+01 -0.59220883220E+01  0.63449196240E+01  0.00000000000E+00 0.  1.
</event>
<event>
 7    1  0.1683291E-008  0.4614232E+02  0.7816164E-02  0.1320468E+00
        -11   -1    0    0    0    0  0.00000000000E+00  0.00000000000E+00  0.45593999997E+02  0.45594000000E+02  0.51100000000E-03 0. -1.
         11   -1    0    0    0    0 -0.00000000000E+00 -0.00000000000E+00 -0.45593999997E+02  0.45594000000E+02  0.51100000000E-03 0.  1.
    9900012    2    1    2    0    0  0.44012763416E+02  0.26237871047E+01  0.92252846761E+01  0.46142317858E+02  0.10000000884E+02 0.  0.
        -12    1    1    2    0    0 -0.44012763416E+02 -0.26237871047E+01 -0.92252846761E+01  0.45045682142E+02  0.00000000000E+00 0.  1.
         11    1    3    3    0    0  0.16771030833E+02 -0.11833807059E+01  0.72212179740E+01  0.18297919401E+02  0.51100000000E-03 0. -1.
        -11    1    3    3    0    0  0.13438685545E+02  0.35991535859E+01  0.12803653253E+00  0.13912892198E+02  0.51100000000E-03 0.  1.
        -12    1    3    3    0    0  0.13803047038E+02  0.20801422470E+00  0.18760301696E+01  0.13931506259E+02  0.00000000000E+00 0.  1.
</event>
<event>
 7    1  0.1683291E-008  0.4614232E+02  0.7816164E-02  0.1320468E+00
        -11   -1    0    0    0    0  0.00000000000E+00  0.00000000000E+00  0.45593999997E+02  0.45594000000E+02  0.51100000000E-03 0.  1.
         11   -1    0    0    0    0 -0.00000000000E+00 -0.00000000000E+00 -0.45593999997E+02  0.45594000000E+02  0.51100000000E-03 0. -1.
    9900012    2    1    2    0    0  0.37958694240E+02 -0.96824909262E+01 -0.22237360894E+02  0.46142319647E+02  0.10000017197E+02 0.  0.
        -12    1    1    2    0    0 -0.37958694240E+02  0.96824909262E+01  0.22237360894E+02  0.45045680353E+02  0.00000000000E+00 0.  1.
         11    1    3    3    0    0  0.29151861876E+02 -0.92721448532E+01 -0.19134947882E+02  0.36082543587E+02  0.51100000000E-03 0. -1.
        -11    1    3    3    0    0  0.15892009482E+01  0.51541806039E+00  0.74412098932E+00  0.18289154542E+01  0.51100000000E-03 0.  1.
        -12    1    3    3    0    0  0.72176314162E+01 -0.92576413332E+00 -0.38465340018E+01  0.82308606061E+01  0.00000000000E+00 0.  1.
</event>
<event>
 7    1  0.1683291E-008  0.4614232E+02  0.7816164E-02  0.1320468E+00
        -11   -1    0    0    0    0  0.00000000000E+00  0.00000000000E+00  0.45593999997E+02  0.45594000000E+02  0.51100000000E-03 0.  1.
         11   -1    0    0    0    0 -0.00000000000E+00 -0.00000000000E+00 -0.45593999997E+02  0.45594000000E+02  0.51100000000E-03 0. -1.
    9900012    2    1    2    0    0  0.28733892809E+02 -0.16895637958E+02 -0.30298751689E+02  0.46142317278E+02  0.99999955904E+01 0.  0.
        -12    1    1    2    0    0 -0.28733892809E+02  0.16895637958E+02  0.30298751689E+02  0.45045682722E+02  0.00000000000E+00 0.  1.
         11    1    3    3    0    0  0.66088984333E+01 -0.63330060938E+01 -0.88180753203E+01  0.12709955047E+02  0.51100000000E-03 0. -1.
        -11    1    3    3    0    0  0.24834478891E+01  0.27063400315E+00 -0.50278937421E+01  0.56143095679E+01  0.51100000000E-03 0.  1.
         12    1    3    3    0    0  0.19641546487E+02 -0.10833265868E+02 -0.16452782627E+02  0.27818052662E+02  0.00000000000E+00 0. -1.
</event>
<event>
 7    1  0.1683291E-008  0.4614232E+02  0.7816164E-02  0.1320468E+00
        -11   -1    0    0    0    0  0.00000000000E+00  0.00000000000E+00  0.45593999997E+02  0.45594000000E+02  0.51100000000E-03 0.  1.
         11   -1    0    0    0    0 -0.00000000000E+00 -0.00000000000E+00 -0.45593999997E+02  0.45594000000E+02  0.51100000000E-03 0. -1.
    9900012    2    1    2    0    0  0.19344920753E+02 -0.30809260830E+02 -0.26564580102E+02  0.46142318434E+02  0.10000006132E+02 0.  0.
        -12    1    1    2    0    0 -0.19344920753E+02  0.30809260830E+02  0.26564580102E+02  0.45045681566E+02  0.00000000000E+00 0.  1.
         11    1    3    3    0    0  0.14708911211E+02 -0.26312026019E+02 -0.21660141359E+02  0.37119220173E+02  0.51100000000E-03 0. -1.
        -11    1    3    3    0    0  0.45735139438E+01 -0.38417537097E+01 -0.24059626770E+01  0.64393134746E+01  0.51100000000E-03 0.  1.
        -12    1    3    3    0    0  0.62495598300E-01 -0.65548110045E+00 -0.24984760654E+01  0.25837847864E+01  0.00000000000E+00 0.  1.
</event>
<event>
 7    1  0.1683291E-008  0.4614232E+02  0.7816164E-02  0.1320468E+00
        -11   -1    0    0    0    0  0.00000000000E+00  0.00000000000E+00  0.45593999997E+02  0.45594000000E+02  0.51100000000E-03 0.  1.
         11   -1    0    0    0    0 -0.00000000000E+00 -0.00000000000E+00 -0.45593999997E+02  0.45594000000E+02  0.51100000000E-03 0. -1.
    9900012    2    1    2    0    0 -0.26283519935E+02  0.49142755260E+01 -0.36251068126E+02  0.46142318028E+02  0.10000002431E+02 0.  0.
        -12    1    1    2    0    0  0.26283519935E+02 -0.49142755260E+01  0.36251068126E+02  0.45045681972E+02  0.00000000000E+00 0.  1.
         11    1    3    3    0    0 -0.17336341501E+02  0.23255555612E+01 -0.29967991282E+02  0.34699242744E+02  0.51100000000E-03 0. -1.
        -11    1    3    3    0    0 -0.85804961401E+01  0.27104259899E+01 -0.63967255121E+01  0.11040354188E+02  0.51100000000E-03 0.  1.
         12    1    3    3    0    0 -0.36668229374E+00 -0.12170602509E+00  0.11364866810E+00  0.40272109561E+00  0.00000000000E+00 0. -1.
</event>
<event>
 7    1  0.1683291E-008  0.4614231E+02  0.7816164E-02  0.1320468E+00
        -11   -1    0    0    0    0  0.00000000000E+00  0.00000000000E+00  0.45593999997E+02  0.45594000000E+02  0.51100000000E-03 0.  1.
         11   -1    0    0    0    0 -0.00000000000E+00 -0.00000000000E+00 -0.45593999997E+02  0.45594000000E+02  0.51100000000E-03 0. -1.
    9900012    2    1    2    0    0  0.37200600084E+02 -0.13698914254E+02 -0.21390862493E+02  0.46142313231E+02  0.99999586898E+01 0.  0.
        -12    1    1    2    0    0 -0.37200600084E+02  0.13698914254E+02  0.21390862493E+02  0.45045686769E+02  0.00000000000E+00 0.  1.
         11    1    3    3    0    0  0.57443961568E+01 -0.19325763032E-01 -0.43911806396E+01  0.72305551904E+01  0.51100000000E-03 0. -1.
        -11    1    3    3    0    0  0.30951197575E+02 -0.12672257730E+02 -0.15083680351E+02  0.36688965105E+02  0.51100000000E-03 0.  1.
        -12    1    3    3    0    0  0.50500635192E+00 -0.10073307606E+01 -0.19160015020E+01  0.22227929351E+01  0.00000000000E+00 0.  1.
</event>
<event>
 7    1  0.1683291E-008  0.4614232E+02  0.7816164E-02  0.1320468E+00
        -11   -1    0    0    0    0  0.00000000000E+00  0.00000000000E+00  0.45593999997E+02  0.45594000000E+02  0.51100000000E-03 0.  1.
         11   -1    0    0    0    0 -0.00000000000E+00 -0.00000000000E+00 -0.45593999997E+02  0.45594000000E+02  0.51100000000E-03 0. -1.
    9900012    2    1    2    0    0  0.17563703246E+02  0.23348019140E+02 -0.34285562261E+02  0.46142318197E+02  0.10000003979E+02 0.  0.
        -12    1    1    2    0    0 -0.17563703246E+02 -0.23348019140E+02  0.34285562261E+02  0.45045681803E+02  0.00000000000E+00 0.  1.
         11    1    3    3    0    0  0.82486188466E+01  0.12211122876E+02 -0.22035015061E+02  0.26508359507E+02  0.51100000000E-03 0. -1.
        -11    1    3    3    0    0  0.16237452118E+01 -0.18922563494E+00 -0.10257918988E+01  0.19299233494E+01  0.51100000000E-03 0.  1.
         12    1    3    3    0    0  0.76913391879E+01  0.11326121899E+02 -0.11224755302E+02  0.17704035341E+02  0.00000000000E+00 0. -1.
</event>
<event>
 7    1  0.1683291E-008  0.4614232E+02  0.7816164E-02  0.1320468E+00
        -11   -1    0    0    0    0  0.00000000000E+00  0.00000000000E+00  0.45593999997E+02  0.45594000000E+02  0.51100000000E-03 0.  1.
         11   -1    0    0    0    0 -0.00000000000E+00 -0.00000000000E+00 -0.45593999997E+02  0.45594000000E+02  0.51100000000E-03 0. -1.
    9900012    2    1    2    0    0 -0.51875028343E+01  0.29287246384E+01 -0.44650037630E+02  0.46142317921E+02  0.10000001456E+02 0.  0.
        -12    1    1    2    0    0  0.51875028343E+01 -0.29287246384E+01  0.44650037630E+02  0.45045682079E+02  0.00000000000E+00 0.  1.
         11    1    3    3    0    0 -0.23203184400E+01 -0.19090766473E+01 -0.11556943583E+02  0.11941163953E+02  0.51100000000E-03 0. -1.
        -11    1    3    3    0    0  0.20673317316E+01  0.13511063015E+01 -0.12421836511E+02  0.12664966297E+02  0.51100000000E-03 0.  1.
         12    1    3    3    0    0 -0.49345161259E+01  0.34866949842E+01 -0.20671257536E+02  0.21536187672E+02  0.00000000000E+00 0. -1.
</event>
<event>
 7    1  0.1683291E-008  0.4614232E+02  0.7816164E-02  0.1320468E+00
        -11   -1    0    0    0    0  0.00000000000E+00  0.00000000000E+00  0.45593999997E+02  0.45594000000E+02  0.51100000000E-03 0.  1.
         11   -1    0    0    0    0 -0.00000000000E+00 -0.00000000000E+00 -0.45593999997E+02  0.45594000000E+02  0.51100000000E-03 0. -1.
    9900012    2    1    2    0    0  0.80707512320E+01 -0.67675452306E+01 -0.43796994707E+02  0.46142318306E+02  0.10000004971E+02 0.  0.
        -12    1    1    2    0    0 -0.80707512320E+01  0.67675452306E+01  0.43796994707E+02  0.45045681694E+02  0.00000000000E+00 0.  1.
         11    1    3    3    0    0  0.37785076620E+01 -0.76750762034E+01 -0.28797368028E+02  0.30041177082E+02  0.51100000000E-03 0. -1.
        -11    1    3    3    0    0  0.71925704840E+00  0.16937342798E+01 -0.79334190782E+01  0.81440287968E+01  0.51100000000E-03 0.  1.
         12    1    3    3    0    0  0.35729865216E+01 -0.78620330692E+00 -0.70662076010E+01  0.79571124275E+01  0.00000000000E+00 0. -1.
</event>
<event>
 7    1  0.1683291E-008  0.4614232E+02  0.7816164E-02  0.1320468E+00
        -11   -1    0    0    0    0  0.00000000000E+00  0.00000000000E+00  0.45593999997E+02  0.45594000000E+02  0.51100000000E-03 0. -1.
         11   -1    0    0    0    0 -0.00000000000E+00 -0.00000000000E+00 -0.45593999997E+02  0.45594000000E+02  0.51100000000E-03 0.  1.
    9900012    2    1    2    0    0 -0.14663671586E+02 -0.91166008486E+01  0.41605022587E+02  0.46142316746E+02  0.99999907402E+01 0.  0.
        -12    1    1    2    0    0  0.14663671586E+02  0.91166008486E+01 -0.41605022587E+02  0.45045683254E+02  0.00000000000E+00 0.  1.
         11    1    3    3    0    0 -0.94775087185E+01 -0.35201568440E+01  0.21957475006E+02  0.24173236949E+02  0.51100000000E-03 0. -1.
        -11    1    3    3    0    0 -0.47333641138E+01 -0.23296647253E+01  0.16809933957E+02  0.17618341393E+02  0.51100000000E-03 0.  1.
        -12    1    3    3    0    0 -0.45279875379E+00 -0.32667792793E+01  0.28376136243E+01  0.43507384030E+01  0.00000000000E+00 0.  1.
</event>
<event>
 7    1  0.1683291E-008  0.4614232E+02  0.7816164E-02  0.1320468E+00
        -11   -1    0    0    0    0  0.00000000000E+00  0.00000000000E+00  0.45593999997E+02  0.45594000000E+02  0.51100000000E-03 0. -1.
         11   -1    0    0    0    0 -0.00000000000E+00 -0.00000000000E+00 -0.45593999997E+02  0.45594000000E+02  0.51100000000E-03 0.  1.
    9900012    2    1    2    0    0  0.44126733957E+02 -0.79090529771E+00 -0.90177061907E+01  0.46142320897E+02  0.10000028594E+02 0.  0.
        -12    1    1    2    0    0 -0.44126733957E+02  0.79090529771E+00  0.90177061907E+01  0.45045679103E+02  0.00000000000E+00 0.  1.
         11    1    3    3    0    0  0.12826448386E+02 -0.34255952415E+01 -0.13115798767E+01  0.13340641775E+02  0.51100000000E-03 0. -1.
        -11    1    3    3    0    0  0.18118944184E+01  0.15060618829E+01 -0.85856174888E+00  0.25076507565E+01  0.51100000000E-03 0.  1.
         12    1    3    3    0    0  0.29488391153E+02  0.11286280609E+01 -0.68475645651E+01  0.30294028365E+02  0.00000000000E+00 0. -1.
</event>
<event>
 7    1  0.1683291E-008  0.4614232E+02  0.7816164E-02  0.1320468E+00
        -11   -1    0    0    0    0  0.00000000000E+00  0.00000000000E+00  0.45593999997E+02  0.45594000000E+02  0.51100000000E-03 0.  1.
         11   -1    0    0    0    0 -0.00000000000E+00 -0.00000000000E+00 -0.45593999997E+02  0.45594000000E+02  0.51100000000E-03 0. -1.
    9900012    2    1    2    0    0  0.10988030076E+02 -0.43512999626E+02 -0.38724042827E+01  0.46142318117E+02  0.10000003244E+02 0.  0.
        -12    1    1    2    0    0 -0.10988030076E+02  0.43512999626E+02  0.38724042827E+01  0.45045681883E+02  0.00000000000E+00 0.  1.
         11    1    3    3    0    0  0.38805923259E+01 -0.93293751747E+01 -0.30997309869E+01  0.10569038291E+02  0.51100000000E-03 0. -1.
        -11    1    3    3    0    0  0.47419955780E+01 -0.13660135083E+02  0.24443668244E+01  0.14664949437E+02  0.51100000000E-03 0.  1.
        -12    1    3    3    0    0  0.23654421722E+01 -0.20523489368E+02 -0.32170401202E+01  0.20908330389E+02  0.00000000000E+00 0.  1.
</event>
<event>
 7    1  0.1683291E-008  0.4614232E+02  0.7816164E-02  0.1320468E+00
        -11   -1    0    0    0    0  0.00000000000E+00  0.00000000000E+00  0.45593999997E+02  0.45594000000E+02  0.51100000000E-03 0.  1.
         11   -1    0    0    0    0 -0.00000000000E+00 -0.00000000000E+00 -0.45593999997E+02  0.45594000000E+02  0.51100000000E-03 0. -1.
    9900012    2    1    2    0    0  0.40842793513E+01 -0.25124739937E+02 -0.37164224363E+02  0.46142317996E+02  0.10000002142E+02 0.  0.
        -12    1    1    2    0    0 -0.40842793513E+01  0.25124739937E+02  0.37164224363E+02  0.45045682004E+02  0.00000000000E+00 0.  1.
         11    1    3    3    0    0  0.16928070161E+01 -0.58233638982E+01 -0.12508110467E+02  0.13900719060E+02  0.51100000000E-03 0. -1.
        -11    1    3    3    0    0  0.20797315754E+01 -0.86040175250E+01 -0.58707284751E+01  0.10621669082E+02  0.51100000000E-03 0.  1.
        -12    1    3    3    0    0  0.31174075971E+00 -0.10697358514E+02 -0.18785385421E+02  0.21619929854E+02  0.00000000000E+00 0.  1.
</event>
<event>
 7    1  0.1683291E-008  0.4614232E+02  0.7816164E-02  0.1320468E+00
        -11   -1    0    0    0    0  0.00000000000E+00  0.00000000000E+00  0.45593999997E+02  0.45594000000E+02  0.51100000000E-03 0. -1.
         11   -1    0    0    0    0 -0.00000000000E+00 -0.00000000000E+00 -0.45593999997E+02  0.45594000000E+02  0.51100000000E-03 0.  1.
    9900012    2    1    2    0    0  0.25136701633E+02 -0.36487976292E+02 -0.81171013896E+01  0.46142317434E+02  0.99999970157E+01 0.  0.
        -12    1    1    2    0    0 -0.25136701633E+02  0.36487976292E+02  0.81171013896E+01  0.45045682566E+02  0.00000000000E+00 0.  1.
         11    1    3    3    0    0  0.25104198468E+01 -0.45138324275E+01 -0.47122169340E+00  0.51864189125E+01  0.51100000000E-03 0. -1.
        -11    1    3    3    0    0  0.84398537065E+01 -0.16496920378E+02  0.23035041499E+00  0.18531933902E+02  0.51100000000E-03 0.  1.
        -12    1    3    3    0    0  0.14186428080E+02 -0.15477223486E+02 -0.78762301112E+01  0.22423964620E+02  0.00000000000E+00 0.  1.
</event>
<event>
 7    1  0.1683291E-008  0.4614232E+02  0.7816164E-02  0.1320468E+00
        -11   -1    0    0    0    0  0.00000000000E+00  0.00000000000E+00  0.45593999997E+02  0.45594000000E+02  0.51100000000E-03 0.  1.
         11   -1    0    0    0    0 -0.00000000000E+00 -0.00000000000E+00 -0.45593999997E+02  0.45594000000E+02  0.51100000000E-03 0. -1.
    9900012    2    1    2    0    0  0.44102984603E+01  0.44619814532E+02  0.43283829338E+01  0.46142317852E+02  0.10000000825E+02 0.  0.
        -12    1    1    2    0    0 -0.44102984603E+01 -0.44619814532E+02 -0.43283829338E+01  0.45045682148E+02  0.00000000000E+00 0.  1.
         11    1    3    3    0    0 -0.87090691431E+00  0.16188298739E+02  0.53297866509E+01  0.17065348544E+02  0.51100000000E-03 0.  1.
        -11    1    3    3    0    0  0.56178943501E+01  0.27185270196E+02 -0.11069353981E+01  0.27781737865E+02  0.51100000000E-03 0. -1.
        -12    1    3    3    0    0 -0.33668897554E+00  0.12462455969E+01  0.10553168097E+00  0.12952314425E+01  0.00000000000E+00 0.  1.
</event>
<event>
 7    1  0.1683291E-008  0.4614232E+02  0.7816164E-02  0.1320468E+00
        -11   -1    0    0    0    0  0.00000000000E+00  0.00000000000E+00  0.45593999997E+02  0.45594000000E+02  0.51100000000E-03 0. -1.
         11   -1    0    0    0    0 -0.00000000000E+00 -0.00000000000E+00 -0.45593999997E+02  0.45594000000E+02  0.51100000000E-03 0.  1.
    9900012    2    1    2    0    0  0.42884332240E+02  0.59645147515E+01  0.12428680840E+02  0.46142317684E+02  0.99999992966E+01 0.  0.
        -12    1    1    2    0    0 -0.42884332240E+02 -0.59645147515E+01 -0.12428680840E+02  0.45045682316E+02  0.00000000000E+00 0.  1.
         11    1    3    3    0    0  0.14449183743E+02  0.17391084322E+00  0.22412986779E+01  0.14623015279E+02  0.51100000000E-03 0. -1.
        -11    1    3    3    0    0  0.17099671753E+02  0.22832693704E+01  0.93544543810E+01  0.19624421268E+02  0.51100000000E-03 0.  1.
         12    1    3    3    0    0  0.11335476745E+02  0.35073345379E+01  0.83292778079E+00  0.11894881137E+02  0.00000000000E+00 0. -1.
</event>
<event>
 7    1  0.1683291E-008  0.4614232E+02  0.7816164E-02  0.1320468E+00
        -11   -1    0    0    0    0  0.00000000000E+00  0.00000000000E+00  0.45593999997E+02  0.45594000000E+02  0.51100000000E-03 0.  1.
         11   -1    0    0    0    0 -0.00000000000E+00 -0.00000000000E+00 -0.45593999997E+02  0.45594000000E+02  0.51100000000E-03 0. -1.
    9900012    2    1    2    0    0  0.87988464995E+01 -0.26537261178E+02 -0.35319505976E+02  0.46142318376E+02  0.10000005607E+02 0.  0.
        -12    1    1    2    0    0 -0.87988464995E+01  0.26537261178E+02  0.35319505976E+02  0.45045681624E+02  0.00000000000E+00 0.  1.
         11    1    3    3    0    0  0.67963772812E+01 -0.98245085918E+01 -0.20238549623E+02  0.23501289418E+02  0.51100000000E-03 0. -1.
        -11    1    3    3    0    0  0.31617218844E+00 -0.56728276203E+01 -0.43811944077E+01  0.71746639476E+01  0.51100000000E-03 0.  1.
         12    1    3    3    0    0  0.16862970299E+01 -0.11039924966E+02 -0.10699761945E+02  0.15466365010E+02  0.00000000000E+00 0. -1.
</event>
<event>
 7    1  0.1683291E-008  0.4614232E+02  0.7816164E-02  0.1320468E+00
        -11   -1    0    0    0    0  0.00000000000E+00  0.00000000000E+00  0.45593999997E+02  0.45594000000E+02  0.51100000000E-03 0.  1.
         11   -1    0    0    0    0 -0.00000000000E+00 -0.00000000000E+00 -0.45593999997E+02  0.45594000000E+02  0.51100000000E-03 0. -1.
    9900012    2    1    2    0    0 -0.31413281303E+02  0.64362532280E+01 -0.31636906899E+02  0.46142317898E+02  0.10000001251E+02 0.  0.
        -12    1    1    2    0    0  0.31413281303E+02 -0.64362532280E+01  0.31636906899E+02  0.45045682102E+02  0.00000000000E+00 0.  1.
         11    1    3    3    0    0 -0.22914552284E+02  0.75056669164E+01 -0.20615760715E+02  0.31724144312E+02  0.51100000000E-03 0. -1.
        -11    1    3    3    0    0 -0.72861724477E+01 -0.92935168668E+00 -0.10962977770E+02  0.13196169344E+02  0.51100000000E-03 0.  1.
         12    1    3    3    0    0 -0.12125565719E+01 -0.14006200171E+00 -0.58168414287E-01  0.12220042426E+01  0.00000000000E+00 0. -1.
</event>
<event>
 7    1  0.1683291E-008  0.4614232E+02  0.7816164E-02  0.1320468E+00
        -11   -1    0    0    0    0  0.00000000000E+00  0.00000000000E+00  0.45593999997E+02  0.45594000000E+02  0.51100000000E-03 0.  1.
         11   -1    0    0    0    0 -0.00000000000E+00 -0.00000000000E+00 -0.45593999997E+02  0.45594000000E+02  0.51100000000E-03 0. -1.
    9900012    2    1    2    0    0 -0.33967142026E+01 -0.27273803906E+02 -0.35689150492E+02  0.46142317525E+02  0.99999978437E+01 0.  0.
        -12    1    1    2    0    0  0.33967142026E+01  0.27273803906E+02  0.35689150492E+02  0.45045682475E+02  0.00000000000E+00 0.  1.
         11    1    3    3    0    0 -0.39309731559E+01 -0.12962358428E+02 -0.17106664591E+02  0.21820019699E+02  0.51100000000E-03 0. -1.
        -11    1    3    3    0    0  0.20018952054E+01 -0.72157823465E+01 -0.13610919391E+02  0.15534871297E+02  0.51100000000E-03 0.  1.
        -12    1    3    3    0    0 -0.14676362521E+01 -0.70956631307E+01 -0.49715665093E+01  0.87874265282E+01  0.00000000000E+00 0.  1.
</event>
<event>
 7    1  0.1683291E-008  0.4614232E+02  0.7816164E-02  0.1320468E+00
        -11   -1    0    0    0    0  0.00000000000E+00  0.00000000000E+00  0.45593999997E+02  0.45594000000E+02  0.51100000000E-03 0.  1.
         11   -1    0    0    0    0 -0.00000000000E+00 -0.00000000000E+00 -0.45593999997E+02  0.45594000000E+02  0.51100000000E-03 0. -1.
    9900012    2    1    2    0    0 -0.30454758778E+02  0.18631991377E+01 -0.33138341738E+02  0.46142317228E+02  0.99999951431E+01 0.  0.
        -12    1    1    2    0    0  0.30454758778E+02 -0.18631991377E+01  0.33138341738E+02  0.45045682772E+02  0.00000000000E+00 0.  1.
         11    1    3    3    0    0 -0.17915623638E+02  0.30627795230E+01 -0.24356225589E+02  0.30390391803E+02  0.51100000000E-03 0. -1.
        -11    1    3    3    0    0 -0.16229197838E+01  0.10067388334E+01 -0.16765250082E+01  0.25412847278E+01  0.51100000000E-03 0.  1.
         12    1    3    3    0    0 -0.10916215356E+02 -0.22063192187E+01 -0.71055911409E+01  0.13210640698E+02  0.00000000000E+00 0. -1.
</event>
<event>
 7    1  0.1683291E-008  0.4614232E+02  0.7816164E-02  0.1320468E+00
        -11   -1    0    0    0    0  0.00000000000E+00  0.00000000000E+00  0.45593999997E+02  0.45594000000E+02  0.51100000000E-03 0.  1.
         11   -1    0    0    0    0 -0.00000000000E+00 -0.00000000000E+00 -0.45593999997E+02  0.45594000000E+02  0.51100000000E-03 0. -1.
    9900012    2    1    2    0    0 -0.13195008281E+02  0.25444688942E+02 -0.34750153873E+02  0.46142316154E+02  0.99999853492E+01 0.  0.
        -12    1    1    2    0    0  0.13195008281E+02 -0.25444688942E+02  0.34750153873E+02  0.45045683846E+02  0.00000000000E+00 0.  1.
         11    1    3    3    0    0 -0.52710867752E+01  0.91659992634E+01 -0.11846154581E+02  0.15878642162E+02  0.51100000000E-03 0. -1.
        -11    1    3    3    0    0 -0.21922631717E+01  0.22465985234E+01 -0.44797805801E+00  0.31707897030E+01  0.51100000000E-03 0.  1.
        -12    1    3    3    0    0 -0.57316583344E+01  0.14032091155E+02 -0.22456021234E+02  0.27092884290E+02  0.00000000000E+00 0.  1.
</event>
<event>
 7    1  0.1683291E-008  0.4614232E+02  0.7816164E-02  0.1320468E+00
        -11   -1    0    0    0    0  0.00000000000E+00  0.00000000000E+00  0.45593999997E+02  0.45594000000E+02  0.51100000000E-03 0.  1.
         11   -1    0    0    0    0 -0.00000000000E+00 -0.00000000000E+00 -0.45593999997E+02  0.45594000000E+02  0.51100000000E-03 0. -1.
    9900012    2    1    2    0    0 -0.32762375278E+02 -0.19399621057E+02 -0.24070623109E+02  0.46142318432E+02  0.10000006122E+02 0.  0.
        -12    1    1    2    0    0  0.32762375278E+02  0.19399621057E+02  0.24070623109E+02  0.45045681568E+02  0.00000000000E+00 0.  1.
         11    1    3    3    0    0 -0.76376842632E+01 -0.71819821342E+01 -0.27565900345E+01  0.10840381781E+02  0.51100000000E-03 0. -1.
        -11    1    3    3    0    0 -0.18927260027E+01 -0.68748824985E+00 -0.27431804326E+01  0.34029532706E+01  0.51100000000E-03 0.  1.
         12    1    3    3    0    0 -0.23231965012E+02 -0.11530150673E+02 -0.18570852642E+02  0.31898983381E+02  0.00000000000E+00 0. -1.
</event>
<event>
 7    1  0.1683291E-008  0.4614232E+02  0.7816164E-02  0.1320468E+00
        -11   -1    0    0    0    0  0.00000000000E+00  0.00000000000E+00  0.45593999997E+02  0.45594000000E+02  0.51100000000E-03 0.  1.
         11   -1    0    0    0    0 -0.00000000000E+00 -0.00000000000E+00 -0.45593999997E+02  0.45594000000E+02  0.51100000000E-03 0. -1.
    9900012    2    1    2    0    0  0.18845491511E+02 -0.74893820094E+01 -0.40222755953E+02  0.46142317747E+02  0.99999998669E+01 0.  0.
        -12    1    1    2    0    0 -0.18845491511E+02  0.74893820094E+01  0.40222755953E+02  0.45045682253E+02  0.00000000000E+00 0.  1.
         11    1    3    3    0    0  0.12707511067E+01 -0.60093398095E+00 -0.93448715290E+01  0.94500028667E+01  0.51100000000E-03 0. -1.
        -11    1    3    3    0    0  0.53948825064E+01 -0.11605532982E+01 -0.46653047281E+01  0.72261130411E+01  0.51100000000E-03 0.  1.
        -12    1    3    3    0    0  0.12179857898E+02 -0.57278947303E+01 -0.26212579696E+02  0.29466201839E+02  0.00000000000E+00 0.  1.
</event>
<event>
 7    1  0.1683291E-008  0.4614232E+02  0.7816164E-02  0.1320468E+00
        -11   -1    0    0    0    0  0.00000000000E+00  0.00000000000E+00  0.45593999997E+02  0.45594000000E+02  0.51100000000E-03 0. -1.
         11   -1    0    0    0    0 -0.00000000000E+00 -0.00000000000E+00 -0.45593999997E+02  0.45594000000E+02  0.51100000000E-03 0.  1.
    9900012    2    1    2    0    0 -0.34061007614E+01  0.44915205818E+02 -0.36909052467E+00  0.46142318033E+02  0.10000002477E+02 0.  0.
        -12    1    1    2    0    0  0.34061007614E+01 -0.44915205818E+02  0.36909052467E+00  0.45045681967E+02  0.00000000000E+00 0.  1.
         11    1    3    3    0    0 -0.24148236495E+01  0.35138826427E+02 -0.24508283868E+01  0.35306869813E+02  0.51100000000E-03 0. -1.
        -11    1    3    3    0    0 -0.82293058758E+00 -0.31942768567E-01  0.14040584805E+00  0.83543351365E+00  0.51100000000E-03 0.  1.
         12    1    3    3    0    0 -0.16834652439E+00  0.98083221593E+01  0.19413320141E+01  0.10000014706E+02  0.00000000000E+00 0. -1.
</event>
<event>
 7    1  0.1683291E-008  0.4614232E+02  0.7816164E-02  0.1320468E+00
        -11   -1    0    0    0    0  0.00000000000E+00  0.00000000000E+00  0.45593999997E+02  0.45594000000E+02  0.51100000000E-03 0.  1.
         11   -1    0    0    0    0 -0.00000000000E+00 -0.00000000000E+00 -0.45593999997E+02  0.45594000000E+02  0.51100000000E-03 0. -1.
    9900012    2    1    2    0    0 -0.44545378948E+02 -0.63205279907E+01 -0.22076440475E+01  0.46142317055E+02  0.99999935621E+01 0.  0.
        -12    1    1    2    0    0  0.44545378948E+02  0.63205279907E+01  0.22076440475E+01  0.45045682945E+02  0.00000000000E+00 0.  1.
         11    1    3    3    0    0 -0.31652391289E+02 -0.62422412011E+01  0.69655700244E+00  0.32269562152E+02  0.51100000000E-03 0. -1.
        -11    1    3    3    0    0 -0.98905466801E+01 -0.91872725848E+00 -0.37898544996E+01  0.10631555427E+02  0.51100000000E-03 0.  1.
         12    1    3    3    0    0 -0.30024409788E+01  0.84044046883E+00  0.88565344962E+00  0.32411994764E+01  0.00000000000E+00 0. -1.
</event>
<event>
 7    1  0.1683291E-008  0.4614232E+02  0.7816164E-02  0.1320468E+00
        -11   -1    0    0    0    0  0.00000000000E+00  0.00000000000E+00  0.45593999997E+02  0.45594000000E+02  0.51100000000E-03 0.  1.
         11   -1    0    0    0    0 -0.00000000000E+00 -0.00000000000E+00 -0.45593999997E+02  0.45594000000E+02  0.51100000000E-03 0. -1.
    9900012    2    1    2    0    0 -0.24542242789E+02 -0.88123356135E+01 -0.36730565281E+02  0.46142319121E+02  0.10000012396E+02 0.  0.
        -12    1    1    2    0    0  0.24542242789E+02  0.88123356135E+01  0.36730565281E+02  0.45045680879E+02  0.00000000000E+00 0.  1.
         11    1    3    3    0    0 -0.16018610796E+02 -0.79046189491E+01 -0.22926388154E+02  0.29063691551E+02  0.51100000000E-03 0. -1.
        -11    1    3    3    0    0 -0.73624807974E+01  0.13738737626E+01 -0.10017433893E+02  0.12507703014E+02  0.51100000000E-03 0.  1.
        -12    1    3    3    0    0 -0.11611511952E+01 -0.22815904270E+01 -0.37867432334E+01  0.45709245553E+01  0.00000000000E+00 0.  1.
</event>
<event>
 7    1  0.1683291E-008  0.4614232E+02  0.7816164E-02  0.1320468E+00
        -11   -1    0    0    0    0  0.00000000000E+00  0.00000000000E+00  0.45593999997E+02  0.45594000000E+02  0.51100000000E-03 0.  1.
         11   -1    0    0    0    0 -0.00000000000E+00 -0.00000000000E+00 -0.45593999997E+02  0.45594000000E+02  0.51100000000E-03 0. -1.
    9900012    2    1    2    0    0 -0.20890531305E+02  0.11351549628E+02 -0.38260181074E+02  0.46142318376E+02  0.10000005609E+02 0.  0.
        -12    1    1    2    0    0  0.20890531305E+02 -0.11351549628E+02  0.38260181074E+02  0.45045681624E+02  0.00000000000E+00 0.  1.
         11    1    3    3    0    0 -0.22094823272E+01  0.15490229715E+01 -0.48235785880E+01  0.55270421543E+01  0.51100000000E-03 0. -1.
        -11    1    3    3    0    0 -0.15951787507E+02  0.38050797637E+01 -0.25218502681E+02  0.30081739218E+02  0.51100000000E-03 0.  1.
        -12    1    3    3    0    0 -0.27292614710E+01  0.59974468924E+01 -0.82180998051E+01  0.10533537004E+02  0.00000000000E+00 0.  1.
</event>
<event>
 7    1  0.1683291E-008  0.4614232E+02  0.7816164E-02  0.1320468E+00
        -11   -1    0    0    0    0  0.00000000000E+00  0.00000000000E+00  0.45593999997E+02  0.45594000000E+02  0.51100000000E-03 0.  1.
         11   -1    0    0    0    0 -0.00000000000E+00 -0.00000000000E+00 -0.45593999997E+02  0.45594000000E+02  0.51100000000E-03 0. -1.
    9900012    2    1    2    0    0 -0.27350495427E+01  0.22196127902E+02 -0.39101979477E+02  0.46142318866E+02  0.10000010076E+02 0.  0.
        -12    1    1    2    0    0  0.27350495427E+01 -0.22196127902E+02  0.39101979477E+02  0.45045681134E+02  0.00000000000E+00 0.  1.
         11    1    3    3    0    0 -0.31611582063E+01  0.16238288206E+02 -0.22341954155E+02  0.27799961165E+02  0.51100000000E-03 0. -1.
        -11    1    3    3    0    0  0.12782636727E+01  0.12606362521E+01 -0.93984051111E+01  0.95683426292E+01  0.51100000000E-03 0.  1.
        -12    1    3    3    0    0 -0.85215500914E+00  0.46972034438E+01 -0.73616202106E+01  0.87740150716E+01  0.00000000000E+00 0.  1.
</event>
<event>
 7    1  0.1683291E-008  0.4614232E+02  0.7816164E-02  0.1320468E+00
        -11   -1    0    0    0    0  0.00000000000E+00  0.00000000000E+00  0.45593999997E+02  0.45594000000E+02  0.51100000000E-03 0.  1.
         11   -1    0    0    0    0 -0.00000000000E+00 -0.00000000000E+00 -0.45593999997E+02  0.45594000000E+02  0.51100000000E-03 0. -1.
    9900012    2    1    2    0    0  0.29700260683E+02 -0.52423304533E+01 -0.33459318169E+02  0.46142317792E+02  0.10000000284E+02 0.  0.
        -12    1    1    2    0    0 -0.29700260683E+02  0.52423304533E+01  0.33459318169E+02  0.45045682208E+02  0.00000000000E+00 0.  1.
         11    1    3    3    0    0  0.38899750384E+01 -0.21674724468E+00 -0.90848170125E+01  0.98849777733E+01  0.51100000000E-03 0. -1.
        -11    1    3    3    0    0  0.13306669182E+01 -0.13897698616E+01 -0.29600640069E+01  0.35304551975E+01  0.51100000000E-03 0.  1.
         12    1    3    3    0    0  0.24479618726E+02 -0.36358133471E+01 -0.21414437150E+02  0.32726884822E+02  0.00000000000E+00 0. -1.
</event>
<event>
 7    1  0.1683291E-008  0.4614232E+02  0.7816164E-02  0.1320468E+00
        -11   -1    0    0    0    0  0.00000000000E+00  0.00000000000E+00  0.45593999997E+02  0.45594000000E+02  0.51100000000E-03 0. -1.
         11   -1    0    0    0    0 -0.00000000000E+00 -0.00000000000E+00 -0.45593999997E+02  0.45594000000E+02  0.51100000000E-03 0.  1.
    9900012    2    1    2    0    0 -0.14754108032E+02  0.24502652250E+02  0.34800140642E+02  0.46142318077E+02  0.10000002884E+02 0.  0.
        -12    1    1    2    0    0  0.14754108032E+02 -0.24502652250E+02 -0.34800140642E+02  0.45045681923E+02  0.00000000000E+00 0.  1.
         11    1    3    3    0    0 -0.91923200443E+01  0.64559972105E+01  0.11011915938E+02  0.15730255582E+02  0.51100000000E-03 0. -1.
        -11    1    3    3    0    0 -0.55610626410E+01  0.16795853630E+02  0.22374131851E+02  0.28524163321E+02  0.51100000000E-03 0.  1.
         12    1    3    3    0    0 -0.72534710440E-03  0.12508014098E+01  0.14140928535E+01  0.18878991741E+01  0.00000000000E+00 0. -1.
</event>
<event>
 7    1  0.1683291E-008  0.4614232E+02  0.7816164E-02  0.1320468E+00
        -11   -1    0    0    0    0  0.00000000000E+00  0.00000000000E+00  0.45593999997E+02  0.45594000000E+02  0.51100000000E-03 0.  1.
         11   -1    0    0    0    0 -0.00000000000E+00 -0.00000000000E+00 -0.45593999997E+02  0.45594000000E+02  0.51100000000E-03 0. -1.
    9900012    2    1    2    0    0 -0.21237029573E+02  0.33011523026E+02 -0.22098449108E+02  0.46142317293E+02  0.99999957290E+01 0.  0.
        -12    1    1    2    0    0  0.21237029573E+02 -0.33011523026E+02  0.22098449108E+02  0.45045682707E+02  0.00000000000E+00 0.  1.
         11    1    3    3    0    0 -0.12209343231E+02  0.13482385049E+02 -0.11560667722E+02  0.21552071993E+02  0.51100000000E-03 0. -1.
        -11    1    3    3    0    0 -0.93211786853E+01  0.19220337100E+02 -0.10943994381E+02  0.24001598772E+02  0.51100000000E-03 0.  1.
        -12    1    3    3    0    0  0.29349234373E+00  0.30880087722E+00  0.40621299520E+00  0.58864652813E+00  0.00000000000E+00 0.  1.
</event>
<event>
 7    1  0.1683291E-008  0.4614232E+02  0.7816164E-02  0.1320468E+00
        -11   -1    0    0    0    0  0.00000000000E+00  0.00000000000E+00  0.45593999997E+02  0.45594000000E+02  0.51100000000E-03 0. -1.
         11   -1    0    0    0    0 -0.00000000000E+00 -0.00000000000E+00 -0.45593999997E+02  0.45594000000E+02  0.51100000000E-03 0.  1.
    9900012    2    1    2    0    0 -0.21542350248E+02  0.34990744556E+01  0.39405546819E+02  0.46142317672E+02  0.99999991902E+01 0.  0.
        -12    1    1    2    0    0  0.21542350248E+02 -0.34990744556E+01 -0.39405546819E+02  0.45045682328E+02  0.00000000000E+00 0.  1.
         11    1    3    3    0    0 -0.86921699335E+01  0.29438254763E+01  0.11228159729E+02  0.14501430886E+02  0.51100000000E-03 0. -1.
        -11    1    3    3    0    0 -0.18229980743E+01  0.18163447145E+01  0.10146402518E+02  0.10467660408E+02  0.51100000000E-03 0.  1.
         12    1    3    3    0    0 -0.11027182240E+02 -0.12610957353E+01  0.18030984573E+02  0.21173226379E+02  0.00000000000E+00 0. -1.
</event>
<event>
 7    1  0.1683291E-008  0.4614232E+02  0.7816164E-02  0.1320468E+00
        -11   -1    0    0    0    0  0.00000000000E+00  0.00000000000E+00  0.45593999997E+02  0.45594000000E+02  0.51100000000E-03 0.  1.
         11   -1    0    0    0    0 -0.00000000000E+00 -0.00000000000E+00 -0.45593999997E+02  0.45594000000E+02  0.51100000000E-03 0. -1.
    9900012    2    1    2    0    0 -0.31873191044E+02  0.30453960929E+02 -0.92611844103E+01  0.46142316741E+02  0.99999907016E+01 0.  0.
        -12    1    1    2    0    0  0.31873191044E+02 -0.30453960929E+02  0.92611844103E+01  0.45045683259E+02  0.00000000000E+00 0.  1.
         11    1    3    3    0    0 -0.52124692200E+01  0.37159832908E+01 -0.23778486617E+01  0.68288016303E+01  0.51100000000E-03 0. -1.
        -11    1    3    3    0    0 -0.27590291599E+01  0.76033804482E+01 -0.13690634886E+01  0.82035340703E+01  0.51100000000E-03 0.  1.
        -12    1    3    3    0    0 -0.23901692664E+02  0.19134597190E+02 -0.55142722600E+01  0.31109981041E+02  0.00000000000E+00 0.  1.
</event>
<event>
 7    1  0.1683291E-008  0.4614232E+02  0.7816164E-02  0.1320468E+00
        -11   -1    0    0    0    0  0.00000000000E+00  0.00000000000E+00  0.45593999997E+02  0.45594000000E+02  0.51100000000E-03 0. -1.
         11   -1    0    0    0    0 -0.00000000000E+00 -0.00000000000E+00 -0.45593999997E+02  0.45594000000E+02  0.51100000000E-03 0.  1.
    9900012    2    1    2    0    0  0.28812862834E+02 -0.34436280252E+02 -0.36159428247E+01  0.46142317579E+02  0.99999983394E+01 0.  0.
        -12    1    1    2    0    0 -0.28812862834E+02  0.34436280252E+02  0.36159428247E+01  0.45045682421E+02  0.00000000000E+00 0.  1.
         11    1    3    3    0    0  0.14464366996E+02 -0.14528735874E+02  0.48243163517E+00  0.20506945634E+02  0.51100000000E-03 0. -1.
        -11    1    3    3    0    0  0.11425011913E+02 -0.12124537556E+02 -0.46706382326E+01  0.17301738928E+02  0.51100000000E-03 0.  1.
        -12    1    3    3    0    0  0.29234839255E+01 -0.77830068216E+01  0.57226377281E+00  0.83336330177E+01  0.00000000000E+00 0.  1.
</event>
<event>
 7    1  0.1683291E-008  0.4614232E+02  0.7816164E-02  0.1320468E+00
        -11   -1    0    0    0    0  0.00000000000E+00  0.00000000000E+00  0.45593999997E+02  0.45594000000E+02  0.51100000000E-03 0.  1.
         11   -1    0    0    0    0 -0.00000000000E+00 -0.00000000000E+00 -0.45593999997E+02  0.45594000000E+02  0.51100000000E-03 0. -1.
    9900012    2    1    2    0    0  0.20519918052E+02  0.30418589986E+02 -0.26129595904E+02  0.46142318346E+02  0.10000005330E+02 0.  0.
        -12    1    1    2    0    0 -0.20519918052E+02 -0.30418589986E+02  0.26129595904E+02  0.45045681654E+02  0.00000000000E+00 0.  1.
         11    1    3    3    0    0  0.13838885990E+02  0.13758285578E+02 -0.12671991631E+02  0.23267671986E+02  0.51100000000E-03 0. -1.
        -11    1    3    3    0    0  0.40663167801E+01  0.12802853229E+02 -0.77578711183E+01  0.15512335334E+02  0.51100000000E-03 0.  1.
         12    1    3    3    0    0  0.26147152819E+01  0.38574511787E+01 -0.56997331552E+01  0.73623110259E+01  0.00000000000E+00 0. -1.
</event>
<event>
 7    1  0.1683291E-008  0.4614232E+02  0.7816164E-02  0.1320468E+00
        -11   -1    0    0    0    0  0.00000000000E+00  0.00000000000E+00  0.45593999997E+02  0.45594000000E+02  0.51100000000E-03 0.  1.
         11   -1    0    0    0    0 -0.00000000000E+00 -0.00000000000E+00 -0.45593999997E+02  0.45594000000E+02  0.51100000000E-03 0. -1.
    9900012    2    1    2    0    0  0.18223155217E+02  0.37707544515E+01 -0.41022083875E+02  0.46142319401E+02  0.10000014954E+02 0.  0.
        -12    1    1    2    0    0 -0.18223155217E+02 -0.37707544515E+01  0.41022083875E+02  0.45045680599E+02  0.00000000000E+00 0.  1.
         11    1    3    3    0    0  0.18153061790E+02  0.32283167815E+01 -0.36438834346E+02  0.40838025544E+02  0.51100000000E-03 0. -1.
        -11    1    3    3    0    0 -0.86850703272E+00  0.32187958577E+00 -0.41413854808E+01  0.42436994350E+01  0.51100000000E-03 0.  1.
        -12    1    3    3    0    0  0.93860045951E+00  0.22055808427E+00 -0.44186404855E+00  0.10605944223E+01  0.00000000000E+00 0.  1.
</event>
<event>
 7    1  0.1683291E-008  0.4614231E+02  0.7816164E-02  0.1320468E+00
        -11   -1    0    0    0    0  0.00000000000E+00  0.00000000000E+00  0.45593999997E+02  0.45594000000E+02  0.51100000000E-03 0.  1.
         11   -1    0    0    0    0 -0.00000000000E+00 -0.00000000000E+00 -0.45593999997E+02  0.45594000000E+02  0.51100000000E-03 0. -1.
    9900012    2    1    2    0    0 -0.71284099814E+01  0.21542217136E+01 -0.44425882547E+02  0.46142312746E+02  0.99999542705E+01 0.  0.
        -12    1    1    2    0    0  0.71284099814E+01 -0.21542217136E+01  0.44425882547E+02  0.45045687254E+02  0.00000000000E+00 0.  1.
         11    1    3    3    0    0 -0.55279344144E+01  0.51590983797E+01 -0.37282208346E+02  0.38041259370E+02  0.51100000000E-03 0. -1.
        -11    1    3    3    0    0 -0.19031009136E+01 -0.28273000777E+01 -0.68177920049E+01  0.76221851788E+01  0.51100000000E-03 0.  1.
        -12    1    3    3    0    0  0.30262534665E+00 -0.17757658843E+00 -0.32588219594E+00  0.47886819776E+00  0.00000000000E+00 0.  1.
</event>
<event>
 7    1  0.1683291E-008  0.4614232E+02  0.7816164E-02  0.1320468E+00
        -11   -1    0    0    0    0  0.00000000000E+00  0.00000000000E+00  0.45593999997E+02  0.45594000000E+02  0.51100000000E-03 0.  1.
         11   -1    0    0    0    0 -0.00000000000E+00 -0.00000000000E+00 -0.45593999997E+02  0.45594000000E+02  0.51100000000E-03 0. -1.
    9900012    2    1    2    0    0 -0.10406820048E+02  0.16820801591E+02 -0.40470636582E+02  0.46142315468E+02  0.99999790860E+01 0.  0.
        -12    1    1    2    0    0  0.10406820048E+02 -0.16820801591E+02  0.40470636582E+02  0.45045684532E+02  0.00000000000E+00 0.  1.
         11    1    3    3    0    0 -0.31019603269E+01  0.79323603144E+01 -0.13223310513E+02  0.15728968155E+02  0.51100000000E-03 0. -1.
        -11    1    3    3    0    0  0.87950882556E+00  0.36307931997E+01 -0.64572132176E+01  0.74600132595E+01  0.51100000000E-03 0.  1.
        -12    1    3    3    0    0 -0.81843685471E+01  0.52576480764E+01 -0.20790112851E+02  0.22953334053E+02  0.00000000000E+00 0.  1.
</event>
<event>
 7    1  0.1683291E-008  0.4614232E+02  0.7816164E-02  0.1320468E+00
        -11   -1    0    0    0    0  0.00000000000E+00  0.00000000000E+00  0.45593999997E+02  0.45594000000E+02  0.51100000000E-03 0. -1.
         11   -1    0    0    0    0 -0.00000000000E+00 -0.00000000000E+00 -0.45593999997E+02  0.45594000000E+02  0.51100000000E-03 0.  1.
    9900012    2    1    2    0    0  0.27984164578E+02 -0.63966696776E+01  0.34714300363E+02  0.46142317635E+02  0.99999988492E+01 0.  0.
        -12    1    1    2    0    0 -0.27984164578E+02  0.63966696776E+01 -0.34714300363E+02  0.45045682365E+02  0.00000000000E+00 0.  1.
         11    1    3    3    0    0  0.21477503361E+02 -0.35928938077E+01  0.24721582686E+02  0.32944630630E+02  0.51100000000E-03 0. -1.
        -11    1    3    3    0    0 -0.67348537437E+00  0.31806614302E+00  0.13044808852E+01  0.15021382299E+01  0.51100000000E-03 0.  1.
         12    1    3    3    0    0  0.71801465906E+01 -0.31218420129E+01  0.86882367911E+01  0.11695548775E+02  0.00000000000E+00 0. -1.
</event>
<event>
 7    1  0.1683291E-008  0.4614232E+02  0.7816164E-02  0.1320468E+00
        -11   -1    0    0    0    0  0.00000000000E+00  0.00000000000E+00  0.45593999997E+02  0.45594000000E+02  0.51100000000E-03 0.  1.
         11   -1    0    0    0    0 -0.00000000000E+00 -0.00000000000E+00 -0.45593999997E+02  0.45594000000E+02  0.51100000000E-03 0. -1.
    9900012    2    1    2    0    0 -0.15860538547E+02  0.40053037971E+02 -0.13164762462E+02  0.46142317583E+02  0.99999983802E+01 0.  0.
        -12    1    1    2    0    0  0.15860538547E+02 -0.40053037971E+02  0.13164762462E+02  0.45045682417E+02  0.00000000000E+00 0.  1.
         11    1    3    3    0    0  0.10856004468E+01  0.46311144695E+01 -0.59526641027E+00  0.47937555132E+01  0.51100000000E-03 0. -1.
        -11    1    3    3    0    0 -0.41220631974E+01  0.63899645551E+01 -0.16206646325E+01  0.77749344776E+01  0.51100000000E-03 0.  1.
         12    1    3    3    0    0 -0.12824075797E+02  0.29031958946E+02 -0.10948831420E+02  0.33573627593E+02  0.00000000000E+00 0. -1.
</event>
<event>
 7    1  0.1683291E-008  0.4614232E+02  0.7816164E-02  0.1320468E+00
        -11   -1    0    0    0    0  0.00000000000E+00  0.00000000000E+00  0.45593999997E+02  0.45594000000E+02  0.51100000000E-03 0.  1.
         11   -1    0    0    0    0 -0.00000000000E+00 -0.00000000000E+00 -0.45593999997E+02  0.45594000000E+02  0.51100000000E-03 0. -1.
    9900012    2    1    2    0    0 -0.16674106180E+02  0.24050307980E+02 -0.34244275698E+02  0.46142317089E+02  0.99999938731E+01 0.  0.
        -12    1    1    2    0    0  0.16674106180E+02 -0.24050307980E+02  0.34244275698E+02  0.45045682911E+02  0.00000000000E+00 0.  1.
         11    1    3    3    0    0 -0.22923575154E+01  0.60974404663E+01 -0.55876867717E+01  0.85823031255E+01  0.51100000000E-03 0. -1.
        -11    1    3    3    0    0 -0.98660254181E+01  0.65684591685E+01 -0.11809334251E+02  0.16731511860E+02  0.51100000000E-03 0.  1.
         12    1    3    3    0    0 -0.45157232467E+01  0.11384408345E+02 -0.16847254675E+02  0.20828502104E+02  0.00000000000E+00 0. -1.
</event>
<event>
 7    1  0.1683291E-008  0.4614232E+02  0.7816164E-02  0.1320468E+00
        -11   -1    0    0    0    0  0.00000000000E+00  0.00000000000E+00  0.45593999997E+02  0.45594000000E+02  0.51100000000E-03 0. -1.
         11   -1    0    0    0    0 -0.00000000000E+00 -0.00000000000E+00 -0.45593999997E+02  0.45594000000E+02  0.51100000000E-03 0.  1.
    9900012    2    1    2    0    0  0.10576467526E+02 -0.43778023074E+02 -0.85823819301E+00  0.46142317162E+02  0.99999945356E+01 0.  0.
        -12    1    1    2    0    0 -0.10576467526E+02  0.43778023074E+02  0.85823819301E+00  0.45045682838E+02  0.00000000000E+00 0.  1.
         11    1    3    3    0    0  0.77651567603E+01 -0.17922367613E+02 -0.87430366893E+00  0.19551811362E+02  0.51100000000E-03 0. -1.
        -11    1    3    3    0    0 -0.32203319268E+00 -0.21909014468E+01 -0.14943410339E+01  0.26714808465E+01  0.51100000000E-03 0.  1.
         12    1    3    3    0    0  0.31333439582E+01 -0.23664754014E+02  0.15104065098E+01  0.23919024953E+02  0.00000000000E+00 0. -1.
</event>
<event>
 7    1  0.1683291E-008  0.4614232E+02  0.7816164E-02  0.1320468E+00
        -11   -1    0    0    0    0  0.00000000000E+00  0.00000000000E+00  0.45593999997E+02  0.45594000000E+02  0.51100000000E-03 0.  1.
         11   -1    0    0    0    0 -0.00000000000E+00 -0.00000000000E+00 -0.45593999997E+02  0.45594000000E+02  0.51100000000E-03 0. -1.
    9900012    2    1    2    0    0 -0.62611427257E+01 -0.41528618619E+02 -0.16287587781E+02  0.46142316651E+02  0.99999898774E+01 0.  0.
        -12    1    1    2    0    0  0.62611427257E+01  0.41528618619E+02  0.16287587781E+02  0.45045683349E+02  0.00000000000E+00 0.  1.
         11    1    3    3    0    0 -0.43702432843E+00 -0.17031205657E+02 -0.40552981891E+01  0.17512806744E+02  0.51100000000E-03 0.  1.
        -11    1    3    3    0    0 -0.33972569448E+01 -0.16056592444E+02 -0.47336782633E+01  0.17081078005E+02  0.51100000000E-03 0. -1.
         12    1    3    3    0    0 -0.24268614524E+01 -0.84408205186E+01 -0.74986113285E+01  0.11548431902E+02  0.00000000000E+00 0. -1.
</event>
<event>
 7    1  0.1683291E-008  0.4614232E+02  0.7816164E-02  0.1320468E+00
        -11   -1    0    0    0    0  0.00000000000E+00  0.00000000000E+00  0.45593999997E+02  0.45594000000E+02  0.51100000000E-03 0. -1.
         11   -1    0    0    0    0 -0.00000000000E+00 -0.00000000000E+00 -0.45593999997E+02  0.45594000000E+02  0.51100000000E-03 0.  1.
    9900012    2    1    2    0    0  0.36406466330E+02  0.26145722240E+02  0.44815001407E+01  0.46142318458E+02  0.10000006354E+02 0.  0.
        -12    1    1    2    0    0 -0.36406466330E+02 -0.26145722240E+02 -0.44815001407E+01  0.45045681542E+02  0.00000000000E+00 0.  1.
         11    1    3    3    0    0  0.21740377450E+02  0.10428224304E+02  0.44754888531E+01  0.24523904145E+02  0.51100000000E-03 0. -1.
        -11    1    3    3    0    0  0.12183589752E+02  0.11674315903E+02  0.37053735031E-02  0.16873930337E+02  0.51100000000E-03 0.  1.
         12    1    3    3    0    0  0.24824991284E+01  0.40431820333E+01  0.23059140414E-02  0.47444839755E+01  0.00000000000E+00 0. -1.
</event>
<event>
 7    1  0.2312783E-008  0.4614231E+02  0.7816164E-02  0.1320468E+00
        -11   -1    0    0    0    0  0.00000000000E+00  0.00000000000E+00  0.45593999997E+02  0.45594000000E+02  0.51100000000E-03 0. -1.
         11   -1    0    0    0    0 -0.00000000000E+00 -0.00000000000E+00 -0.45593999997E+02  0.45594000000E+02  0.51100000000E-03 0.  1.
    9900012    2    1    2    0    0 -0.21394215808E+02 -0.18032238547E+02  0.35302119582E+02  0.46142314923E+02  0.99999741197E+01 0.  0.
        -12    1    1    2    0    0  0.21394215808E+02  0.18032238547E+02 -0.35302119582E+02  0.45045685077E+02  0.00000000000E+00 0.  1.
         11    1    3    3    0    0 -0.17678277664E+02 -0.11014963654E+02  0.24559552303E+02  0.32202834271E+02  0.51100000000E-03 0. -1.
        -11    1    3    3    0    0  0.20621406614E+00  0.33757848706E+00  0.76708604016E-01  0.40294906260E+00  0.51100000000E-03 0.  1.
         12    1    3    3    0    0 -0.39221522099E+01 -0.73548533803E+01  0.10665858675E+02  0.13536531590E+02  0.00000000000E+00 0. -1.
</event>
<event>
 7    1  0.1683291E-008  0.4614232E+02  0.7816164E-02  0.1320468E+00
        -11   -1    0    0    0    0  0.00000000000E+00  0.00000000000E+00  0.45593999997E+02  0.45594000000E+02  0.51100000000E-03 0.  1.
         11   -1    0    0    0    0 -0.00000000000E+00 -0.00000000000E+00 -0.45593999997E+02  0.45594000000E+02  0.51100000000E-03 0. -1.
    9900012    2    1    2    0    0 -0.25237002811E+02 -0.64060008580E+01 -0.36758268815E+02  0.46142317808E+02  0.10000000428E+02 0.  0.
        -12    1    1    2    0    0  0.25237002811E+02  0.64060008580E+01  0.36758268815E+02  0.45045682192E+02  0.00000000000E+00 0.  1.
         11    1    3    3    0    0 -0.17165992983E+02  0.49512594399E-01 -0.22178886294E+02  0.28045975898E+02  0.51100000000E-03 0. -1.
        -11    1    3    3    0    0 -0.82590664669E+01 -0.59604497610E+01 -0.13975024507E+02  0.17292786083E+02  0.51100000000E-03 0.  1.
         12    1    3    3    0    0  0.18805663953E+00 -0.49506369141E+00 -0.60435801404E+00  0.80355582716E+00  0.00000000000E+00 0. -1.
</event>
<event>
 7    1  0.1683291E-008  0.4614232E+02  0.7816164E-02  0.1320468E+00
        -11   -1    0    0    0    0  0.00000000000E+00  0.00000000000E+00  0.45593999997E+02  0.45594000000E+02  0.51100000000E-03 0.  1.
         11   -1    0    0    0    0 -0.00000000000E+00 -0.00000000000E+00 -0.45593999997E+02  0.45594000000E+02  0.51100000000E-03 0. -1.
    9900012    2    1    2    0    0  0.16699571951E+02  0.19709479017E+02 -0.36902223839E+02  0.46142318845E+02  0.10000009880E+02 0.  0.
        -12    1    1    2    0    0 -0.16699571951E+02 -0.19709479017E+02  0.36902223839E+02  0.45045681155E+02  0.00000000000E+00 0.  1.
         11    1    3    3    0    0  0.69657855165E+01  0.81937428701E+01 -0.19516070371E+02  0.22283101065E+02  0.51100000000E-03 0. -1.
        -11    1    3    3    0    0  0.68503722188E+01  0.11038381847E+02 -0.11779574479E+02  0.17536585999E+02  0.51100000000E-03 0.  1.
        -12    1    3    3    0    0  0.28834142161E+01  0.47735429977E+00 -0.56065789890E+01  0.63226317803E+01  0.00000000000E+00 0.  1.
</event>
<event>
 7    1  0.1683291E-008  0.4614232E+02  0.7816164E-02  0.1320468E+00
        -11   -1    0    0    0    0  0.00000000000E+00  0.00000000000E+00  0.45593999997E+02  0.45594000000E+02  0.51100000000E-03 0. -1.
         11   -1    0    0    0    0 -0.00000000000E+00 -0.00000000000E+00 -0.45593999997E+02  0.45594000000E+02  0.51100000000E-03 0.  1.
    9900012    2    1    2    0    0 -0.16735015440E+02 -0.20840130570E+02  0.36259366972E+02  0.46142317885E+02  0.10000001134E+02 0.  0.
        -12    1    1    2    0    0  0.16735015440E+02  0.20840130570E+02 -0.36259366972E+02  0.45045682115E+02  0.00000000000E+00 0.  1.
         11    1    3    3    0    0 -0.10694084874E+02 -0.13794238389E+02  0.16844413517E+02  0.24256519351E+02  0.51100000000E-03 0. -1.
        -11    1    3    3    0    0 -0.57086980403E+01 -0.44972243567E+01  0.11901529752E+02  0.13944915594E+02  0.51100000000E-03 0.  1.
         12    1    3    3    0    0 -0.33223252518E+00 -0.25486678249E+01  0.75134237036E+01  0.79408829409E+01  0.00000000000E+00 0. -1.
</event>
<event>
 7    1  0.1683291E-008  0.4614232E+02  0.7816164E-02  0.1320468E+00
        -11   -1    0    0    0    0  0.00000000000E+00  0.00000000000E+00  0.45593999997E+02  0.45594000000E+02  0.51100000000E-03 0.  1.
         11   -1    0    0    0    0 -0.00000000000E+00 -0.00000000000E+00 -0.45593999997E+02  0.45594000000E+02  0.51100000000E-03 0. -1.
    9900012    2    1    2    0    0 -0.86425365167E+01 -0.21290199547E+02 -0.38744643812E+02  0.46142318095E+02  0.10000003044E+02 0.  0.
        -12    1    1    2    0    0  0.86425365167E+01  0.21290199547E+02  0.38744643812E+02  0.45045681905E+02  0.00000000000E+00 0.  1.
         11    1    3    3    0    0 -0.38989921974E+01 -0.26330058887E+01 -0.11755192679E+02  0.12661730345E+02  0.51100000000E-03 0. -1.
        -11    1    3    3    0    0 -0.38902629346E+01 -0.92307967159E+01 -0.16906423497E+02  0.19651180866E+02  0.51100000000E-03 0.  1.
        -12    1    3    3    0    0 -0.85328138469E+00 -0.94263969424E+01 -0.10083027636E+02  0.13829406883E+02  0.00000000000E+00 0.  1.
</event>
<event>
 7    1  0.1683291E-008  0.4614232E+02  0.7816164E-02  0.1320468E+00
        -11   -1    0    0    0    0  0.00000000000E+00  0.00000000000E+00  0.45593999997E+02  0.45594000000E+02  0.51100000000E-03 0.  1.
         11   -1    0    0    0    0 -0.00000000000E+00 -0.00000000000E+00 -0.45593999997E+02  0.45594000000E+02  0.51100000000E-03 0. -1.
    9900012    2    1    2    0    0 -0.24129892060E+01  0.79182658547E+01 -0.44278573141E+02  0.46142317738E+02  0.99999997922E+01 0.  0.
        -12    1    1    2    0    0  0.24129892060E+01 -0.79182658547E+01  0.44278573141E+02  0.45045682262E+02  0.00000000000E+00 0.  1.
         11    1    3    3    0    0 -0.27948728857E+01  0.40761906953E+01 -0.27842815732E+02  0.28278066291E+02  0.51100000000E-03 0. -1.
        -11    1    3    3    0    0 -0.81211314758E+00 -0.38637574002E+00 -0.10180010648E+02  0.10219659047E+02  0.51100000000E-03 0.  1.
        -12    1    3    3    0    0  0.11939968274E+01  0.42284508994E+01 -0.62557467604E+01  0.76445924000E+01  0.00000000000E+00 0.  1.
</event>
<event>
 7    1  0.1683291E-008  0.4614232E+02  0.7816164E-02  0.1320468E+00
        -11   -1    0    0    0    0  0.00000000000E+00  0.00000000000E+00  0.45593999997E+02  0.45594000000E+02  0.51100000000E-03 0.  1.
         11   -1    0    0    0    0 -0.00000000000E+00 -0.00000000000E+00 -0.45593999997E+02  0.45594000000E+02  0.51100000000E-03 0. -1.
    9900012    2    1    2    0    0  0.17930104452E+02  0.33869874953E+02 -0.23673954780E+02  0.46142320852E+02  0.10000028182E+02 0.  0.
        -12    1    1    2    0    0 -0.17930104452E+02 -0.33869874953E+02  0.23673954780E+02  0.45045679148E+02  0.00000000000E+00 0.  1.
         11    1    3    3    0    0  0.15125656655E+02  0.22099772317E+02 -0.17835028949E+02  0.32175669124E+02  0.51100000000E-03 0. -1.
        -11    1    3    3    0    0  0.32976674312E+01  0.11037392162E+02 -0.45097959391E+01  0.12370808215E+02  0.51100000000E-03 0.  1.
         12    1    3    3    0    0 -0.49321963384E+00  0.73271047374E+00 -0.13291298922E+01  0.15958435124E+01  0.00000000000E+00 0. -1.
</event>
<event>
 7    1  0.1683291E-008  0.4614232E+02  0.7816164E-02  0.1320468E+00
        -11   -1    0    0    0    0  0.00000000000E+00  0.00000000000E+00  0.45593999997E+02  0.45594000000E+02  0.51100000000E-03 0. -1.
         11   -1    0    0    0    0 -0.00000000000E+00 -0.00000000000E+00 -0.45593999997E+02  0.45594000000E+02  0.51100000000E-03 0.  1.
    9900012    2    1    2    0    0  0.43294384167E+02  0.11158544155E+02 -0.54951236389E+01  0.46142321052E+02  0.10000030011E+02 0.  0.
        -12    1    1    2    0    0 -0.43294384167E+02 -0.11158544155E+02  0.54951236389E+01  0.45045678948E+02  0.00000000000E+00 0.  1.
         11    1    3    3    0    0  0.30098960274E+02  0.72004408376E+01 -0.51901476087E+01  0.31380430052E+02  0.51100000000E-03 0. -1.
        -11    1    3    3    0    0  0.55367364975E+01  0.64402014562E+00  0.22849976116E+01  0.60242366601E+01  0.51100000000E-03 0.  1.
        -12    1    3    3    0    0  0.76586873958E+01  0.33140831719E+01 -0.25899736419E+01  0.87376543398E+01  0.00000000000E+00 0.  1.
</event>
<event>
 7    1  0.1683291E-008  0.4614232E+02  0.7816164E-02  0.1320468E+00
        -11   -1    0    0    0    0  0.00000000000E+00  0.00000000000E+00  0.45593999997E+02  0.45594000000E+02  0.51100000000E-03 0.  1.
         11   -1    0    0    0    0 -0.00000000000E+00 -0.00000000000E+00 -0.45593999997E+02  0.45594000000E+02  0.51100000000E-03 0. -1.
    9900012    2    1    2    0    0  0.15166345362E+02 -0.49121094681E+01 -0.42130353903E+02  0.46142316843E+02  0.99999916301E+01 0.  0.
        -12    1    1    2    0    0 -0.15166345362E+02  0.49121094681E+01  0.42130353903E+02  0.45045683157E+02  0.00000000000E+00 0.  1.
         11    1    3    3    0    0  0.29744107718E+01 -0.10787464886E+00 -0.12367886794E+02  0.12720981895E+02  0.51100000000E-03 0. -1.
        -11    1    3    3    0    0 -0.49664335116E-01  0.14277280926E+01 -0.35726390844E+01  0.38476777855E+01  0.51100000000E-03 0.  1.
         12    1    3    3    0    0  0.12241598925E+02 -0.62319629119E+01 -0.26189828025E+02  0.29573657162E+02  0.00000000000E+00 0. -1.
</event>
<event>
 7    1  0.1683291E-008  0.4614232E+02  0.7816164E-02  0.1320468E+00
        -11   -1    0    0    0    0  0.00000000000E+00  0.00000000000E+00  0.45593999997E+02  0.45594000000E+02  0.51100000000E-03 0.  1.
         11   -1    0    0    0    0 -0.00000000000E+00 -0.00000000000E+00 -0.45593999997E+02  0.45594000000E+02  0.51100000000E-03 0. -1.
    9900012    2    1    2    0    0  0.92430249751E+01 -0.74022299111E+01 -0.43461327548E+02  0.46142317514E+02  0.99999977512E+01 0.  0.
        -12    1    1    2    0    0 -0.92430249751E+01  0.74022299111E+01  0.43461327548E+02  0.45045682486E+02  0.00000000000E+00 0.  1.
         11    1    3    3    0    0 -0.46491771497E+00 -0.32476110433E+01 -0.81437985399E+01  0.87797825081E+01  0.51100000000E-03 0. -1.
        -11    1    3    3    0    0  0.58948927635E+01 -0.38827262320E+01 -0.13720081552E+02  0.15429386305E+02  0.51100000000E-03 0.  1.
        -12    1    3    3    0    0  0.38130499265E+01 -0.27189263580E+00 -0.21597447456E+02  0.21933148702E+02  0.00000000000E+00 0.  1.
</event>
<event>
 7    1  0.1683291E-008  0.4614232E+02  0.7816164E-02  0.1320468E+00
        -11   -1    0    0    0    0  0.00000000000E+00  0.00000000000E+00  0.45593999997E+02  0.45594000000E+02  0.51100000000E-03 0. -1.
         11   -1    0    0    0    0 -0.00000000000E+00 -0.00000000000E+00 -0.45593999997E+02  0.45594000000E+02  0.51100000000E-03 0.  1.
    9900012    2    1    2    0    0 -0.33148194116E+02 -0.96539929745E+01  0.28932876644E+02  0.46142315363E+02  0.99999781340E+01 0.  0.
        -12    1    1    2    0    0  0.33148194116E+02  0.96539929745E+01 -0.28932876644E+02  0.45045684637E+02  0.00000000000E+00 0.  1.
         11    1    3    3    0    0 -0.21302696710E+02 -0.82156717578E+01  0.16126619729E+02  0.27952996507E+02  0.51100000000E-03 0. -1.
        -11    1    3    3    0    0 -0.93349969048E+01 -0.30741465836E+01  0.10687563406E+02  0.14519523279E+02  0.51100000000E-03 0.  1.
         12    1    3    3    0    0 -0.25105005014E+01  0.16358253669E+01  0.21186935091E+01  0.36697955779E+01  0.00000000000E+00 0. -1.
</event>
<event>
 7    1  0.1683291E-008  0.4614232E+02  0.7816164E-02  0.1320468E+00
        -11   -1    0    0    0    0  0.00000000000E+00  0.00000000000E+00  0.45593999997E+02  0.45594000000E+02  0.51100000000E-03 0.  1.
         11   -1    0    0    0    0 -0.00000000000E+00 -0.00000000000E+00 -0.45593999997E+02  0.45594000000E+02  0.51100000000E-03 0. -1.
    9900012    2    1    2    0    0  0.23060015460E+00  0.55831510129E+01 -0.44697748070E+02  0.46142318363E+02  0.10000005488E+02 0.  0.
        -12    1    1    2    0    0 -0.23060015460E+00 -0.55831510129E+01  0.44697748070E+02  0.45045681637E+02  0.00000000000E+00 0.  1.
         11    1    3    3    0    0 -0.88932454454E+00  0.39657330109E+01 -0.29343777533E+02  0.29623896041E+02  0.51100000000E-03 0. -1.
        -11    1    3    3    0    0 -0.77077474892E+00  0.34017938019E+01 -0.91037396544E+01  0.97490702500E+01  0.51100000000E-03 0.  1.
         12    1    3    3    0    0  0.18906994481E+01 -0.17843757999E+01 -0.62502308820E+01  0.67693520721E+01  0.00000000000E+00 0. -1.
</event>
<event>
 7    1  0.1683291E-008  0.4614232E+02  0.7816164E-02  0.1320468E+00
        -11   -1    0    0    0    0  0.00000000000E+00  0.00000000000E+00  0.45593999997E+02  0.45594000000E+02  0.51100000000E-03 0.  1.
         11   -1    0    0    0    0 -0.00000000000E+00 -0.00000000000E+00 -0.45593999997E+02  0.45594000000E+02  0.51100000000E-03 0. -1.
    9900012    2    1    2    0    0  0.13190208720E+02  0.29086304668E+02 -0.31766630784E+02  0.46142317003E+02  0.99999930856E+01 0.  0.
        -12    1    1    2    0    0 -0.13190208720E+02 -0.29086304668E+02  0.31766630784E+02  0.45045682997E+02  0.00000000000E+00 0.  1.
         11    1    3    3    0    0  0.56586803869E+01  0.17702608143E+02 -0.15164921116E+02  0.23987034654E+02  0.51100000000E-03 0. -1.
        -11    1    3    3    0    0  0.60428891732E+01  0.42672856240E+01 -0.85927190430E+01  0.11338476836E+02  0.51100000000E-03 0.  1.
        -12    1    3    3    0    0  0.14886391600E+01  0.71164109005E+01 -0.80089906251E+01  0.10816805512E+02  0.00000000000E+00 0.  1.
</event>
<event>
 7    1  0.1683291E-008  0.4614232E+02  0.7816164E-02  0.1320468E+00
        -11   -1    0    0    0    0  0.00000000000E+00  0.00000000000E+00  0.45593999997E+02  0.45594000000E+02  0.51100000000E-03 0.  1.
         11   -1    0    0    0    0 -0.00000000000E+00 -0.00000000000E+00 -0.45593999997E+02  0.45594000000E+02  0.51100000000E-03 0. -1.
    9900012    2    1    2    0    0  0.43552936846E+02 -0.33318512852E+01 -0.11006996565E+02  0.46142317473E+02  0.99999973747E+01 0.  0.
        -12    1    1    2    0    0 -0.43552936846E+02  0.33318512852E+01  0.11006996565E+02  0.45045682527E+02  0.00000000000E+00 0.  1.
         11    1    3    3    0    0  0.13817431365E+02 -0.32990276026E+01 -0.56817698921E+01  0.15299918366E+02  0.51100000000E-03 0. -1.
        -11    1    3    3    0    0  0.78236710834E+01 -0.20556341467E+01  0.41881634553E+00  0.81000536022E+01  0.51100000000E-03 0.  1.
        -12    1    3    3    0    0  0.21911834398E+02  0.20228104642E+01 -0.57440430185E+01  0.22742345505E+02  0.00000000000E+00 0.  1.
</event>
<event>
 7    1  0.1683291E-008  0.4614232E+02  0.7816164E-02  0.1320468E+00
        -11   -1    0    0    0    0  0.00000000000E+00  0.00000000000E+00  0.45593999997E+02  0.45594000000E+02  0.51100000000E-03 0. -1.
         11   -1    0    0    0    0 -0.00000000000E+00 -0.00000000000E+00 -0.45593999997E+02  0.45594000000E+02  0.51100000000E-03 0.  1.
    9900012    2    1    2    0    0  0.24098147699E+02 -0.37160761196E+02  0.82140520277E+01  0.46142317122E+02  0.99999941718E+01 0.  0.
        -12    1    1    2    0    0 -0.24098147699E+02  0.37160761196E+02 -0.82140520277E+01  0.45045682878E+02  0.00000000000E+00 0.  1.
         11    1    3    3    0    0  0.63628595471E+01 -0.95686603220E+01 -0.17775528987E+01  0.11627765759E+02  0.51100000000E-03 0. -1.
        -11    1    3    3    0    0  0.16559328465E+02 -0.27072763949E+02  0.93926961461E+01  0.33096354002E+02  0.51100000000E-03 0.  1.
        -12    1    3    3    0    0  0.11759596877E+01 -0.51933692512E+00  0.59890878033E+00  0.14181973615E+01  0.00000000000E+00 0.  1.
</event>
<event>
 7    1  0.1683291E-008  0.4614232E+02  0.7816164E-02  0.1320468E+00
        -11   -1    0    0    0    0  0.00000000000E+00  0.00000000000E+00  0.45593999997E+02  0.45594000000E+02  0.51100000000E-03 0. -1.
         11   -1    0    0    0    0 -0.00000000000E+00 -0.00000000000E+00 -0.45593999997E+02  0.45594000000E+02  0.51100000000E-03 0.  1.
    9900012    2    1    2    0    0  0.45248560068E+01 -0.23251393225E+02  0.38314643025E+02  0.46142317866E+02  0.10000000956E+02 0.  0.
        -12    1    1    2    0    0 -0.45248560068E+01  0.23251393225E+02 -0.38314643025E+02  0.45045682134E+02  0.00000000000E+00 0.  1.
         11    1    3    3    0    0  0.13698458074E+01 -0.19386820014E+02  0.23971393256E+02  0.30860216504E+02  0.51100000000E-03 0. -1.
        -11    1    3    3    0    0  0.18378221336E+01 -0.31174840651E+01  0.11564676822E+02  0.12117674997E+02  0.51100000000E-03 0.  1.
        -12    1    3    3    0    0  0.13171880658E+01 -0.74708914597E+00  0.27785729470E+01  0.31644263643E+01  0.00000000000E+00 0.  1.
</event>
<event>
 7    1  0.1683291E-008  0.4614232E+02  0.7816164E-02  0.1320468E+00
        -11   -1    0    0    0    0  0.00000000000E+00  0.00000000000E+00  0.45593999997E+02  0.45594000000E+02  0.51100000000E-03 0.  1.
         11   -1    0    0    0    0 -0.00000000000E+00 -0.00000000000E+00 -0.45593999997E+02  0.45594000000E+02  0.51100000000E-03 0. -1.
    9900012    2    1    2    0    0  0.24307940506E+02 -0.36233238143E+02 -0.11197767680E+02  0.46142317421E+02  0.99999969019E+01 0.  0.
        -12    1    1    2    0    0 -0.24307940506E+02  0.36233238143E+02  0.11197767680E+02  0.45045682579E+02  0.00000000000E+00 0.  1.
         11    1    3    3    0    0  0.60454036687E+01 -0.14737963433E+02 -0.22220630219E+01  0.16083906118E+02  0.51100000000E-03 0. -1.
        -11    1    3    3    0    0  0.17726603426E+02 -0.20091646541E+02 -0.95573174193E+01  0.28447302970E+02  0.51100000000E-03 0.  1.
        -12    1    3    3    0    0  0.53593341103E+00 -0.14036281686E+01  0.58161276167E+00  0.16111083332E+01  0.00000000000E+00 0.  1.
</event>
<event>
 7    1  0.1683291E-008  0.4614232E+02  0.7816164E-02  0.1320468E+00
        -11   -1    0    0    0    0  0.00000000000E+00  0.00000000000E+00  0.45593999997E+02  0.45594000000E+02  0.51100000000E-03 0.  1.
         11   -1    0    0    0    0 -0.00000000000E+00 -0.00000000000E+00 -0.45593999997E+02  0.45594000000E+02  0.51100000000E-03 0. -1.
    9900012    2    1    2    0    0 -0.19645531157E+01  0.31932173152E+02 -0.31711045040E+02  0.46142317314E+02  0.99999959217E+01 0.  0.
        -12    1    1    2    0    0  0.19645531157E+01 -0.31932173152E+02  0.31711045040E+02  0.45045682686E+02  0.00000000000E+00 0.  1.
         11    1    3    3    0    0  0.10261349602E+01  0.34570176388E+00 -0.23085256253E+01  0.25498536212E+01  0.51100000000E-03 0. -1.
        -11    1    3    3    0    0 -0.22972742808E+01  0.50266070909E+01 -0.63355961783E+01  0.84073793279E+01  0.51100000000E-03 0.  1.
         12    1    3    3    0    0 -0.69341379502E+00  0.26559864297E+02 -0.23066923237E+02  0.35185084365E+02  0.00000000000E+00 0. -1.
</event>
<event>
 7    1  0.1683291E-008  0.4614232E+02  0.7816164E-02  0.1320468E+00
        -11   -1    0    0    0    0  0.00000000000E+00  0.00000000000E+00  0.45593999997E+02  0.45594000000E+02  0.51100000000E-03 0.  1.
         11   -1    0    0    0    0 -0.00000000000E+00 -0.00000000000E+00 -0.45593999997E+02  0.45594000000E+02  0.51100000000E-03 0. -1.
    9900012    2    1    2    0    0  0.37323155196E+01  0.82723223129E+01 -0.44122012671E+02  0.46142317657E+02  0.99999990509E+01 0.  0.
        -12    1    1    2    0    0 -0.37323155196E+01 -0.82723223129E+01  0.44122012671E+02  0.45045682343E+02  0.00000000000E+00 0.  1.
         11    1    3    3    0    0 -0.16301042006E+01 -0.29481289033E+00 -0.48811894979E+01  0.51546256431E+01  0.51100000000E-03 0. -1.
        -11    1    3    3    0    0  0.16529721019E+01  0.26790391252E+00 -0.15090612309E+02  0.15183236460E+02  0.51100000000E-03 0.  1.
        -12    1    3    3    0    0  0.37094476182E+01  0.82992312908E+01 -0.24150210864E+02  0.25804455554E+02  0.00000000000E+00 0.  1.
</event>
<event>
 7    1  0.1683291E-008  0.4614232E+02  0.7816164E-02  0.1320468E+00
        -11   -1    0    0    0    0  0.00000000000E+00  0.00000000000E+00  0.45593999997E+02  0.45594000000E+02  0.51100000000E-03 0.  1.
         11   -1    0    0    0    0 -0.00000000000E+00 -0.00000000000E+00 -0.45593999997E+02  0.45594000000E+02  0.51100000000E-03 0. -1.
    9900012    2    1    2    0    0  0.10330273140E+01  0.13120397990E+02 -0.43080176856E+02  0.46142316225E+02  0.99999859883E+01 0.  0.
        -12    1    1    2    0    0 -0.10330273140E+01 -0.13120397990E+02  0.43080176856E+02  0.45045683775E+02  0.00000000000E+00 0.  1.
         11    1    3    3    0    0  0.16351295081E+01  0.33877064513E+01 -0.12571106729E+02  0.13121849266E+02  0.51100000000E-03 0. -1.
        -11    1    3    3    0    0  0.19394592295E+01  0.98941076972E+01 -0.24597676859E+02  0.26583840511E+02  0.51100000000E-03 0.  1.
        -12    1    3    3    0    0 -0.25415614236E+01 -0.16141615856E+00 -0.59113932687E+01  0.64366264474E+01  0.00000000000E+00 0.  1.
</event>
<event>
 7    1  0.1683291E-008  0.4614232E+02  0.7816164E-02  0.1320468E+00
        -11   -1    0    0    0    0  0.00000000000E+00  0.00000000000E+00  0.45593999997E+02  0.45594000000E+02  0.51100000000E-03 0. -1.
         11   -1    0    0    0    0 -0.00000000000E+00 -0.00000000000E+00 -0.45593999997E+02  0.45594000000E+02  0.51100000000E-03 0.  1.
    9900012    2    1    2    0    0 -0.19063728529E+02 -0.36783535622E+02  0.17682170413E+02  0.46142318866E+02  0.10000010075E+02 0.  0.
        -12    1    1    2    0    0  0.19063728529E+02  0.36783535622E+02 -0.17682170413E+02  0.45045681134E+02  0.00000000000E+00 0.  1.
         11    1    3    3    0    0 -0.54524403457E+01 -0.15435082155E+02  0.49994173252E+01  0.17116221566E+02  0.51100000000E-03 0.  1.
        -11    1    3    3    0    0 -0.73787390218E+01 -0.16195179589E+02  0.10443042965E+02  0.20634601476E+02  0.51100000000E-03 0. -1.
         12    1    3    3    0    0 -0.62325491616E+01 -0.51532738787E+01  0.22397101235E+01  0.83914958236E+01  0.00000000000E+00 0. -1.
</event>
<event>
 7    1  0.1683291E-008  0.4614231E+02  0.7816164E-02  0.1320468E+00
        -11   -1    0    0    0    0  0.00000000000E+00  0.00000000000E+00  0.45593999997E+02  0.45594000000E+02  0.51100000000E-03 0. -1.
         11   -1    0    0    0    0 -0.00000000000E+00 -0.00000000000E+00 -0.45593999997E+02  0.45594000000E+02  0.51100000000E-03 0.  1.
    9900012    2    1    2    0    0  0.34175656351E+02  0.19982815727E+02 -0.21490126228E+02  0.46142312784E+02  0.99999546180E+01 0.  0.
        -12    1    1    2    0    0 -0.34175656351E+02 -0.19982815727E+02  0.21490126228E+02  0.45045687216E+02  0.00000000000E+00 0.  1.
         11    1    3    3    0    0  0.17038259834E+02  0.11317637551E+02 -0.14128082732E+02  0.24859483901E+02  0.51100000000E-03 0. -1.
        -11    1    3    3    0    0  0.78917918578E+01  0.32033034928E+01 -0.48468050555E+00  0.85309112905E+01  0.51100000000E-03 0.  1.
        -12    1    3    3    0    0  0.92456046597E+01  0.54618746832E+01 -0.68773629909E+01  0.12751917593E+02  0.00000000000E+00 0.  1.
</event>
<event>
 7    1  0.1683291E-008  0.4614232E+02  0.7816164E-02  0.1320468E+00
        -11   -1    0    0    0    0  0.00000000000E+00  0.00000000000E+00  0.45593999997E+02  0.45594000000E+02  0.51100000000E-03 0.  1.
         11   -1    0    0    0    0 -0.00000000000E+00 -0.00000000000E+00 -0.45593999997E+02  0.45594000000E+02  0.51100000000E-03 0. -1.
    9900012    2    1    2    0    0  0.12445031147E+02 -0.14163052436E+02 -0.40910178113E+02  0.46142317324E+02  0.99999960132E+01 0.  0.
        -12    1    1    2    0    0 -0.12445031147E+02  0.14163052436E+02  0.40910178113E+02  0.45045682676E+02  0.00000000000E+00 0.  1.
         11    1    3    3    0    0  0.24977083779E+00 -0.27900293243E+01 -0.12070581206E+02  0.12391351017E+02  0.51100000000E-03 0. -1.
        -11    1    3    3    0    0  0.12374350702E+02 -0.99981044831E+01 -0.24649540295E+02  0.29337458744E+02  0.51100000000E-03 0.  1.
        -12    1    3    3    0    0 -0.17909039255E+00 -0.13749186287E+01 -0.41900566111E+01  0.44135075630E+01  0.00000000000E+00 0.  1.
</event>
<event>
 7    1  0.1683291E-008  0.4614232E+02  0.7816164E-02  0.1320468E+00
        -11   -1    0    0    0    0  0.00000000000E+00  0.00000000000E+00  0.45593999997E+02  0.45594000000E+02  0.51100000000E-03 0. -1.
         11   -1    0    0    0    0 -0.00000000000E+00 -0.00000000000E+00 -0.45593999997E+02  0.45594000000E+02  0.51100000000E-03 0.  1.
    9900012    2    1    2    0    0 -0.26874819705E+02  0.29806348926E+02  0.20455781583E+02  0.46142319067E+02  0.10000011910E+02 0.  0.
        -12    1    1    2    0    0  0.26874819705E+02 -0.29806348926E+02 -0.20455781583E+02  0.45045680933E+02  0.00000000000E+00 0.  1.
         11    1    3    3    0    0 -0.55167769217E+01  0.26800702020E+01  0.12483722316E+01  0.62590764000E+01  0.51100000000E-03 0.  1.
        -11    1    3    3    0    0 -0.12343644419E+02  0.11937807772E+02  0.11116650285E+02  0.20456214845E+02  0.51100000000E-03 0. -1.
         12    1    3    3    0    0 -0.90143983645E+01  0.15188470953E+02  0.80907590664E+01  0.19427027823E+02  0.00000000000E+00 0. -1.
</event>
<event>
 7    1  0.1683291E-008  0.4614232E+02  0.7816164E-02  0.1320468E+00
        -11   -1    0    0    0    0  0.00000000000E+00  0.00000000000E+00  0.45593999997E+02  0.45594000000E+02  0.51100000000E-03 0. -1.
         11   -1    0    0    0    0 -0.00000000000E+00 -0.00000000000E+00 -0.45593999997E+02  0.45594000000E+02  0.51100000000E-03 0.  1.
    9900012    2    1    2    0    0 -0.35958949911E+01 -0.25203109921E+02  0.37161620652E+02  0.46142320296E+02  0.10000023118E+02 0.  0.
        -12    1    1    2    0    0  0.35958949911E+01  0.25203109921E+02 -0.37161620652E+02  0.45045679704E+02  0.00000000000E+00 0.  1.
         11    1    3    3    0    0 -0.28289363376E+00 -0.20135077739E+02  0.31863533815E+02  0.37693317336E+02  0.51100000000E-03 0. -1.
        -11    1    3    3    0    0 -0.50165422329E+00 -0.29791272408E+00 -0.22785464481E+00  0.62636008110E+00  0.51100000000E-03 0.  1.
        -12    1    3    3    0    0 -0.28113471340E+01 -0.47701194584E+01  0.55259414812E+01  0.78226428788E+01  0.00000000000E+00 0.  1.
</event>
<event>
 7    1  0.1683291E-008  0.4614232E+02  0.7816164E-02  0.1320468E+00
        -11   -1    0    0    0    0  0.00000000000E+00  0.00000000000E+00  0.45593999997E+02  0.45594000000E+02  0.51100000000E-03 0.  1.
         11   -1    0    0    0    0 -0.00000000000E+00 -0.00000000000E+00 -0.45593999997E+02  0.45594000000E+02  0.51100000000E-03 0. -1.
    9900012    2    1    2    0    0 -0.42411285847E+02 -0.13710355721E+02 -0.65132499156E+01  0.46142318235E+02  0.10000004322E+02 0.  0.
        -12    1    1    2    0    0  0.42411285847E+02  0.13710355721E+02  0.65132499156E+01  0.45045681765E+02  0.00000000000E+00 0.  1.
         11    1    3    3    0    0 -0.18508484687E+02 -0.39347669972E+01 -0.62673583445E+01  0.19933042357E+02  0.51100000000E-03 0. -1.
        -11    1    3    3    0    0 -0.85416988550E+01 -0.58419334907E+01 -0.29036375028E+00  0.10352445006E+02  0.51100000000E-03 0.  1.
         12    1    3    3    0    0 -0.15361102305E+02 -0.39336552331E+01  0.44472179151E-01  0.15856830872E+02  0.00000000000E+00 0. -1.
</event>
<event>
 7    1  0.1683291E-008  0.4614232E+02  0.7816164E-02  0.1320468E+00
        -11   -1    0    0    0    0  0.00000000000E+00  0.00000000000E+00  0.45593999997E+02  0.45594000000E+02  0.51100000000E-03 0. -1.
         11   -1    0    0    0    0 -0.00000000000E+00 -0.00000000000E+00 -0.45593999997E+02  0.45594000000E+02  0.51100000000E-03 0.  1.
    9900012    2    1    2    0    0  0.75035963277E+01 -0.38696334290E+02  0.21803745069E+02  0.46142317140E+02  0.99999943343E+01 0.  0.
        -12    1    1    2    0    0 -0.75035963277E+01  0.38696334290E+02 -0.21803745069E+02  0.45045682860E+02  0.00000000000E+00 0.  1.
         11    1    3    3    0    0  0.25054316062E+01 -0.30335149476E+02  0.15789215074E+02  0.34289908052E+02  0.51100000000E-03 0. -1.
        -11    1    3    3    0    0  0.52303928804E+01 -0.84412831209E+01  0.60085623516E+01  0.11606683084E+02  0.51100000000E-03 0.  1.
        -12    1    3    3    0    0 -0.23222815887E+00  0.80098307183E-01  0.59676432959E-02  0.24572600463E+00  0.00000000000E+00 0.  1.
</event>
<event>
 7    1  0.1683291E-008  0.4614232E+02  0.7816164E-02  0.1320468E+00
        -11   -1    0    0    0    0  0.00000000000E+00  0.00000000000E+00  0.45593999997E+02  0.45594000000E+02  0.51100000000E-03 0.  1.
         11   -1    0    0    0    0 -0.00000000000E+00 -0.00000000000E+00 -0.45593999997E+02  0.45594000000E+02  0.51100000000E-03 0. -1.
    9900012    2    1    2    0    0  0.11996912034E+02 -0.30647030947E+02 -0.30756252931E+02  0.46142317648E+02  0.99999989678E+01 0.  0.
        -12    1    1    2    0    0 -0.11996912034E+02  0.30647030947E+02  0.30756252931E+02  0.45045682352E+02  0.00000000000E+00 0.  1.
         11    1    3    3    0    0  0.14296253397E+01 -0.58188618669E+01 -0.14186313998E+01  0.61575561181E+01  0.51100000000E-03 0. -1.
        -11    1    3    3    0    0  0.11275438580E+01 -0.17510467458E+01 -0.35419090236E+01  0.41088489447E+01  0.51100000000E-03 0.  1.
         12    1    3    3    0    0  0.94397428357E+01 -0.23077122335E+02 -0.25795712507E+02  0.35875912585E+02  0.00000000000E+00 0. -1.
</event>
<event>
 7    1  0.1683291E-008  0.4614232E+02  0.7816164E-02  0.1320468E+00
        -11   -1    0    0    0    0  0.00000000000E+00  0.00000000000E+00  0.45593999997E+02  0.45594000000E+02  0.51100000000E-03 0.  1.
         11   -1    0    0    0    0 -0.00000000000E+00 -0.00000000000E+00 -0.45593999997E+02  0.45594000000E+02  0.51100000000E-03 0. -1.
    9900012    2    1    2    0    0  0.15297633123E+02  0.40316918498E+02 -0.13024666661E+02  0.46142318320E+02  0.10000005099E+02 0.  0.
        -12    1    1    2    0    0 -0.15297633123E+02 -0.40316918498E+02  0.13024666661E+02  0.45045681680E+02  0.00000000000E+00 0.  1.
         11    1    3    3    0    0 -0.23565161194E+00  0.39782303126E+01 -0.22186835368E+01  0.45611846049E+01  0.51100000000E-03 0. -1.
        -11    1    3    3    0    0  0.78157136183E+01  0.12926918342E+02 -0.69586845775E+01  0.16631713336E+02  0.51100000000E-03 0.  1.
         12    1    3    3    0    0  0.77175711166E+01  0.23411769844E+02 -0.38472985465E+01  0.24949420379E+02  0.00000000000E+00 0. -1.
</event>
<event>
 7    1  0.1683291E-008  0.4614232E+02  0.7816164E-02  0.1320468E+00
        -11   -1    0    0    0    0  0.00000000000E+00  0.00000000000E+00  0.45593999997E+02  0.45594000000E+02  0.51100000000E-03 0.  1.
         11   -1    0    0    0    0 -0.00000000000E+00 -0.00000000000E+00 -0.45593999997E+02  0.45594000000E+02  0.51100000000E-03 0. -1.
    9900012    2    1    2    0    0 -0.29135006069E+02  0.22427614718E+02 -0.26024352993E+02  0.46142318417E+02  0.10000005984E+02 0.  0.
        -12    1    1    2    0    0  0.29135006069E+02 -0.22427614718E+02  0.26024352993E+02  0.45045681583E+02  0.00000000000E+00 0.  1.
         11    1    3    3    0    0 -0.63241884863E+01  0.44032897314E+01 -0.79689185134E+01  0.11085485240E+02  0.51100000000E-03 0. -1.
        -11    1    3    3    0    0 -0.65182202370E+01  0.12595521252E+01 -0.46907009665E+01  0.81287355986E+01  0.51100000000E-03 0.  1.
        -12    1    3    3    0    0 -0.16292597346E+02  0.16764772861E+02 -0.13364733513E+02  0.26928097579E+02  0.00000000000E+00 0.  1.
</event>
<event>
 7    1  0.1683291E-008  0.4614232E+02  0.7816164E-02  0.1320468E+00
        -11   -1    0    0    0    0  0.00000000000E+00  0.00000000000E+00  0.45593999997E+02  0.45594000000E+02  0.51100000000E-03 0.  1.
         11   -1    0    0    0    0 -0.00000000000E+00 -0.00000000000E+00 -0.45593999997E+02  0.45594000000E+02  0.51100000000E-03 0. -1.
    9900012    2    1    2    0    0 -0.22400936234E+02 -0.37761322117E+02 -0.10069462187E+02  0.46142318066E+02  0.10000002780E+02 0.  0.
        -12    1    1    2    0    0  0.22400936234E+02  0.37761322117E+02  0.10069462187E+02  0.45045681934E+02  0.00000000000E+00 0.  1.
         11    1    3    3    0    0 -0.10581959769E+01 -0.82565008977E+01 -0.12104090013E+01  0.84115798760E+01  0.51100000000E-03 0. -1.
        -11    1    3    3    0    0 -0.59464359819E+01 -0.51916392343E+01 -0.16779266450E+01  0.80702327670E+01  0.51100000000E-03 0.  1.
         12    1    3    3    0    0 -0.15396304275E+02 -0.24313181985E+02 -0.71811265403E+01  0.29660505423E+02  0.00000000000E+00 0. -1.
</event>
<event>
 7    1  0.1683291E-008  0.4614232E+02  0.7816164E-02  0.1320468E+00
        -11   -1    0    0    0    0  0.00000000000E+00  0.00000000000E+00  0.45593999997E+02  0.45594000000E+02  0.51100000000E-03 0. -1.
         11   -1    0    0    0    0 -0.00000000000E+00 -0.00000000000E+00 -0.45593999997E+02  0.45594000000E+02  0.51100000000E-03 0.  1.
    9900012    2    1    2    0    0 -0.35135596824E+01 -0.44907079226E+02  0.35018032479E+00  0.46142317716E+02  0.99999995843E+01 0.  0.
        -12    1    1    2    0    0  0.35135596824E+01  0.44907079226E+02 -0.35018032479E+00  0.45045682284E+02  0.00000000000E+00 0.  1.
         11    1    3    3    0    0 -0.21292924512E+00 -0.33839811078E+02 -0.22174248663E+00  0.33841207465E+02  0.51100000000E-03 0. -1.
        -11    1    3    3    0    0 -0.21515071839E+01 -0.18650667397E+01  0.99922299132E+00  0.30175990378E+01  0.51100000000E-03 0.  1.
        -12    1    3    3    0    0 -0.11491232534E+01 -0.92022014076E+01 -0.42730017989E+00  0.92835112129E+01  0.00000000000E+00 0.  1.
</event>
<event>
 7    1  0.1683291E-008  0.4614232E+02  0.7816164E-02  0.1320468E+00
        -11   -1    0    0    0    0  0.00000000000E+00  0.00000000000E+00  0.45593999997E+02  0.45594000000E+02  0.51100000000E-03 0.  1.
         11   -1    0    0    0    0 -0.00000000000E+00 -0.00000000000E+00 -0.45593999997E+02  0.45594000000E+02  0.51100000000E-03 0. -1.
    9900012    2    1    2    0    0 -0.21746431527E+02  0.32595374561E+02 -0.22220435883E+02  0.46142317657E+02  0.99999990473E+01 0.  0.
        -12    1    1    2    0    0  0.21746431527E+02 -0.32595374561E+02  0.22220435883E+02  0.45045682343E+02  0.00000000000E+00 0.  1.
         11    1    3    3    0    0 -0.73349538505E+01  0.15655372949E+02 -0.10035058087E+02  0.19989863462E+02  0.51100000000E-03 0. -1.
        -11    1    3    3    0    0 -0.26600776712E+01  0.46065434514E+01 -0.20001123560E+00  0.53231814305E+01  0.51100000000E-03 0.  1.
         12    1    3    3    0    0 -0.11751400005E+02  0.12333458161E+02 -0.11985366561E+02  0.20829272764E+02  0.00000000000E+00 0. -1.
</event>
<event>
 7    1  0.1683291E-008  0.4614232E+02  0.7816164E-02  0.1320468E+00
        -11   -1    0    0    0    0  0.00000000000E+00  0.00000000000E+00  0.45593999997E+02  0.45594000000E+02  0.51100000000E-03 0. -1.
         11   -1    0    0    0    0 -0.00000000000E+00 -0.00000000000E+00 -0.45593999997E+02  0.45594000000E+02  0.51100000000E-03 0.  1.
    9900012    2    1    2    0    0  0.74531329097E+01 -0.25471616067E+02  0.36397267093E+02  0.46142317997E+02  0.10000002154E+02 0.  0.
        -12    1    1    2    0    0 -0.74531329097E+01  0.25471616067E+02 -0.36397267093E+02  0.45045682003E+02  0.00000000000E+00 0.  1.
         11    1    3    3    0    0 -0.14977491210E+01 -0.80954943243E+01  0.11781841282E+02  0.14373310858E+02  0.51100000000E-03 0. -1.
        -11    1    3    3    0    0  0.64802645185E+01 -0.11679117780E+02  0.19922630913E+02  0.23985554884E+02  0.51100000000E-03 0.  1.
         12    1    3    3    0    0  0.24706175122E+01 -0.56970039625E+01  0.46927948992E+01  0.77834522551E+01  0.00000000000E+00 0. -1.
</event>
<event>
 7    1  0.1683291E-008  0.4614232E+02  0.7816164E-02  0.1320468E+00
        -11   -1    0    0    0    0  0.00000000000E+00  0.00000000000E+00  0.45593999997E+02  0.45594000000E+02  0.51100000000E-03 0.  1.
         11   -1    0    0    0    0 -0.00000000000E+00 -0.00000000000E+00 -0.45593999997E+02  0.45594000000E+02  0.51100000000E-03 0. -1.
    9900012    2    1    2    0    0 -0.40781085624E+02  0.30018640679E+01 -0.18894583780E+02  0.46142318422E+02  0.10000006030E+02 0.  0.
        -12    1    1    2    0    0  0.40781085624E+02 -0.30018640679E+01  0.18894583780E+02  0.45045681578E+02  0.00000000000E+00 0.  1.
         11    1    3    3    0    0 -0.25226155364E+02 -0.27200659046E+01 -0.11072846376E+02  0.27683309053E+02  0.51100000000E-03 0. -1.
        -11    1    3    3    0    0 -0.30153176301E+01  0.18070064743E+01 -0.23499964411E+01  0.42284626454E+01  0.51100000000E-03 0.  1.
         12    1    3    3    0    0 -0.12539612630E+02  0.39149234982E+01 -0.54717409623E+01  0.14230546724E+02  0.00000000000E+00 0. -1.
</event>
<event>
 7    1  0.1683291E-008  0.4614232E+02  0.7816164E-02  0.1320468E+00
        -11   -1    0    0    0    0  0.00000000000E+00  0.00000000000E+00  0.45593999997E+02  0.45594000000E+02  0.51100000000E-03 0.  1.
         11   -1    0    0    0    0 -0.00000000000E+00 -0.00000000000E+00 -0.45593999997E+02  0.45594000000E+02  0.51100000000E-03 0. -1.
    9900012    2    1    2    0    0  0.96095080528E+01  0.44615040807E+01 -0.43782026242E+02  0.46142317792E+02  0.10000000283E+02 0.  0.
        -12    1    1    2    0    0 -0.96095080528E+01 -0.44615040807E+01  0.43782026242E+02  0.45045682208E+02  0.00000000000E+00 0.  1.
         11    1    3    3    0    0  0.71330636584E+00 -0.10771913096E+01 -0.66485673106E+01  0.67729310224E+01  0.51100000000E-03 0. -1.
        -11    1    3    3    0    0  0.13687295204E+01  0.50244134358E+01 -0.19630190022E+02  0.20309173085E+02  0.51100000000E-03 0.  1.
        -12    1    3    3    0    0  0.75274721665E+01  0.51428195443E+00 -0.17503268910E+02  0.19060213684E+02  0.00000000000E+00 0.  1.
</event>
<event>
 7    1  0.1683291E-008  0.4614232E+02  0.7816164E-02  0.1320468E+00
        -11   -1    0    0    0    0  0.00000000000E+00  0.00000000000E+00  0.45593999997E+02  0.45594000000E+02  0.51100000000E-03 0.  1.
         11   -1    0    0    0    0 -0.00000000000E+00 -0.00000000000E+00 -0.45593999997E+02  0.45594000000E+02  0.51100000000E-03 0. -1.
    9900012    2    1    2    0    0 -0.23087898385E+02  0.22652374779E+02 -0.31351750162E+02  0.46142319040E+02  0.10000011662E+02 0.  0.
        -12    1    1    2    0    0  0.23087898385E+02 -0.22652374779E+02  0.31351750162E+02  0.45045680960E+02  0.00000000000E+00 0.  1.
         11    1    3    3    0    0 -0.86862297768E+01  0.10867264319E+02 -0.12039971731E+02  0.18398612476E+02  0.51100000000E-03 0. -1.
        -11    1    3    3    0    0  0.45815335039E+00  0.14831490366E+01 -0.30629662137E+01  0.34338604871E+01  0.51100000000E-03 0.  1.
        -12    1    3    3    0    0 -0.14859821958E+02  0.10301961423E+02 -0.16248812217E+02  0.24309846077E+02  0.00000000000E+00 0.  1.
</event>
<event>
 7    1  0.1683291E-008  0.4614232E+02  0.7816164E-02  0.1320468E+00
        -11   -1    0    0    0    0  0.00000000000E+00  0.00000000000E+00  0.45593999997E+02  0.45594000000E+02  0.51100000000E-03 0. -1.
         11   -1    0    0    0    0 -0.00000000000E+00 -0.00000000000E+00 -0.45593999997E+02  0.45594000000E+02  0.51100000000E-03 0.  1.
    9900012    2    1    2    0    0 -0.20457774831E+02  0.17932591614E+02  0.35902854143E+02  0.46142319534E+02  0.10000016167E+02 0.  0.
        -12    1    1    2    0    0  0.20457774831E+02 -0.17932591614E+02 -0.35902854143E+02  0.45045680466E+02  0.00000000000E+00 0.  1.
         11    1    3    3    0    0 -0.15587105399E+02  0.14125640330E+02  0.30951024856E+02  0.37422687095E+02  0.51100000000E-03 0. -1.
        -11    1    3    3    0    0 -0.10585096082E+01  0.21571289487E+01  0.20443268792E+00  0.24115225226E+01  0.51100000000E-03 0.  1.
        -12    1    3    3    0    0 -0.38121598234E+01  0.16498223352E+01  0.47473965989E+01  0.63081099169E+01  0.00000000000E+00 0.  1.
</event>
<event>
 7    1  0.1683291E-008  0.4614232E+02  0.7816164E-02  0.1320468E+00
        -11   -1    0    0    0    0  0.00000000000E+00  0.00000000000E+00  0.45593999997E+02  0.45594000000E+02  0.51100000000E-03 0.  1.
         11   -1    0    0    0    0 -0.00000000000E+00 -0.00000000000E+00 -0.45593999997E+02  0.45594000000E+02  0.51100000000E-03 0. -1.
    9900012    2    1    2    0    0  0.47792679449E+01  0.30130080073E+02 -0.33142877220E+02  0.46142318323E+02  0.10000005121E+02 0.  0.
        -12    1    1    2    0    0 -0.47792679449E+01 -0.30130080073E+02  0.33142877220E+02  0.45045681677E+02  0.00000000000E+00 0.  1.
         11    1    3    3    0    0 -0.10497420328E+01  0.12495531320E+02 -0.10521009835E+02  0.16368625767E+02  0.51100000000E-03 0. -1.
        -11    1    3    3    0    0  0.58287150777E+01  0.12080293727E+02 -0.13091055599E+02  0.18742549264E+02  0.51100000000E-03 0.  1.
         12    1    3    3    0    0  0.29489998026E-03  0.55542550269E+01 -0.95308117868E+01  0.11031143291E+02  0.00000000000E+00 0. -1.
</event>
<event>
 7    1  0.1683291E-008  0.4614232E+02  0.7816164E-02  0.1320468E+00
        -11   -1    0    0    0    0  0.00000000000E+00  0.00000000000E+00  0.45593999997E+02  0.45594000000E+02  0.51100000000E-03 0.  1.
         11   -1    0    0    0    0 -0.00000000000E+00 -0.00000000000E+00 -0.45593999997E+02  0.45594000000E+02  0.51100000000E-03 0. -1.
    9900012    2    1    2    0    0 -0.16757507138E+01 -0.66798216259E+01 -0.44516125679E+02  0.46142316490E+02  0.99999884055E+01 0.  0.
        -12    1    1    2    0    0  0.16757507138E+01  0.66798216259E+01  0.44516125679E+02  0.45045683510E+02  0.00000000000E+00 0.  1.
         11    1    3    3    0    0 -0.81044604003E+00 -0.49593980498E+00 -0.14622344435E+02  0.14653181774E+02  0.51100000000E-03 0. -1.
        -11    1    3    3    0    0  0.87796435308E+00  0.74832320238E+00 -0.53304071342E+00  0.12708035583E+01  0.51100000000E-03 0.  1.
        -12    1    3    3    0    0 -0.17432690269E+01 -0.69322050233E+01 -0.29360740531E+02  0.30218331157E+02  0.00000000000E+00 0.  1.
</event>
<event>
 7    1  0.1683291E-008  0.4614232E+02  0.7816164E-02  0.1320468E+00
        -11   -1    0    0    0    0  0.00000000000E+00  0.00000000000E+00  0.45593999997E+02  0.45594000000E+02  0.51100000000E-03 0.  1.
         11   -1    0    0    0    0 -0.00000000000E+00 -0.00000000000E+00 -0.45593999997E+02  0.45594000000E+02  0.51100000000E-03 0. -1.
    9900012    2    1    2    0    0  0.21761109884E+02 -0.12460996942E+02 -0.37420456753E+02  0.46142323939E+02  0.10000056336E+02 0.  0.
        -12    1    1    2    0    0 -0.21761109884E+02  0.12460996942E+02  0.37420456753E+02  0.45045676061E+02  0.00000000000E+00 0.  1.
         11    1    3    3    0    0  0.13133814065E+02 -0.28212746897E+01 -0.16612208664E+02  0.21364038470E+02  0.51100000000E-03 0. -1.
        -11    1    3    3    0    0  0.42207929441E+01 -0.62480136196E+01 -0.14680357681E+02  0.16503504754E+02  0.51100000000E-03 0.  1.
         12    1    3    3    0    0  0.44065028746E+01 -0.33917086322E+01 -0.61278904080E+01  0.82747807150E+01  0.00000000000E+00 0. -1.
</event>
<event>
 7    1  0.1683291E-008  0.4614232E+02  0.7816164E-02  0.1320468E+00
        -11   -1    0    0    0    0  0.00000000000E+00  0.00000000000E+00  0.45593999997E+02  0.45594000000E+02  0.51100000000E-03 0.  1.
         11   -1    0    0    0    0 -0.00000000000E+00 -0.00000000000E+00 -0.45593999997E+02  0.45594000000E+02  0.51100000000E-03 0. -1.
    9900012    2    1    2    0    0 -0.29233956377E+02  0.29825886518E+02 -0.16879150388E+02  0.46142318411E+02  0.10000005927E+02 0.  0.
        -12    1    1    2    0    0  0.29233956377E+02 -0.29825886518E+02  0.16879150388E+02  0.45045681589E+02  0.00000000000E+00 0.  1.
         11    1    3    3    0    0 -0.94325593679E+00  0.41407885479E+01 -0.18525822777E+00  0.42509037195E+01  0.51100000000E-03 0.  1.
        -11    1    3    3    0    0 -0.58776531765E+01  0.44915739517E+01 -0.48691880063E+01  0.88560733696E+01  0.51100000000E-03 0. -1.
         12    1    3    3    0    0 -0.22413047263E+02  0.21193524018E+02 -0.11824704154E+02  0.33035341322E+02  0.00000000000E+00 0. -1.
</event>
<event>
 7    1  0.1683291E-008  0.4614232E+02  0.7816164E-02  0.1320468E+00
        -11   -1    0    0    0    0  0.00000000000E+00  0.00000000000E+00  0.45593999997E+02  0.45594000000E+02  0.51100000000E-03 0.  1.
         11   -1    0    0    0    0 -0.00000000000E+00 -0.00000000000E+00 -0.45593999997E+02  0.45594000000E+02  0.51100000000E-03 0. -1.
    9900012    2    1    2    0    0 -0.51937564968E+01  0.24389314035E+02 -0.37513993341E+02  0.46142318275E+02  0.10000004689E+02 0.  0.
        -12    1    1    2    0    0  0.51937564968E+01 -0.24389314035E+02  0.37513993341E+02  0.45045681725E+02  0.00000000000E+00 0.  1.
         11    1    3    3    0    0 -0.99979768957E-01  0.17744268487E+01 -0.25269296069E+00  0.17951157592E+01  0.51100000000E-03 0. -1.
        -11    1    3    3    0    0 -0.15192581360E+01  0.55145078324E+01 -0.47321537671E+01  0.74236932489E+01  0.51100000000E-03 0.  1.
         12    1    3    3    0    0 -0.35745185918E+01  0.17100379354E+02 -0.32529146613E+02  0.36923509267E+02  0.00000000000E+00 0. -1.
</event>
<event>
 7    1  0.1683291E-008  0.4614232E+02  0.7816164E-02  0.1320468E+00
        -11   -1    0    0    0    0  0.00000000000E+00  0.00000000000E+00  0.45593999997E+02  0.45594000000E+02  0.51100000000E-03 0.  1.
         11   -1    0    0    0    0 -0.00000000000E+00 -0.00000000000E+00 -0.45593999997E+02  0.45594000000E+02  0.51100000000E-03 0. -1.
    9900012    2    1    2    0    0  0.26681280672E+02  0.24998084307E+02 -0.26311947135E+02  0.46142317417E+02  0.99999968641E+01 0.  0.
        -12    1    1    2    0    0 -0.26681280672E+02 -0.24998084307E+02  0.26311947135E+02  0.45045682583E+02  0.00000000000E+00 0.  1.
         11    1    3    3    0    0  0.14848758082E+02  0.93351178510E+01 -0.12346493773E+02  0.21449148016E+02  0.51100000000E-03 0. -1.
        -11    1    3    3    0    0  0.11469590191E+02  0.16039965184E+02 -0.13073386056E+02  0.23658939230E+02  0.51100000000E-03 0.  1.
         12    1    3    3    0    0  0.36293239865E+00 -0.37699872873E+00 -0.89206730594E+00  0.10342301706E+01  0.00000000000E+00 0. -1.
</event>
<event>
 7    1  0.1683291E-008  0.4614232E+02  0.7816164E-02  0.1320468E+00
        -11   -1    0    0    0    0  0.00000000000E+00  0.00000000000E+00  0.45593999997E+02  0.45594000000E+02  0.51100000000E-03 0.  1.
         11   -1    0    0    0    0 -0.00000000000E+00 -0.00000000000E+00 -0.45593999997E+02  0.45594000000E+02  0.51100000000E-03 0. -1.
    9900012    2    1    2    0    0  0.10905387956E+02  0.17477331548E+02 -0.40059067590E+02  0.46142317625E+02  0.99999987557E+01 0.  0.
        -12    1    1    2    0    0 -0.10905387956E+02 -0.17477331548E+02  0.40059067590E+02  0.45045682375E+02  0.00000000000E+00 0.  1.
         11    1    3    3    0    0 -0.19508219837E-01  0.27004432241E+01 -0.10651797864E+02  0.10988793026E+02  0.51100000000E-03 0. -1.
        -11    1    3    3    0    0 -0.48694227066E+00  0.22373634211E+01 -0.30499404383E+01  0.38137966374E+01  0.51100000000E-03 0.  1.
         12    1    3    3    0    0  0.11411838446E+02  0.12539524903E+02 -0.26357329288E+02  0.31339727962E+02  0.00000000000E+00 0. -1.
</event>
<event>
 7    1  0.1683291E-008  0.4614232E+02  0.7816164E-02  0.1320468E+00
        -11   -1    0    0    0    0  0.00000000000E+00  0.00000000000E+00  0.45593999997E+02  0.45594000000E+02  0.51100000000E-03 0.  1.
         11   -1    0    0    0    0 -0.00000000000E+00 -0.00000000000E+00 -0.45593999997E+02  0.45594000000E+02  0.51100000000E-03 0. -1.
    9900012    2    1    2    0    0  0.20207962719E+02 -0.96866979558E+01 -0.39075818435E+02  0.46142318066E+02  0.10000002781E+02 0.  0.
        -12    1    1    2    0    0 -0.20207962719E+02  0.96866979558E+01  0.39075818435E+02  0.45045681934E+02  0.00000000000E+00 0.  1.
         11    1    3    3    0    0  0.49828056876E+01 -0.47872720992E+01 -0.81539037987E+01  0.10687959304E+02  0.51100000000E-03 0. -1.
        -11    1    3    3    0    0  0.59417941281E+00 -0.19509957143E+01 -0.66982902897E+01  0.70018944950E+01  0.51100000000E-03 0.  1.
         12    1    3    3    0    0  0.14630977618E+02 -0.29484301423E+01 -0.24223624347E+02  0.28452464267E+02  0.00000000000E+00 0. -1.
</event>
<event>
 7    1  0.1683291E-008  0.4614232E+02  0.7816164E-02  0.1320468E+00
        -11   -1    0    0    0    0  0.00000000000E+00  0.00000000000E+00  0.45593999997E+02  0.45594000000E+02  0.51100000000E-03 0.  1.
         11   -1    0    0    0    0 -0.00000000000E+00 -0.00000000000E+00 -0.45593999997E+02  0.45594000000E+02  0.51100000000E-03 0. -1.
    9900012    2    1    2    0    0 -0.15802684750E+01 -0.13363269632E+02 -0.42988827242E+02  0.46142317728E+02  0.99999996958E+01 0.  0.
        -12    1    1    2    0    0  0.15802684750E+01  0.13363269632E+02  0.42988827242E+02  0.45045682272E+02  0.00000000000E+00 0.  1.
         11    1    3    3    0    0 -0.80528492213E+00 -0.72492534996E+01 -0.33679977025E+02  0.34460716951E+02  0.51100000000E-03 0. -1.
        -11    1    3    3    0    0 -0.41057865350E+00 -0.53337412872E+00  0.15326875350E+00  0.69032917063E+00  0.51100000000E-03 0.  1.
         12    1    3    3    0    0 -0.36440489937E+00 -0.55806420036E+01 -0.94621189704E+01  0.10991271606E+02  0.00000000000E+00 0. -1.
</event>
<event>
 7    1  0.1683291E-008  0.4614232E+02  0.7816164E-02  0.1320468E+00
        -11   -1    0    0    0    0  0.00000000000E+00  0.00000000000E+00  0.45593999997E+02  0.45594000000E+02  0.51100000000E-03 0.  1.
         11   -1    0    0    0    0 -0.00000000000E+00 -0.00000000000E+00 -0.45593999997E+02  0.45594000000E+02  0.51100000000E-03 0. -1.
    9900012    2    1    2    0    0  0.26079336834E+02 -0.33504957806E+01 -0.36575343631E+02  0.46142318816E+02  0.10000009615E+02 0.  0.
        -12    1    1    2    0    0 -0.26079336834E+02  0.33504957806E+01  0.36575343631E+02  0.45045681184E+02  0.00000000000E+00 0.  1.
         11    1    3    3    0    0  0.57136983053E+01 -0.37054193733E+01 -0.92918098679E+01  0.11520165448E+02  0.51100000000E-03 0. -1.
        -11    1    3    3    0    0  0.87480655182E+01  0.32590546053E+01 -0.11624446262E+02  0.14908985156E+02  0.51100000000E-03 0.  1.
        -12    1    3    3    0    0  0.11617573010E+02 -0.29041310127E+01 -0.15659087501E+02  0.19713168212E+02  0.00000000000E+00 0.  1.
</event>
<event>
 7    1  0.1683291E-008  0.4614232E+02  0.7816164E-02  0.1320468E+00
        -11   -1    0    0    0    0  0.00000000000E+00  0.00000000000E+00  0.45593999997E+02  0.45594000000E+02  0.51100000000E-03 0. -1.
         11   -1    0    0    0    0 -0.00000000000E+00 -0.00000000000E+00 -0.45593999997E+02  0.45594000000E+02  0.51100000000E-03 0.  1.
    9900012    2    1    2    0    0 -0.44818825491E+02 -0.44398950665E+01 -0.82083106194E+00  0.46142317074E+02  0.99999937354E+01 0.  0.
        -12    1    1    2    0    0  0.44818825491E+02  0.44398950665E+01  0.82083106194E+00  0.45045682926E+02  0.00000000000E+00 0.  1.
         11    1    3    3    0    0 -0.24621693943E+02 -0.27328678585E+01  0.63607406996E+00  0.24781060708E+02  0.51100000000E-03 0. -1.
        -11    1    3    3    0    0 -0.26563475277E+01 -0.11056091588E+01 -0.24543431833E+01  0.37818453858E+01  0.51100000000E-03 0.  1.
        -12    1    3    3    0    0 -0.17540784021E+02 -0.60141804925E+00  0.99743805138E+00  0.17579410980E+02  0.00000000000E+00 0.  1.
</event>
<event>
 7    1  0.1683291E-008  0.4614232E+02  0.7816164E-02  0.1320468E+00
        -11   -1    0    0    0    0  0.00000000000E+00  0.00000000000E+00  0.45593999997E+02  0.45594000000E+02  0.51100000000E-03 0.  1.
         11   -1    0    0    0    0 -0.00000000000E+00 -0.00000000000E+00 -0.45593999997E+02  0.45594000000E+02  0.51100000000E-03 0. -1.
    9900012    2    1    2    0    0 -0.51050378601E+01 -0.16606368615E+02 -0.41560565714E+02  0.46142317492E+02  0.99999975427E+01 0.  0.
        -12    1    1    2    0    0  0.51050378601E+01  0.16606368615E+02  0.41560565714E+02  0.45045682508E+02  0.00000000000E+00 0.  1.
         11    1    3    3    0    0 -0.14121038664E+01 -0.11838745074E+02 -0.33221807096E+02  0.35296435928E+02  0.51100000000E-03 0. -1.
        -11    1    3    3    0    0 -0.98401945729E+00 -0.36894389614E+01 -0.34103949352E+01  0.51196726475E+01  0.51100000000E-03 0.  1.
        -12    1    3    3    0    0 -0.27089145364E+01 -0.10781845800E+01 -0.49283636835E+01  0.57262089161E+01  0.00000000000E+00 0.  1.
</event>
<event>
 7    1  0.1683291E-008  0.4614232E+02  0.7816164E-02  0.1320468E+00
        -11   -1    0    0    0    0  0.00000000000E+00  0.00000000000E+00  0.45593999997E+02  0.45594000000E+02  0.51100000000E-03 0. -1.
         11   -1    0    0    0    0 -0.00000000000E+00 -0.00000000000E+00 -0.45593999997E+02  0.45594000000E+02  0.51100000000E-03 0.  1.
    9900012    2    1    2    0    0  0.36039321251E+02 -0.90859585147E+01  0.25450465423E+02  0.46142317536E+02  0.99999979512E+01 0.  0.
        -12    1    1    2    0    0 -0.36039321251E+02  0.90859585147E+01 -0.25450465423E+02  0.45045682464E+02  0.00000000000E+00 0.  1.
         11    1    3    3    0    0  0.16363093330E+02 -0.67291014924E+01  0.12325674372E+02  0.21562789227E+02  0.51100000000E-03 0. -1.
        -11    1    3    3    0    0  0.12813162767E+01  0.60366004920E-01  0.33965032843E+01  0.36306542492E+01  0.51100000000E-03 0.  1.
         12    1    3    3    0    0  0.18394911644E+02 -0.24172230272E+01  0.97282877664E+01  0.20948874061E+02  0.00000000000E+00 0. -1.
</event>
<event>
 7    1  0.1683291E-008  0.4614232E+02  0.7816164E-02  0.1320468E+00
        -11   -1    0    0    0    0  0.00000000000E+00  0.00000000000E+00  0.45593999997E+02  0.45594000000E+02  0.51100000000E-03 0. -1.
         11   -1    0    0    0    0 -0.00000000000E+00 -0.00000000000E+00 -0.45593999997E+02  0.45594000000E+02  0.51100000000E-03 0.  1.
    9900012    2    1    2    0    0 -0.16046063559E+02  0.35013889876E+02  0.23359473073E+02  0.46142316275E+02  0.99999864451E+01 0.  0.
        -12    1    1    2    0    0  0.16046063559E+02 -0.35013889876E+02 -0.23359473073E+02  0.45045683725E+02  0.00000000000E+00 0.  1.
         11    1    3    3    0    0 -0.11831151180E+02  0.24173815106E+02  0.14247722900E+02  0.30452374014E+02  0.51100000000E-03 0. -1.
        -11    1    3    3    0    0 -0.29105594452E+01  0.62484489986E+01  0.20966335332E+01  0.72048833166E+01  0.51100000000E-03 0.  1.
         12    1    3    3    0    0 -0.13043529346E+01  0.45916257720E+01  0.70151166400E+01  0.84850589439E+01  0.00000000000E+00 0. -1.
</event>
<event>
 7    1  0.1683291E-008  0.4614232E+02  0.7816164E-02  0.1320468E+00
        -11   -1    0    0    0    0  0.00000000000E+00  0.00000000000E+00  0.45593999997E+02  0.45594000000E+02  0.51100000000E-03 0. -1.
         11   -1    0    0    0    0 -0.00000000000E+00 -0.00000000000E+00 -0.45593999997E+02  0.45594000000E+02  0.51100000000E-03 0.  1.
    9900012    2    1    2    0    0 -0.30696273636E+02 -0.22644619851E+02 -0.23959828687E+02  0.46142318586E+02  0.10000007524E+02 0.  0.
        -12    1    1    2    0    0  0.30696273636E+02  0.22644619851E+02  0.23959828687E+02  0.45045681414E+02  0.00000000000E+00 0.  1.
         11    1    3    3    0    0 -0.52158887124E+01 -0.60799950099E+01 -0.90454715390E+01  0.12082731066E+02  0.51100000000E-03 0. -1.
        -11    1    3    3    0    0  0.90525276501E-01 -0.20665883125E+00 -0.28304851706E+00  0.36196605137E+00  0.51100000000E-03 0.  1.
         12    1    3    3    0    0 -0.25570910200E+02 -0.16357966010E+02 -0.14631308631E+02  0.33697621469E+02  0.00000000000E+00 0. -1.
</event>
<event>
 7    1  0.1683291E-008  0.4614232E+02  0.7816164E-02  0.1320468E+00
        -11   -1    0    0    0    0  0.00000000000E+00  0.00000000000E+00  0.45593999997E+02  0.45594000000E+02  0.51100000000E-03 0.  1.
         11   -1    0    0    0    0 -0.00000000000E+00 -0.00000000000E+00 -0.45593999997E+02  0.45594000000E+02  0.51100000000E-03 0. -1.
    9900012    2    1    2    0    0 -0.76685626921E+01 -0.44387635436E+02  0.21088196205E+00  0.46142317581E+02  0.99999983576E+01 0.  0.
        -12    1    1    2    0    0  0.76685626921E+01  0.44387635436E+02 -0.21088196205E+00  0.45045682419E+02  0.00000000000E+00 0.  1.
         11    1    3    3    0    0 -0.51228790109E+01 -0.21840126213E+02  0.14242305206E+01  0.22478065647E+02  0.51100000000E-03 0. -1.
        -11    1    3    3    0    0  0.91786929307E+00 -0.34460308406E+01  0.18396175021E+01  0.40127054974E+01  0.51100000000E-03 0.  1.
        -12    1    3    3    0    0 -0.34635529743E+01 -0.19101478382E+02 -0.30529660606E+01  0.19651546437E+02  0.00000000000E+00 0.  1.
</event>
<event>
 7    1  0.1683291E-008  0.4614232E+02  0.7816164E-02  0.1320468E+00
        -11   -1    0    0    0    0  0.00000000000E+00  0.00000000000E+00  0.45593999997E+02  0.45594000000E+02  0.51100000000E-03 0.  1.
         11   -1    0    0    0    0 -0.00000000000E+00 -0.00000000000E+00 -0.45593999997E+02  0.45594000000E+02  0.51100000000E-03 0. -1.
    9900012    2    1    2    0    0  0.31869977953E+02  0.30663423263E+02  0.85540937042E+01  0.46142317188E+02  0.99999947739E+01 0.  0.
        -12    1    1    2    0    0 -0.31869977953E+02 -0.30663423263E+02 -0.85540937042E+01  0.45045682812E+02  0.00000000000E+00 0.  1.
         11    1    3    3    0    0  0.18610195138E+02  0.13215170632E+02  0.65661526770E+00  0.22834431059E+02  0.51100000000E-03 0. -1.
        -11    1    3    3    0    0  0.77976444528E+01  0.10517998888E+02  0.50941424917E+01  0.14049265020E+02  0.51100000000E-03 0.  1.
         12    1    3    3    0    0  0.54621383623E+01  0.69302537426E+01  0.28033359449E+01  0.92586211092E+01  0.00000000000E+00 0. -1.
</event>
<event>
 7    1  0.1683291E-008  0.4614232E+02  0.7816164E-02  0.1320468E+00
        -11   -1    0    0    0    0  0.00000000000E+00  0.00000000000E+00  0.45593999997E+02  0.45594000000E+02  0.51100000000E-03 0.  1.
         11   -1    0    0    0    0 -0.00000000000E+00 -0.00000000000E+00 -0.45593999997E+02  0.45594000000E+02  0.51100000000E-03 0. -1.
    9900012    2    1    2    0    0 -0.62245461529E+01 -0.44868180935E+01 -0.44387354194E+02  0.46142315149E+02  0.99999761785E+01 0.  0.
        -12    1    1    2    0    0  0.62245461529E+01  0.44868180935E+01  0.44387354194E+02  0.45045684851E+02  0.00000000000E+00 0.  1.
         11    1    3    3    0    0 -0.29570291096E+01  0.18807438180E+01 -0.12772310582E+02  0.13244362436E+02  0.51100000000E-03 0. -1.
        -11    1    3    3    0    0 -0.45008230811E+01 -0.52635638601E+01 -0.28899194049E+02  0.29717434779E+02  0.51100000000E-03 0.  1.
        -12    1    3    3    0    0  0.12333060379E+01 -0.11039980514E+01 -0.27158495623E+01  0.31805179335E+01  0.00000000000E+00 0.  1.
</event>
<event>
 7    1  0.1683291E-008  0.4614232E+02  0.7816164E-02  0.1320468E+00
        -11   -1    0    0    0    0  0.00000000000E+00  0.00000000000E+00  0.45593999997E+02  0.45594000000E+02  0.51100000000E-03 0.  1.
         11   -1    0    0    0    0 -0.00000000000E+00 -0.00000000000E+00 -0.45593999997E+02  0.45594000000E+02  0.51100000000E-03 0. -1.
    9900012    2    1    2    0    0  0.26276156268E+02  0.21697532998E+02 -0.29460042985E+02  0.46142318086E+02  0.10000002964E+02 0.  0.
        -12    1    1    2    0    0 -0.26276156268E+02 -0.21697532998E+02  0.29460042985E+02  0.45045681914E+02  0.00000000000E+00 0.  1.
         11    1    3    3    0    0  0.56598082508E+01  0.72608453896E+01 -0.10991633345E+02  0.14337688414E+02  0.51100000000E-03 0. -1.
        -11    1    3    3    0    0  0.62036239105E+01  0.41832534023E+01 -0.22667381581E+01  0.78180982847E+01  0.51100000000E-03 0.  1.
         12    1    3    3    0    0  0.14412724106E+02  0.10253434206E+02 -0.16201671482E+02  0.23986531387E+02  0.00000000000E+00 0. -1.
</event>
<event>
 7    1  0.1683291E-008  0.4614232E+02  0.7816164E-02  0.1320468E+00
        -11   -1    0    0    0    0  0.00000000000E+00  0.00000000000E+00  0.45593999997E+02  0.45594000000E+02  0.51100000000E-03 0.  1.
         11   -1    0    0    0    0 -0.00000000000E+00 -0.00000000000E+00 -0.45593999997E+02  0.45594000000E+02  0.51100000000E-03 0. -1.
    9900012    2    1    2    0    0 -0.14266623072E+02  0.30435793814E+02 -0.29987320742E+02  0.46142317807E+02  0.10000000415E+02 0.  0.
        -12    1    1    2    0    0  0.14266623072E+02 -0.30435793814E+02  0.29987320742E+02  0.45045682193E+02  0.00000000000E+00 0.  1.
         11    1    3    3    0    0 -0.15882181693E+01  0.99944306127E+00  0.28027969281E+00  0.18973350662E+01  0.51100000000E-03 0. -1.
        -11    1    3    3    0    0 -0.48786995953E+00  0.20638832166E+00 -0.17506588021E+00  0.55790820057E+00  0.51100000000E-03 0.  1.
         12    1    3    3    0    0 -0.12190534943E+02  0.29229962431E+02 -0.30092534555E+02  0.43687074540E+02  0.00000000000E+00 0. -1.
</event>
<event>
 7    1  0.1683291E-008  0.4614232E+02  0.7816164E-02  0.1320468E+00
        -11   -1    0    0    0    0  0.00000000000E+00  0.00000000000E+00  0.45593999997E+02  0.45594000000E+02  0.51100000000E-03 0.  1.
         11   -1    0    0    0    0 -0.00000000000E+00 -0.00000000000E+00 -0.45593999997E+02  0.45594000000E+02  0.51100000000E-03 0. -1.
    9900012    2    1    2    0    0  0.18389075145E+02 -0.20048896609E+02 -0.35902606618E+02  0.46142317611E+02  0.99999986321E+01 0.  0.
        -12    1    1    2    0    0 -0.18389075145E+02  0.20048896609E+02  0.35902606618E+02  0.45045682389E+02  0.00000000000E+00 0.  1.
         11    1    3    3    0    0  0.14638059371E+02 -0.17130055751E+02 -0.30034750660E+02  0.37547274730E+02  0.51100000000E-03 0. -1.
        -11    1    3    3    0    0  0.28540603043E+01 -0.22611885877E+01 -0.12572501008E+01  0.38521827743E+01  0.51100000000E-03 0.  1.
        -12    1    3    3    0    0  0.89695546992E+00 -0.65765226996E+00 -0.46106058567E+01  0.47428601065E+01  0.00000000000E+00 0.  1.
</event>
<event>
 7    1  0.1683291E-008  0.4614232E+02  0.7816164E-02  0.1320468E+00
        -11   -1    0    0    0    0  0.00000000000E+00  0.00000000000E+00  0.45593999997E+02  0.45594000000E+02  0.51100000000E-03 0.  1.
         11   -1    0    0    0    0 -0.00000000000E+00 -0.00000000000E+00 -0.45593999997E+02  0.45594000000E+02  0.51100000000E-03 0. -1.
    9900012    2    1    2    0    0  0.23873725044E+02  0.18312506774E+02 -0.33523288520E+02  0.46142317354E+02  0.99999962893E+01 0.  0.
        -12    1    1    2    0    0 -0.23873725044E+02 -0.18312506774E+02  0.33523288520E+02  0.45045682646E+02  0.00000000000E+00 0.  1.
         11    1    3    3    0    0  0.81475849582E+01  0.73927001233E+01 -0.17735069577E+02  0.20870262311E+02  0.51100000000E-03 0. -1.
        -11    1    3    3    0    0  0.99679949137E+01  0.70767226902E+01 -0.70078714480E+01  0.14090819321E+02  0.51100000000E-03 0.  1.
        -12    1    3    3    0    0  0.57581451723E+01  0.38430839604E+01 -0.87803474951E+01  0.11181235723E+02  0.00000000000E+00 0.  1.
</event>
<event>
 7    1  0.1683291E-008  0.4614232E+02  0.7816164E-02  0.1320468E+00
        -11   -1    0    0    0    0  0.00000000000E+00  0.00000000000E+00  0.45593999997E+02  0.45594000000E+02  0.51100000000E-03 0.  1.
         11   -1    0    0    0    0 -0.00000000000E+00 -0.00000000000E+00 -0.45593999997E+02  0.45594000000E+02  0.51100000000E-03 0. -1.
    9900012    2    1    2    0    0 -0.29449046757E+02  0.31316392568E+02 -0.13459218004E+02  0.46142319323E+02  0.10000014245E+02 0.  0.
        -12    1    1    2    0    0  0.29449046757E+02 -0.31316392568E+02  0.13459218004E+02  0.45045680677E+02  0.00000000000E+00 0.  1.
         11    1    3    3    0    0 -0.48215300420E+01  0.40488757496E+01 -0.46247672132E+01  0.78121071946E+01  0.51100000000E-03 0. -1.
        -11    1    3    3    0    0 -0.11014986399E+02  0.93225693365E+01 -0.93296623888E+00  0.14460658722E+02  0.51100000000E-03 0.  1.
        -12    1    3    3    0    0 -0.13612530315E+02  0.17944947482E+02 -0.79014845515E+01  0.23869553407E+02  0.00000000000E+00 0.  1.
</event>
<event>
 7    1  0.1683291E-008  0.4614232E+02  0.7816164E-02  0.1320468E+00
        -11   -1    0    0    0    0  0.00000000000E+00  0.00000000000E+00  0.45593999997E+02  0.45594000000E+02  0.51100000000E-03 0.  1.
         11   -1    0    0    0    0 -0.00000000000E+00 -0.00000000000E+00 -0.45593999997E+02  0.45594000000E+02  0.51100000000E-03 0. -1.
    9900012    2    1    2    0    0  0.40473715839E+01 -0.36167933823E+02 -0.26544544578E+02  0.46142317625E+02  0.99999987612E+01 0.  0.
        -12    1    1    2    0    0 -0.40473715839E+01  0.36167933823E+02  0.26544544578E+02  0.45045682375E+02  0.00000000000E+00 0.  1.
         11    1    3    3    0    0  0.47207142004E+01 -0.23609603086E+02 -0.16790341252E+02  0.29353263193E+02  0.51100000000E-03 0. -1.
        -11    1    3    3    0    0 -0.18354383418E+01 -0.12023871039E+02 -0.77860666573E+01  0.14441784617E+02  0.51100000000E-03 0.  1.
         12    1    3    3    0    0  0.11620957253E+01 -0.53445969856E+00 -0.19681366680E+01  0.23472698158E+01  0.00000000000E+00 0. -1.
</event>
<event>
 7    1  0.1683291E-008  0.4614232E+02  0.7816164E-02  0.1320468E+00
        -11   -1    0    0    0    0  0.00000000000E+00  0.00000000000E+00  0.45593999997E+02  0.45594000000E+02  0.51100000000E-03 0.  1.
         11   -1    0    0    0    0 -0.00000000000E+00 -0.00000000000E+00 -0.45593999997E+02  0.45594000000E+02  0.51100000000E-03 0. -1.
    9900012    2    1    2    0    0 -0.57235631437E+01 -0.31643450260E+02 -0.31544355819E+02  0.46142317593E+02  0.99999984691E+01 0.  0.
        -12    1    1    2    0    0  0.57235631437E+01  0.31643450260E+02  0.31544355819E+02  0.45045682407E+02  0.00000000000E+00 0.  1.
         11    1    3    3    0    0 -0.77885275203E+01 -0.29438840203E+02 -0.28159498150E+02  0.41476063094E+02  0.51100000000E-03 0. -1.
        -11    1    3    3    0    0  0.50362289729E+00 -0.28724608116E+00 -0.15794823065E+00  0.60091117356E+00  0.51100000000E-03 0.  1.
         12    1    3    3    0    0  0.15613414793E+01 -0.19173639756E+01 -0.32269094383E+01  0.40653433254E+01  0.00000000000E+00 0. -1.
</event>
<event>
 7    1  0.1683291E-008  0.4614232E+02  0.7816164E-02  0.1320468E+00
        -11   -1    0    0    0    0  0.00000000000E+00  0.00000000000E+00  0.45593999997E+02  0.45594000000E+02  0.51100000000E-03 0.  1.
         11   -1    0    0    0    0 -0.00000000000E+00 -0.00000000000E+00 -0.45593999997E+02  0.45594000000E+02  0.51100000000E-03 0. -1.
    9900012    2    1    2    0    0 -0.41317193604E+02  0.10204764056E+02  0.14760277728E+02  0.46142317683E+02  0.99999992902E+01 0.  0.
        -12    1    1    2    0    0  0.41317193604E+02 -0.10204764056E+02 -0.14760277728E+02  0.45045682317E+02  0.00000000000E+00 0.  1.
         11    1    3    3    0    0 -0.30317554963E+02  0.88587065717E+01  0.13903759159E+02  0.34510075920E+02  0.51100000000E-03 0. -1.
        -11    1    3    3    0    0 -0.58160946190E+01 -0.51067476797E+00  0.16552147411E+01  0.60685650228E+01  0.51100000000E-03 0.  1.
         12    1    3    3    0    0 -0.51835440227E+01  0.18567322526E+01 -0.79869617177E+00  0.55636767401E+01  0.00000000000E+00 0. -1.
</event>
<event>
 7    1  0.1683291E-008  0.4614232E+02  0.7816164E-02  0.1320468E+00
        -11   -1    0    0    0    0  0.00000000000E+00  0.00000000000E+00  0.45593999997E+02  0.45594000000E+02  0.51100000000E-03 0.  1.
         11   -1    0    0    0    0 -0.00000000000E+00 -0.00000000000E+00 -0.45593999997E+02  0.45594000000E+02  0.51100000000E-03 0. -1.
    9900012    2    1    2    0    0  0.35532790550E+02 -0.17121320151E+02 -0.21757635172E+02  0.46142317674E+02  0.99999992030E+01 0.  0.
        -12    1    1    2    0    0 -0.35532790550E+02  0.17121320151E+02  0.21757635172E+02  0.45045682326E+02  0.00000000000E+00 0.  1.
         11    1    3    3    0    0  0.48130692416E+01 -0.29865935502E+01 -0.53729127748E+01  0.78072766382E+01  0.51100000000E-03 0. -1.
        -11    1    3    3    0    0  0.14577326819E+02 -0.29274736574E+01 -0.53780350717E+01  0.15811129646E+02  0.51100000000E-03 0.  1.
        -12    1    3    3    0    0  0.16142394489E+02 -0.11207252944E+02 -0.11006687325E+02  0.22523911389E+02  0.00000000000E+00 0.  1.
</event>
<event>
 7    1  0.1683291E-008  0.4614232E+02  0.7816164E-02  0.1320468E+00
        -11   -1    0    0    0    0  0.00000000000E+00  0.00000000000E+00  0.45593999997E+02  0.45594000000E+02  0.51100000000E-03 0.  1.
         11   -1    0    0    0    0 -0.00000000000E+00 -0.00000000000E+00 -0.45593999997E+02  0.45594000000E+02  0.51100000000E-03 0. -1.
    9900012    2    1    2    0    0  0.10149329209E+02  0.18794128507E+02 -0.39659616230E+02  0.46142319749E+02  0.10000018126E+02 0.  0.
        -12    1    1    2    0    0 -0.10149329209E+02 -0.18794128507E+02  0.39659616230E+02  0.45045680251E+02  0.00000000000E+00 0.  1.
         11    1    3    3    0    0 -0.59159946081E+00  0.23413186525E-01 -0.17622645750E+01  0.18590628802E+01  0.51100000000E-03 0. -1.
        -11    1    3    3    0    0  0.98739580639E+01  0.10323037337E+02 -0.26004341779E+02  0.29669613063E+02  0.51100000000E-03 0.  1.
         12    1    3    3    0    0  0.86697060605E+00  0.84476779835E+01 -0.11893009877E+02  0.14613643805E+02  0.00000000000E+00 0. -1.
</event>
<event>
 7    1  0.1683291E-008  0.4614232E+02  0.7816164E-02  0.1320468E+00
        -11   -1    0    0    0    0  0.00000000000E+00  0.00000000000E+00  0.45593999997E+02  0.45594000000E+02  0.51100000000E-03 0.  1.
         11   -1    0    0    0    0 -0.00000000000E+00 -0.00000000000E+00 -0.45593999997E+02  0.45594000000E+02  0.51100000000E-03 0. -1.
    9900012    2    1    2    0    0  0.17703247809E+02 -0.33356087023E+02 -0.24557686685E+02  0.46142317634E+02  0.99999988446E+01 0.  0.
        -12    1    1    2    0    0 -0.17703247809E+02  0.33356087023E+02  0.24557686685E+02  0.45045682366E+02  0.00000000000E+00 0.  1.
         11    1    3    3    0    0  0.78972232541E+01 -0.18372896242E+02 -0.11460036908E+02  0.23049119238E+02  0.51100000000E-03 0.  1.
        -11    1    3    3    0    0  0.98695534022E+01 -0.11766527331E+02 -0.87205651065E+01  0.17660903313E+02  0.51100000000E-03 0. -1.
        -12    1    3    3    0    0 -0.63528847109E-01 -0.32166634498E+01 -0.43770846703E+01  0.54322950836E+01  0.00000000000E+00 0.  1.
</event>
<event>
 7    1  0.1683291E-008  0.4614232E+02  0.7816164E-02  0.1320468E+00
        -11   -1    0    0    0    0  0.00000000000E+00  0.00000000000E+00  0.45593999997E+02  0.45594000000E+02  0.51100000000E-03 0.  1.
         11   -1    0    0    0    0 -0.00000000000E+00 -0.00000000000E+00 -0.45593999997E+02  0.45594000000E+02  0.51100000000E-03 0. -1.
    9900012    2    1    2    0    0  0.30842208556E+02 -0.31871794656E+02 -0.78778418550E+01  0.46142317460E+02  0.99999972562E+01 0.  0.
        -12    1    1    2    0    0 -0.30842208556E+02  0.31871794656E+02  0.78778418550E+01  0.45045682540E+02  0.00000000000E+00 0.  1.
         11    1    3    3    0    0  0.14637143237E+02 -0.90626433875E+01 -0.10450669071E+01  0.17247307975E+02  0.51100000000E-03 0. -1.
        -11    1    3    3    0    0  0.15251334915E+02 -0.20429322147E+02 -0.59117420503E+01  0.26170768319E+02  0.51100000000E-03 0.  1.
         12    1    3    3    0    0  0.95373040386E+00 -0.23798291213E+01 -0.92103289760E+00  0.27242411656E+01  0.00000000000E+00 0. -1.
</event>
<event>
 7    1  0.1683291E-008  0.4614231E+02  0.7816164E-02  0.1320468E+00
        -11   -1    0    0    0    0  0.00000000000E+00  0.00000000000E+00  0.45593999997E+02  0.45594000000E+02  0.51100000000E-03 0. -1.
         11   -1    0    0    0    0 -0.00000000000E+00 -0.00000000000E+00 -0.45593999997E+02  0.45594000000E+02  0.51100000000E-03 0.  1.
    9900012    2    1    2    0    0 -0.10592152587E+02  0.43125848111E+02  0.75552422165E+01  0.46142310343E+02  0.99999323584E+01 0.  0.
        -12    1    1    2    0    0  0.10592152587E+02 -0.43125848111E+02 -0.75552422165E+01  0.45045689657E+02  0.00000000000E+00 0.  1.
         11    1    3    3    0    0 -0.29992396314E+01  0.13678836862E+02  0.33868088318E+01  0.14407515074E+02  0.51100000000E-03 0. -1.
        -11    1    3    3    0    0  0.11764904554E+01  0.10682508446E+02  0.14786403007E+01  0.10848340606E+02  0.51100000000E-03 0.  1.
        -12    1    3    3    0    0 -0.87694034112E+01  0.18764502802E+02  0.26897930840E+01  0.20886454664E+02  0.00000000000E+00 0.  1.
</event>
<event>
 7    1  0.1683291E-008  0.4614231E+02  0.7816164E-02  0.1320468E+00
        -11   -1    0    0    0    0  0.00000000000E+00  0.00000000000E+00  0.45593999997E+02  0.45594000000E+02  0.51100000000E-03 0. -1.
         11   -1    0    0    0    0 -0.00000000000E+00 -0.00000000000E+00 -0.45593999997E+02  0.45594000000E+02  0.51100000000E-03 0.  1.
    9900012    2    1    2    0    0 -0.12433146321E+02 -0.35558620131E+02  0.24700508994E+02  0.46142314995E+02  0.99999747749E+01 0.  0.
        -12    1    1    2    0    0  0.12433146321E+02  0.35558620131E+02 -0.24700508994E+02  0.45045685005E+02  0.00000000000E+00 0.  1.
         11    1    3    3    0    0 -0.55419079006E+01 -0.15649947365E+02  0.65289541118E+01  0.17839866529E+02  0.51100000000E-03 0. -1.
        -11    1    3    3    0    0 -0.65462968681E+01 -0.20084505177E+02  0.17148828263E+02  0.27208889392E+02  0.51100000000E-03 0.  1.
        -12    1    3    3    0    0 -0.34494155194E+00  0.17583241137E+00  0.10227266193E+01  0.10935590743E+01  0.00000000000E+00 0.  1.
</event>
<event>
 7    1  0.1683291E-008  0.4614232E+02  0.7816164E-02  0.1320468E+00
        -11   -1    0    0    0    0  0.00000000000E+00  0.00000000000E+00  0.45593999997E+02  0.45594000000E+02  0.51100000000E-03 0.  1.
         11   -1    0    0    0    0 -0.00000000000E+00 -0.00000000000E+00 -0.45593999997E+02  0.45594000000E+02  0.51100000000E-03 0. -1.
    9900012    2    1    2    0    0  0.17902522432E+02  0.36195062248E+02 -0.19963233180E+02  0.46142317415E+02  0.99999968453E+01 0.  0.
        -12    1    1    2    0    0 -0.17902522432E+02 -0.36195062248E+02  0.19963233180E+02  0.45045682585E+02  0.00000000000E+00 0.  1.
         11    1    3    3    0    0  0.16409904867E+02  0.27283989693E+02 -0.14374948112E+02  0.34933368072E+02  0.51100000000E-03 0. -1.
        -11    1    3    3    0    0 -0.78202480364E+00  0.37291626362E+01 -0.10430022460E+01  0.39504519623E+01  0.51100000000E-03 0.  1.
         12    1    3    3    0    0  0.22746423679E+01  0.51819099185E+01 -0.45452828214E+01  0.72584973811E+01  0.00000000000E+00 0. -1.
</event>
<event>
 7    1  0.1683291E-008  0.4614232E+02  0.7816164E-02  0.1320468E+00
        -11   -1    0    0    0    0  0.00000000000E+00  0.00000000000E+00  0.45593999997E+02  0.45594000000E+02  0.51100000000E-03 0. -1.
         11   -1    0    0    0    0 -0.00000000000E+00 -0.00000000000E+00 -0.45593999997E+02  0.45594000000E+02  0.51100000000E-03 0.  1.
    9900012    2    1    2    0    0  0.67371854425E+01  0.23565052677E+02  0.37794339740E+02  0.46142317724E+02  0.99999996599E+01 0.  0.
        -12    1    1    2    0    0 -0.67371854425E+01 -0.23565052677E+02 -0.37794339740E+02  0.45045682276E+02  0.00000000000E+00 0.  1.
         11    1    3    3    0    0 -0.41643924137E+00  0.52426550419E+01  0.15547721153E+02  0.16413119352E+02  0.51100000000E-03 0. -1.
        -11    1    3    3    0    0  0.46197109808E+01  0.99376116172E+01  0.12606625321E+02  0.16704037130E+02  0.51100000000E-03 0.  1.
         12    1    3    3    0    0  0.25339137031E+01  0.83847860177E+01  0.96399932654E+01  0.13025161242E+02  0.00000000000E+00 0. -1.
</event>
<event>
 7    1  0.1683291E-008  0.4614232E+02  0.7816164E-02  0.1320468E+00
        -11   -1    0    0    0    0  0.00000000000E+00  0.00000000000E+00  0.45593999997E+02  0.45594000000E+02  0.51100000000E-03 0. -1.
         11   -1    0    0    0    0 -0.00000000000E+00 -0.00000000000E+00 -0.45593999997E+02  0.45594000000E+02  0.51100000000E-03 0.  1.
    9900012    2    1    2    0    0 -0.18752171997E+02 -0.13325737948E+02  0.38728468864E+02  0.46142317110E+02  0.99999940629E+01 0.  0.
        -12    1    1    2    0    0  0.18752171997E+02  0.13325737948E+02 -0.38728468864E+02  0.45045682890E+02  0.00000000000E+00 0.  1.
         11    1    3    3    0    0 -0.53919415795E+01 -0.38838049859E+01  0.55290686240E+01  0.86445112803E+01  0.51100000000E-03 0.  1.
        -11    1    3    3    0    0 -0.10817886769E+02 -0.43085887136E+01  0.23670360409E+02  0.26379472569E+02  0.51100000000E-03 0. -1.
         12    1    3    3    0    0 -0.25423436486E+01 -0.51333442481E+01  0.95290398311E+01  0.11118333261E+02  0.00000000000E+00 0. -1.
</event>
<event>
 7    1  0.1683291E-008  0.4614232E+02  0.7816164E-02  0.1320468E+00
        -11   -1    0    0    0    0  0.00000000000E+00  0.00000000000E+00  0.45593999997E+02  0.45594000000E+02  0.51100000000E-03 0.  1.
         11   -1    0    0    0    0 -0.00000000000E+00 -0.00000000000E+00 -0.45593999997E+02  0.45594000000E+02  0.51100000000E-03 0. -1.
    9900012    2    1    2    0    0 -0.31697524661E+01  0.14331654593E+02 -0.42587198345E+02  0.46142321884E+02  0.10000037596E+02 0.  0.
        -12    1    1    2    0    0  0.31697524661E+01 -0.14331654593E+02  0.42587198345E+02  0.45045678116E+02  0.00000000000E+00 0.  1.
         11    1    3    3    0    0 -0.46898234647E+01  0.11115024372E+02 -0.25578247440E+02  0.28280469467E+02  0.51100000000E-03 0. -1.
        -11    1    3    3    0    0  0.21313102494E+00  0.33852531003E+01 -0.71335492237E+01  0.78989168988E+01  0.51100000000E-03 0.  1.
        -12    1    3    3    0    0  0.13069399736E+01 -0.16862287959E+00 -0.98754016813E+01  0.99629355180E+01  0.00000000000E+00 0.  1.
</event>
<event>
 7    1  0.1683291E-008  0.4614232E+02  0.7816164E-02  0.1320468E+00
        -11   -1    0    0    0    0  0.00000000000E+00  0.00000000000E+00  0.45593999997E+02  0.45594000000E+02  0.51100000000E-03 0. -1.
         11   -1    0    0    0    0 -0.00000000000E+00 -0.00000000000E+00 -0.45593999997E+02  0.45594000000E+02  0.51100000000E-03 0.  1.
    9900012    2    1    2    0    0  0.21536744933E+02 -0.37965736318E+02  0.11130362155E+02  0.46142317874E+02  0.10000001029E+02 0.  0.
        -12    1    1    2    0    0 -0.21536744933E+02  0.37965736318E+02 -0.11130362155E+02  0.45045682126E+02  0.00000000000E+00 0.  1.
         11    1    3    3    0    0  0.10471883111E+02 -0.14345176019E+02  0.37419128493E+01  0.18150656268E+02  0.51100000000E-03 0. -1.
        -11    1    3    3    0    0  0.11970574350E+02 -0.21555637313E+02  0.61202980293E+01  0.25404688514E+02  0.51100000000E-03 0.  1.
        -12    1    3    3    0    0 -0.90571252828E+00 -0.20649229855E+01  0.12681512766E+01  0.25869730923E+01  0.00000000000E+00 0.  1.
</event>
<event>
 7    1  0.1683291E-008  0.4614232E+02  0.7816164E-02  0.1320468E+00
        -11   -1    0    0    0    0  0.00000000000E+00  0.00000000000E+00  0.45593999997E+02  0.45594000000E+02  0.51100000000E-03 0. -1.
         11   -1    0    0    0    0 -0.00000000000E+00 -0.00000000000E+00 -0.45593999997E+02  0.45594000000E+02  0.51100000000E-03 0.  1.
    9900012    2    1    2    0    0 -0.30980446450E+02  0.26762492877E+01  0.32590839416E+02  0.46142321114E+02  0.10000030570E+02 0.  0.
        -12    1    1    2    0    0  0.30980446450E+02 -0.26762492877E+01 -0.32590839416E+02  0.45045678886E+02  0.00000000000E+00 0.  1.
         11    1    3    3    0    0 -0.79420535592E+00 -0.11419722978E+01  0.22672601570E+01  0.26599495779E+01  0.51100000000E-03 0. -1.
        -11    1    3    3    0    0  0.22063786369E+00  0.53670394704E+00  0.59126606339E+00  0.82844916108E+00  0.51100000000E-03 0.  1.
         12    1    3    3    0    0 -0.30406878957E+02  0.32815176384E+01  0.29732313196E+02  0.42653922375E+02  0.00000000000E+00 0. -1.
</event>
<event>
 7    1  0.1683291E-008  0.4614231E+02  0.7816164E-02  0.1320468E+00
        -11   -1    0    0    0    0  0.00000000000E+00  0.00000000000E+00  0.45593999997E+02  0.45594000000E+02  0.51100000000E-03 0.  1.
         11   -1    0    0    0    0 -0.00000000000E+00 -0.00000000000E+00 -0.45593999997E+02  0.45594000000E+02  0.51100000000E-03 0. -1.
    9900012    2    1    2    0    0  0.11541692809E+01 -0.20707507842E+02 -0.39987260986E+02  0.46142311761E+02  0.99999452845E+01 0.  0.
        -12    1    1    2    0    0 -0.11541692809E+01  0.20707507842E+02  0.39987260986E+02  0.45045688239E+02  0.00000000000E+00 0.  1.
         11    1    3    3    0    0  0.15920824145E+01 -0.29645288163E+01 -0.99406819548E+01  0.10494775629E+02  0.51100000000E-03 0. -1.
        -11    1    3    3    0    0 -0.32841221572E+00 -0.10411868230E+02 -0.10587280293E+02  0.14852789600E+02  0.51100000000E-03 0.  1.
        -12    1    3    3    0    0 -0.10950091783E+00 -0.73311107957E+01 -0.19459298738E+02  0.20794746532E+02  0.00000000000E+00 0.  1.
</event>
<event>
 7    1  0.1683291E-008  0.4614232E+02  0.7816164E-02  0.1320468E+00
        -11   -1    0    0    0    0  0.00000000000E+00  0.00000000000E+00  0.45593999997E+02  0.45594000000E+02  0.51100000000E-03 0.  1.
         11   -1    0    0    0    0 -0.00000000000E+00 -0.00000000000E+00 -0.45593999997E+02  0.45594000000E+02  0.51100000000E-03 0. -1.
    9900012    2    1    2    0    0 -0.18133135352E+02 -0.24890228430E+02 -0.32875211657E+02  0.46142316405E+02  0.99999876353E+01 0.  0.
        -12    1    1    2    0    0  0.18133135352E+02  0.24890228430E+02  0.32875211657E+02  0.45045683595E+02  0.00000000000E+00 0.  1.
         11    1    3    3    0    0 -0.26493689195E+01 -0.31222287510E+01 -0.60502328397E+01  0.73056680544E+01  0.51100000000E-03 0. -1.
        -11    1    3    3    0    0 -0.91224753285E+01 -0.11389088210E+02 -0.20371699391E+02  0.25058671607E+02  0.51100000000E-03 0.  1.
        -12    1    3    3    0    0 -0.63612911041E+01 -0.10378911469E+02 -0.64532794271E+01  0.13777976744E+02  0.00000000000E+00 0.  1.
</event>
<event>
 7    1  0.1683291E-008  0.4614232E+02  0.7816164E-02  0.1320468E+00
        -11   -1    0    0    0    0  0.00000000000E+00  0.00000000000E+00  0.45593999997E+02  0.45594000000E+02  0.51100000000E-03 0. -1.
         11   -1    0    0    0    0 -0.00000000000E+00 -0.00000000000E+00 -0.45593999997E+02  0.45594000000E+02  0.51100000000E-03 0.  1.
    9900012    2    1    2    0    0  0.18190199733E+02  0.35827595184E+02  0.20362062941E+02  0.46142317074E+02  0.99999937387E+01 0.  0.
        -12    1    1    2    0    0 -0.18190199733E+02 -0.35827595184E+02 -0.20362062941E+02  0.45045682926E+02  0.00000000000E+00 0.  1.
         11    1    3    3    0    0  0.11587061482E+02  0.18117960763E+02  0.10004310702E+02  0.23719332387E+02  0.51100000000E-03 0. -1.
        -11    1    3    3    0    0  0.36420662990E+00  0.93824685121E+01  0.38356101074E+01  0.10142744550E+02  0.51100000000E-03 0.  1.
        -12    1    3    3    0    0  0.62389316213E+01  0.83271659094E+01  0.65221421316E+01  0.12280240138E+02  0.00000000000E+00 0.  1.
</event>
<event>
 7    1  0.1683291E-008  0.4614231E+02  0.7816164E-02  0.1320468E+00
        -11   -1    0    0    0    0  0.00000000000E+00  0.00000000000E+00  0.45593999997E+02  0.45594000000E+02  0.51100000000E-03 0. -1.
         11   -1    0    0    0    0 -0.00000000000E+00 -0.00000000000E+00 -0.45593999997E+02  0.45594000000E+02  0.51100000000E-03 0.  1.
    9900012    2    1    2    0    0 -0.17456199604E+02  0.41290612515E+02 -0.44136465579E+01  0.46142313609E+02  0.99999621375E+01 0.  0.
        -12    1    1    2    0    0  0.17456199604E+02 -0.41290612515E+02  0.44136465579E+01  0.45045686391E+02  0.00000000000E+00 0.  1.
         11    1    3    3    0    0 -0.42905442158E+01  0.15835025649E+02 -0.53559574340E+00  0.16414739414E+02  0.51100000000E-03 0. -1.
        -11    1    3    3    0    0  0.70262607843E+00  0.19743523138E+01 -0.94702014488E+00  0.22996951714E+01  0.51100000000E-03 0.  1.
        -12    1    3    3    0    0 -0.13868281466E+02  0.23481234553E+02 -0.29310306696E+01  0.27427879023E+02  0.00000000000E+00 0.  1.
</event>
<event>
 7    1  0.1683291E-008  0.4614232E+02  0.7816164E-02  0.1320468E+00
        -11   -1    0    0    0    0  0.00000000000E+00  0.00000000000E+00  0.45593999997E+02  0.45594000000E+02  0.51100000000E-03 0.  1.
         11   -1    0    0    0    0 -0.00000000000E+00 -0.00000000000E+00 -0.45593999997E+02  0.45594000000E+02  0.51100000000E-03 0. -1.
    9900012    2    1    2    0    0 -0.22724401076E+02  0.30748911198E+02 -0.23816372498E+02  0.46142317154E+02  0.99999944614E+01 0.  0.
        -12    1    1    2    0    0  0.22724401076E+02 -0.30748911198E+02  0.23816372498E+02  0.45045682846E+02  0.00000000000E+00 0.  1.
         11    1    3    3    0    0 -0.20985848069E+01  0.76004689959E+00 -0.33251516457E+01  0.40047925301E+01  0.51100000000E-03 0. -1.
        -11    1    3    3    0    0 -0.66992201132E+01  0.12042082913E+02 -0.50793490125E+01  0.14686425626E+02  0.51100000000E-03 0.  1.
         12    1    3    3    0    0 -0.13926596155E+02  0.17946781386E+02 -0.15411871840E+02  0.27451098998E+02  0.00000000000E+00 0. -1.
</event>
<event>
 7    1  0.1683291E-008  0.4614232E+02  0.7816164E-02  0.1320468E+00
        -11   -1    0    0    0    0  0.00000000000E+00  0.00000000000E+00  0.45593999997E+02  0.45594000000E+02  0.51100000000E-03 0.  1.
         11   -1    0    0    0    0 -0.00000000000E+00 -0.00000000000E+00 -0.45593999997E+02  0.45594000000E+02  0.51100000000E-03 0. -1.
    9900012    2    1    2    0    0  0.28490555020E+01  0.39057294375E+01 -0.44785507799E+02  0.46142317094E+02  0.99999939149E+01 0.  0.
        -12    1    1    2    0    0 -0.28490555020E+01 -0.39057294375E+01  0.44785507799E+02  0.45045682906E+02  0.00000000000E+00 0.  1.
         11    1    3    3    0    0  0.12860826588E+01  0.41166910783E+01 -0.24138866987E+02  0.24521134837E+02  0.51100000000E-03 0. -1.
        -11    1    3    3    0    0  0.20354349198E+01  0.25717418925E+01 -0.14363354549E+02  0.14733051477E+02  0.51100000000E-03 0.  1.
         12    1    3    3    0    0 -0.47246207658E+00 -0.27827035333E+01 -0.62832862630E+01  0.68881307792E+01  0.00000000000E+00 0. -1.
</event>
<event>
 7    1  0.1683291E-008  0.4614232E+02  0.7816164E-02  0.1320468E+00
        -11   -1    0    0    0    0  0.00000000000E+00  0.00000000000E+00  0.45593999997E+02  0.45594000000E+02  0.51100000000E-03 0.  1.
         11   -1    0    0    0    0 -0.00000000000E+00 -0.00000000000E+00 -0.45593999997E+02  0.45594000000E+02  0.51100000000E-03 0. -1.
    9900012    2    1    2    0    0 -0.65567241067E+01 -0.36041151556E+01 -0.44419964012E+02  0.46142317855E+02  0.10000000860E+02 0.  0.
        -12    1    1    2    0    0  0.65567241067E+01  0.36041151556E+01  0.44419964012E+02  0.45045682145E+02  0.00000000000E+00 0.  1.
         11    1    3    3    0    0 -0.45991820866E+01 -0.18746680121E+01 -0.24107356041E+02  0.24613644012E+02  0.51100000000E-03 0. -1.
        -11    1    3    3    0    0  0.87699120156E-01  0.13733827572E+01 -0.65723344673E+00  0.15250663585E+01  0.51100000000E-03 0.  1.
        -12    1    3    3    0    0 -0.20452411403E+01 -0.31028299007E+01 -0.19655374524E+02  0.20003607485E+02  0.00000000000E+00 0.  1.
</event>
<event>
 7    1  0.1683291E-008  0.4614232E+02  0.7816164E-02  0.1320468E+00
        -11   -1    0    0    0    0  0.00000000000E+00  0.00000000000E+00  0.45593999997E+02  0.45594000000E+02  0.51100000000E-03 0. -1.
         11   -1    0    0    0    0 -0.00000000000E+00 -0.00000000000E+00 -0.45593999997E+02  0.45594000000E+02  0.51100000000E-03 0.  1.
    9900012    2    1    2    0    0  0.13971927680E+02 -0.40454200998E+02  0.14048360494E+02  0.46142316810E+02  0.99999913299E+01 0.  0.
        -12    1    1    2    0    0 -0.13971927680E+02  0.40454200998E+02 -0.14048360494E+02  0.45045683190E+02  0.00000000000E+00 0.  1.
         11    1    3    3    0    0  0.50683447319E+01 -0.90252714412E+01  0.58912690703E+01  0.11910108918E+02  0.51100000000E-03 0. -1.
        -11    1    3    3    0    0 -0.10390295955E+00 -0.99728251180E+01  0.26451277790E+01  0.10318175124E+02  0.51100000000E-03 0.  1.
         12    1    3    3    0    0  0.90074859073E+01 -0.21456104438E+02  0.55119636452E+01  0.23914032769E+02  0.00000000000E+00 0. -1.
</event>
<event>
 7    1  0.1683291E-008  0.4614232E+02  0.7816164E-02  0.1320468E+00
        -11   -1    0    0    0    0  0.00000000000E+00  0.00000000000E+00  0.45593999997E+02  0.45594000000E+02  0.51100000000E-03 0.  1.
         11   -1    0    0    0    0 -0.00000000000E+00 -0.00000000000E+00 -0.45593999997E+02  0.45594000000E+02  0.51100000000E-03 0. -1.
    9900012    2    1    2    0    0  0.22715583307E+02  0.31260839227E+02 -0.23148985362E+02  0.46142319658E+02  0.10000017300E+02 0.  0.
        -12    1    1    2    0    0 -0.22715583307E+02 -0.31260839227E+02  0.23148985362E+02  0.45045680342E+02  0.00000000000E+00 0.  1.
         11    1    3    3    0    0  0.21862465089E+02  0.27220481331E+02 -0.19159272383E+02  0.39824611764E+02  0.51100000000E-03 0. -1.
        -11    1    3    3    0    0 -0.38967925432E+00  0.28861015704E+01 -0.14233708869E+01  0.32415146365E+01  0.51100000000E-03 0.  1.
         12    1    3    3    0    0  0.12427974728E+01  0.11542563251E+01 -0.25663420927E+01  0.30761932578E+01  0.00000000000E+00 0. -1.
</event>
<event>
 7    1  0.1683291E-008  0.4614232E+02  0.7816164E-02  0.1320468E+00
        -11   -1    0    0    0    0  0.00000000000E+00  0.00000000000E+00  0.45593999997E+02  0.45594000000E+02  0.51100000000E-03 0.  1.
         11   -1    0    0    0    0 -0.00000000000E+00 -0.00000000000E+00 -0.45593999997E+02  0.45594000000E+02  0.51100000000E-03 0. -1.
    9900012    2    1    2    0    0  0.42988040415E+02  0.12485010228E+02  0.50265676882E+01  0.46142317834E+02  0.10000000665E+02 0.  0.
        -12    1    1    2    0    0 -0.42988040415E+02 -0.12485010228E+02 -0.50265676882E+01  0.45045682166E+02  0.00000000000E+00 0.  1.
         11    1    3    3    0    0  0.16454742878E+02  0.14831501926E+01 -0.13097043407E+01  0.16573280406E+02  0.51100000000E-03 0. -1.
        -11    1    3    3    0    0  0.26287560693E+02  0.10512641375E+02  0.60486237174E+01  0.28950601462E+02  0.51100000000E-03 0.  1.
        -12    1    3    3    0    0  0.24573684336E+00  0.48921865992E+00  0.28764831148E+00  0.61843596636E+00  0.00000000000E+00 0.  1.
</event>
<event>
 7    1  0.1683291E-008  0.4614232E+02  0.7816164E-02  0.1320468E+00
        -11   -1    0    0    0    0  0.00000000000E+00  0.00000000000E+00  0.45593999997E+02  0.45594000000E+02  0.51100000000E-03 0.  1.
         11   -1    0    0    0    0 -0.00000000000E+00 -0.00000000000E+00 -0.45593999997E+02  0.45594000000E+02  0.51100000000E-03 0. -1.
    9900012    2    1    2    0    0 -0.29903015977E+02  0.45565987064E+01 -0.33379041700E+02  0.46142318952E+02  0.10000010855E+02 0.  0.
        -12    1    1    2    0    0  0.29903015977E+02 -0.45565987064E+01  0.33379041700E+02  0.45045681048E+02  0.00000000000E+00 0.  1.
         11    1    3    3    0    0 -0.73705738571E+01 -0.20557312218E+01 -0.71758721521E+01  0.10490211211E+02  0.51100000000E-03 0. -1.
        -11    1    3    3    0    0 -0.10116568557E+02  0.47385260681E+01 -0.15774854545E+02  0.19329889416E+02  0.51100000000E-03 0.  1.
        -12    1    3    3    0    0 -0.12415873563E+02  0.18738038601E+01 -0.10428315003E+02  0.16322218325E+02  0.00000000000E+00 0.  1.
</event>
<event>
 7    1  0.1683291E-008  0.4614232E+02  0.7816164E-02  0.1320468E+00
        -11   -1    0    0    0    0  0.00000000000E+00  0.00000000000E+00  0.45593999997E+02  0.45594000000E+02  0.51100000000E-03 0. -1.
         11   -1    0    0    0    0 -0.00000000000E+00 -0.00000000000E+00 -0.45593999997E+02  0.45594000000E+02  0.51100000000E-03 0.  1.
    9900012    2    1    2    0    0 -0.79885407001E+01  0.44050439746E+02  0.49855349998E+01  0.46142316704E+02  0.99999903631E+01 0.  0.
        -12    1    1    2    0    0  0.79885407001E+01 -0.44050439746E+02 -0.49855349998E+01  0.45045683296E+02  0.00000000000E+00 0.  1.
         11    1    3    3    0    0 -0.30825185944E+01  0.11788080858E+02  0.15329747668E+01  0.12280504188E+02  0.51100000000E-03 0. -1.
        -11    1    3    3    0    0 -0.49171173662E+01  0.92448112127E+01 -0.60831979703E+00  0.10488785954E+02  0.51100000000E-03 0.  1.
        -12    1    3    3    0    0  0.11095260497E-01  0.23017547675E+02  0.40608800300E+01  0.23373026563E+02  0.00000000000E+00 0.  1.
</event>
<event>
 7    1  0.1683291E-008  0.4614232E+02  0.7816164E-02  0.1320468E+00
        -11   -1    0    0    0    0  0.00000000000E+00  0.00000000000E+00  0.45593999997E+02  0.45594000000E+02  0.51100000000E-03 0. -1.
         11   -1    0    0    0    0 -0.00000000000E+00 -0.00000000000E+00 -0.45593999997E+02  0.45594000000E+02  0.51100000000E-03 0.  1.
    9900012    2    1    2    0    0 -0.20496444150E+02  0.28959126608E+02  0.27755688474E+02  0.46142317861E+02  0.10000000912E+02 0.  0.
        -12    1    1    2    0    0  0.20496444150E+02 -0.28959126608E+02 -0.27755688474E+02  0.45045682139E+02  0.00000000000E+00 0.  1.
         11    1    3    3    0    0 -0.50332462004E+01  0.13982510703E+02  0.95667092865E+01  0.17673881852E+02  0.51100000000E-03 0. -1.
        -11    1    3    3    0    0 -0.11356968444E+02  0.88372957678E+01  0.13419189786E+02  0.19676208565E+02  0.51100000000E-03 0.  1.
        -12    1    3    3    0    0 -0.41062295054E+01  0.61393201370E+01  0.47697894016E+01  0.87922274442E+01  0.00000000000E+00 0.  1.
</event>
<event>
 7    1  0.1683291E-008  0.4614232E+02  0.7816164E-02  0.1320468E+00
        -11   -1    0    0    0    0  0.00000000000E+00  0.00000000000E+00  0.45593999997E+02  0.45594000000E+02  0.51100000000E-03 0.  1.
         11   -1    0    0    0    0 -0.00000000000E+00 -0.00000000000E+00 -0.45593999997E+02  0.45594000000E+02  0.51100000000E-03 0. -1.
    9900012    2    1    2    0    0 -0.12821775328E+02  0.10633816604E+02 -0.41852568985E+02  0.46142317535E+02  0.99999979401E+01 0.  0.
        -12    1    1    2    0    0  0.12821775328E+02 -0.10633816604E+02  0.41852568985E+02  0.45045682465E+02  0.00000000000E+00 0.  1.
         11    1    3    3    0    0 -0.11695717297E+01 -0.10343851277E+01 -0.33505046561E+01  0.36964486112E+01  0.51100000000E-03 0. -1.
        -11    1    3    3    0    0 -0.55089009436E+01  0.54156046434E+01 -0.10060943340E+02  0.12684610534E+02  0.51100000000E-03 0.  1.
         12    1    3    3    0    0 -0.61433026545E+01  0.62525970878E+01 -0.28441120989E+02  0.29761258390E+02  0.00000000000E+00 0. -1.
</event>
<event>
 7    1  0.1683291E-008  0.4614232E+02  0.7816164E-02  0.1320468E+00
        -11   -1    0    0    0    0  0.00000000000E+00  0.00000000000E+00  0.45593999997E+02  0.45594000000E+02  0.51100000000E-03 0.  1.
         11   -1    0    0    0    0 -0.00000000000E+00 -0.00000000000E+00 -0.45593999997E+02  0.45594000000E+02  0.51100000000E-03 0. -1.
    9900012    2    1    2    0    0  0.14877495220E+02  0.54518721202E-01 -0.42517885325E+02  0.46142318644E+02  0.10000008049E+02 0.  0.
        -12    1    1    2    0    0 -0.14877495220E+02 -0.54518721202E-01  0.42517885325E+02  0.45045681356E+02  0.00000000000E+00 0.  1.
         11    1    3    3    0    0  0.76678773027E+01 -0.29228206315E-02 -0.22292161468E+02  0.23574070800E+02  0.51100000000E-03 0. -1.
        -11    1    3    3    0    0  0.26896243288E+01  0.33620946251E+01 -0.71846900490E+01  0.83760092323E+01  0.51100000000E-03 0.  1.
        -12    1    3    3    0    0  0.45199935888E+01 -0.33046530832E+01 -0.13041033808E+02  0.14192238612E+02  0.00000000000E+00 0.  1.
</event>
<event>
 7    1  0.1683291E-008  0.4614232E+02  0.7816164E-02  0.1320468E+00
        -11   -1    0    0    0    0  0.00000000000E+00  0.00000000000E+00  0.45593999997E+02  0.45594000000E+02  0.51100000000E-03 0.  1.
         11   -1    0    0    0    0 -0.00000000000E+00 -0.00000000000E+00 -0.45593999997E+02  0.45594000000E+02  0.51100000000E-03 0. -1.
    9900012    2    1    2    0    0  0.31185549683E+02  0.14597979109E+01 -0.32472202474E+02  0.46142318160E+02  0.10000003634E+02 0.  0.
        -12    1    1    2    0    0 -0.31185549683E+02 -0.14597979109E+01  0.32472202474E+02  0.45045681840E+02  0.00000000000E+00 0.  1.
         11    1    3    3    0    0  0.64392459440E+01  0.26448026420E+01 -0.38833116354E+01  0.79711341013E+01  0.51100000000E-03 0.  1.
        -11    1    3    3    0    0  0.55889203528E+01 -0.22338197960E+01 -0.55227161051E+01  0.81686213665E+01  0.51100000000E-03 0. -1.
         12    1    3    3    0    0  0.19157383386E+02  0.10488150649E+01 -0.23066174733E+02  0.30002562692E+02  0.00000000000E+00 0. -1.
</event>
<event>
 7    1  0.1683291E-008  0.4614232E+02  0.7816164E-02  0.1320468E+00
        -11   -1    0    0    0    0  0.00000000000E+00  0.00000000000E+00  0.45593999997E+02  0.45594000000E+02  0.51100000000E-03 0. -1.
         11   -1    0    0    0    0 -0.00000000000E+00 -0.00000000000E+00 -0.45593999997E+02  0.45594000000E+02  0.51100000000E-03 0.  1.
    9900012    2    1    2    0    0 -0.35513424612E+02  0.16104927400E+02  0.22550865992E+02  0.46142316841E+02  0.99999916101E+01 0.  0.
        -12    1    1    2    0    0  0.35513424612E+02 -0.16104927400E+02 -0.22550865992E+02  0.45045683159E+02  0.00000000000E+00 0.  1.
         11    1    3    3    0    0 -0.28677145172E+00 -0.20750582015E+00  0.16406568634E+01  0.16784074998E+01  0.51100000000E-03 0. -1.
        -11    1    3    3    0    0 -0.27212045048E+01  0.28446737373E+01  0.31995490269E+01  0.50728923570E+01  0.51100000000E-03 0.  1.
         12    1    3    3    0    0 -0.32505448656E+02  0.13467759483E+02  0.17710660102E+02  0.39391016984E+02  0.00000000000E+00 0. -1.
</event>
<event>
 7    1  0.2137548E-008  0.4614232E+02  0.7816164E-02  0.1320468E+00
        -11   -1    0    0    0    0  0.00000000000E+00  0.00000000000E+00  0.45593999997E+02  0.45594000000E+02  0.51100000000E-03 0.  1.
         11   -1    0    0    0    0 -0.00000000000E+00 -0.00000000000E+00 -0.45593999997E+02  0.45594000000E+02  0.51100000000E-03 0. -1.
    9900012    2    1    2    0    0  0.20863340157E+02 -0.34107510904E+02 -0.20748788084E+02  0.46142317970E+02  0.10000001904E+02 0.  0.
        -12    1    1    2    0    0 -0.20863340157E+02  0.34107510904E+02  0.20748788084E+02  0.45045682030E+02  0.00000000000E+00 0.  1.
         11    1    3    3    0    0  0.20416279679E+02 -0.33685001083E+02 -0.20184124558E+02  0.44259492297E+02  0.51100000000E-03 0. -1.
        -11    1    3    3    0    0  0.89044289618E-01 -0.53188658409E+00  0.51158014012E+00  0.74333486716E+00  0.51100000000E-03 0.  1.
         12    1    3    3    0    0  0.35801618804E+00  0.10937676321E+00 -0.10762436667E+01  0.11394908062E+01  0.00000000000E+00 0. -1.
</event>
<event>
 7    1  0.1683291E-008  0.4614232E+02  0.7816164E-02  0.1320468E+00
        -11   -1    0    0    0    0  0.00000000000E+00  0.00000000000E+00  0.45593999997E+02  0.45594000000E+02  0.51100000000E-03 0.  1.
         11   -1    0    0    0    0 -0.00000000000E+00 -0.00000000000E+00 -0.45593999997E+02  0.45594000000E+02  0.51100000000E-03 0. -1.
    9900012    2    1    2    0    0 -0.19577744040E+02 -0.27011309041E+02 -0.30269037778E+02  0.46142317346E+02  0.99999962113E+01 0.  0.
        -12    1    1    2    0    0  0.19577744040E+02  0.27011309041E+02  0.30269037778E+02  0.45045682654E+02  0.00000000000E+00 0.  1.
         11    1    3    3    0    0 -0.10444382608E+02 -0.16132057153E+02 -0.20517922700E+02  0.28112515865E+02  0.51100000000E-03 0. -1.
        -11    1    3    3    0    0 -0.15575781478E+01 -0.17779553296E+01  0.44270361477E+00  0.24048204906E+01  0.51100000000E-03 0.  1.
         12    1    3    3    0    0 -0.75757832844E+01 -0.91012965583E+01 -0.10193818692E+02  0.15624980990E+02  0.00000000000E+00 0. -1.
</event>
<event>
 7    1  0.1683291E-008  0.4614232E+02  0.7816164E-02  0.1320468E+00
        -11   -1    0    0    0    0  0.00000000000E+00  0.00000000000E+00  0.45593999997E+02  0.45594000000E+02  0.51100000000E-03 0. -1.
         11   -1    0    0    0    0 -0.00000000000E+00 -0.00000000000E+00 -0.45593999997E+02  0.45594000000E+02  0.51100000000E-03 0.  1.
    9900012    2    1    2    0    0  0.30448188773E+02  0.32523088431E+02  0.66535847966E+01  0.46142315731E+02  0.99999814852E+01 0.  0.
        -12    1    1    2    0    0 -0.30448188773E+02 -0.32523088431E+02 -0.66535847966E+01  0.45045684269E+02  0.00000000000E+00 0.  1.
         11    1    3    3    0    0  0.10989762550E+02  0.16471179239E+02  0.53618432039E+01  0.20513994960E+02  0.51100000000E-03 0. -1.
        -11    1    3    3    0    0  0.14882650427E+02  0.13261173136E+02  0.26237540375E+01  0.20105623149E+02  0.51100000000E-03 0.  1.
        -12    1    3    3    0    0  0.45757757963E+01  0.27907360552E+01 -0.13320124448E+01  0.55226976217E+01  0.00000000000E+00 0.  1.
</event>
<event>
 7    1  0.1683291E-008  0.4614232E+02  0.7816164E-02  0.1320468E+00
        -11   -1    0    0    0    0  0.00000000000E+00  0.00000000000E+00  0.45593999997E+02  0.45594000000E+02  0.51100000000E-03 0.  1.
         11   -1    0    0    0    0 -0.00000000000E+00 -0.00000000000E+00 -0.45593999997E+02  0.45594000000E+02  0.51100000000E-03 0. -1.
    9900012    2    1    2    0    0 -0.73364962974E+01  0.37138313643E+02  0.24413827529E+02  0.46142317713E+02  0.99999995572E+01 0.  0.
        -12    1    1    2    0    0  0.73364962974E+01 -0.37138313643E+02 -0.24413827529E+02  0.45045682287E+02  0.00000000000E+00 0.  1.
         11    1    3    3    0    0 -0.41446152288E+01  0.87587073013E+01  0.47325202471E+01  0.10783762661E+02  0.51100000000E-03 0. -1.
        -11    1    3    3    0    0 -0.54155486159E+00  0.18781487007E+02  0.92679823071E+01  0.20950728678E+02  0.51100000000E-03 0.  1.
        -12    1    3    3    0    0 -0.26503262070E+01  0.95981193346E+01  0.10413324974E+02  0.14407826373E+02  0.00000000000E+00 0.  1.
</event>
<event>
 7    1  0.1683291E-008  0.4614232E+02  0.7816164E-02  0.1320468E+00
        -11   -1    0    0    0    0  0.00000000000E+00  0.00000000000E+00  0.45593999997E+02  0.45594000000E+02  0.51100000000E-03 0.  1.
         11   -1    0    0    0    0 -0.00000000000E+00 -0.00000000000E+00 -0.45593999997E+02  0.45594000000E+02  0.51100000000E-03 0. -1.
    9900012    2    1    2    0    0 -0.16437461652E+02  0.19529635108E+02 -0.37114910438E+02  0.46142319076E+02  0.10000011995E+02 0.  0.
        -12    1    1    2    0    0  0.16437461652E+02 -0.19529635108E+02  0.37114910438E+02  0.45045680924E+02  0.00000000000E+00 0.  1.
         11    1    3    3    0    0 -0.15308355974E+02  0.19617507702E+02 -0.35298799885E+02  0.43187934017E+02  0.51100000000E-03 0. -1.
        -11    1    3    3    0    0  0.39920178404E+00 -0.49556565983E+00 -0.14355368528E+00  0.65234600425E+00  0.51100000000E-03 0.  1.
         12    1    3    3    0    0 -0.15283074622E+01  0.40769306556E+00 -0.16725568675E+01  0.23020390548E+01  0.00000000000E+00 0. -1.
</event>
<event>
 7    1  0.1683291E-008  0.4614232E+02  0.7816164E-02  0.1320468E+00
        -11   -1    0    0    0    0  0.00000000000E+00  0.00000000000E+00  0.45593999997E+02  0.45594000000E+02  0.51100000000E-03 0.  1.
         11   -1    0    0    0    0 -0.00000000000E+00 -0.00000000000E+00 -0.45593999997E+02  0.45594000000E+02  0.51100000000E-03 0. -1.
    9900012    2    1    2    0    0 -0.17918936787E+02  0.97996535794E+01 -0.40149620465E+02  0.46142317306E+02  0.99999958523E+01 0.  0.
        -12    1    1    2    0    0  0.17918936787E+02 -0.97996535794E+01  0.40149620465E+02  0.45045682694E+02  0.00000000000E+00 0.  1.
         11    1    3    3    0    0 -0.11218047733E+02  0.30830675150E+01 -0.28743898117E+02  0.31009056410E+02  0.51100000000E-03 0. -1.
        -11    1    3    3    0    0 -0.15363893603E+01  0.32494273983E+01 -0.53993329829E+01  0.64862984517E+01  0.51100000000E-03 0.  1.
         12    1    3    3    0    0 -0.51644996942E+01  0.34671586661E+01 -0.60063893652E+01  0.86469624443E+01  0.00000000000E+00 0. -1.
</event>
<event>
 7    1  0.1683291E-008  0.4614232E+02  0.7816164E-02  0.1320468E+00
        -11   -1    0    0    0    0  0.00000000000E+00  0.00000000000E+00  0.45593999997E+02  0.45594000000E+02  0.51100000000E-03 0.  1.
         11   -1    0    0    0    0 -0.00000000000E+00 -0.00000000000E+00 -0.45593999997E+02  0.45594000000E+02  0.51100000000E-03 0. -1.
    9900012    2    1    2    0    0  0.22954025655E+01  0.22858885970E+02 -0.38746819445E+02  0.46142316990E+02  0.99999929651E+01 0.  0.
        -12    1    1    2    0    0 -0.22954025655E+01 -0.22858885970E+02  0.38746819445E+02  0.45045683010E+02  0.00000000000E+00 0.  1.
         11    1    3    3    0    0  0.28850894708E+01  0.98767268570E+01 -0.10066610490E+02  0.14394794951E+02  0.51100000000E-03 0.  1.
        -11    1    3    3    0    0 -0.53649260720E+00  0.12711432262E+02 -0.24945281701E+02  0.28002418001E+02  0.51100000000E-03 0. -1.
         12    1    3    3    0    0 -0.53194298064E-01  0.27072685071E+00 -0.37349272535E+01  0.37451040373E+01  0.00000000000E+00 0. -1.
</event>
<event>
 7    1  0.1683291E-008  0.4614232E+02  0.7816164E-02  0.1320468E+00
        -11   -1    0    0    0    0  0.00000000000E+00  0.00000000000E+00  0.45593999997E+02  0.45594000000E+02  0.51100000000E-03 0.  1.
         11   -1    0    0    0    0 -0.00000000000E+00 -0.00000000000E+00 -0.45593999997E+02  0.45594000000E+02  0.51100000000E-03 0. -1.
    9900012    2    1    2    0    0  0.53591307021E+01 -0.91672705853E+01 -0.43776184752E+02  0.46142317817E+02  0.10000000509E+02 0.  0.
        -12    1    1    2    0    0 -0.53591307021E+01  0.91672705853E+01  0.43776184752E+02  0.45045682183E+02  0.00000000000E+00 0.  1.
         11    1    3    3    0    0  0.65281994732E-01  0.57427944199E+00 -0.55926720229E+01  0.56224584688E+01  0.51100000000E-03 0. -1.
        -11    1    3    3    0    0 -0.84930753281E+00  0.13383601372E+00 -0.99174779547E+01  0.99546775240E+01  0.51100000000E-03 0.  1.
        -12    1    3    3    0    0  0.61431562402E+01 -0.98753860410E+01 -0.28266034775E+02  0.30565181824E+02  0.00000000000E+00 0.  1.
</event>
<event>
 7    1  0.1683291E-008  0.4614232E+02  0.7816164E-02  0.1320468E+00
        -11   -1    0    0    0    0  0.00000000000E+00  0.00000000000E+00  0.45593999997E+02  0.45594000000E+02  0.51100000000E-03 0.  1.
         11   -1    0    0    0    0 -0.00000000000E+00 -0.00000000000E+00 -0.45593999997E+02  0.45594000000E+02  0.51100000000E-03 0. -1.
    9900012    2    1    2    0    0  0.34227936875E+02 -0.21056870139E+02 -0.20351169936E+02  0.46142316960E+02  0.99999926981E+01 0.  0.
        -12    1    1    2    0    0 -0.34227936875E+02  0.21056870139E+02  0.20351169936E+02  0.45045683040E+02  0.00000000000E+00 0.  1.
         11    1    3    3    0    0  0.91475873213E+01 -0.84427290683E+01 -0.46409173709E+01  0.13285185066E+02  0.51100000000E-03 0. -1.
        -11    1    3    3    0    0  0.23936400011E+01  0.49843635630E+00 -0.31371221119E+00  0.24650287764E+01  0.51100000000E-03 0.  1.
         12    1    3    3    0    0  0.22686709552E+02 -0.13112577427E+02 -0.15396540354E+02  0.30392103118E+02  0.00000000000E+00 0. -1.
</event>
<event>
 7    1  0.1683291E-008  0.4614232E+02  0.7816164E-02  0.1320468E+00
        -11   -1    0    0    0    0  0.00000000000E+00  0.00000000000E+00  0.45593999997E+02  0.45594000000E+02  0.51100000000E-03 0.  1.
         11   -1    0    0    0    0 -0.00000000000E+00 -0.00000000000E+00 -0.45593999997E+02  0.45594000000E+02  0.51100000000E-03 0. -1.
    9900012    2    1    2    0    0  0.45570975246E+01  0.22422346159E+02 -0.38801859710E+02  0.46142322493E+02  0.10000043150E+02 0.  0.
        -12    1    1    2    0    0 -0.45570975246E+01 -0.22422346159E+02  0.38801859710E+02  0.45045677507E+02  0.00000000000E+00 0.  1.
         11    1    3    3    0    0  0.64258830180E+01  0.18677030208E+02 -0.34985719394E+02  0.40176161984E+02  0.51100000000E-03 0. -1.
        -11    1    3    3    0    0 -0.12497056495E+00 -0.25703216957E-01  0.16727165557E+00  0.21037672244E+00  0.51100000000E-03 0.  1.
         12    1    3    3    0    0 -0.17438149285E+01  0.37710191679E+01 -0.39834119710E+01  0.57557837867E+01  0.00000000000E+00 0. -1.
</event>
<event>
 7    1  0.1683291E-008  0.4614232E+02  0.7816164E-02  0.1320468E+00
        -11   -1    0    0    0    0  0.00000000000E+00  0.00000000000E+00  0.45593999997E+02  0.45594000000E+02  0.51100000000E-03 0.  1.
         11   -1    0    0    0    0 -0.00000000000E+00 -0.00000000000E+00 -0.45593999997E+02  0.45594000000E+02  0.51100000000E-03 0. -1.
    9900012    2    1    2    0    0 -0.84400338220E+01  0.14249228046E+01 -0.44224980912E+02  0.46142317492E+02  0.99999975469E+01 0.  0.
        -12    1    1    2    0    0  0.84400338220E+01 -0.14249228046E+01  0.44224980912E+02  0.45045682508E+02  0.00000000000E+00 0.  1.
         11    1    3    3    0    0  0.15977684567E+00  0.35978728070E+01 -0.11510041089E+02  0.12060317720E+02  0.51100000000E-03 0. -1.
        -11    1    3    3    0    0 -0.57808988959E+01 -0.19489904792E+00 -0.15934446040E+02  0.16951794847E+02  0.51100000000E-03 0.  1.
        -12    1    3    3    0    0 -0.28189117717E+01 -0.19780509544E+01 -0.16780493783E+02  0.17130204925E+02  0.00000000000E+00 0.  1.
</event>
<event>
 7    1  0.1683291E-008  0.4614232E+02  0.7816164E-02  0.1320468E+00
        -11   -1    0    0    0    0  0.00000000000E+00  0.00000000000E+00  0.45593999997E+02  0.45594000000E+02  0.51100000000E-03 0.  1.
         11   -1    0    0    0    0 -0.00000000000E+00 -0.00000000000E+00 -0.45593999997E+02  0.45594000000E+02  0.51100000000E-03 0. -1.
    9900012    2    1    2    0    0  0.12379177045E+02  0.11687401219E+02 -0.41704605327E+02  0.46142317887E+02  0.10000001148E+02 0.  0.
        -12    1    1    2    0    0 -0.12379177045E+02 -0.11687401219E+02  0.41704605327E+02  0.45045682113E+02  0.00000000000E+00 0.  1.
         11    1    3    3    0    0  0.75454344046E+01  0.17574524888E+01 -0.23693218682E+02  0.24927712117E+02  0.51100000000E-03 0. -1.
        -11    1    3    3    0    0  0.33878092810E+01  0.86042744625E+01 -0.14932963706E+02  0.17564287519E+02  0.51100000000E-03 0.  1.
        -12    1    3    3    0    0  0.14459333596E+01  0.13256742676E+01 -0.30784229390E+01  0.36503182512E+01  0.00000000000E+00 0.  1.
</event>
<event>
 7    1  0.1683291E-008  0.4614230E+02  0.7816164E-02  0.1320468E+00
        -11   -1    0    0    0    0  0.00000000000E+00  0.00000000000E+00  0.45593999997E+02  0.45594000000E+02  0.51100000000E-03 0.  1.
         11   -1    0    0    0    0 -0.00000000000E+00 -0.00000000000E+00 -0.45593999997E+02  0.45594000000E+02  0.51100000000E-03 0. -1.
    9900012    2    1    2    0    0 -0.20989374907E+00 -0.36260490205E+02 -0.26725413604E+02  0.46142301675E+02  0.99998533096E+01 0.  0.
        -12    1    1    2    0    0  0.20989374907E+00  0.36260490205E+02  0.26725413604E+02  0.45045698325E+02  0.00000000000E+00 0.  1.
         11    1    3    3    0    0 -0.17137801716E+01 -0.26571487018E+02 -0.15709339540E+02  0.30915438116E+02  0.51100000000E-03 0. -1.
        -11    1    3    3    0    0  0.23802028982E+01 -0.85572495867E+01 -0.82992539862E+01  0.12156048014E+02  0.51100000000E-03 0.  1.
        -12    1    3    3    0    0 -0.87631647573E+00 -0.11317536004E+01 -0.27168200778E+01  0.30708155452E+01  0.00000000000E+00 0.  1.
</event>
<event>
 7    1  0.1683291E-008  0.4614232E+02  0.7816164E-02  0.1320468E+00
        -11   -1    0    0    0    0  0.00000000000E+00  0.00000000000E+00  0.45593999997E+02  0.45594000000E+02  0.51100000000E-03 0. -1.
         11   -1    0    0    0    0 -0.00000000000E+00 -0.00000000000E+00 -0.45593999997E+02  0.45594000000E+02  0.51100000000E-03 0.  1.
    9900012    2    1    2    0    0  0.44336110605E+02 -0.72856431410E+01 -0.32159105452E+01  0.46142318962E+02  0.10000010951E+02 0.  0.
        -12    1    1    2    0    0 -0.44336110605E+02  0.72856431410E+01  0.32159105452E+01  0.45045681038E+02  0.00000000000E+00 0.  1.
         11    1    3    3    0    0  0.24174220741E+02 -0.24157139166E+01  0.10035962813E+01  0.24315341410E+02  0.51100000000E-03 0. -1.
        -11    1    3    3    0    0  0.35714544174E+01  0.95826567426E+00 -0.16749889525E+01  0.40594516884E+01  0.51100000000E-03 0.  1.
         12    1    3    3    0    0  0.16590435447E+02 -0.58281948987E+01 -0.25445178740E+01  0.17767525863E+02  0.00000000000E+00 0. -1.
</event>
<event>
 7    1  0.1683291E-008  0.4614232E+02  0.7816164E-02  0.1320468E+00
        -11   -1    0    0    0    0  0.00000000000E+00  0.00000000000E+00  0.45593999997E+02  0.45594000000E+02  0.51100000000E-03 0.  1.
         11   -1    0    0    0    0 -0.00000000000E+00 -0.00000000000E+00 -0.45593999997E+02  0.45594000000E+02  0.51100000000E-03 0. -1.
    9900012    2    1    2    0    0 -0.28584550811E+02 -0.33971848093E+02 -0.76125303900E+01  0.46142316224E+02  0.99999859858E+01 0.  0.
        -12    1    1    2    0    0  0.28584550811E+02  0.33971848093E+02  0.76125303900E+01  0.45045683776E+02  0.00000000000E+00 0.  1.
         11    1    3    3    0    0 -0.13140739260E+02 -0.16827304526E+02 -0.83717666416E+01  0.22933026030E+02  0.51100000000E-03 0. -1.
        -11    1    3    3    0    0 -0.83821957630E+01 -0.10997328383E+02  0.17565845399E+00  0.13828712649E+02  0.51100000000E-03 0.  1.
         12    1    3    3    0    0 -0.70616157873E+01 -0.61472151837E+01  0.58357779764E+00  0.93805775455E+01  0.00000000000E+00 0. -1.
</event>
<event>
 7    1  0.1683291E-008  0.4614232E+02  0.7816164E-02  0.1320468E+00
        -11   -1    0    0    0    0  0.00000000000E+00  0.00000000000E+00  0.45593999997E+02  0.45594000000E+02  0.51100000000E-03 0.  1.
         11   -1    0    0    0    0 -0.00000000000E+00 -0.00000000000E+00 -0.45593999997E+02  0.45594000000E+02  0.51100000000E-03 0. -1.
    9900012    2    1    2    0    0 -0.10799540771E+01 -0.26992105405E+01 -0.44951768768E+02  0.46142317036E+02  0.99999933894E+01 0.  0.
        -12    1    1    2    0    0  0.10799540771E+01  0.26992105405E+01  0.44951768768E+02  0.45045682964E+02  0.00000000000E+00 0.  1.
         11    1    3    3    0    0  0.52058454345E+00 -0.21062968831E+01 -0.36152867937E+02  0.36217914837E+02  0.51100000000E-03 0. -1.
        -11    1    3    3    0    0 -0.30711331025E+01 -0.54379354994E+00 -0.59324166135E+01  0.67023232611E+01  0.51100000000E-03 0.  1.
        -12    1    3    3    0    0  0.14705944820E+01 -0.49120107481E-01 -0.28664842170E+01  0.32220789378E+01  0.00000000000E+00 0.  1.
</event>
<event>
 7    1  0.1683291E-008  0.4614232E+02  0.7816164E-02  0.1320468E+00
        -11   -1    0    0    0    0  0.00000000000E+00  0.00000000000E+00  0.45593999997E+02  0.45594000000E+02  0.51100000000E-03 0. -1.
         11   -1    0    0    0    0 -0.00000000000E+00 -0.00000000000E+00 -0.45593999997E+02  0.45594000000E+02  0.51100000000E-03 0.  1.
    9900012    2    1    2    0    0 -0.22999016323E+01  0.34387783351E+02  0.29005248839E+02  0.46142315950E+02  0.99999834864E+01 0.  0.
        -12    1    1    2    0    0  0.22999016323E+01 -0.34387783351E+02 -0.29005248839E+02  0.45045684050E+02  0.00000000000E+00 0.  1.
         11    1    3    3    0    0 -0.87762236738E-01  0.51671714774E+01  0.10810668744E+01  0.52797792695E+01  0.51100000000E-03 0. -1.
        -11    1    3    3    0    0 -0.56538696724E+00  0.27206845458E+02  0.25065969358E+02  0.36997769153E+02  0.51100000000E-03 0.  1.
        -12    1    3    3    0    0 -0.16467524284E+01  0.20137664156E+01  0.28582126070E+01  0.38647675277E+01  0.00000000000E+00 0.  1.
</event>
<event>
 7    1  0.1683291E-008  0.4614232E+02  0.7816164E-02  0.1320468E+00
        -11   -1    0    0    0    0  0.00000000000E+00  0.00000000000E+00  0.45593999997E+02  0.45594000000E+02  0.51100000000E-03 0.  1.
         11   -1    0    0    0    0 -0.00000000000E+00 -0.00000000000E+00 -0.45593999997E+02  0.45594000000E+02  0.51100000000E-03 0. -1.
    9900012    2    1    2    0    0 -0.44055137583E+02  0.93765281981E+01 -0.58236660569E+00  0.46142316751E+02  0.99999907871E+01 0.  0.
        -12    1    1    2    0    0  0.44055137583E+02 -0.93765281981E+01  0.58236660569E+00  0.45045683249E+02  0.00000000000E+00 0.  1.
         11    1    3    3    0    0 -0.23839528724E+02  0.27042658967E+01 -0.20186527360E+01  0.24077191342E+02  0.51100000000E-03 0. -1.
        -11    1    3    3    0    0 -0.16828171539E+02  0.76555646392E+01  0.13474858424E+01  0.18536740427E+02  0.51100000000E-03 0.  1.
        -12    1    3    3    0    0 -0.33874373203E+01 -0.98330233782E+00  0.88800287900E-01  0.35283849815E+01  0.00000000000E+00 0.  1.
</event>
<event>
 7    1  0.1683291E-008  0.4614232E+02  0.7816164E-02  0.1320468E+00
        -11   -1    0    0    0    0  0.00000000000E+00  0.00000000000E+00  0.45593999997E+02  0.45594000000E+02  0.51100000000E-03 0.  1.
         11   -1    0    0    0    0 -0.00000000000E+00 -0.00000000000E+00 -0.45593999997E+02  0.45594000000E+02  0.51100000000E-03 0. -1.
    9900012    2    1    2    0    0  0.21166666338E+02 -0.18609116359E+01 -0.39719299027E+02  0.46142317952E+02  0.10000001739E+02 0.  0.
        -12    1    1    2    0    0 -0.21166666338E+02  0.18609116359E+01  0.39719299027E+02  0.45045682048E+02  0.00000000000E+00 0.  1.
         11    1    3    3    0    0  0.12798588632E+02 -0.15656785700E+01 -0.31520842400E+02  0.34056111437E+02  0.51100000000E-03 0. -1.
        -11    1    3    3    0    0  0.34163611766E+01  0.69657353620E+00 -0.50444219027E+01  0.61321228766E+01  0.51100000000E-03 0.  1.
         12    1    3    3    0    0  0.49517165302E+01 -0.99180660206E+00 -0.31540347246E+01  0.59540836386E+01  0.00000000000E+00 0. -1.
</event>
<event>
 7    1  0.1683291E-008  0.4614232E+02  0.7816164E-02  0.1320468E+00
        -11   -1    0    0    0    0  0.00000000000E+00  0.00000000000E+00  0.45593999997E+02  0.45594000000E+02  0.51100000000E-03 0.  1.
         11   -1    0    0    0    0 -0.00000000000E+00 -0.00000000000E+00 -0.45593999997E+02  0.45594000000E+02  0.51100000000E-03 0. -1.
    9900012    2    1    2    0    0  0.36078315652E+02 -0.20308337161E+02  0.17749369865E+02  0.46142317087E+02  0.99999938498E+01 0.  0.
        -12    1    1    2    0    0 -0.36078315652E+02  0.20308337161E+02 -0.17749369865E+02  0.45045682913E+02  0.00000000000E+00 0.  1.
         11    1    3    3    0    0  0.20654831353E+02 -0.13358100289E+02  0.66894676473E+01  0.25491368720E+02  0.51100000000E-03 0. -1.
        -11    1    3    3    0    0  0.97052533257E+01 -0.61007802310E+01  0.58553573087E+01  0.12872321897E+02  0.51100000000E-03 0.  1.
         12    1    3    3    0    0  0.57182309726E+01 -0.84945664147E+00  0.52045449092E+01  0.77786264696E+01  0.00000000000E+00 0. -1.
</event>
<event>
 7    1  0.2405095E-008  0.4614232E+02  0.7816164E-02  0.1320468E+00
        -11   -1    0    0    0    0  0.00000000000E+00  0.00000000000E+00  0.45593999997E+02  0.45594000000E+02  0.51100000000E-03 0. -1.
         11   -1    0    0    0    0 -0.00000000000E+00 -0.00000000000E+00 -0.45593999997E+02  0.45594000000E+02  0.51100000000E-03 0.  1.
    9900012    2    1    2    0    0  0.22315344828E+02  0.25890194045E+02  0.29340020507E+02  0.46142316901E+02  0.99999921565E+01 0.  0.
        -12    1    1    2    0    0 -0.22315344828E+02 -0.25890194045E+02 -0.29340020507E+02  0.45045683099E+02  0.00000000000E+00 0.  1.
         11    1    3    3    0    0  0.19061454533E+02  0.21672056009E+02  0.27107706869E+02  0.39596020412E+02  0.51100000000E-03 0. -1.
        -11    1    3    3    0    0  0.50065332120E+00  0.31047960130E+01  0.77901105104E+00  0.32399491523E+01  0.51100000000E-03 0.  1.
         12    1    3    3    0    0  0.27532369745E+01  0.11133420231E+01  0.14533025876E+01  0.33063473364E+01  0.00000000000E+00 0. -1.
</event>
<event>
 7    1  0.1683291E-008  0.4614231E+02  0.7816164E-02  0.1320468E+00
        -11   -1    0    0    0    0  0.00000000000E+00  0.00000000000E+00  0.45593999997E+02  0.45594000000E+02  0.51100000000E-03 0.  1.
         11   -1    0    0    0    0 -0.00000000000E+00 -0.00000000000E+00 -0.45593999997E+02  0.45594000000E+02  0.51100000000E-03 0. -1.
    9900012    2    1    2    0    0 -0.35916915136E+02 -0.68431943531E+01 -0.26310829616E+02  0.46142313670E+02  0.99999626946E+01 0.  0.
        -12    1    1    2    0    0  0.35916915136E+02  0.68431943531E+01  0.26310829616E+02  0.45045686330E+02  0.00000000000E+00 0.  1.
         11    1    3    3    0    0 -0.22425935331E+02 -0.22954595081E+00 -0.12939005981E+02  0.25891951314E+02  0.51100000000E-03 0.  1.
        -11    1    3    3    0    0 -0.28914225047E+00 -0.58508712188E+00 -0.91771698660E+00  0.11261149630E+01  0.51100000000E-03 0. -1.
        -12    1    3    3    0    0 -0.13201837554E+02 -0.60285612804E+01 -0.12454106649E+02  0.19124247393E+02  0.00000000000E+00 0.  1.
</event>
<event>
 7    1  0.1683291E-008  0.4614232E+02  0.7816164E-02  0.1320468E+00
        -11   -1    0    0    0    0  0.00000000000E+00  0.00000000000E+00  0.45593999997E+02  0.45594000000E+02  0.51100000000E-03 0. -1.
         11   -1    0    0    0    0 -0.00000000000E+00 -0.00000000000E+00 -0.45593999997E+02  0.45594000000E+02  0.51100000000E-03 0.  1.
    9900012    2    1    2    0    0  0.35536719643E+02 -0.27558884811E+02 -0.26005545313E+01  0.46142318089E+02  0.10000002988E+02 0.  0.
        -12    1    1    2    0    0 -0.35536719643E+02  0.27558884811E+02  0.26005545313E+01  0.45045681911E+02  0.00000000000E+00 0.  1.
         11    1    3    3    0    0  0.20383816441E+02 -0.19278281649E+02 -0.40890729687E+01  0.28352647743E+02  0.51100000000E-03 0. -1.
        -11    1    3    3    0    0  0.75258638809E+01 -0.44538805783E+01  0.27421295858E+01  0.91648761195E+01  0.51100000000E-03 0.  1.
         12    1    3    3    0    0  0.76270393208E+01 -0.38267225832E+01 -0.12536111483E+01  0.86247942260E+01  0.00000000000E+00 0. -1.
</event>
<event>
 7    1  0.1683291E-008  0.4614232E+02  0.7816164E-02  0.1320468E+00
        -11   -1    0    0    0    0  0.00000000000E+00  0.00000000000E+00  0.45593999997E+02  0.45594000000E+02  0.51100000000E-03 0. -1.
         11   -1    0    0    0    0 -0.00000000000E+00 -0.00000000000E+00 -0.45593999997E+02  0.45594000000E+02  0.51100000000E-03 0.  1.
    9900012    2    1    2    0    0  0.12211893484E+02 -0.36121635582E+02  0.23983548075E+02  0.46142317878E+02  0.10000001063E+02 0.  0.
        -12    1    1    2    0    0 -0.12211893484E+02  0.36121635582E+02 -0.23983548075E+02  0.45045682122E+02  0.00000000000E+00 0.  1.
         11    1    3    3    0    0  0.74252772321E+01 -0.24259134067E+02  0.19299575631E+02  0.31876542275E+02  0.51100000000E-03 0. -1.
        -11    1    3    3    0    0  0.26526985393E+01 -0.90749236358E+01  0.15921813898E+01  0.95878094670E+01  0.51100000000E-03 0.  1.
        -12    1    3    3    0    0  0.21339177124E+01 -0.27875778792E+01  0.30917910550E+01  0.46779661354E+01  0.00000000000E+00 0.  1.
</event>
<event>
 7    1  0.1683291E-008  0.4614232E+02  0.7816164E-02  0.1320468E+00
        -11   -1    0    0    0    0  0.00000000000E+00  0.00000000000E+00  0.45593999997E+02  0.45594000000E+02  0.51100000000E-03 0.  1.
         11   -1    0    0    0    0 -0.00000000000E+00 -0.00000000000E+00 -0.45593999997E+02  0.45594000000E+02  0.51100000000E-03 0. -1.
    9900012    2    1    2    0    0  0.61791645910E+00  0.44224186957E+02 -0.85412472000E+01  0.46142318337E+02  0.10000005255E+02 0.  0.
        -12    1    1    2    0    0 -0.61791645910E+00 -0.44224186957E+02  0.85412472000E+01  0.45045681663E+02  0.00000000000E+00 0.  1.
         11    1    3    3    0    0  0.54271234544E-01  0.29833014540E+02 -0.79365277021E+01  0.30870700901E+02  0.51100000000E-03 0. -1.
        -11    1    3    3    0    0  0.17637600110E+01  0.52451052785E+01 -0.21154055000E+01  0.59242653089E+01  0.51100000000E-03 0.  1.
         12    1    3    3    0    0 -0.12001147865E+01  0.91460671378E+01  0.15106860020E+01  0.93473521270E+01  0.00000000000E+00 0. -1.
</event>
<event>
 7    1  0.1683291E-008  0.4614232E+02  0.7816164E-02  0.1320468E+00
        -11   -1    0    0    0    0  0.00000000000E+00  0.00000000000E+00  0.45593999997E+02  0.45594000000E+02  0.51100000000E-03 0.  1.
         11   -1    0    0    0    0 -0.00000000000E+00 -0.00000000000E+00 -0.45593999997E+02  0.45594000000E+02  0.51100000000E-03 0. -1.
    9900012    2    1    2    0    0 -0.53872111116E+01  0.44125120178E+02 -0.72845847930E+01  0.46142318188E+02  0.10000003895E+02 0.  0.
        -12    1    1    2    0    0  0.53872111116E+01 -0.44125120178E+02  0.72845847930E+01  0.45045681812E+02  0.00000000000E+00 0.  1.
         11    1    3    3    0    0  0.16465148076E+01  0.17974897228E+02 -0.33973319225E+01  0.18367084848E+02  0.51100000000E-03 0. -1.
        -11    1    3    3    0    0 -0.28698667480E+01  0.17430294286E+02 -0.10140548906E+01  0.17694055545E+02  0.51100000000E-03 0.  1.
        -12    1    3    3    0    0 -0.41638591713E+01  0.87199286641E+01 -0.28731979799E+01  0.10081177795E+02  0.00000000000E+00 0.  1.
</event>
<event>
 7    1  0.1683291E-008  0.4614232E+02  0.7816164E-02  0.1320468E+00
        -11   -1    0    0    0    0  0.00000000000E+00  0.00000000000E+00  0.45593999997E+02  0.45594000000E+02  0.51100000000E-03 0. -1.
         11   -1    0    0    0    0 -0.00000000000E+00 -0.00000000000E+00 -0.45593999997E+02  0.45594000000E+02  0.51100000000E-03 0.  1.
    9900012    2    1    2    0    0  0.32307618292E+02  0.22732965931E+02 -0.21645866132E+02  0.46142318072E+02  0.10000002838E+02 0.  0.
        -12    1    1    2    0    0 -0.32307618292E+02 -0.22732965931E+02  0.21645866132E+02  0.45045681928E+02  0.00000000000E+00 0.  1.
         11    1    3    3    0    0  0.18285541799E+02  0.16385884677E+02 -0.13703717109E+02  0.28118501354E+02  0.51100000000E-03 0. -1.
        -11    1    3    3    0    0  0.99254237374E+01  0.22775817377E+01 -0.36073712534E+01  0.10803450493E+02  0.51100000000E-03 0.  1.
        -12    1    3    3    0    0  0.40966527561E+01  0.40694995159E+01 -0.43347777701E+01  0.72203662255E+01  0.00000000000E+00 0.  1.
</event>
<event>
 7    1  0.1683291E-008  0.4614232E+02  0.7816164E-02  0.1320468E+00
        -11   -1    0    0    0    0  0.00000000000E+00  0.00000000000E+00  0.45593999997E+02  0.45594000000E+02  0.51100000000E-03 0.  1.
         11   -1    0    0    0    0 -0.00000000000E+00 -0.00000000000E+00 -0.45593999997E+02  0.45594000000E+02  0.51100000000E-03 0. -1.
    9900012    2    1    2    0    0  0.35792275357E+02  0.25767897978E+02 -0.91674408612E+01  0.46142317483E+02  0.99999974654E+01 0.  0.
        -12    1    1    2    0    0 -0.35792275357E+02 -0.25767897978E+02  0.91674408612E+01  0.45045682517E+02  0.00000000000E+00 0.  1.
         11    1    3    3    0    0  0.21419784274E+02  0.16660331472E+02 -0.57362514374E+01  0.27735868184E+02  0.51100000000E-03 0. -1.
        -11    1    3    3    0    0  0.11327309375E+02  0.61763734336E+01  0.94813292637E-01  0.12902112861E+02  0.51100000000E-03 0.  1.
         12    1    3    3    0    0  0.30451817088E+01  0.29311930722E+01 -0.35260027165E+01  0.55043364380E+01  0.00000000000E+00 0. -1.
</event>
<event>
 7    1  0.1683291E-008  0.4614232E+02  0.7816164E-02  0.1320468E+00
        -11   -1    0    0    0    0  0.00000000000E+00  0.00000000000E+00  0.45593999997E+02  0.45594000000E+02  0.51100000000E-03 0. -1.
         11   -1    0    0    0    0 -0.00000000000E+00 -0.00000000000E+00 -0.45593999997E+02  0.45594000000E+02  0.51100000000E-03 0.  1.
    9900012    2    1    2    0    0  0.20656783430E+02 -0.17425359319E+02  0.36038416949E+02  0.46142319350E+02  0.10000014487E+02 0.  0.
        -12    1    1    2    0    0 -0.20656783430E+02  0.17425359319E+02 -0.36038416949E+02  0.45045680650E+02  0.00000000000E+00 0.  1.
         11    1    3    3    0    0  0.12433791647E+02 -0.10681801896E+02  0.22608456073E+02  0.27925657606E+02  0.51100000000E-03 0. -1.
        -11    1    3    3    0    0  0.80537001740E+01 -0.56245293335E+01  0.79964000041E+01  0.12666484516E+02  0.51100000000E-03 0.  1.
         12    1    3    3    0    0  0.16929160958E+00 -0.11190280896E+01  0.54335608710E+01  0.55501772272E+01  0.00000000000E+00 0. -1.
</event>
<event>
 7    1  0.1683291E-008  0.4614232E+02  0.7816164E-02  0.1320468E+00
        -11   -1    0    0    0    0  0.00000000000E+00  0.00000000000E+00  0.45593999997E+02  0.45594000000E+02  0.51100000000E-03 0.  1.
         11   -1    0    0    0    0 -0.00000000000E+00 -0.00000000000E+00 -0.45593999997E+02  0.45594000000E+02  0.51100000000E-03 0. -1.
    9900012    2    1    2    0    0  0.73184694905E+01  0.10146396315E+02 -0.43273593983E+02  0.46142319962E+02  0.10000020068E+02 0.  0.
        -12    1    1    2    0    0 -0.73184694905E+01 -0.10146396315E+02  0.43273593983E+02  0.45045680038E+02  0.00000000000E+00 0.  1.
         11    1    3    3    0    0 -0.11590215464E-01 -0.10946462261E+01 -0.84338313692E+01  0.85045809137E+01  0.51100000000E-03 0. -1.
        -11    1    3    3    0    0  0.54953797660E+01  0.43694784162E+01 -0.19615453789E+02  0.20834048286E+02  0.51100000000E-03 0.  1.
         12    1    3    3    0    0  0.18346799399E+01  0.68715641250E+01 -0.15224308825E+02  0.16803690762E+02  0.00000000000E+00 0. -1.
</event>
<event>
 7    1  0.1683291E-008  0.4614232E+02  0.7816164E-02  0.1320468E+00
        -11   -1    0    0    0    0  0.00000000000E+00  0.00000000000E+00  0.45593999997E+02  0.45594000000E+02  0.51100000000E-03 0.  1.
         11   -1    0    0    0    0 -0.00000000000E+00 -0.00000000000E+00 -0.45593999997E+02  0.45594000000E+02  0.51100000000E-03 0. -1.
    9900012    2    1    2    0    0 -0.11647165949E+02 -0.28723751101E+02 -0.32686435589E+02  0.46142318481E+02  0.10000006568E+02 0.  0.
        -12    1    1    2    0    0  0.11647165949E+02  0.28723751101E+02  0.32686435589E+02  0.45045681519E+02  0.00000000000E+00 0.  1.
         11    1    3    3    0    0 -0.13549324566E+00 -0.11458193912E+01 -0.54262717274E+01  0.55475837639E+01  0.51100000000E-03 0. -1.
        -11    1    3    3    0    0 -0.89566103851E+01 -0.24438251399E+02 -0.23824038873E+02  0.35285036907E+02  0.51100000000E-03 0.  1.
        -12    1    3    3    0    0 -0.25550623179E+01 -0.31396803110E+01 -0.34361249887E+01  0.53096978108E+01  0.00000000000E+00 0.  1.
</event>
<event>
 7    1  0.1683291E-008  0.4614232E+02  0.7816164E-02  0.1320468E+00
        -11   -1    0    0    0    0  0.00000000000E+00  0.00000000000E+00  0.45593999997E+02  0.45594000000E+02  0.51100000000E-03 0.  1.
         11   -1    0    0    0    0 -0.00000000000E+00 -0.00000000000E+00 -0.45593999997E+02  0.45594000000E+02  0.51100000000E-03 0. -1.
    9900012    2    1    2    0    0  0.11973944836E+02  0.30312008048E+01 -0.43319164522E+02  0.46142317098E+02  0.99999939516E+01 0.  0.
        -12    1    1    2    0    0 -0.11973944836E+02 -0.30312008048E+01  0.43319164522E+02  0.45045682902E+02  0.00000000000E+00 0.  1.
         11    1    3    3    0    0  0.60170391478E+01 -0.14085721622E+01 -0.24811325486E+02  0.25569331401E+02  0.51100000000E-03 0. -1.
        -11    1    3    3    0    0  0.57447479499E+01  0.54589685412E+01 -0.15913551049E+02  0.17777614401E+02  0.51100000000E-03 0.  1.
         12    1    3    3    0    0  0.21215773830E+00 -0.10191955743E+01 -0.25942879868E+01  0.27953712961E+01  0.00000000000E+00 0. -1.
</event>
<event>
 7    1  0.1683291E-008  0.4614232E+02  0.7816164E-02  0.1320468E+00
        -11   -1    0    0    0    0  0.00000000000E+00  0.00000000000E+00  0.45593999997E+02  0.45594000000E+02  0.51100000000E-03 0. -1.
         11   -1    0    0    0    0 -0.00000000000E+00 -0.00000000000E+00 -0.45593999997E+02  0.45594000000E+02  0.51100000000E-03 0.  1.
    9900012    2    1    2    0    0  0.18014427692E+02 -0.26780934420E+02  0.31422530808E+02  0.46142317678E+02  0.99999992417E+01 0.  0.
        -12    1    1    2    0    0 -0.18014427692E+02  0.26780934420E+02 -0.31422530808E+02  0.45045682322E+02  0.00000000000E+00 0.  1.
         11    1    3    3    0    0  0.56844966210E+01 -0.75058916026E+01  0.72728112852E+01  0.11897297796E+02  0.51100000000E-03 0. -1.
        -11    1    3    3    0    0  0.66677964790E+01 -0.46257843100E+01  0.52233125900E+01  0.96509266416E+01  0.51100000000E-03 0.  1.
        -12    1    3    3    0    0  0.56621345923E+01 -0.14649258507E+02  0.18926406933E+02  0.24594093241E+02  0.00000000000E+00 0.  1.
</event>
<event>
 7    1  0.1683291E-008  0.4614232E+02  0.7816164E-02  0.1320468E+00
        -11   -1    0    0    0    0  0.00000000000E+00  0.00000000000E+00  0.45593999997E+02  0.45594000000E+02  0.51100000000E-03 0. -1.
         11   -1    0    0    0    0 -0.00000000000E+00 -0.00000000000E+00 -0.45593999997E+02  0.45594000000E+02  0.51100000000E-03 0.  1.
    9900012    2    1    2    0    0 -0.12874286725E+02  0.15228800754E+02  0.40391210717E+02  0.46142317251E+02  0.99999953504E+01 0.  0.
        -12    1    1    2    0    0  0.12874286725E+02 -0.15228800754E+02 -0.40391210717E+02  0.45045682749E+02  0.00000000000E+00 0.  1.
         11    1    3    3    0    0 -0.10219934132E+02  0.56269374550E+01  0.18878201227E+02  0.22192250013E+02  0.51100000000E-03 0. -1.
        -11    1    3    3    0    0 -0.25425615597E+01  0.97105114291E+01  0.19508148658E+02  0.21939154856E+02  0.51100000000E-03 0.  1.
        -12    1    3    3    0    0 -0.11179103377E+00 -0.10864813040E+00  0.20048608326E+01  0.20109123824E+01  0.00000000000E+00 0.  1.
</event>
<event>
 7    1  0.1683291E-008  0.4614232E+02  0.7816164E-02  0.1320468E+00
        -11   -1    0    0    0    0  0.00000000000E+00  0.00000000000E+00  0.45593999997E+02  0.45594000000E+02  0.51100000000E-03 0. -1.
         11   -1    0    0    0    0 -0.00000000000E+00 -0.00000000000E+00 -0.45593999997E+02  0.45594000000E+02  0.51100000000E-03 0.  1.
    9900012    2    1    2    0    0  0.21629870418E+02 -0.76518782018E+01  0.38764816606E+02  0.46142317179E+02  0.99999946932E+01 0.  0.
        -12    1    1    2    0    0 -0.21629870418E+02  0.76518782018E+01 -0.38764816606E+02  0.45045682821E+02  0.00000000000E+00 0.  1.
         11    1    3    3    0    0  0.12040834053E+02 -0.34695081909E+01  0.22222483179E+02  0.25511917424E+02  0.51100000000E-03 0. -1.
        -11    1    3    3    0    0  0.72731526214E+00 -0.28477072753E+01  0.20228512967E+01  0.35679618616E+01  0.51100000000E-03 0.  1.
        -12    1    3    3    0    0  0.88617211030E+01 -0.13346627356E+01  0.14519482131E+02  0.17062437893E+02  0.00000000000E+00 0.  1.
</event>
<event>
 7    1  0.1683291E-008  0.4614232E+02  0.7816164E-02  0.1320468E+00
        -11   -1    0    0    0    0  0.00000000000E+00  0.00000000000E+00  0.45593999997E+02  0.45594000000E+02  0.51100000000E-03 0.  1.
         11   -1    0    0    0    0 -0.00000000000E+00 -0.00000000000E+00 -0.45593999997E+02  0.45594000000E+02  0.51100000000E-03 0. -1.
    9900012    2    1    2    0    0 -0.43600874725E+01  0.98850974386E+01 -0.43730857333E+02  0.46142318773E+02  0.10000009225E+02 0.  0.
        -12    1    1    2    0    0  0.43600874725E+01 -0.98850974386E+01  0.43730857333E+02  0.45045681227E+02  0.00000000000E+00 0.  1.
         11    1    3    3    0    0 -0.91016948940E+00  0.70395688795E+01 -0.38055719459E+02  0.38712035884E+02  0.51100000000E-03 0. -1.
        -11    1    3    3    0    0 -0.26106635722E+01  0.21594036820E+01 -0.52859219042E+01  0.62784997561E+01  0.51100000000E-03 0.  1.
         12    1    3    3    0    0 -0.83925441090E+00  0.68612487709E+00 -0.38921597045E+00  0.11517831327E+01  0.00000000000E+00 0. -1.
</event>
<event>
 7    1  0.1683291E-008  0.4614232E+02  0.7816164E-02  0.1320468E+00
        -11   -1    0    0    0    0  0.00000000000E+00  0.00000000000E+00  0.45593999997E+02  0.45594000000E+02  0.51100000000E-03 0.  1.
         11   -1    0    0    0    0 -0.00000000000E+00 -0.00000000000E+00 -0.45593999997E+02  0.45594000000E+02  0.51100000000E-03 0. -1.
    9900012    2    1    2    0    0 -0.24379006180E+02 -0.25285813637E+02 -0.28202926912E+02  0.46142318741E+02  0.10000008938E+02 0.  0.
        -12    1    1    2    0    0  0.24379006180E+02  0.25285813637E+02  0.28202926912E+02  0.45045681259E+02  0.00000000000E+00 0.  1.
         11    1    3    3    0    0 -0.18019968594E+02 -0.17121689548E+02 -0.20131207538E+02  0.31986513381E+02  0.51100000000E-03 0. -1.
        -11    1    3    3    0    0 -0.49971130285E+01 -0.21432255124E+01 -0.41811925746E+01  0.68590761640E+01  0.51100000000E-03 0.  1.
         12    1    3    3    0    0 -0.13619245578E+01 -0.60208985774E+01 -0.38905267994E+01  0.72967291958E+01  0.00000000000E+00 0. -1.
</event>
<event>
 7    1  0.1683291E-008  0.4614232E+02  0.7816164E-02  0.1320468E+00
        -11   -1    0    0    0    0  0.00000000000E+00  0.00000000000E+00  0.45593999997E+02  0.45594000000E+02  0.51100000000E-03 0.  1.
         11   -1    0    0    0    0 -0.00000000000E+00 -0.00000000000E+00 -0.45593999997E+02  0.45594000000E+02  0.51100000000E-03 0. -1.
    9900012    2    1    2    0    0 -0.19621760764E+01  0.40383526875E+00 -0.45001109273E+02  0.46142322586E+02  0.10000044001E+02 0.  0.
        -12    1    1    2    0    0  0.19621760764E+01 -0.40383526875E+00  0.45001109273E+02  0.45045677414E+02  0.00000000000E+00 0.  1.
         11    1    3    3    0    0 -0.51696749260E+00 -0.26436335384E+01 -0.32810711489E+01  0.42451715888E+01  0.51100000000E-03 0. -1.
        -11    1    3    3    0    0 -0.95802948171E+00  0.22434353390E+01 -0.18768660972E+02  0.18926527879E+02  0.51100000000E-03 0.  1.
         12    1    3    3    0    0 -0.48717910210E+00  0.80403346816E+00 -0.22951377152E+02  0.22970623119E+02  0.00000000000E+00 0. -1.
</event>
<event>
 7    1  0.1683291E-008  0.4614232E+02  0.7816164E-02  0.1320468E+00
        -11   -1    0    0    0    0  0.00000000000E+00  0.00000000000E+00  0.45593999997E+02  0.45594000000E+02  0.51100000000E-03 0.  1.
         11   -1    0    0    0    0 -0.00000000000E+00 -0.00000000000E+00 -0.45593999997E+02  0.45594000000E+02  0.51100000000E-03 0. -1.
    9900012    2    1    2    0    0 -0.84442533780E+01 -0.43875508115E+02 -0.57225777380E+01  0.46142317372E+02  0.99999964539E+01 0.  0.
        -12    1    1    2    0    0  0.84442533780E+01  0.43875508115E+02  0.57225777380E+01  0.45045682628E+02  0.00000000000E+00 0.  1.
         11    1    3    3    0    0  0.58772223490E+00 -0.97545582918E+01 -0.56778570508E+00  0.97887285059E+01  0.51100000000E-03 0. -1.
        -11    1    3    3    0    0 -0.19907619209E+01 -0.15550650126E+02 -0.51224206320E+01  0.16493181796E+02  0.51100000000E-03 0.  1.
        -12    1    3    3    0    0 -0.70412136920E+01 -0.18570299697E+02 -0.32371400952E-01  0.19860407070E+02  0.00000000000E+00 0.  1.
</event>
<event>
 7    1  0.1683291E-008  0.4614232E+02  0.7816164E-02  0.1320468E+00
        -11   -1    0    0    0    0  0.00000000000E+00  0.00000000000E+00  0.45593999997E+02  0.45594000000E+02  0.51100000000E-03 0. -1.
         11   -1    0    0    0    0 -0.00000000000E+00 -0.00000000000E+00 -0.45593999997E+02  0.45594000000E+02  0.51100000000E-03 0.  1.
    9900012    2    1    2    0    0  0.44237777210E+02 -0.51989117645E+01 -0.67159417872E+01  0.46142317742E+02  0.99999998267E+01 0.  0.
        -12    1    1    2    0    0 -0.44237777210E+02  0.51989117645E+01  0.67159417872E+01  0.45045682258E+02  0.00000000000E+00 0.  1.
         11    1    3    3    0    0  0.21254598199E+02 -0.38184284888E+01 -0.39916442476E+01  0.21960682247E+02  0.51100000000E-03 0. -1.
        -11    1    3    3    0    0  0.70284359269E+01 -0.31931160578E+01 -0.25276585770E+01  0.81230511435E+01  0.51100000000E-03 0.  1.
         12    1    3    3    0    0  0.15954743084E+02  0.18126327821E+01 -0.19663896260E+00  0.16058584351E+02  0.00000000000E+00 0. -1.
</event>
<event>
 7    1  0.1683291E-008  0.4614232E+02  0.7816164E-02  0.1320468E+00
        -11   -1    0    0    0    0  0.00000000000E+00  0.00000000000E+00  0.45593999997E+02  0.45594000000E+02  0.51100000000E-03 0.  1.
         11   -1    0    0    0    0 -0.00000000000E+00 -0.00000000000E+00 -0.45593999997E+02  0.45594000000E+02  0.51100000000E-03 0. -1.
    9900012    2    1    2    0    0 -0.82530388759E+01  0.24301497973E+02 -0.37019427971E+02  0.46142317613E+02  0.99999986463E+01 0.  0.
        -12    1    1    2    0    0  0.82530388759E+01 -0.24301497973E+02  0.37019427971E+02  0.45045682387E+02  0.00000000000E+00 0.  1.
         11    1    3    3    0    0 -0.22458246854E+01  0.25732708391E+01 -0.10708328340E+02  0.11239828621E+02  0.51100000000E-03 0.  1.
        -11    1    3    3    0    0 -0.18938137961E+01  0.65835844592E+01 -0.52162690124E+01  0.86104342339E+01  0.51100000000E-03 0. -1.
        -12    1    3    3    0    0 -0.41134003944E+01  0.15144642675E+02 -0.21094830619E+02  0.26292054758E+02  0.00000000000E+00 0.  1.
</event>
<event>
 7    1  0.1683291E-008  0.4614232E+02  0.7816164E-02  0.1320468E+00
        -11   -1    0    0    0    0  0.00000000000E+00  0.00000000000E+00  0.45593999997E+02  0.45594000000E+02  0.51100000000E-03 0.  1.
         11   -1    0    0    0    0 -0.00000000000E+00 -0.00000000000E+00 -0.45593999997E+02  0.45594000000E+02  0.51100000000E-03 0. -1.
    9900012    2    1    2    0    0  0.35725021772E+02 -0.16815099710E+01 -0.27386289842E+02  0.46142317325E+02  0.99999960188E+01 0.  0.
        -12    1    1    2    0    0 -0.35725021772E+02  0.16815099710E+01  0.27386289842E+02  0.45045682675E+02  0.00000000000E+00 0.  1.
         11    1    3    3    0    0  0.11774350631E+02 -0.26275204029E+01 -0.51859742264E+01  0.13131394639E+02  0.51100000000E-03 0. -1.
        -11    1    3    3    0    0  0.19782239154E+02  0.12893234355E+01 -0.15731366090E+02  0.25307611902E+02  0.51100000000E-03 0.  1.
        -12    1    3    3    0    0  0.41684319871E+01 -0.34331300362E+00 -0.64689495260E+01  0.77033107830E+01  0.00000000000E+00 0.  1.
</event>
<event>
 7    1  0.1683291E-008  0.4614232E+02  0.7816164E-02  0.1320468E+00
        -11   -1    0    0    0    0  0.00000000000E+00  0.00000000000E+00  0.45593999997E+02  0.45594000000E+02  0.51100000000E-03 0. -1.
         11   -1    0    0    0    0 -0.00000000000E+00 -0.00000000000E+00 -0.45593999997E+02  0.45594000000E+02  0.51100000000E-03 0.  1.
    9900012    2    1    2    0    0  0.19052451833E+02 -0.34156062162E+02  0.22349071139E+02  0.46142317809E+02  0.10000000438E+02 0.  0.
        -12    1    1    2    0    0 -0.19052451833E+02  0.34156062162E+02 -0.22349071139E+02  0.45045682191E+02  0.00000000000E+00 0.  1.
         11    1    3    3    0    0  0.60897603041E+01 -0.78192842646E+01  0.67049746901E+01  0.11965912954E+02  0.51100000000E-03 0. -1.
        -11    1    3    3    0    0  0.14864742069E+01 -0.73372030608E+00 -0.59158241619E+00  0.17600912112E+01  0.51100000000E-03 0.  1.
         12    1    3    3    0    0  0.11476217322E+02 -0.25603057591E+02  0.16235678865E+02  0.32416313644E+02  0.00000000000E+00 0. -1.
</event>
<event>
 7    1  0.1683291E-008  0.4614232E+02  0.7816164E-02  0.1320468E+00
        -11   -1    0    0    0    0  0.00000000000E+00  0.00000000000E+00  0.45593999997E+02  0.45594000000E+02  0.51100000000E-03 0.  1.
         11   -1    0    0    0    0 -0.00000000000E+00 -0.00000000000E+00 -0.45593999997E+02  0.45594000000E+02  0.51100000000E-03 0. -1.
    9900012    2    1    2    0    0 -0.28920222243E+02 -0.19883809731E+02 -0.28237711746E+02  0.46142317536E+02  0.99999979467E+01 0.  0.
        -12    1    1    2    0    0  0.28920222243E+02  0.19883809731E+02  0.28237711746E+02  0.45045682464E+02  0.00000000000E+00 0.  1.
         11    1    3    3    0    0 -0.75711768572E+01 -0.63341980446E+01 -0.13697845648E+02  0.16884186671E+02  0.51100000000E-03 0. -1.
        -11    1    3    3    0    0 -0.12749027280E+02 -0.93355810645E+01 -0.86340980132E+01  0.18006621537E+02  0.51100000000E-03 0.  1.
         12    1    3    3    0    0 -0.86000181053E+01 -0.42140306223E+01 -0.59057680842E+01  0.11251509328E+02  0.00000000000E+00 0. -1.
</event>
<event>
 7    1  0.1683291E-008  0.4614232E+02  0.7816164E-02  0.1320468E+00
        -11   -1    0    0    0    0  0.00000000000E+00  0.00000000000E+00  0.45593999997E+02  0.45594000000E+02  0.51100000000E-03 0. -1.
         11   -1    0    0    0    0 -0.00000000000E+00 -0.00000000000E+00 -0.45593999997E+02  0.45594000000E+02  0.51100000000E-03 0.  1.
    9900012    2    1    2    0    0  0.30463847847E+01  0.44678024606E+02  0.48689955649E+01  0.46142318067E+02  0.10000002791E+02 0.  0.
        -12    1    1    2    0    0 -0.30463847847E+01 -0.44678024606E+02 -0.48689955649E+01  0.45045681933E+02  0.00000000000E+00 0.  1.
         11    1    3    3    0    0  0.36605195041E+01  0.15750578641E+02  0.26617018156E+00  0.16172537754E+02  0.51100000000E-03 0. -1.
        -11    1    3    3    0    0 -0.14846468916E+01  0.13055681513E+01  0.38489700077E+00  0.20141575293E+01  0.51100000000E-03 0.  1.
        -12    1    3    3    0    0  0.87051217219E+00  0.27621877814E+02  0.42179283825E+01  0.27955622784E+02  0.00000000000E+00 0.  1.
</event>
<event>
 7    1  0.1683291E-008  0.4614232E+02  0.7816164E-02  0.1320468E+00
        -11   -1    0    0    0    0  0.00000000000E+00  0.00000000000E+00  0.45593999997E+02  0.45594000000E+02  0.51100000000E-03 0. -1.
         11   -1    0    0    0    0 -0.00000000000E+00 -0.00000000000E+00 -0.45593999997E+02  0.45594000000E+02  0.51100000000E-03 0.  1.
    9900012    2    1    2    0    0 -0.98096735205E+01 -0.18300787516E+02  0.39974555053E+02  0.46142316855E+02  0.99999917412E+01 0.  0.
        -12    1    1    2    0    0  0.98096735205E+01  0.18300787516E+02 -0.39974555053E+02  0.45045683145E+02  0.00000000000E+00 0.  1.
         11    1    3    3    0    0 -0.68201484938E+01 -0.12586764407E+02  0.28530722143E+02  0.31920889241E+02  0.51100000000E-03 0. -1.
        -11    1    3    3    0    0 -0.43928679233E+01 -0.28958633968E+01  0.65359662877E+01  0.83906000369E+01  0.51100000000E-03 0.  1.
        -12    1    3    3    0    0  0.14033428967E+01 -0.28181597125E+01  0.49078666223E+01  0.58308275770E+01  0.00000000000E+00 0.  1.
</event>
<event>
 7    1  0.1683291E-008  0.4614233E+02  0.7816164E-02  0.1320468E+00
        -11   -1    0    0    0    0  0.00000000000E+00  0.00000000000E+00  0.45593999997E+02  0.45594000000E+02  0.51100000000E-03 0. -1.
         11   -1    0    0    0    0 -0.00000000000E+00 -0.00000000000E+00 -0.45593999997E+02  0.45594000000E+02  0.51100000000E-03 0.  1.
    9900012    2    1    2    0    0  0.90897795102E+01  0.37300038668E+02  0.23562590901E+02  0.46142326887E+02  0.10000083219E+02 0.  0.
        -12    1    1    2    0    0 -0.90897795102E+01 -0.37300038668E+02 -0.23562590901E+02  0.45045673113E+02  0.00000000000E+00 0.  1.
         11    1    3    3    0    0 -0.33936201290E+00  0.11457071370E+02  0.83584322056E+01  0.14186015655E+02  0.51100000000E-03 0. -1.
        -11    1    3    3    0    0  0.77845616383E+01  0.15925913782E+02  0.73102464328E+01  0.19174822890E+02  0.51100000000E-03 0.  1.
        -12    1    3    3    0    0  0.16445798848E+01  0.99170535163E+01  0.78939122626E+01  0.12781488343E+02  0.00000000000E+00 0.  1.
</event>
<event>
 7    1  0.1683291E-008  0.4614232E+02  0.7816164E-02  0.1320468E+00
        -11   -1    0    0    0    0  0.00000000000E+00  0.00000000000E+00  0.45593999997E+02  0.45594000000E+02  0.51100000000E-03 0.  1.
         11   -1    0    0    0    0 -0.00000000000E+00 -0.00000000000E+00 -0.45593999997E+02  0.45594000000E+02  0.51100000000E-03 0. -1.
    9900012    2    1    2    0    0 -0.13731033028E+02  0.77548227721E+01 -0.42195200824E+02  0.46142317445E+02  0.99999971216E+01 0.  0.
        -12    1    1    2    0    0  0.13731033028E+02 -0.77548227721E+01  0.42195200824E+02  0.45045682555E+02  0.00000000000E+00 0.  1.
         11    1    3    3    0    0 -0.57721619285E+01  0.31031865836E+01 -0.15722796228E+02  0.17033905653E+02  0.51100000000E-03 0. -1.
        -11    1    3    3    0    0 -0.65286210755E+00  0.47508173308E+01 -0.10229052407E+02  0.11297345159E+02  0.51100000000E-03 0.  1.
        -12    1    3    3    0    0 -0.73060089914E+01 -0.99181142221E-01 -0.16243352189E+02  0.17811066633E+02  0.00000000000E+00 0.  1.
</event>
<event>
 7    1  0.1683291E-008  0.4614232E+02  0.7816164E-02  0.1320468E+00
        -11   -1    0    0    0    0  0.00000000000E+00  0.00000000000E+00  0.45593999997E+02  0.45594000000E+02  0.51100000000E-03 0. -1.
         11   -1    0    0    0    0 -0.00000000000E+00 -0.00000000000E+00 -0.45593999997E+02  0.45594000000E+02  0.51100000000E-03 0.  1.
    9900012    2    1    2    0    0 -0.36831092616E+02  0.25588463746E+02 -0.42207359584E+01  0.46142317940E+02  0.10000001634E+02 0.  0.
        -12    1    1    2    0    0  0.36831092616E+02 -0.25588463746E+02  0.42207359584E+01  0.45045682060E+02  0.00000000000E+00 0.  1.
         11    1    3    3    0    0 -0.39709718678E+01  0.42018262097E+01 -0.34855353978E+01  0.67507716849E+01  0.51100000000E-03 0. -1.
        -11    1    3    3    0    0 -0.68073748956E+01  0.48416213877E+01  0.13364334997E+01  0.84597698191E+01  0.51100000000E-03 0.  1.
         12    1    3    3    0    0 -0.26052745853E+02  0.16545016149E+02 -0.20716340603E+01  0.30931776436E+02  0.00000000000E+00 0. -1.
</event>
<event>
 7    1  0.1683291E-008  0.4614232E+02  0.7816164E-02  0.1320468E+00
        -11   -1    0    0    0    0  0.00000000000E+00  0.00000000000E+00  0.45593999997E+02  0.45594000000E+02  0.51100000000E-03 0.  1.
         11   -1    0    0    0    0 -0.00000000000E+00 -0.00000000000E+00 -0.45593999997E+02  0.45594000000E+02  0.51100000000E-03 0. -1.
    9900012    2    1    2    0    0 -0.32629996640E+02 -0.65933416423E+01 -0.30346740572E+02  0.46142317653E+02  0.99999990171E+01 0.  0.
        -12    1    1    2    0    0  0.32629996640E+02  0.65933416423E+01  0.30346740572E+02  0.45045682347E+02  0.00000000000E+00 0.  1.
         11    1    3    3    0    0 -0.10521006099E+02 -0.90126113809E+00 -0.14715013211E+02  0.18111749088E+02  0.51100000000E-03 0. -1.
        -11    1    3    3    0    0 -0.21029775599E+02 -0.60802726495E+01 -0.15604240420E+02  0.26883331203E+02  0.51100000000E-03 0.  1.
         12    1    3    3    0    0 -0.10792149423E+01  0.38819214528E+00 -0.27486941087E-01  0.11472373622E+01  0.00000000000E+00 0. -1.
</event>
<event>
 7    1  0.1683291E-008  0.4614231E+02  0.7816164E-02  0.1320468E+00
        -11   -1    0    0    0    0  0.00000000000E+00  0.00000000000E+00  0.45593999997E+02  0.45594000000E+02  0.51100000000E-03 0. -1.
         11   -1    0    0    0    0 -0.00000000000E+00 -0.00000000000E+00 -0.45593999997E+02  0.45594000000E+02  0.51100000000E-03 0.  1.
    9900012    2    1    2    0    0 -0.27517203186E+02  0.32941286320E+02  0.13667085219E+02  0.46142311705E+02  0.99999447759E+01 0.  0.
        -12    1    1    2    0    0  0.27517203186E+02 -0.32941286320E+02 -0.13667085219E+02  0.45045688295E+02  0.00000000000E+00 0.  1.
         11    1    3    3    0    0 -0.10821318228E+02  0.79355054535E+01  0.74490297143E+01  0.15348003745E+02  0.51100000000E-03 0. -1.
        -11    1    3    3    0    0 -0.64010758348E+01  0.99138475715E+01  0.36078623929E+01  0.12339968267E+02  0.51100000000E-03 0.  1.
         12    1    3    3    0    0 -0.10294809123E+02  0.15091933295E+02  0.26101931114E+01  0.18454339694E+02  0.00000000000E+00 0. -1.
</event>
<event>
 7    1  0.1683291E-008  0.4614232E+02  0.7816164E-02  0.1320468E+00
        -11   -1    0    0    0    0  0.00000000000E+00  0.00000000000E+00  0.45593999997E+02  0.45594000000E+02  0.51100000000E-03 0. -1.
         11   -1    0    0    0    0 -0.00000000000E+00 -0.00000000000E+00 -0.45593999997E+02  0.45594000000E+02  0.51100000000E-03 0.  1.
    9900012    2    1    2    0    0  0.43019463740E+02  0.68171017677E+01  0.11487656821E+02  0.46142318784E+02  0.10000009325E+02 0.  0.
        -12    1    1    2    0    0 -0.43019463740E+02 -0.68171017677E+01 -0.11487656821E+02  0.45045681216E+02  0.00000000000E+00 0.  1.
         11    1    3    3    0    0  0.20566098545E+02 -0.36083738066E+00  0.50089771012E+01  0.21170367612E+02  0.51100000000E-03 0. -1.
        -11    1    3    3    0    0  0.13217886311E+02  0.46363173344E+01  0.63816301728E+01  0.15392633331E+02  0.51100000000E-03 0.  1.
        -12    1    3    3    0    0  0.92354788846E+01  0.25416218140E+01  0.97049547089E-01  0.95793178404E+01  0.00000000000E+00 0.  1.
</event>
<event>
 7    1  0.1683291E-008  0.4614232E+02  0.7816164E-02  0.1320468E+00
        -11   -1    0    0    0    0  0.00000000000E+00  0.00000000000E+00  0.45593999997E+02  0.45594000000E+02  0.51100000000E-03 0.  1.
         11   -1    0    0    0    0 -0.00000000000E+00 -0.00000000000E+00 -0.45593999997E+02  0.45594000000E+02  0.51100000000E-03 0. -1.
    9900012    2    1    2    0    0 -0.33728642499E+02 -0.27562910152E+02 -0.11479465603E+02  0.46142317950E+02  0.10000001718E+02 0.  0.
        -12    1    1    2    0    0  0.33728642499E+02  0.27562910152E+02  0.11479465603E+02  0.45045682050E+02  0.00000000000E+00 0.  1.
         11    1    3    3    0    0 -0.15909952450E+02 -0.11054604320E+02 -0.75956581182E+01  0.20809250014E+02  0.51100000000E-03 0. -1.
        -11    1    3    3    0    0 -0.18096835288E+02 -0.16632058882E+02 -0.41523115434E+01  0.24927144271E+02  0.51100000000E-03 0.  1.
        -12    1    3    3    0    0  0.27814524002E+00  0.12375304962E+00  0.26850405824E+00  0.40592366416E+00  0.00000000000E+00 0.  1.
</event>
<event>
 7    1  0.1683291E-008  0.4614232E+02  0.7816164E-02  0.1320468E+00
        -11   -1    0    0    0    0  0.00000000000E+00  0.00000000000E+00  0.45593999997E+02  0.45594000000E+02  0.51100000000E-03 0.  1.
         11   -1    0    0    0    0 -0.00000000000E+00 -0.00000000000E+00 -0.45593999997E+02  0.45594000000E+02  0.51100000000E-03 0. -1.
    9900012    2    1    2    0    0 -0.33350189682E+01  0.38166381957E+02 -0.23692159133E+02  0.46142317992E+02  0.10000002104E+02 0.  0.
        -12    1    1    2    0    0  0.33350189682E+01 -0.38166381957E+02  0.23692159133E+02  0.45045682008E+02  0.00000000000E+00 0.  1.
         11    1    3    3    0    0 -0.41873711319E+01  0.37167760795E+02 -0.24342066960E+02  0.44626368255E+02  0.51100000000E-03 0. -1.
        -11    1    3    3    0    0  0.71149964300E+00  0.10013086685E+01  0.57265497594E+00  0.13552803305E+01  0.51100000000E-03 0.  1.
         12    1    3    3    0    0  0.14085252064E+00 -0.26875059720E-02  0.77252850954E-01  0.16066940667E+00  0.00000000000E+00 0. -1.
</event>
<event>
 7    1  0.1683291E-008  0.4614232E+02  0.7816164E-02  0.1320468E+00
        -11   -1    0    0    0    0  0.00000000000E+00  0.00000000000E+00  0.45593999997E+02  0.45594000000E+02  0.51100000000E-03 0.  1.
         11   -1    0    0    0    0 -0.00000000000E+00 -0.00000000000E+00 -0.45593999997E+02  0.45594000000E+02  0.51100000000E-03 0. -1.
    9900012    2    1    2    0    0  0.41351508431E+01  0.44563694598E+02 -0.51079527459E+01  0.46142317300E+02  0.99999957914E+01 0.  0.
        -12    1    1    2    0    0 -0.41351508431E+01 -0.44563694598E+02  0.51079527459E+01  0.45045682700E+02  0.00000000000E+00 0.  1.
         11    1    3    3    0    0  0.50728811906E+00  0.67619727752E+01 -0.41919394079E+01  0.79720745925E+01  0.51100000000E-03 0. -1.
        -11    1    3    3    0    0  0.29167847368E+01  0.36295382935E+02 -0.36005726276E+00  0.36414174399E+02  0.51100000000E-03 0.  1.
         12    1    3    3    0    0  0.71107798725E+00  0.15063388870E+01 -0.55595607528E+00  0.17560683085E+01  0.00000000000E+00 0. -1.
</event>
<event>
 7    1  0.1683291E-008  0.4614232E+02  0.7816164E-02  0.1320468E+00
        -11   -1    0    0    0    0  0.00000000000E+00  0.00000000000E+00  0.45593999997E+02  0.45594000000E+02  0.51100000000E-03 0.  1.
         11   -1    0    0    0    0 -0.00000000000E+00 -0.00000000000E+00 -0.45593999997E+02  0.45594000000E+02  0.51100000000E-03 0. -1.
    9900012    2    1    2    0    0 -0.71324077534E+01  0.26316200055E+01 -0.44399512068E+02  0.46142319451E+02  0.10000015411E+02 0.  0.
        -12    1    1    2    0    0  0.71324077534E+01 -0.26316200055E+01  0.44399512068E+02  0.45045680549E+02  0.00000000000E+00 0.  1.
         11    1    3    3    0    0 -0.50415189475E+01 -0.10242641894E+01 -0.12457739539E+02  0.13478178850E+02  0.51100000000E-03 0. -1.
        -11    1    3    3    0    0  0.13980211072E+01 -0.39255238505E+00 -0.55605946297E+01  0.57470664942E+01  0.51100000000E-03 0.  1.
        -12    1    3    3    0    0 -0.34889099131E+01  0.40484365799E+01 -0.26381177899E+02  0.26917074107E+02  0.00000000000E+00 0.  1.
</event>
<event>
 7    1  0.1683291E-008  0.4614232E+02  0.7816164E-02  0.1320468E+00
        -11   -1    0    0    0    0  0.00000000000E+00  0.00000000000E+00  0.45593999997E+02  0.45594000000E+02  0.51100000000E-03 0. -1.
         11   -1    0    0    0    0 -0.00000000000E+00 -0.00000000000E+00 -0.45593999997E+02  0.45594000000E+02  0.51100000000E-03 0.  1.
    9900012    2    1    2    0    0 -0.40496301424E+01  0.39180879471E+02  0.21853421339E+02  0.46142324907E+02  0.10000065158E+02 0.  0.
        -12    1    1    2    0    0  0.40496301424E+01 -0.39180879471E+02 -0.21853421339E+02  0.45045675093E+02  0.00000000000E+00 0.  1.
         11    1    3    3    0    0  0.26437790881E+00  0.12980383446E+02  0.10628322423E+02  0.16778602084E+02  0.51100000000E-03 0. -1.
        -11    1    3    3    0    0 -0.56553024961E+01  0.21073074221E+02  0.86430709707E+01  0.23468267502E+02  0.51100000000E-03 0.  1.
        -12    1    3    3    0    0  0.13412944449E+01  0.51274218032E+01  0.25820279455E+01  0.58954553215E+01  0.00000000000E+00 0.  1.
</event>
<event>
 7    1  0.1683291E-008  0.4614232E+02  0.7816164E-02  0.1320468E+00
        -11   -1    0    0    0    0  0.00000000000E+00  0.00000000000E+00  0.45593999997E+02  0.45594000000E+02  0.51100000000E-03 0.  1.
         11   -1    0    0    0    0 -0.00000000000E+00 -0.00000000000E+00 -0.45593999997E+02  0.45594000000E+02  0.51100000000E-03 0. -1.
    9900012    2    1    2    0    0 -0.18637020856E+02  0.10723010952E+02 -0.39582723209E+02  0.46142317778E+02  0.10000000152E+02 0.  0.
        -12    1    1    2    0    0  0.18637020856E+02 -0.10723010952E+02  0.39582723209E+02  0.45045682222E+02  0.00000000000E+00 0.  1.
         11    1    3    3    0    0 -0.58380958939E+01 -0.79878769307E+00 -0.14395204448E+02  0.15554527855E+02  0.51100000000E-03 0. -1.
        -11    1    3    3    0    0 -0.17210707403E+01  0.68573608970E+00 -0.24462241322E+01  0.30686041198E+01  0.51100000000E-03 0.  1.
         12    1    3    3    0    0 -0.11077854221E+02  0.10836062556E+02 -0.22741294629E+02  0.27519185803E+02  0.00000000000E+00 0. -1.
</event>
<event>
 7    1  0.1683291E-008  0.4614232E+02  0.7816164E-02  0.1320468E+00
        -11   -1    0    0    0    0  0.00000000000E+00  0.00000000000E+00  0.45593999997E+02  0.45594000000E+02  0.51100000000E-03 0.  1.
         11   -1    0    0    0    0 -0.00000000000E+00 -0.00000000000E+00 -0.45593999997E+02  0.45594000000E+02  0.51100000000E-03 0. -1.
    9900012    2    1    2    0    0 -0.20257225045E+02  0.43480176432E+01 -0.39998163329E+02  0.46142317703E+02  0.99999994711E+01 0.  0.
        -12    1    1    2    0    0  0.20257225045E+02 -0.43480176432E+01  0.39998163329E+02  0.45045682297E+02  0.00000000000E+00 0.  1.
         11    1    3    3    0    0 -0.88203074281E+01  0.32207048911E+01 -0.24973063144E+02  0.26680042094E+02  0.51100000000E-03 0. -1.
        -11    1    3    3    0    0 -0.16297037325E+00  0.69419149402E+00 -0.25241653202E+01  0.26229510094E+01  0.51100000000E-03 0.  1.
         12    1    3    3    0    0 -0.11273947243E+02  0.43312125810E+00 -0.12500934865E+02  0.16839324599E+02  0.00000000000E+00 0. -1.
</event>
<event>
 7    1  0.1683291E-008  0.4614232E+02  0.7816164E-02  0.1320468E+00
        -11   -1    0    0    0    0  0.00000000000E+00  0.00000000000E+00  0.45593999997E+02  0.45594000000E+02  0.51100000000E-03 0. -1.
         11   -1    0    0    0    0 -0.00000000000E+00 -0.00000000000E+00 -0.45593999997E+02  0.45594000000E+02  0.51100000000E-03 0.  1.
    9900012    2    1    2    0    0 -0.20140998836E+02  0.23796027843E+02  0.32514653659E+02  0.46142317879E+02  0.10000001071E+02 0.  0.
        -12    1    1    2    0    0  0.20140998836E+02 -0.23796027843E+02 -0.32514653659E+02  0.45045682121E+02  0.00000000000E+00 0.  1.
         11    1    3    3    0    0 -0.31761944714E+01  0.69689349283E+01  0.93749856846E+01  0.12105561623E+02  0.51100000000E-03 0. -1.
        -11    1    3    3    0    0 -0.25174524484E+01  0.65585014961E+01  0.86481889069E+01  0.11141933420E+02  0.51100000000E-03 0.  1.
        -12    1    3    3    0    0 -0.14447351917E+02  0.10268591418E+02  0.14491479067E+02  0.22894822836E+02  0.00000000000E+00 0.  1.
</event>
<event>
 7    1  0.1960421E-008  0.4614232E+02  0.7816164E-02  0.1320468E+00
        -11   -1    0    0    0    0  0.00000000000E+00  0.00000000000E+00  0.45593999997E+02  0.45594000000E+02  0.51100000000E-03 0.  1.
         11   -1    0    0    0    0 -0.00000000000E+00 -0.00000000000E+00 -0.45593999997E+02  0.45594000000E+02  0.51100000000E-03 0. -1.
    9900012    2    1    2    0    0  0.35439278632E+02 -0.25197430117E+02 -0.11758416074E+02  0.46142319818E+02  0.10000018760E+02 0.  0.
        -12    1    1    2    0    0 -0.35439278632E+02  0.25197430117E+02  0.11758416074E+02  0.45045680182E+02  0.00000000000E+00 0.  1.
         11    1    3    3    0    0  0.12209401010E+02 -0.10087476096E+02 -0.56059480890E+00  0.15847426094E+02  0.51100000000E-03 0. -1.
        -11    1    3    3    0    0  0.14509468603E+01 -0.19661177000E+01 -0.22718652505E+01  0.33365007986E+01  0.51100000000E-03 0.  1.
         12    1    3    3    0    0  0.21778930762E+02 -0.13143836321E+02 -0.89259560143E+01  0.26958392926E+02  0.00000000000E+00 0. -1.
</event>
<event>
 7    1  0.1683291E-008  0.4614232E+02  0.7816164E-02  0.1320468E+00
        -11   -1    0    0    0    0  0.00000000000E+00  0.00000000000E+00  0.45593999997E+02  0.45594000000E+02  0.51100000000E-03 0.  1.
         11   -1    0    0    0    0 -0.00000000000E+00 -0.00000000000E+00 -0.45593999997E+02  0.45594000000E+02  0.51100000000E-03 0. -1.
    9900012    2    1    2    0    0  0.12014576992E+02 -0.10891439355E+01 -0.43400197844E+02  0.46142317990E+02  0.10000002090E+02 0.  0.
        -12    1    1    2    0    0 -0.12014576992E+02  0.10891439355E+01  0.43400197844E+02  0.45045682010E+02  0.00000000000E+00 0.  1.
         11    1    3    3    0    0  0.28675576856E+01 -0.17181665805E+01 -0.16996594060E+02  0.17322216757E+02  0.51100000000E-03 0. -1.
        -11    1    3    3    0    0  0.72951485816E+01  0.34251533606E+01 -0.20549894823E+02  0.22073718442E+02  0.51100000000E-03 0.  1.
        -12    1    3    3    0    0  0.18518707248E+01 -0.27961307157E+01 -0.58537089613E+01  0.67463827911E+01  0.00000000000E+00 0.  1.
</event>
<event>
 7    1  0.1683291E-008  0.4614232E+02  0.7816164E-02  0.1320468E+00
        -11   -1    0    0    0    0  0.00000000000E+00  0.00000000000E+00  0.45593999997E+02  0.45594000000E+02  0.51100000000E-03 0.  1.
         11   -1    0    0    0    0 -0.00000000000E+00 -0.00000000000E+00 -0.45593999997E+02  0.45594000000E+02  0.51100000000E-03 0. -1.
    9900012    2    1    2    0    0 -0.32579653055E+01 -0.10323787791E+02 -0.43725490838E+02  0.46142317840E+02  0.10000000715E+02 0.  0.
        -12    1    1    2    0    0  0.32579653055E+01  0.10323787791E+02  0.43725490838E+02  0.45045682160E+02  0.00000000000E+00 0.  1.
         11    1    3    3    0    0 -0.18018639717E+01 -0.40614584362E+01 -0.15803971982E+02  0.16416689346E+02  0.51100000000E-03 0. -1.
        -11    1    3    3    0    0 -0.18149653820E+00 -0.70511076602E+01 -0.13547782776E+02  0.15273947710E+02  0.51100000000E-03 0.  1.
        -12    1    3    3    0    0 -0.12746047956E+01  0.78877830518E+00 -0.14373736080E+02  0.14451680784E+02  0.00000000000E+00 0.  1.
</event>
<event>
 7    1  0.1683291E-008  0.4614232E+02  0.7816164E-02  0.1320468E+00
        -11   -1    0    0    0    0  0.00000000000E+00  0.00000000000E+00  0.45593999997E+02  0.45594000000E+02  0.51100000000E-03 0.  1.
         11   -1    0    0    0    0 -0.00000000000E+00 -0.00000000000E+00 -0.45593999997E+02  0.45594000000E+02  0.51100000000E-03 0. -1.
    9900012    2    1    2    0    0  0.42885759124E+02  0.60265408383E+01 -0.12393787891E+02  0.46142317539E+02  0.99999979705E+01 0.  0.
        -12    1    1    2    0    0 -0.42885759124E+02 -0.60265408383E+01  0.12393787891E+02  0.45045682461E+02  0.00000000000E+00 0.  1.
         11    1    3    3    0    0  0.53111217285E+01  0.10008918186E+01  0.10805321360E+01  0.55115649688E+01  0.51100000000E-03 0. -1.
        -11    1    3    3    0    0  0.33161497051E+02  0.39112822680E+01 -0.13655004396E+02  0.36075506386E+02  0.51100000000E-03 0.  1.
        -12    1    3    3    0    0  0.44131403441E+01  0.11143667518E+01  0.18068436899E+00  0.45552461839E+01  0.00000000000E+00 0.  1.
</event>
<event>
 7    1  0.1683291E-008  0.4614232E+02  0.7816164E-02  0.1320468E+00
        -11   -1    0    0    0    0  0.00000000000E+00  0.00000000000E+00  0.45593999997E+02  0.45594000000E+02  0.51100000000E-03 0.  1.
         11   -1    0    0    0    0 -0.00000000000E+00 -0.00000000000E+00 -0.45593999997E+02  0.45594000000E+02  0.51100000000E-03 0. -1.
    9900012    2    1    2    0    0 -0.58095542819E+01 -0.27314844605E+02 -0.35344895661E+02  0.46142319785E+02  0.10000018456E+02 0.  0.
        -12    1    1    2    0    0  0.58095542819E+01  0.27314844605E+02  0.35344895661E+02  0.45045680215E+02  0.00000000000E+00 0.  1.
         11    1    3    3    0    0  0.56971837283E+00 -0.39265842295E+00 -0.21364212684E+01  0.22456749005E+01  0.51100000000E-03 0. -1.
        -11    1    3    3    0    0 -0.27071045689E+01 -0.30266815336E+01 -0.23364634294E+01  0.46848989179E+01  0.51100000000E-03 0.  1.
         12    1    3    3    0    0 -0.36721680858E+01 -0.23895504648E+02 -0.30872010963E+02  0.39211745967E+02  0.00000000000E+00 0. -1.
</event>
<event>
 7    1  0.1683291E-008  0.4614232E+02  0.7816164E-02  0.1320468E+00
        -11   -1    0    0    0    0  0.00000000000E+00  0.00000000000E+00  0.45593999997E+02  0.45594000000E+02  0.51100000000E-03 0.  1.
         11   -1    0    0    0    0 -0.00000000000E+00 -0.00000000000E+00 -0.45593999997E+02  0.45594000000E+02  0.51100000000E-03 0. -1.
    9900012    2    1    2    0    0  0.16266537318E+02 -0.34297744460E+02 -0.24252379985E+02  0.46142318228E+02  0.10000004256E+02 0.  0.
        -12    1    1    2    0    0 -0.16266537318E+02  0.34297744460E+02  0.24252379985E+02  0.45045681772E+02  0.00000000000E+00 0.  1.
         11    1    3    3    0    0  0.94107026758E+01 -0.11849325622E+02 -0.84200617886E+01  0.17316618703E+02  0.51100000000E-03 0. -1.
        -11    1    3    3    0    0  0.37924111769E+01 -0.12116787781E+02 -0.53029936735E+01  0.13759384828E+02  0.51100000000E-03 0.  1.
         12    1    3    3    0    0  0.30634234653E+01 -0.10331631057E+02 -0.10529324523E+02  0.15066314697E+02  0.00000000000E+00 0. -1.
</event>
<event>
 7    1  0.1683291E-008  0.4614232E+02  0.7816164E-02  0.1320468E+00
        -11   -1    0    0    0    0  0.00000000000E+00  0.00000000000E+00  0.45593999997E+02  0.45594000000E+02  0.51100000000E-03 0. -1.
         11   -1    0    0    0    0 -0.00000000000E+00 -0.00000000000E+00 -0.45593999997E+02  0.45594000000E+02  0.51100000000E-03 0.  1.
    9900012    2    1    2    0    0  0.86439105000E+01  0.17841404412E+02  0.40448495368E+02  0.46142315660E+02  0.99999808441E+01 0.  0.
        -12    1    1    2    0    0 -0.86439105000E+01 -0.17841404412E+02 -0.40448495368E+02  0.45045684340E+02  0.00000000000E+00 0.  1.
         11    1    3    3    0    0  0.11361600722E+01  0.71506864837E+01  0.14624332514E+02  0.16318525627E+02  0.51100000000E-03 0.  1.
        -11    1    3    3    0    0  0.57442840122E+01  0.86262439032E+01  0.12556250078E+02  0.16280918248E+02  0.51100000000E-03 0. -1.
        -12    1    3    3    0    0  0.17634664156E+01  0.20644740250E+01  0.13267912775E+02  0.13542871786E+02  0.00000000000E+00 0.  1.
</event>
<event>
 7    1  0.1683291E-008  0.4614232E+02  0.7816164E-02  0.1320468E+00
        -11   -1    0    0    0    0  0.00000000000E+00  0.00000000000E+00  0.45593999997E+02  0.45594000000E+02  0.51100000000E-03 0.  1.
         11   -1    0    0    0    0 -0.00000000000E+00 -0.00000000000E+00 -0.45593999997E+02  0.45594000000E+02  0.51100000000E-03 0. -1.
    9900012    2    1    2    0    0 -0.36518638225E+02 -0.24018505840E+02 -0.10891001287E+02  0.46142317969E+02  0.10000001896E+02 0.  0.
        -12    1    1    2    0    0  0.36518638225E+02  0.24018505840E+02  0.10891001287E+02  0.45045682031E+02  0.00000000000E+00 0.  1.
         11    1    3    3    0    0 -0.46396576851E+01 -0.47544564628E+01 -0.35193578998E+01  0.75177895674E+01  0.51100000000E-03 0. -1.
        -11    1    3    3    0    0 -0.96779309719E+01 -0.81608509512E+01  0.23766101002E+00  0.12661687058E+02  0.51100000000E-03 0.  1.
        -12    1    3    3    0    0 -0.22201049568E+02 -0.11103198426E+02 -0.76093043974E+01  0.25962841343E+02  0.00000000000E+00 0.  1.
</event>
<event>
 7    1  0.1683291E-008  0.4614232E+02  0.7816164E-02  0.1320468E+00
        -11   -1    0    0    0    0  0.00000000000E+00  0.00000000000E+00  0.45593999997E+02  0.45594000000E+02  0.51100000000E-03 0. -1.
         11   -1    0    0    0    0 -0.00000000000E+00 -0.00000000000E+00 -0.45593999997E+02  0.45594000000E+02  0.51100000000E-03 0.  1.
    9900012    2    1    2    0    0  0.87351538826E+01 -0.33257290695E+02  0.29099195505E+02  0.46142317890E+02  0.10000001174E+02 0.  0.
        -12    1    1    2    0    0 -0.87351538826E+01  0.33257290695E+02 -0.29099195505E+02  0.45045682110E+02  0.00000000000E+00 0.  1.
         11    1    3    3    0    0  0.17655881020E+01 -0.29060726512E+01  0.44812352598E+01  0.56253025976E+01  0.51100000000E-03 0. -1.
        -11    1    3    3    0    0  0.12591679980E+00 -0.18459830341E+02  0.14184978996E+02  0.23280782217E+02  0.51100000000E-03 0.  1.
        -12    1    3    3    0    0  0.68436489808E+01 -0.11891387702E+02  0.10432981249E+02  0.17236233075E+02  0.00000000000E+00 0.  1.
</event>
<event>
 7    1  0.1683291E-008  0.4614232E+02  0.7816164E-02  0.1320468E+00
        -11   -1    0    0    0    0  0.00000000000E+00  0.00000000000E+00  0.45593999997E+02  0.45594000000E+02  0.51100000000E-03 0.  1.
         11   -1    0    0    0    0 -0.00000000000E+00 -0.00000000000E+00 -0.45593999997E+02  0.45594000000E+02  0.51100000000E-03 0. -1.
    9900012    2    1    2    0    0 -0.27971259689E+02 -0.28051242697E+02 -0.21444109637E+02  0.46142318480E+02  0.10000006557E+02 0.  0.
        -12    1    1    2    0    0  0.27971259689E+02  0.28051242697E+02  0.21444109637E+02  0.45045681520E+02  0.00000000000E+00 0.  1.
         11    1    3    3    0    0 -0.17897093897E+02 -0.21145573689E+02 -0.13987316883E+02  0.31033631603E+02  0.51100000000E-03 0. -1.
        -11    1    3    3    0    0 -0.10141494091E+02 -0.65002058521E+01 -0.57403045298E+01  0.13343675463E+02  0.51100000000E-03 0.  1.
         12    1    3    3    0    0  0.67328298521E-01 -0.40546315616E+00 -0.17164882233E+01  0.17650114140E+01  0.00000000000E+00 0. -1.
</event>
<event>
 7    1  0.1683291E-008  0.4614232E+02  0.7816164E-02  0.1320468E+00
        -11   -1    0    0    0    0  0.00000000000E+00  0.00000000000E+00  0.45593999997E+02  0.45594000000E+02  0.51100000000E-03 0.  1.
         11   -1    0    0    0    0 -0.00000000000E+00 -0.00000000000E+00 -0.45593999997E+02  0.45594000000E+02  0.51100000000E-03 0. -1.
    9900012    2    1    2    0    0  0.15418446100E+02  0.41042397753E+02 -0.10339563249E+02  0.46142318058E+02  0.10000002708E+02 0.  0.
        -12    1    1    2    0    0 -0.15418446100E+02 -0.41042397753E+02  0.10339563249E+02  0.45045681942E+02  0.00000000000E+00 0.  1.
         11    1    3    3    0    0  0.53457718780E+01  0.94820499745E+01 -0.37001153443E+01  0.11496843154E+02  0.51100000000E-03 0. -1.
        -11    1    3    3    0    0  0.43288351385E+01  0.49695053250E+01 -0.28435958018E+01  0.71778014863E+01  0.51100000000E-03 0.  1.
        -12    1    3    3    0    0  0.57438390835E+01  0.26590842453E+02 -0.37958521025E+01  0.27467673418E+02  0.00000000000E+00 0.  1.
</event>
<event>
 7    1  0.1683291E-008  0.4614232E+02  0.7816164E-02  0.1320468E+00
        -11   -1    0    0    0    0  0.00000000000E+00  0.00000000000E+00  0.45593999997E+02  0.45594000000E+02  0.51100000000E-03 0.  1.
         11   -1    0    0    0    0 -0.00000000000E+00 -0.00000000000E+00 -0.45593999997E+02  0.45594000000E+02  0.51100000000E-03 0. -1.
    9900012    2    1    2    0    0  0.12285230715E+02 -0.42211080956E+02 -0.98189223313E+01  0.46142317800E+02  0.10000000350E+02 0.  0.
        -12    1    1    2    0    0 -0.12285230715E+02  0.42211080956E+02  0.98189223313E+01  0.45045682200E+02  0.00000000000E+00 0.  1.
         11    1    3    3    0    0  0.72845210245E+00 -0.91459846376E+01 -0.39170509763E+01  0.99761197902E+01  0.51100000000E-03 0. -1.
        -11    1    3    3    0    0  0.81491758646E+01 -0.29743255234E+02 -0.59448139044E+01  0.31407182488E+02  0.51100000000E-03 0.  1.
        -12    1    3    3    0    0  0.34076027477E+01 -0.33218410838E+01  0.42942549361E-01  0.47590155216E+01  0.00000000000E+00 0.  1.
</event>
<event>
 7    1  0.1683291E-008  0.4614232E+02  0.7816164E-02  0.1320468E+00
        -11   -1    0    0    0    0  0.00000000000E+00  0.00000000000E+00  0.45593999997E+02  0.45594000000E+02  0.51100000000E-03 0.  1.
         11   -1    0    0    0    0 -0.00000000000E+00 -0.00000000000E+00 -0.45593999997E+02  0.45594000000E+02  0.51100000000E-03 0. -1.
    9900012    2    1    2    0    0  0.27412362792E+02  0.92426041245E-01 -0.35744472103E+02  0.46142318051E+02  0.10000002640E+02 0.  0.
        -12    1    1    2    0    0 -0.27412362792E+02 -0.92426041245E-01  0.35744472103E+02  0.45045681949E+02  0.00000000000E+00 0.  1.
         11    1    3    3    0    0  0.12202378996E+01  0.64380039762E+00 -0.95810156988E-01  0.13829820429E+01  0.51100000000E-03 0. -1.
        -11    1    3    3    0    0  0.30642542780E+01 -0.12440050240E+01 -0.18210527768E+01  0.37753723335E+01  0.51100000000E-03 0.  1.
         12    1    3    3    0    0  0.23127870614E+02  0.69263066761E+00 -0.33827609169E+02  0.40983963674E+02  0.00000000000E+00 0. -1.
</event>
<event>
 7    1  0.1683291E-008  0.4614232E+02  0.7816164E-02  0.1320468E+00
        -11   -1    0    0    0    0  0.00000000000E+00  0.00000000000E+00  0.45593999997E+02  0.45594000000E+02  0.51100000000E-03 0. -1.
         11   -1    0    0    0    0 -0.00000000000E+00 -0.00000000000E+00 -0.45593999997E+02  0.45594000000E+02  0.51100000000E-03 0.  1.
    9900012    2    1    2    0    0 -0.50933305087E+00 -0.12623638584E+02  0.43237688536E+02  0.46142318951E+02  0.10000010848E+02 0.  0.
        -12    1    1    2    0    0  0.50933305087E+00  0.12623638584E+02 -0.43237688536E+02  0.45045681049E+02  0.00000000000E+00 0.  1.
         11    1    3    3    0    0 -0.30104922213E+01 -0.97414836240E+00  0.40060951076E+01  0.51049805797E+01  0.51100000000E-03 0. -1.
        -11    1    3    3    0    0  0.14959821326E+01 -0.45922517953E+01  0.13562163190E+02  0.14396492967E+02  0.51100000000E-03 0.  1.
         12    1    3    3    0    0  0.10051770379E+01 -0.70572384260E+01  0.25669430239E+02  0.26640845405E+02  0.00000000000E+00 0. -1.
</event>
<event>
 7    1  0.1683291E-008  0.4614232E+02  0.7816164E-02  0.1320468E+00
        -11   -1    0    0    0    0  0.00000000000E+00  0.00000000000E+00  0.45593999997E+02  0.45594000000E+02  0.51100000000E-03 0.  1.
         11   -1    0    0    0    0 -0.00000000000E+00 -0.00000000000E+00 -0.45593999997E+02  0.45594000000E+02  0.51100000000E-03 0. -1.
    9900012    2    1    2    0    0  0.87256770766E+01 -0.33467784611E+02  0.28859717719E+02  0.46142319252E+02  0.10000013597E+02 0.  0.
        -12    1    1    2    0    0 -0.87256770766E+01  0.33467784611E+02 -0.28859717719E+02  0.45045680748E+02  0.00000000000E+00 0.  1.
         11    1    3    3    0    0 -0.35535378578E+00 -0.91472740024E+01  0.67167993884E+01  0.11354042992E+02  0.51100000000E-03 0. -1.
        -11    1    3    3    0    0  0.22988499626E+01 -0.11229838971E+02  0.60441468036E+01  0.12958615100E+02  0.51100000000E-03 0.  1.
         12    1    3    3    0    0  0.67821808998E+01 -0.13090671638E+02  0.16098771527E+02  0.21829661160E+02  0.00000000000E+00 0. -1.
</event>
<event>
 7    1  0.1683291E-008  0.4614232E+02  0.7816164E-02  0.1320468E+00
        -11   -1    0    0    0    0  0.00000000000E+00  0.00000000000E+00  0.45593999997E+02  0.45594000000E+02  0.51100000000E-03 0. -1.
         11   -1    0    0    0    0 -0.00000000000E+00 -0.00000000000E+00 -0.45593999997E+02  0.45594000000E+02  0.51100000000E-03 0.  1.
    9900012    2    1    2    0    0  0.35638735196E+02  0.24138597765E+02  0.13278630574E+02  0.46142318982E+02  0.10000011133E+02 0.  0.
        -12    1    1    2    0    0 -0.35638735196E+02 -0.24138597765E+02 -0.13278630574E+02  0.45045681018E+02  0.00000000000E+00 0.  1.
         11    1    3    3    0    0  0.12750041462E+02  0.12962018201E+02  0.70860153375E+01  0.19513817842E+02  0.51100000000E-03 0. -1.
        -11    1    3    3    0    0  0.14228483872E+02  0.89829611077E+01  0.27283177043E+01  0.17046614365E+02  0.51100000000E-03 0.  1.
        -12    1    3    3    0    0  0.86602098621E+01  0.21936184569E+01  0.34642975322E+01  0.95818867757E+01  0.00000000000E+00 0.  1.
</event>
<event>
 7    1  0.1683291E-008  0.4614232E+02  0.7816164E-02  0.1320468E+00
        -11   -1    0    0    0    0  0.00000000000E+00  0.00000000000E+00  0.45593999997E+02  0.45594000000E+02  0.51100000000E-03 0. -1.
         11   -1    0    0    0    0 -0.00000000000E+00 -0.00000000000E+00 -0.45593999997E+02  0.45594000000E+02  0.51100000000E-03 0.  1.
    9900012    2    1    2    0    0 -0.40230208871E+02 -0.15613597579E+02  0.12917404624E+02  0.46142317883E+02  0.10000001112E+02 0.  0.
        -12    1    1    2    0    0  0.40230208871E+02  0.15613597579E+02 -0.12917404624E+02  0.45045682117E+02  0.00000000000E+00 0.  1.
         11    1    3    3    0    0 -0.15362336207E+02 -0.32755809156E+01  0.58165543280E+01  0.16750018167E+02  0.51100000000E-03 0. -1.
        -11    1    3    3    0    0 -0.23266191861E+00 -0.16047656667E+01  0.10614958679E+00  0.16250145874E+01  0.51100000000E-03 0.  1.
         12    1    3    3    0    0 -0.24635210745E+02 -0.10733250997E+02  0.69947007087E+01  0.27767285129E+02  0.00000000000E+00 0. -1.
</event>
<event>
 7    1  0.1683291E-008  0.4614232E+02  0.7816164E-02  0.1320468E+00
        -11   -1    0    0    0    0  0.00000000000E+00  0.00000000000E+00  0.45593999997E+02  0.45594000000E+02  0.51100000000E-03 0.  1.
         11   -1    0    0    0    0 -0.00000000000E+00 -0.00000000000E+00 -0.45593999997E+02  0.45594000000E+02  0.51100000000E-03 0. -1.
    9900012    2    1    2    0    0 -0.37005474715E+02  0.21833842717E+02 -0.13527438086E+02  0.46142318433E+02  0.10000006127E+02 0.  0.
        -12    1    1    2    0    0  0.37005474715E+02 -0.21833842717E+02  0.13527438086E+02  0.45045681567E+02  0.00000000000E+00 0.  1.
         11    1    3    3    0    0 -0.13497658737E+02  0.79681783165E+01 -0.93213706702E+00  0.15701832277E+02  0.51100000000E-03 0. -1.
        -11    1    3    3    0    0 -0.12601394273E+02  0.73117072772E+01 -0.93423184014E+01  0.17307082779E+02  0.51100000000E-03 0.  1.
         12    1    3    3    0    0 -0.10906421704E+02  0.65539571231E+01 -0.32529826178E+01  0.13133403377E+02  0.00000000000E+00 0. -1.
</event>
<event>
 7    1  0.1683291E-008  0.4614232E+02  0.7816164E-02  0.1320468E+00
        -11   -1    0    0    0    0  0.00000000000E+00  0.00000000000E+00  0.45593999997E+02  0.45594000000E+02  0.51100000000E-03 0.  1.
         11   -1    0    0    0    0 -0.00000000000E+00 -0.00000000000E+00 -0.45593999997E+02  0.45594000000E+02  0.51100000000E-03 0. -1.
    9900012    2    1    2    0    0  0.44550249760E+01 -0.52837106454E+01 -0.44512341612E+02  0.46142318726E+02  0.10000008796E+02 0.  0.
        -12    1    1    2    0    0 -0.44550249760E+01  0.52837106454E+01  0.44512341612E+02  0.45045681274E+02  0.00000000000E+00 0.  1.
         11    1    3    3    0    0 -0.86237542562E+00 -0.51126113246E+01 -0.33232603666E+02  0.33634631447E+02  0.51100000000E-03 0. -1.
        -11    1    3    3    0    0  0.32692657426E+01 -0.49343004651E+00 -0.75051597006E+01  0.82011580950E+01  0.51100000000E-03 0.  1.
         12    1    3    3    0    0  0.20481346591E+01  0.32233072573E+00 -0.37745782453E+01  0.43065291834E+01  0.00000000000E+00 0. -1.
</event>
<event>
 7    1  0.1683291E-008  0.4614232E+02  0.7816164E-02  0.1320468E+00
        -11   -1    0    0    0    0  0.00000000000E+00  0.00000000000E+00  0.45593999997E+02  0.45594000000E+02  0.51100000000E-03 0. -1.
         11   -1    0    0    0    0 -0.00000000000E+00 -0.00000000000E+00 -0.45593999997E+02  0.45594000000E+02  0.51100000000E-03 0.  1.
    9900012    2    1    2    0    0  0.13510651776E+02 -0.42839039995E+02  0.33752675196E+01  0.46142317744E+02  0.99999998397E+01 0.  0.
        -12    1    1    2    0    0 -0.13510651776E+02  0.42839039995E+02 -0.33752675196E+01  0.45045682256E+02  0.00000000000E+00 0.  1.
         11    1    3    3    0    0  0.39367222044E+01 -0.91017384147E+01  0.24964482573E+01  0.10226029437E+02  0.51100000000E-03 0. -1.
        -11    1    3    3    0    0  0.74427086791E+01 -0.32665953719E+02  0.10963233789E+01  0.33521043690E+02  0.51100000000E-03 0.  1.
        -12    1    3    3    0    0  0.21312208923E+01 -0.10713478616E+01 -0.21750411658E+00  0.23952446166E+01  0.00000000000E+00 0.  1.
</event>
<event>
 7    1  0.1683291E-008  0.4614232E+02  0.7816164E-02  0.1320468E+00
        -11   -1    0    0    0    0  0.00000000000E+00  0.00000000000E+00  0.45593999997E+02  0.45594000000E+02  0.51100000000E-03 0. -1.
         11   -1    0    0    0    0 -0.00000000000E+00 -0.00000000000E+00 -0.45593999997E+02  0.45594000000E+02  0.51100000000E-03 0.  1.
    9900012    2    1    2    0    0  0.45497203546E+00  0.19401392216E+02  0.40650860463E+02  0.46142317900E+02  0.10000001265E+02 0.  0.
        -12    1    1    2    0    0 -0.45497203546E+00 -0.19401392216E+02 -0.40650860463E+02  0.45045682100E+02  0.00000000000E+00 0.  1.
         11    1    3    3    0    0 -0.40619067500E+01  0.10228291974E+02  0.19692775926E+02  0.22559309987E+02  0.51100000000E-03 0. -1.
        -11    1    3    3    0    0  0.23829051223E+01  0.77973618905E+01  0.14359363835E+02  0.16512674504E+02  0.51100000000E-03 0.  1.
        -12    1    3    3    0    0  0.21339736632E+01  0.13757383515E+01  0.65987207021E+01  0.70703334088E+01  0.00000000000E+00 0.  1.
</event>
<event>
 7    1  0.1683291E-008  0.4614232E+02  0.7816164E-02  0.1320468E+00
        -11   -1    0    0    0    0  0.00000000000E+00  0.00000000000E+00  0.45593999997E+02  0.45594000000E+02  0.51100000000E-03 0. -1.
         11   -1    0    0    0    0 -0.00000000000E+00 -0.00000000000E+00 -0.45593999997E+02  0.45594000000E+02  0.51100000000E-03 0.  1.
    9900012    2    1    2    0    0  0.47613176624E+01 -0.32084793032E+02  0.31257151039E+02  0.46142316734E+02  0.99999906360E+01 0.  0.
        -12    1    1    2    0    0 -0.47613176624E+01  0.32084793032E+02 -0.31257151039E+02  0.45045683266E+02  0.00000000000E+00 0.  1.
         11    1    3    3    0    0  0.36047958957E+01 -0.22967511064E+02  0.19932546143E+02  0.30623643055E+02  0.51100000000E-03 0. -1.
        -11    1    3    3    0    0  0.14773423009E+01 -0.21277646903E+01  0.65618388587E+01  0.70546192187E+01  0.51100000000E-03 0.  1.
        -12    1    3    3    0    0 -0.32082053416E+00 -0.69895172779E+01  0.47627660371E+01  0.84640544609E+01  0.00000000000E+00 0.  1.
</event>
<event>
 7    1  0.1683291E-008  0.4614231E+02  0.7816164E-02  0.1320468E+00
        -11   -1    0    0    0    0  0.00000000000E+00  0.00000000000E+00  0.45593999997E+02  0.45594000000E+02  0.51100000000E-03 0.  1.
         11   -1    0    0    0    0 -0.00000000000E+00 -0.00000000000E+00 -0.45593999997E+02  0.45594000000E+02  0.51100000000E-03 0. -1.
    9900012    2    1    2    0    0  0.23792763887E+02 -0.45430206913E+01 -0.37978668815E+02  0.46142312800E+02  0.99999547594E+01 0.  0.
        -12    1    1    2    0    0 -0.23792763887E+02  0.45430206913E+01  0.37978668815E+02  0.45045687200E+02  0.00000000000E+00 0.  1.
         11    1    3    3    0    0  0.58277787551E+01 -0.56009678818E+00 -0.55752817052E+01  0.80845828577E+01  0.51100000000E-03 0. -1.
        -11    1    3    3    0    0  0.11892020695E+02 -0.51259792676E+01 -0.26579328593E+02  0.29566138205E+02  0.51100000000E-03 0.  1.
        -12    1    3    3    0    0  0.60729644368E+01  0.11430553645E+01 -0.58240585166E+01  0.84915917367E+01  0.00000000000E+00 0.  1.
</event>
<event>
 7    1  0.1683291E-008  0.4614232E+02  0.7816164E-02  0.1320468E+00
        -11   -1    0    0    0    0  0.00000000000E+00  0.00000000000E+00  0.45593999997E+02  0.45594000000E+02  0.51100000000E-03 0.  1.
         11   -1    0    0    0    0 -0.00000000000E+00 -0.00000000000E+00 -0.45593999997E+02  0.45594000000E+02  0.51100000000E-03 0. -1.
    9900012    2    1    2    0    0 -0.97991888730E+01  0.16464476803E+02 -0.40767762819E+02  0.46142316697E+02  0.99999902955E+01 0.  0.
        -12    1    1    2    0    0  0.97991888730E+01 -0.16464476803E+02  0.40767762819E+02  0.45045683303E+02  0.00000000000E+00 0.  1.
         11    1    3    3    0    0 -0.90496574046E+00  0.68545310195E+01 -0.22161847770E+02  0.23215319410E+02  0.51100000000E-03 0. -1.
        -11    1    3    3    0    0 -0.60477247469E+01  0.82830132929E+01 -0.14271710281E+02  0.17574555426E+02  0.51100000000E-03 0.  1.
         12    1    3    3    0    0 -0.28464983857E+01  0.13269324905E+01 -0.43342047690E+01  0.53524418608E+01  0.00000000000E+00 0. -1.
</event>
<event>
 7    1  0.1683291E-008  0.4614233E+02  0.7816164E-02  0.1320468E+00
        -11   -1    0    0    0    0  0.00000000000E+00  0.00000000000E+00  0.45593999997E+02  0.45594000000E+02  0.51100000000E-03 0.  1.
         11   -1    0    0    0    0 -0.00000000000E+00 -0.00000000000E+00 -0.45593999997E+02  0.45594000000E+02  0.51100000000E-03 0. -1.
    9900012    2    1    2    0    0 -0.15649728734E+01  0.91733425795E+01 -0.44073952759E+02  0.46142326889E+02  0.10000083239E+02 0.  0.
        -12    1    1    2    0    0  0.15649728734E+01 -0.91733425795E+01  0.44073952759E+02  0.45045673111E+02  0.00000000000E+00 0.  1.
         11    1    3    3    0    0 -0.34103781307E+01  0.27176464591E+01 -0.13311958803E+02  0.14008016587E+02  0.51100000000E-03 0. -1.
        -11    1    3    3    0    0  0.32878888332E+01  0.88032404983E+00 -0.14105063022E+02  0.14509927171E+02  0.51100000000E-03 0.  1.
        -12    1    3    3    0    0 -0.14424835759E+01  0.55753720706E+01 -0.16656930934E+02  0.17624383131E+02  0.00000000000E+00 0.  1.
</event>
<event>
 7    1  0.1683291E-008  0.4614232E+02  0.7816164E-02  0.1320468E+00
        -11   -1    0    0    0    0  0.00000000000E+00  0.00000000000E+00  0.45593999997E+02  0.45594000000E+02  0.51100000000E-03 0.  1.
         11   -1    0    0    0    0 -0.00000000000E+00 -0.00000000000E+00 -0.45593999997E+02  0.45594000000E+02  0.51100000000E-03 0. -1.
    9900012    2    1    2    0    0  0.21465382699E+02  0.19971287090E+02 -0.34197930773E+02  0.46142318391E+02  0.10000005741E+02 0.  0.
        -12    1    1    2    0    0 -0.21465382699E+02 -0.19971287090E+02  0.34197930773E+02  0.45045681609E+02  0.00000000000E+00 0.  1.
         11    1    3    3    0    0  0.37891157987E+01  0.38273424035E+01 -0.68813650917E+01  0.87383713698E+01  0.51100000000E-03 0. -1.
        -11    1    3    3    0    0  0.76531868963E+01  0.12496433425E+02 -0.13290813270E+02  0.19783271611E+02  0.51100000000E-03 0.  1.
        -12    1    3    3    0    0  0.10023080004E+02  0.36475112620E+01 -0.14025752412E+02  0.17620675410E+02  0.00000000000E+00 0.  1.
</event>
<event>
 7    1  0.1683291E-008  0.4614232E+02  0.7816164E-02  0.1320468E+00
        -11   -1    0    0    0    0  0.00000000000E+00  0.00000000000E+00  0.45593999997E+02  0.45594000000E+02  0.51100000000E-03 0.  1.
         11   -1    0    0    0    0 -0.00000000000E+00 -0.00000000000E+00 -0.45593999997E+02  0.45594000000E+02  0.51100000000E-03 0. -1.
    9900012    2    1    2    0    0  0.39747286362E+02 -0.12200402298E+02 -0.17332538259E+02  0.46142317944E+02  0.10000001670E+02 0.  0.
        -12    1    1    2    0    0 -0.39747286362E+02  0.12200402298E+02  0.17332538259E+02  0.45045682056E+02  0.00000000000E+00 0.  1.
         11    1    3    3    0    0  0.13894482183E+02 -0.36690927582E+01 -0.75346097592E+01  0.16226189364E+02  0.51100000000E-03 0. -1.
        -11    1    3    3    0    0  0.11202623818E+02 -0.65737740608E+01 -0.73804313655E+01  0.14939345810E+02  0.51100000000E-03 0.  1.
        -12    1    3    3    0    0  0.14650180361E+02 -0.19575354791E+01 -0.24174971338E+01  0.14976782771E+02  0.00000000000E+00 0.  1.
</event>
<event>
 7    1  0.1683291E-008  0.4614232E+02  0.7816164E-02  0.1320468E+00
        -11   -1    0    0    0    0  0.00000000000E+00  0.00000000000E+00  0.45593999997E+02  0.45594000000E+02  0.51100000000E-03 0. -1.
         11   -1    0    0    0    0 -0.00000000000E+00 -0.00000000000E+00 -0.45593999997E+02  0.45594000000E+02  0.51100000000E-03 0.  1.
    9900012    2    1    2    0    0  0.10521851604E+02  0.38066530559E+02  0.21664334106E+02  0.46142317829E+02  0.10000000623E+02 0.  0.
        -12    1    1    2    0    0 -0.10521851604E+02 -0.38066530559E+02 -0.21664334106E+02  0.45045682171E+02  0.00000000000E+00 0.  1.
         11    1    3    3    0    0  0.24292887073E+01  0.11807124380E+02  0.97175330277E+01  0.15483542171E+02  0.51100000000E-03 0. -1.
        -11    1    3    3    0    0  0.68510222886E+01  0.15959865826E+02  0.10190571764E+02  0.20137069715E+02  0.51100000000E-03 0.  1.
        -12    1    3    3    0    0  0.12415406079E+01  0.10299540352E+02  0.17562293149E+01  0.10521705943E+02  0.00000000000E+00 0.  1.
</event>
<event>
 7    1  0.1683291E-008  0.4614232E+02  0.7816164E-02  0.1320468E+00
        -11   -1    0    0    0    0  0.00000000000E+00  0.00000000000E+00  0.45593999997E+02  0.45594000000E+02  0.51100000000E-03 0. -1.
         11   -1    0    0    0    0 -0.00000000000E+00 -0.00000000000E+00 -0.45593999997E+02  0.45594000000E+02  0.51100000000E-03 0.  1.
    9900012    2    1    2    0    0 -0.36664106077E+02  0.96154462697E+00  0.26152099670E+02  0.46142316970E+02  0.99999927886E+01 0.  0.
        -12    1    1    2    0    0  0.36664106077E+02 -0.96154462697E+00 -0.26152099670E+02  0.45045683030E+02  0.00000000000E+00 0.  1.
         11    1    3    3    0    0 -0.13658811446E+02  0.23313758855E+01  0.11575079227E+02  0.18054941235E+02  0.51100000000E-03 0.  1.
        -11    1    3    3    0    0 -0.99195181133E+01 -0.76164383250E+00  0.24726971186E+01  0.10251398550E+02  0.51100000000E-03 0. -1.
         12    1    3    3    0    0 -0.13085776517E+02 -0.60818742602E+00  0.12104323325E+02  0.17835977185E+02  0.00000000000E+00 0. -1.
</event>
<event>
 7    1  0.1683291E-008  0.4614232E+02  0.7816164E-02  0.1320468E+00
        -11   -1    0    0    0    0  0.00000000000E+00  0.00000000000E+00  0.45593999997E+02  0.45594000000E+02  0.51100000000E-03 0.  1.
         11   -1    0    0    0    0 -0.00000000000E+00 -0.00000000000E+00 -0.45593999997E+02  0.45594000000E+02  0.51100000000E-03 0. -1.
    9900012    2    1    2    0    0  0.21954961993E+02 -0.30548878631E+02 -0.24776181691E+02  0.46142317400E+02  0.99999967047E+01 0.  0.
        -12    1    1    2    0    0 -0.21954961993E+02  0.30548878631E+02  0.24776181691E+02  0.45045682600E+02  0.00000000000E+00 0.  1.
         11    1    3    3    0    0  0.31433067615E+01 -0.45818998169E+01 -0.37003043313E+01  0.66758097437E+01  0.51100000000E-03 0. -1.
        -11    1    3    3    0    0  0.17941361112E+02 -0.22038628983E+02 -0.14878281362E+02  0.32077357474E+02  0.51100000000E-03 0.  1.
        -12    1    3    3    0    0  0.87029411902E+00 -0.39283498319E+01 -0.61975959978E+01  0.73891501816E+01  0.00000000000E+00 0.  1.
</event>
<event>
 7    1  0.1683291E-008  0.4614232E+02  0.7816164E-02  0.1320468E+00
        -11   -1    0    0    0    0  0.00000000000E+00  0.00000000000E+00  0.45593999997E+02  0.45594000000E+02  0.51100000000E-03 0.  1.
         11   -1    0    0    0    0 -0.00000000000E+00 -0.00000000000E+00 -0.45593999997E+02  0.45594000000E+02  0.51100000000E-03 0. -1.
    9900012    2    1    2    0    0 -0.19987302505E+02  0.34843311032E+02 -0.20385409218E+02  0.46142317698E+02  0.99999994230E+01 0.  0.
        -12    1    1    2    0    0  0.19987302505E+02 -0.34843311032E+02  0.20385409218E+02  0.45045682302E+02  0.00000000000E+00 0.  1.
         11    1    3    3    0    0 -0.15723151592E+02  0.18662139991E+02 -0.10208015365E+02  0.26451777690E+02  0.51100000000E-03 0. -1.
        -11    1    3    3    0    0 -0.37496883658E+01  0.11288415617E+02 -0.65585813906E+01  0.13583205811E+02  0.51100000000E-03 0.  1.
        -12    1    3    3    0    0 -0.51446254705E+00  0.48927554239E+01 -0.36188124628E+01  0.61073341968E+01  0.00000000000E+00 0.  1.
</event>
<event>
 7    1  0.1683291E-008  0.4614232E+02  0.7816164E-02  0.1320468E+00
        -11   -1    0    0    0    0  0.00000000000E+00  0.00000000000E+00  0.45593999997E+02  0.45594000000E+02  0.51100000000E-03 0.  1.
         11   -1    0    0    0    0 -0.00000000000E+00 -0.00000000000E+00 -0.45593999997E+02  0.45594000000E+02  0.51100000000E-03 0. -1.
    9900012    2    1    2    0    0 -0.16154219719E+02 -0.77689945995E+01 -0.41325505115E+02  0.46142318023E+02  0.10000002385E+02 0.  0.
        -12    1    1    2    0    0  0.16154219719E+02  0.77689945995E+01  0.41325505115E+02  0.45045681977E+02  0.00000000000E+00 0.  1.
         11    1    3    3    0    0 -0.15333528000E+02 -0.67956340188E+01 -0.35713371416E+02  0.39455577816E+02  0.51100000000E-03 0. -1.
        -11    1    3    3    0    0 -0.21242535202E+01 -0.43904514161E+00 -0.28045971654E+01  0.35455576678E+01  0.51100000000E-03 0.  1.
         12    1    3    3    0    0  0.13035618008E+01 -0.53431543909E+00 -0.28075365328E+01  0.31411825385E+01  0.00000000000E+00 0. -1.
</event>
<event>
 7    1  0.1683291E-008  0.4614232E+02  0.7816164E-02  0.1320468E+00
        -11   -1    0    0    0    0  0.00000000000E+00  0.00000000000E+00  0.45593999997E+02  0.45594000000E+02  0.51100000000E-03 0. -1.
         11   -1    0    0    0    0 -0.00000000000E+00 -0.00000000000E+00 -0.45593999997E+02  0.45594000000E+02  0.51100000000E-03 0.  1.
    9900012    2    1    2    0    0 -0.32667672584E+02 -0.29418817446E+02  0.98219170826E+01  0.46142315332E+02  0.99999778513E+01 0.  0.
        -12    1    1    2    0    0  0.32667672584E+02  0.29418817446E+02 -0.98219170826E+01  0.45045684668E+02  0.00000000000E+00 0.  1.
         11    1    3    3    0    0 -0.23129791913E+02 -0.16536763926E+02  0.91988612361E+01  0.29884291583E+02  0.51100000000E-03 0. -1.
        -11    1    3    3    0    0 -0.67497835134E+01 -0.10729120854E+02 -0.28208672531E-01  0.12675740916E+02  0.51100000000E-03 0.  1.
        -12    1    3    3    0    0 -0.27880971576E+01 -0.21529326661E+01  0.65126451897E+00  0.35822828334E+01  0.00000000000E+00 0.  1.
</event>
<event>
 7    1  0.1683291E-008  0.4614232E+02  0.7816164E-02  0.1320468E+00
        -11   -1    0    0    0    0  0.00000000000E+00  0.00000000000E+00  0.45593999997E+02  0.45594000000E+02  0.51100000000E-03 0.  1.
         11   -1    0    0    0    0 -0.00000000000E+00 -0.00000000000E+00 -0.45593999997E+02  0.45594000000E+02  0.51100000000E-03 0. -1.
    9900012    2    1    2    0    0  0.39027903333E+02  0.53906589756E+01 -0.21837519422E+02  0.46142315442E+02  0.99999788557E+01 0.  0.
        -12    1    1    2    0    0 -0.39027903333E+02 -0.53906589756E+01  0.21837519422E+02  0.45045684558E+02  0.00000000000E+00 0.  1.
         11    1    3    3    0    0  0.12859679401E+01  0.13531881776E+01 -0.35313764739E+01  0.39944275996E+01  0.51100000000E-03 0. -1.
        -11    1    3    3    0    0  0.22600439060E+02  0.24700936622E+01 -0.11372379696E+02  0.25420704723E+02  0.51100000000E-03 0.  1.
         12    1    3    3    0    0  0.15141496333E+02  0.15673771359E+01 -0.69337632523E+01  0.16727183120E+02  0.00000000000E+00 0. -1.
</event>
<event>
 7    1  0.1683291E-008  0.4614231E+02  0.7816164E-02  0.1320468E+00
        -11   -1    0    0    0    0  0.00000000000E+00  0.00000000000E+00  0.45593999997E+02  0.45594000000E+02  0.51100000000E-03 0.  1.
         11   -1    0    0    0    0 -0.00000000000E+00 -0.00000000000E+00 -0.45593999997E+02  0.45594000000E+02  0.51100000000E-03 0. -1.
    9900012    2    1    2    0    0  0.31995292140E-01 -0.15939494484E+02 -0.42131285991E+02  0.46142314664E+02  0.99999717592E+01 0.  0.
        -12    1    1    2    0    0 -0.31995292140E-01  0.15939494484E+02  0.42131285991E+02  0.45045685336E+02  0.00000000000E+00 0.  1.
         11    1    3    3    0    0 -0.25880028522E+01 -0.92628234614E+01 -0.30717995066E+02  0.32188396642E+02  0.51100000000E-03 0. -1.
        -11    1    3    3    0    0  0.24232604394E+01 -0.17304952427E+01 -0.32569740425E+01  0.44130131562E+01  0.51100000000E-03 0.  1.
         12    1    3    3    0    0  0.19673770486E+00 -0.49461757799E+01 -0.81563168826E+01  0.95409048659E+01  0.00000000000E+00 0. -1.
</event>
<event>
 7    1  0.1683291E-008  0.4614232E+02  0.7816164E-02  0.1320468E+00
        -11   -1    0    0    0    0  0.00000000000E+00  0.00000000000E+00  0.45593999997E+02  0.45594000000E+02  0.51100000000E-03 0.  1.
         11   -1    0    0    0    0 -0.00000000000E+00 -0.00000000000E+00 -0.45593999997E+02  0.45594000000E+02  0.51100000000E-03 0. -1.
    9900012    2    1    2    0    0  0.19066296618E+02  0.20931037135E+02 -0.35035432870E+02  0.46142317203E+02  0.99999949126E+01 0.  0.
        -12    1    1    2    0    0 -0.19066296618E+02 -0.20931037135E+02  0.35035432870E+02  0.45045682797E+02  0.00000000000E+00 0.  1.
         11    1    3    3    0    0  0.36158357730E+00  0.80508682046E+00 -0.50472565013E+00  0.10166886027E+01  0.51100000000E-03 0.  1.
        -11    1    3    3    0    0  0.92477268978E+01  0.16403905369E+02 -0.23751950134E+02  0.30311115116E+02  0.51100000000E-03 0. -1.
        -12    1    3    3    0    0  0.94569861430E+01  0.37220449457E+01 -0.10778757085E+02  0.14814513485E+02  0.00000000000E+00 0.  1.
</event>
<event>
 7    1  0.1683291E-008  0.4614232E+02  0.7816164E-02  0.1320468E+00
        -11   -1    0    0    0    0  0.00000000000E+00  0.00000000000E+00  0.45593999997E+02  0.45594000000E+02  0.51100000000E-03 0.  1.
         11   -1    0    0    0    0 -0.00000000000E+00 -0.00000000000E+00 -0.45593999997E+02  0.45594000000E+02  0.51100000000E-03 0. -1.
    9900012    2    1    2    0    0  0.24724777054E+02 -0.37576133725E+02 -0.24151792480E+01  0.46142317444E+02  0.99999971096E+01 0.  0.
        -12    1    1    2    0    0 -0.24724777054E+02  0.37576133725E+02  0.24151792480E+01  0.45045682556E+02  0.00000000000E+00 0.  1.
         11    1    3    3    0    0  0.15990259311E+02 -0.17632060319E+02  0.16064615814E+01  0.23857046401E+02  0.51100000000E-03 0. -1.
        -11    1    3    3    0    0  0.47778668321E+01 -0.13326123229E+02 -0.18668798462E+01  0.14279314143E+02  0.51100000000E-03 0.  1.
         12    1    3    3    0    0  0.39566509111E+01 -0.66179501775E+01 -0.21547609832E+01  0.80059568996E+01  0.00000000000E+00 0. -1.
</event>
<event>
 7    1  0.1683291E-008  0.4614232E+02  0.7816164E-02  0.1320468E+00
        -11   -1    0    0    0    0  0.00000000000E+00  0.00000000000E+00  0.45593999997E+02  0.45594000000E+02  0.51100000000E-03 0.  1.
         11   -1    0    0    0    0 -0.00000000000E+00 -0.00000000000E+00 -0.45593999997E+02  0.45594000000E+02  0.51100000000E-03 0. -1.
    9900012    2    1    2    0    0 -0.14253161000E+02 -0.40485345364E+02 -0.13671050340E+02  0.46142318685E+02  0.10000008425E+02 0.  0.
        -12    1    1    2    0    0  0.14253161000E+02  0.40485345364E+02  0.13671050340E+02  0.45045681315E+02  0.00000000000E+00 0.  1.
         11    1    3    3    0    0 -0.83393210190E+01 -0.21165490122E+02 -0.74802111200E+01  0.23947354881E+02  0.51100000000E-03 0. -1.
        -11    1    3    3    0    0  0.42038792546E-01 -0.11162260422E+02 -0.24807269213E+01  0.11434676704E+02  0.51100000000E-03 0.  1.
        -12    1    3    3    0    0 -0.59558787732E+01 -0.81575948196E+01 -0.37101122987E+01  0.10760287100E+02  0.00000000000E+00 0.  1.
</event>
<event>
 7    1  0.1683291E-008  0.4614232E+02  0.7816164E-02  0.1320468E+00
        -11   -1    0    0    0    0  0.00000000000E+00  0.00000000000E+00  0.45593999997E+02  0.45594000000E+02  0.51100000000E-03 0.  1.
         11   -1    0    0    0    0 -0.00000000000E+00 -0.00000000000E+00 -0.45593999997E+02  0.45594000000E+02  0.51100000000E-03 0. -1.
    9900012    2    1    2    0    0 -0.56530058956E+01 -0.43344039914E+02 -0.10883531309E+02  0.46142317349E+02  0.99999962427E+01 0.  0.
        -12    1    1    2    0    0  0.56530058956E+01  0.43344039914E+02  0.10883531309E+02  0.45045682651E+02  0.00000000000E+00 0.  1.
         11    1    3    3    0    0 -0.18484915229E+01 -0.42563652936E+01  0.13004022007E+01  0.48191921074E+01  0.51100000000E-03 0. -1.
        -11    1    3    3    0    0 -0.12529504705E+01 -0.76134696941E+01 -0.40532008130E+01  0.87156894596E+01  0.51100000000E-03 0.  1.
         12    1    3    3    0    0 -0.25515639022E+01 -0.31474204926E+02 -0.81307326966E+01  0.32607435782E+02  0.00000000000E+00 0. -1.
</event>
<event>
 7    1  0.2032901E-008  0.4614231E+02  0.7816164E-02  0.1320468E+00
        -11   -1    0    0    0    0  0.00000000000E+00  0.00000000000E+00  0.45593999997E+02  0.45594000000E+02  0.51100000000E-03 0.  1.
         11   -1    0    0    0    0 -0.00000000000E+00 -0.00000000000E+00 -0.45593999997E+02  0.45594000000E+02  0.51100000000E-03 0. -1.
    9900012    2    1    2    0    0  0.22297373612E+02 -0.28122845619E+02 -0.27222167921E+02  0.46142314945E+02  0.99999743229E+01 0.  0.
        -12    1    1    2    0    0 -0.22297373612E+02  0.28122845619E+02  0.27222167921E+02  0.45045685055E+02  0.00000000000E+00 0.  1.
         11    1    3    3    0    0  0.42617531925E+01 -0.34982305862E+01 -0.75704931160E+01  0.93654964518E+01  0.51100000000E-03 0. -1.
        -11    1    3    3    0    0 -0.46620159987E+00 -0.54727229282E+00 -0.52071487483E+00  0.88769090127E+00  0.51100000000E-03 0.  1.
         12    1    3    3    0    0  0.18501822020E+02 -0.24077342740E+02 -0.19130959930E+02  0.35889127592E+02  0.00000000000E+00 0. -1.
</event>
<event>
 7    1  0.1683291E-008  0.4614232E+02  0.7816164E-02  0.1320468E+00
        -11   -1    0    0    0    0  0.00000000000E+00  0.00000000000E+00  0.45593999997E+02  0.45594000000E+02  0.51100000000E-03 0. -1.
         11   -1    0    0    0    0 -0.00000000000E+00 -0.00000000000E+00 -0.45593999997E+02  0.45594000000E+02  0.51100000000E-03 0.  1.
    9900012    2    1    2    0    0  0.11115494547E+01  0.22583964280E+02  0.38959497648E+02  0.46142318279E+02  0.10000004720E+02 0.  0.
        -12    1    1    2    0    0 -0.11115494547E+01 -0.22583964280E+02 -0.38959497648E+02  0.45045681721E+02  0.00000000000E+00 0.  1.
         11    1    3    3    0    0  0.25907470405E+01  0.94291126678E+01  0.25136634121E+02  0.26971661260E+02  0.51100000000E-03 0. -1.
        -11    1    3    3    0    0 -0.93480250750E+00  0.11487840832E+02  0.11841292664E+02  0.16524544016E+02  0.51100000000E-03 0.  1.
         12    1    3    3    0    0 -0.54439507827E+00  0.16670107802E+01  0.19815708617E+01  0.26461130026E+01  0.00000000000E+00 0. -1.
</event>
<event>
 7    1  0.1683291E-008  0.4614232E+02  0.7816164E-02  0.1320468E+00
        -11   -1    0    0    0    0  0.00000000000E+00  0.00000000000E+00  0.45593999997E+02  0.45594000000E+02  0.51100000000E-03 0.  1.
         11   -1    0    0    0    0 -0.00000000000E+00 -0.00000000000E+00 -0.45593999997E+02  0.45594000000E+02  0.51100000000E-03 0. -1.
    9900012    2    1    2    0    0  0.26350254551E+02  0.15620833218E+02 -0.33026763586E+02  0.46142318095E+02  0.10000003046E+02 0.  0.
        -12    1    1    2    0    0 -0.26350254551E+02 -0.15620833218E+02  0.33026763586E+02  0.45045681905E+02  0.00000000000E+00 0.  1.
         11    1    3    3    0    0  0.17140278796E+01  0.38262206386E+01 -0.63176573343E+01  0.75822589247E+01  0.51100000000E-03 0. -1.
        -11    1    3    3    0    0  0.11397133845E+00  0.95176517438E+00 -0.57332566154E+00  0.11169373252E+01  0.51100000000E-03 0.  1.
         12    1    3    3    0    0  0.24522255333E+02  0.10842847405E+02 -0.26135780590E+02  0.37443121845E+02  0.00000000000E+00 0. -1.
</event>
<event>
 7    1  0.1683291E-008  0.4614232E+02  0.7816164E-02  0.1320468E+00
        -11   -1    0    0    0    0  0.00000000000E+00  0.00000000000E+00  0.45593999997E+02  0.45594000000E+02  0.51100000000E-03 0. -1.
         11   -1    0    0    0    0 -0.00000000000E+00 -0.00000000000E+00 -0.45593999997E+02  0.45594000000E+02  0.51100000000E-03 0.  1.
    9900012    2    1    2    0    0  0.62633691148E+01  0.39866721178E+02 -0.20013199978E+02  0.46142318481E+02  0.10000006567E+02 0.  0.
        -12    1    1    2    0    0 -0.62633691148E+01 -0.39866721178E+02  0.20013199978E+02  0.45045681519E+02  0.00000000000E+00 0.  1.
         11    1    3    3    0    0  0.25245194240E+01  0.20689114155E+02 -0.73758678595E+01  0.22109185190E+02  0.51100000000E-03 0. -1.
        -11    1    3    3    0    0  0.17355272557E+01  0.17812090379E+01 -0.86362607155E-01  0.24884170175E+01  0.51100000000E-03 0.  1.
        -12    1    3    3    0    0  0.20033224350E+01  0.17396397985E+02 -0.12550969512E+02  0.21544716274E+02  0.00000000000E+00 0.  1.
</event>
<event>
 7    1  0.1683291E-008  0.4614232E+02  0.7816164E-02  0.1320468E+00
        -11   -1    0    0    0    0  0.00000000000E+00  0.00000000000E+00  0.45593999997E+02  0.45594000000E+02  0.51100000000E-03 0.  1.
         11   -1    0    0    0    0 -0.00000000000E+00 -0.00000000000E+00 -0.45593999997E+02  0.45594000000E+02  0.51100000000E-03 0. -1.
    9900012    2    1    2    0    0 -0.16651484845E+02 -0.18971179304E+02  0.37308657596E+02  0.46142317373E+02  0.99999964575E+01 0.  0.
        -12    1    1    2    0    0  0.16651484845E+02  0.18971179304E+02 -0.37308657596E+02  0.45045682627E+02  0.00000000000E+00 0.  1.
         11    1    3    3    0    0 -0.76806615683E+01 -0.13343885629E+02  0.20857852085E+02  0.25924926995E+02  0.51100000000E-03 0. -1.
        -11    1    3    3    0    0 -0.95029220960E+01 -0.53337769813E+01  0.16271917416E+02  0.19583922026E+02  0.51100000000E-03 0.  1.
        -12    1    3    3    0    0  0.53209881921E+00 -0.29351669328E+00  0.17888809492E+00  0.63346835212E+00  0.00000000000E+00 0.  1.
</event>
<event>
 7    1  0.1729664E-008  0.4614232E+02  0.7816164E-02  0.1320468E+00
        -11   -1    0    0    0    0  0.00000000000E+00  0.00000000000E+00  0.45593999997E+02  0.45594000000E+02  0.51100000000E-03 0.  1.
         11   -1    0    0    0    0 -0.00000000000E+00 -0.00000000000E+00 -0.45593999997E+02  0.45594000000E+02  0.51100000000E-03 0. -1.
    9900012    2    1    2    0    0 -0.41936921103E+02 -0.12997998670E+02 -0.10072743544E+02  0.46142317815E+02  0.10000000494E+02 0.  0.
        -12    1    1    2    0    0  0.41936921103E+02  0.12997998670E+02  0.10072743544E+02  0.45045682185E+02  0.00000000000E+00 0.  1.
         11    1    3    3    0    0 -0.38433622481E+02 -0.11284075928E+02 -0.10933088010E+02  0.41521152685E+02  0.51100000000E-03 0. -1.
        -11    1    3    3    0    0 -0.16972811034E+01 -0.23070172118E+00  0.14120842328E+01  0.22199028289E+01  0.51100000000E-03 0.  1.
         12    1    3    3    0    0 -0.18060175184E+01 -0.14832210203E+01 -0.55173976674E+00  0.24012623018E+01  0.00000000000E+00 0. -1.
</event>
<event>
 7    1  0.1683291E-008  0.4614232E+02  0.7816164E-02  0.1320468E+00
        -11   -1    0    0    0    0  0.00000000000E+00  0.00000000000E+00  0.45593999997E+02  0.45594000000E+02  0.51100000000E-03 0.  1.
         11   -1    0    0    0    0 -0.00000000000E+00 -0.00000000000E+00 -0.45593999997E+02  0.45594000000E+02  0.51100000000E-03 0. -1.
    9900012    2    1    2    0    0 -0.40032220675E+02  0.19767908854E+02 -0.59803470177E+01  0.46142318042E+02  0.10000002563E+02 0.  0.
        -12    1    1    2    0    0  0.40032220675E+02 -0.19767908854E+02  0.59803470177E+01  0.45045681958E+02  0.00000000000E+00 0.  1.
         11    1    3    3    0    0 -0.83182242647E+01  0.28615936480E+01  0.13977057821E+01  0.89070283955E+01  0.51100000000E-03 0. -1.
        -11    1    3    3    0    0 -0.36652600367E+01  0.66999887594E+00  0.79865265345E+00  0.38106267139E+01  0.51100000000E-03 0.  1.
         12    1    3    3    0    0 -0.28048736373E+02  0.16236316330E+02 -0.81767054532E+01  0.33424662933E+02  0.00000000000E+00 0. -1.
</event>
<event>
 7    1  0.1683291E-008  0.4614232E+02  0.7816164E-02  0.1320468E+00
        -11   -1    0    0    0    0  0.00000000000E+00  0.00000000000E+00  0.45593999997E+02  0.45594000000E+02  0.51100000000E-03 0. -1.
         11   -1    0    0    0    0 -0.00000000000E+00 -0.00000000000E+00 -0.45593999997E+02  0.45594000000E+02  0.51100000000E-03 0.  1.
    9900012    2    1    2    0    0 -0.10189200641E+02 -0.47552781457E+01  0.43619732897E+02  0.46142316767E+02  0.99999909362E+01 0.  0.
        -12    1    1    2    0    0  0.10189200641E+02  0.47552781457E+01 -0.43619732897E+02  0.45045683233E+02  0.00000000000E+00 0.  1.
         11    1    3    3    0    0 -0.96688077551E+01 -0.55730942148E+01  0.24551981552E+02  0.26969334825E+02  0.51100000000E-03 0. -1.
        -11    1    3    3    0    0  0.62130060905E+00  0.11913957144E+00  0.79035048730E+01  0.79287828967E+01  0.51100000000E-03 0.  1.
         12    1    3    3    0    0 -0.11416934947E+01  0.69867649774E+00  0.11164246472E+02  0.11244199045E+02  0.00000000000E+00 0. -1.
</event>
<event>
 7    1  0.1683291E-008  0.4614232E+02  0.7816164E-02  0.1320468E+00
        -11   -1    0    0    0    0  0.00000000000E+00  0.00000000000E+00  0.45593999997E+02  0.45594000000E+02  0.51100000000E-03 0. -1.
         11   -1    0    0    0    0 -0.00000000000E+00 -0.00000000000E+00 -0.45593999997E+02  0.45594000000E+02  0.51100000000E-03 0.  1.
    9900012    2    1    2    0    0 -0.22095696317E+02  0.27027256576E+02  0.28467895331E+02  0.46142318095E+02  0.10000003043E+02 0.  0.
        -12    1    1    2    0    0  0.22095696317E+02 -0.27027256576E+02 -0.28467895331E+02  0.45045681905E+02  0.00000000000E+00 0.  1.
         11    1    3    3    0    0 -0.12822549714E+02  0.85307751075E+01  0.14368339937E+02  0.21062789414E+02  0.51100000000E-03 0.  1.
        -11    1    3    3    0    0 -0.76975657084E+01  0.14840159701E+02  0.10741953524E+02  0.19871397122E+02  0.51100000000E-03 0. -1.
        -12    1    3    3    0    0 -0.15755808944E+01  0.36563217669E+01  0.33576018694E+01  0.52081315586E+01  0.00000000000E+00 0.  1.
</event>
<event>
 7    1  0.1683291E-008  0.4614232E+02  0.7816164E-02  0.1320468E+00
        -11   -1    0    0    0    0  0.00000000000E+00  0.00000000000E+00  0.45593999997E+02  0.45594000000E+02  0.51100000000E-03 0.  1.
         11   -1    0    0    0    0 -0.00000000000E+00 -0.00000000000E+00 -0.45593999997E+02  0.45594000000E+02  0.51100000000E-03 0. -1.
    9900012    2    1    2    0    0 -0.11693936383E+01  0.33330974915E+02 -0.30278575792E+02  0.46142317385E+02  0.99999965682E+01 0.  0.
        -12    1    1    2    0    0  0.11693936383E+01 -0.33330974915E+02  0.30278575792E+02  0.45045682615E+02  0.00000000000E+00 0.  1.
         11    1    3    3    0    0 -0.34835623300E+01  0.12068545869E+02 -0.11063597040E+02  0.16738822707E+02  0.51100000000E-03 0. -1.
        -11    1    3    3    0    0  0.23540840296E+01  0.25920991499E+01 -0.21474708720E+01  0.41075930943E+01  0.51100000000E-03 0.  1.
        -12    1    3    3    0    0 -0.39915337947E-01  0.18670329896E+02 -0.17067507881E+02  0.25295901584E+02  0.00000000000E+00 0.  1.
</event>
<event>
 7    1  0.1683291E-008  0.4614232E+02  0.7816164E-02  0.1320468E+00
        -11   -1    0    0    0    0  0.00000000000E+00  0.00000000000E+00  0.45593999997E+02  0.45594000000E+02  0.51100000000E-03 0.  1.
         11   -1    0    0    0    0 -0.00000000000E+00 -0.00000000000E+00 -0.45593999997E+02  0.45594000000E+02  0.51100000000E-03 0. -1.
    9900012    2    1    2    0    0 -0.19360378083E+02 -0.36748893613E+02 -0.17430091772E+02  0.46142317405E+02  0.99999967494E+01 0.  0.
        -12    1    1    2    0    0  0.19360378083E+02  0.36748893613E+02  0.17430091772E+02  0.45045682595E+02  0.00000000000E+00 0.  1.
         11    1    3    3    0    0 -0.77253205384E+01 -0.23800380007E+02 -0.96132710134E+01  0.26805850961E+02  0.51100000000E-03 0. -1.
        -11    1    3    3    0    0 -0.17037486019E+01 -0.90803783204E+00 -0.17014244308E+01  0.25733513864E+01  0.51100000000E-03 0.  1.
         12    1    3    3    0    0 -0.99313089430E+01 -0.12040475774E+02 -0.61153963276E+01  0.16763115058E+02  0.00000000000E+00 0. -1.
</event>
<event>
 7    1  0.1683291E-008  0.4614232E+02  0.7816164E-02  0.1320468E+00
        -11   -1    0    0    0    0  0.00000000000E+00  0.00000000000E+00  0.45593999997E+02  0.45594000000E+02  0.51100000000E-03 0.  1.
         11   -1    0    0    0    0 -0.00000000000E+00 -0.00000000000E+00 -0.45593999997E+02  0.45594000000E+02  0.51100000000E-03 0. -1.
    9900012    2    1    2    0    0 -0.11610918324E+02  0.10383989723E+02 -0.42266685146E+02  0.46142319407E+02  0.10000015007E+02 0.  0.
        -12    1    1    2    0    0  0.11610918324E+02 -0.10383989723E+02  0.42266685146E+02  0.45045680593E+02  0.00000000000E+00 0.  1.
         11    1    3    3    0    0 -0.11924876101E+02  0.71492057668E+01 -0.35401652244E+02  0.38034074131E+02  0.51100000000E-03 0.  1.
        -11    1    3    3    0    0 -0.56579890886E+00  0.32572544520E+01 -0.44932181495E+01  0.55784267111E+01  0.51100000000E-03 0. -1.
        -12    1    3    3    0    0  0.87975668683E+00 -0.22470496120E-01 -0.23718147522E+01  0.25298185647E+01  0.00000000000E+00 0.  1.
</event>
<event>
 7    1  0.1683291E-008  0.4614232E+02  0.7816164E-02  0.1320468E+00
        -11   -1    0    0    0    0  0.00000000000E+00  0.00000000000E+00  0.45593999997E+02  0.45594000000E+02  0.51100000000E-03 0.  1.
         11   -1    0    0    0    0 -0.00000000000E+00 -0.00000000000E+00 -0.45593999997E+02  0.45594000000E+02  0.51100000000E-03 0. -1.
    9900012    2    1    2    0    0 -0.24239448947E+02  0.13059261769E+01 -0.37945450485E+02  0.46142317177E+02  0.99999946765E+01 0.  0.
        -12    1    1    2    0    0  0.24239448947E+02 -0.13059261769E+01  0.37945450485E+02  0.45045682823E+02  0.00000000000E+00 0.  1.
         11    1    3    3    0    0 -0.53204387971E+01  0.23721801295E+00 -0.10939189475E+02  0.12166725443E+02  0.51100000000E-03 0.  1.
        -11    1    3    3    0    0 -0.33730074911E+01 -0.46651018858E+00 -0.85022901104E+00  0.35096582345E+01  0.51100000000E-03 0. -1.
         12    1    3    3    0    0 -0.15546002659E+02  0.15352183525E+01 -0.26156031999E+02  0.30465933500E+02  0.00000000000E+00 0. -1.
</event>
<event>
 7    1  0.1683291E-008  0.4614232E+02  0.7816164E-02  0.1320468E+00
        -11   -1    0    0    0    0  0.00000000000E+00  0.00000000000E+00  0.45593999997E+02  0.45594000000E+02  0.51100000000E-03 0.  1.
         11   -1    0    0    0    0 -0.00000000000E+00 -0.00000000000E+00 -0.45593999997E+02  0.45594000000E+02  0.51100000000E-03 0. -1.
    9900012    2    1    2    0    0 -0.31282520579E+02 -0.38610187268E+01 -0.32180894064E+02  0.46142317608E+02  0.99999986027E+01 0.  0.
        -12    1    1    2    0    0  0.31282520579E+02  0.38610187268E+01  0.32180894064E+02  0.45045682392E+02  0.00000000000E+00 0.  1.
         11    1    3    3    0    0 -0.13451785027E+02 -0.29381890942E+01 -0.15002124882E+02  0.20362888469E+02  0.51100000000E-03 0. -1.
        -11    1    3    3    0    0 -0.21332653993E+01 -0.20828873499E+01 -0.52204007851E+01  0.60118071820E+01  0.51100000000E-03 0.  1.
        -12    1    3    3    0    0 -0.15697470152E+02  0.11600577174E+01 -0.11958368398E+02  0.19767621957E+02  0.00000000000E+00 0.  1.
</event>
<event>
 7    1  0.1683291E-008  0.4614232E+02  0.7816164E-02  0.1320468E+00
        -11   -1    0    0    0    0  0.00000000000E+00  0.00000000000E+00  0.45593999997E+02  0.45594000000E+02  0.51100000000E-03 0.  1.
         11   -1    0    0    0    0 -0.00000000000E+00 -0.00000000000E+00 -0.45593999997E+02  0.45594000000E+02  0.51100000000E-03 0. -1.
    9900012    2    1    2    0    0  0.41911530929E+02 -0.36052647233E+01  0.16110219236E+02  0.46142317384E+02  0.99999965633E+01 0.  0.
        -12    1    1    2    0    0 -0.41911530929E+02  0.36052647233E+01 -0.16110219236E+02  0.45045682616E+02  0.00000000000E+00 0.  1.
         11    1    3    3    0    0  0.30321061157E+01 -0.11222932727E+01  0.41872055902E+01  0.52901701866E+01  0.51100000000E-03 0. -1.
        -11    1    3    3    0    0  0.15174128799E+02  0.44843262154E+00  0.50079386258E+01  0.15985453580E+02  0.51100000000E-03 0.  1.
         12    1    3    3    0    0  0.23705296014E+02 -0.29314040721E+01  0.69150750198E+01  0.24866693618E+02  0.00000000000E+00 0. -1.
</event>
<event>
 7    1  0.1683291E-008  0.4614232E+02  0.7816164E-02  0.1320468E+00
        -11   -1    0    0    0    0  0.00000000000E+00  0.00000000000E+00  0.45593999997E+02  0.45594000000E+02  0.51100000000E-03 0.  1.
         11   -1    0    0    0    0 -0.00000000000E+00 -0.00000000000E+00 -0.45593999997E+02  0.45594000000E+02  0.51100000000E-03 0. -1.
    9900012    2    1    2    0    0 -0.58184472633E+01 -0.76580228875E+00 -0.44661756066E+02  0.46142320555E+02  0.10000025479E+02 0.  0.
        -12    1    1    2    0    0  0.58184472633E+01  0.76580228875E+00  0.44661756066E+02  0.45045679445E+02  0.00000000000E+00 0.  1.
         11    1    3    3    0    0  0.18330257845E+01 -0.18084258825E+01 -0.22720155363E+02  0.22865604031E+02  0.51100000000E-03 0.  1.
        -11    1    3    3    0    0 -0.45750379054E+01  0.62003610337E+00 -0.11828407523E+02  0.12697505322E+02  0.51100000000E-03 0. -1.
        -12    1    3    3    0    0 -0.30764351423E+01  0.42258749039E+00 -0.10113193180E+02  0.10579211203E+02  0.00000000000E+00 0.  1.
</event>
<event>
 7    1  0.1683291E-008  0.4614232E+02  0.7816164E-02  0.1320468E+00
        -11   -1    0    0    0    0  0.00000000000E+00  0.00000000000E+00  0.45593999997E+02  0.45594000000E+02  0.51100000000E-03 0.  1.
         11   -1    0    0    0    0 -0.00000000000E+00 -0.00000000000E+00 -0.45593999997E+02  0.45594000000E+02  0.51100000000E-03 0. -1.
    9900012    2    1    2    0    0  0.28230166329E+02  0.29374841069E+02 -0.19216917698E+02  0.46142317581E+02  0.99999983573E+01 0.  0.
        -12    1    1    2    0    0 -0.28230166329E+02 -0.29374841069E+02  0.19216917698E+02  0.45045682419E+02  0.00000000000E+00 0.  1.
         11    1    3    3    0    0  0.24839422033E+02  0.28971198365E+02 -0.18420451986E+02  0.42374995850E+02  0.51100000000E-03 0. -1.
        -11    1    3    3    0    0  0.83480731644E+00 -0.49766378666E+00 -0.19935985878E+00  0.99212756970E+00  0.51100000000E-03 0.  1.
         12    1    3    3    0    0  0.25559369797E+01  0.90130649051E+00 -0.59710585292E+00  0.27751941614E+01  0.00000000000E+00 0. -1.
</event>
<event>
 7    1  0.1683291E-008  0.4614232E+02  0.7816164E-02  0.1320468E+00
        -11   -1    0    0    0    0  0.00000000000E+00  0.00000000000E+00  0.45593999997E+02  0.45594000000E+02  0.51100000000E-03 0.  1.
         11   -1    0    0    0    0 -0.00000000000E+00 -0.00000000000E+00 -0.45593999997E+02  0.45594000000E+02  0.51100000000E-03 0. -1.
    9900012    2    1    2    0    0  0.15220118076E+02 -0.32850534866E+02 -0.26801193076E+02  0.46142316683E+02  0.99999901697E+01 0.  0.
        -12    1    1    2    0    0 -0.15220118076E+02  0.32850534866E+02  0.26801193076E+02  0.45045683317E+02  0.00000000000E+00 0.  1.
         11    1    3    3    0    0  0.92991827117E+01 -0.21167501910E+02 -0.15073012137E+02  0.27599522303E+02  0.51100000000E-03 0. -1.
        -11    1    3    3    0    0  0.14657681362E+01 -0.90714640450E+01 -0.71858006282E+01  0.11665147538E+02  0.51100000000E-03 0.  1.
         12    1    3    3    0    0  0.44551672277E+01 -0.26115689112E+01 -0.45423803106E+01  0.68776468426E+01  0.00000000000E+00 0. -1.
</event>
<event>
 7    1  0.1683291E-008  0.4614232E+02  0.7816164E-02  0.1320468E+00
        -11   -1    0    0    0    0  0.00000000000E+00  0.00000000000E+00  0.45593999997E+02  0.45594000000E+02  0.51100000000E-03 0.  1.
         11   -1    0    0    0    0 -0.00000000000E+00 -0.00000000000E+00 -0.45593999997E+02  0.45594000000E+02  0.51100000000E-03 0. -1.
    9900012    2    1    2    0    0 -0.41630473637E+02 -0.91837953362E+01 -0.14549058515E+02  0.46142317236E+02  0.99999952120E+01 0.  0.
        -12    1    1    2    0    0  0.41630473637E+02  0.91837953362E+01  0.14549058515E+02  0.45045682764E+02  0.00000000000E+00 0.  1.
         11    1    3    3    0    0 -0.17203434949E+01 -0.15705957735E+01 -0.28949185110E+01  0.37157645607E+01  0.51100000000E-03 0.  1.
        -11    1    3    3    0    0 -0.37790569775E+01  0.17451754342E+00 -0.47920324164E+00  0.38133140469E+01  0.51100000000E-03 0. -1.
         12    1    3    3    0    0 -0.36131073164E+02 -0.77877171062E+01 -0.11174936762E+02  0.38613238628E+02  0.00000000000E+00 0. -1.
</event>
<event>
 7    1  0.1683291E-008  0.4614232E+02  0.7816164E-02  0.1320468E+00
        -11   -1    0    0    0    0  0.00000000000E+00  0.00000000000E+00  0.45593999997E+02  0.45594000000E+02  0.51100000000E-03 0. -1.
         11   -1    0    0    0    0 -0.00000000000E+00 -0.00000000000E+00 -0.45593999997E+02  0.45594000000E+02  0.51100000000E-03 0.  1.
    9900012    2    1    2    0    0  0.11500958027E+02 -0.42196031986E+02  0.10785931054E+02  0.46142318080E+02  0.10000002909E+02 0.  0.
        -12    1    1    2    0    0 -0.11500958027E+02  0.42196031986E+02 -0.10785931054E+02  0.45045681920E+02  0.00000000000E+00 0.  1.
         11    1    3    3    0    0  0.73131282153E+01 -0.14934124730E+02  0.66012455670E+00  0.16641685324E+02  0.51100000000E-03 0. -1.
        -11    1    3    3    0    0  0.39674734515E+01 -0.18368681127E+02  0.73955292286E+01  0.20195126758E+02  0.51100000000E-03 0.  1.
         12    1    3    3    0    0  0.22035636006E+00 -0.88932261298E+01  0.27302772687E+01  0.93055059983E+01  0.00000000000E+00 0. -1.
</event>
<event>
 7    1  0.1683291E-008  0.4614232E+02  0.7816164E-02  0.1320468E+00
        -11   -1    0    0    0    0  0.00000000000E+00  0.00000000000E+00  0.45593999997E+02  0.45594000000E+02  0.51100000000E-03 0.  1.
         11   -1    0    0    0    0 -0.00000000000E+00 -0.00000000000E+00 -0.45593999997E+02  0.45594000000E+02  0.51100000000E-03 0. -1.
    9900012    2    1    2    0    0  0.24695719104E+02  0.10841767339E+02 -0.36078955386E+02  0.46142317823E+02  0.10000000560E+02 0.  0.
        -12    1    1    2    0    0 -0.24695719104E+02 -0.10841767339E+02  0.36078955386E+02  0.45045682177E+02  0.00000000000E+00 0.  1.
         11    1    3    3    0    0  0.19048123030E+02  0.10339965404E+02 -0.22874177177E+02  0.31511487704E+02  0.51100000000E-03 0. -1.
        -11    1    3    3    0    0  0.58324480627E+01  0.12058158897E+00 -0.11795559165E+02  0.13159301144E+02  0.51100000000E-03 0.  1.
         12    1    3    3    0    0 -0.18485198850E+00  0.38122034540E+00 -0.14092190439E+01  0.14715289746E+01  0.00000000000E+00 0. -1.
</event>
<event>
 7    1  0.1683291E-008  0.4614232E+02  0.7816164E-02  0.1320468E+00
        -11   -1    0    0    0    0  0.00000000000E+00  0.00000000000E+00  0.45593999997E+02  0.45594000000E+02  0.51100000000E-03 0.  1.
         11   -1    0    0    0    0 -0.00000000000E+00 -0.00000000000E+00 -0.45593999997E+02  0.45594000000E+02  0.51100000000E-03 0. -1.
    9900012    2    1    2    0    0 -0.15758288353E+02 -0.29065399045E+02 -0.30593992762E+02  0.46142318003E+02  0.10000002204E+02 0.  0.
        -12    1    1    2    0    0  0.15758288353E+02  0.29065399045E+02  0.30593992762E+02  0.45045681997E+02  0.00000000000E+00 0.  1.
         11    1    3    3    0    0 -0.10881803152E+02 -0.21366305920E+02 -0.16467719954E+02  0.29088115602E+02  0.51100000000E-03 0. -1.
        -11    1    3    3    0    0 -0.22782128965E+01 -0.16680592880E+01 -0.57921908458E+01  0.64437683730E+01  0.51100000000E-03 0.  1.
         12    1    3    3    0    0 -0.25982723043E+01 -0.60310338366E+01 -0.83340819627E+01  0.10610434028E+02  0.00000000000E+00 0. -1.
</event>
<event>
 7    1  0.1683291E-008  0.4614232E+02  0.7816164E-02  0.1320468E+00
        -11   -1    0    0    0    0  0.00000000000E+00  0.00000000000E+00  0.45593999997E+02  0.45594000000E+02  0.51100000000E-03 0. -1.
         11   -1    0    0    0    0 -0.00000000000E+00 -0.00000000000E+00 -0.45593999997E+02  0.45594000000E+02  0.51100000000E-03 0.  1.
    9900012    2    1    2    0    0 -0.19954508237E+02 -0.26091272003E+02  0.30824936549E+02  0.46142316667E+02  0.99999900199E+01 0.  0.
        -12    1    1    2    0    0  0.19954508237E+02  0.26091272003E+02 -0.30824936549E+02  0.45045683333E+02  0.00000000000E+00 0.  1.
         11    1    3    3    0    0 -0.11355497353E+02 -0.16494625506E+02  0.12466161864E+02  0.23588666402E+02  0.51100000000E-03 0. -1.
        -11    1    3    3    0    0 -0.31970201897E+01 -0.51844345429E+01  0.77436648118E+01  0.98520883371E+01  0.51100000000E-03 0.  1.
         12    1    3    3    0    0 -0.54019906949E+01 -0.44122119532E+01  0.10615109873E+02  0.12701561928E+02  0.00000000000E+00 0. -1.
</event>
<event>
 7    1  0.1683291E-008  0.4614232E+02  0.7816164E-02  0.1320468E+00
        -11   -1    0    0    0    0  0.00000000000E+00  0.00000000000E+00  0.45593999997E+02  0.45594000000E+02  0.51100000000E-03 0. -1.
         11   -1    0    0    0    0 -0.00000000000E+00 -0.00000000000E+00 -0.45593999997E+02  0.45594000000E+02  0.51100000000E-03 0.  1.
    9900012    2    1    2    0    0 -0.42026621021E+02 -0.13237067397E+02  0.93625128823E+01  0.46142317907E+02  0.10000001335E+02 0.  0.
        -12    1    1    2    0    0  0.42026621021E+02  0.13237067397E+02 -0.93625128823E+01  0.45045682093E+02  0.00000000000E+00 0.  1.
         11    1    3    3    0    0 -0.39409381621E+01 -0.23095750923E+01 -0.95163746608E+00  0.46659130759E+01  0.51100000000E-03 0. -1.
        -11    1    3    3    0    0 -0.12348187126E+02 -0.59142299052E+01  0.13173449481E+01  0.13754680609E+02  0.51100000000E-03 0.  1.
         12    1    3    3    0    0 -0.25737495733E+02 -0.50132623998E+01  0.89968054003E+01  0.27721724223E+02  0.00000000000E+00 0. -1.
</event>
<event>
 7    1  0.1683291E-008  0.4614232E+02  0.7816164E-02  0.1320468E+00
        -11   -1    0    0    0    0  0.00000000000E+00  0.00000000000E+00  0.45593999997E+02  0.45594000000E+02  0.51100000000E-03 0. -1.
         11   -1    0    0    0    0 -0.00000000000E+00 -0.00000000000E+00 -0.45593999997E+02  0.45594000000E+02  0.51100000000E-03 0.  1.
    9900012    2    1    2    0    0 -0.15785161123E+01 -0.41155058672E+02  0.18245079057E+02  0.46142317885E+02  0.10000001127E+02 0.  0.
        -12    1    1    2    0    0  0.15785161123E+01  0.41155058672E+02 -0.18245079057E+02  0.45045682115E+02  0.00000000000E+00 0.  1.
         11    1    3    3    0    0  0.27507868128E+01 -0.76168517736E+01  0.42549204216E+01  0.91480930847E+01  0.51100000000E-03 0. -1.
        -11    1    3    3    0    0 -0.10873007484E+01 -0.24333482916E+01  0.25656283123E+01  0.36994399203E+01  0.51100000000E-03 0.  1.
         12    1    3    3    0    0 -0.32420021767E+01 -0.31104858607E+02  0.11424530323E+02  0.33294784880E+02  0.00000000000E+00 0. -1.
</event>
<event>
 7    1  0.1683291E-008  0.4614232E+02  0.7816164E-02  0.1320468E+00
        -11   -1    0    0    0    0  0.00000000000E+00  0.00000000000E+00  0.45593999997E+02  0.45594000000E+02  0.51100000000E-03 0.  1.
         11   -1    0    0    0    0 -0.00000000000E+00 -0.00000000000E+00 -0.45593999997E+02  0.45594000000E+02  0.51100000000E-03 0. -1.
    9900012    2    1    2    0    0 -0.28817812741E+02 -0.25562006691E+02 -0.23350181484E+02  0.46142317714E+02  0.99999995702E+01 0.  0.
        -12    1    1    2    0    0  0.28817812741E+02  0.25562006691E+02  0.23350181484E+02  0.45045682286E+02  0.00000000000E+00 0.  1.
         11    1    3    3    0    0 -0.61389525111E+01 -0.38493491058E+01 -0.49940097411E+01  0.88002477253E+01  0.51100000000E-03 0. -1.
        -11    1    3    3    0    0 -0.16450275560E+02 -0.10706661052E+02 -0.13368198824E+02  0.23747692455E+02  0.51100000000E-03 0.  1.
        -12    1    3    3    0    0 -0.62285846702E+01 -0.11005996533E+02 -0.49879729194E+01  0.13594377534E+02  0.00000000000E+00 0.  1.
</event>
<event>
 7    1  0.1683291E-008  0.4614232E+02  0.7816164E-02  0.1320468E+00
        -11   -1    0    0    0    0  0.00000000000E+00  0.00000000000E+00  0.45593999997E+02  0.45594000000E+02  0.51100000000E-03 0. -1.
         11   -1    0    0    0    0 -0.00000000000E+00 -0.00000000000E+00 -0.45593999997E+02  0.45594000000E+02  0.51100000000E-03 0.  1.
    9900012    2    1    2    0    0  0.27912151130E+02 -0.33316273150E+02 -0.11834327100E+02  0.46142317241E+02  0.99999952612E+01 0.  0.
        -12    1    1    2    0    0 -0.27912151130E+02  0.33316273150E+02  0.11834327100E+02  0.45045682759E+02  0.00000000000E+00 0.  1.
         11    1    3    3    0    0  0.39090820356E+01 -0.70068736289E+01  0.13632392112E+01  0.81385270056E+01  0.51100000000E-03 0. -1.
        -11    1    3    3    0    0  0.61846278320E+01 -0.68241911228E+01 -0.40396753209E+01  0.10056748126E+02  0.51100000000E-03 0.  1.
         12    1    3    3    0    0  0.17818441262E+02 -0.19485208398E+02 -0.91578909902E+01  0.27947042110E+02  0.00000000000E+00 0. -1.
</event>
<event>
 7    1  0.1683291E-008  0.4614232E+02  0.7816164E-02  0.1320468E+00
        -11   -1    0    0    0    0  0.00000000000E+00  0.00000000000E+00  0.45593999997E+02  0.45594000000E+02  0.51100000000E-03 0. -1.
         11   -1    0    0    0    0 -0.00000000000E+00 -0.00000000000E+00 -0.45593999997E+02  0.45594000000E+02  0.51100000000E-03 0.  1.
    9900012    2    1    2    0    0 -0.43607999391E+02  0.89046181952E+01 -0.69399968856E+01  0.46142318821E+02  0.10000009669E+02 0.  0.
        -12    1    1    2    0    0  0.43607999391E+02 -0.89046181952E+01  0.69399968856E+01  0.45045681179E+02  0.00000000000E+00 0.  1.
         11    1    3    3    0    0 -0.30123397430E+02  0.87145063596E+01 -0.70920858493E+01  0.32150573491E+02  0.51100000000E-03 0. -1.
        -11    1    3    3    0    0 -0.12543430792E+02 -0.22098139023E-01  0.11594133938E+01  0.12596919625E+02  0.51100000000E-03 0.  1.
         12    1    3    3    0    0 -0.94117116879E+00  0.21220997462E+00 -0.10073244301E+01  0.13948257059E+01  0.00000000000E+00 0. -1.
</event>
<event>
 7    1  0.1683291E-008  0.4614232E+02  0.7816164E-02  0.1320468E+00
        -11   -1    0    0    0    0  0.00000000000E+00  0.00000000000E+00  0.45593999997E+02  0.45594000000E+02  0.51100000000E-03 0. -1.
         11   -1    0    0    0    0 -0.00000000000E+00 -0.00000000000E+00 -0.45593999997E+02  0.45594000000E+02  0.51100000000E-03 0.  1.
    9900012    2    1    2    0    0  0.26187478153E+02 -0.36161005764E+02  0.59758813336E+01  0.46142317548E+02  0.99999980584E+01 0.  0.
        -12    1    1    2    0    0 -0.26187478153E+02  0.36161005764E+02 -0.59758813336E+01  0.45045682452E+02  0.00000000000E+00 0.  1.
         11    1    3    3    0    0  0.64749790055E+01 -0.80566292542E+01  0.22053082805E+01  0.10568728066E+02  0.51100000000E-03 0. -1.
        -11    1    3    3    0    0  0.11624488761E+02 -0.16179412726E+02  0.64029567770E+01  0.20926060089E+02  0.51100000000E-03 0.  1.
        -12    1    3    3    0    0  0.80880103862E+01 -0.11924963783E+02 -0.26323837239E+01  0.14647529393E+02  0.00000000000E+00 0.  1.
</event>
<event>
 7    1  0.1683291E-008  0.4614232E+02  0.7816164E-02  0.1320468E+00
        -11   -1    0    0    0    0  0.00000000000E+00  0.00000000000E+00  0.45593999997E+02  0.45594000000E+02  0.51100000000E-03 0.  1.
         11   -1    0    0    0    0 -0.00000000000E+00 -0.00000000000E+00 -0.45593999997E+02  0.45594000000E+02  0.51100000000E-03 0. -1.
    9900012    2    1    2    0    0 -0.35827018851E+02  0.37011712244E+01 -0.27052532041E+02  0.46142318321E+02  0.10000005102E+02 0.  0.
        -12    1    1    2    0    0  0.35827018851E+02 -0.37011712244E+01  0.27052532041E+02  0.45045681679E+02  0.00000000000E+00 0.  1.
         11    1    3    3    0    0 -0.19963253273E+02  0.89970066717E+00 -0.16112081782E+02  0.25669829025E+02  0.51100000000E-03 0. -1.
        -11    1    3    3    0    0 -0.87406818358E+01  0.42287998165E+01 -0.81964525443E+01  0.12706852538E+02  0.51100000000E-03 0.  1.
         12    1    3    3    0    0 -0.71230837420E+01 -0.14273292593E+01 -0.27439977139E+01  0.77656367584E+01  0.00000000000E+00 0. -1.
</event>
<event>
 7    1  0.1683291E-008  0.4614232E+02  0.7816164E-02  0.1320468E+00
        -11   -1    0    0    0    0  0.00000000000E+00  0.00000000000E+00  0.45593999997E+02  0.45594000000E+02  0.51100000000E-03 0.  1.
         11   -1    0    0    0    0 -0.00000000000E+00 -0.00000000000E+00 -0.45593999997E+02  0.45594000000E+02  0.51100000000E-03 0. -1.
    9900012    2    1    2    0    0 -0.42767238915E+02 -0.71710630424E+01 -0.12192320386E+02  0.46142317121E+02  0.99999941668E+01 0.  0.
        -12    1    1    2    0    0  0.42767238915E+02  0.71710630424E+01  0.12192320386E+02  0.45045682879E+02  0.00000000000E+00 0.  1.
         11    1    3    3    0    0 -0.15189616936E+02  0.11256906749E+01 -0.51013945053E+01  0.16062872356E+02  0.51100000000E-03 0. -1.
        -11    1    3    3    0    0 -0.62158380407E+01 -0.16909378875E+01  0.51275751731E+00  0.64621075525E+01  0.51100000000E-03 0.  1.
         12    1    3    3    0    0 -0.21361783938E+02 -0.66058158298E+01 -0.76036833984E+01  0.23617337213E+02  0.00000000000E+00 0. -1.
</event>
<event>
 7    1  0.1683291E-008  0.4614232E+02  0.7816164E-02  0.1320468E+00
        -11   -1    0    0    0    0  0.00000000000E+00  0.00000000000E+00  0.45593999997E+02  0.45594000000E+02  0.51100000000E-03 0.  1.
         11   -1    0    0    0    0 -0.00000000000E+00 -0.00000000000E+00 -0.45593999997E+02  0.45594000000E+02  0.51100000000E-03 0. -1.
    9900012    2    1    2    0    0  0.33561582180E+02  0.18976944547E+02 -0.23293974372E+02  0.46142318023E+02  0.10000002389E+02 0.  0.
        -12    1    1    2    0    0 -0.33561582180E+02 -0.18976944547E+02  0.23293974372E+02  0.45045681977E+02  0.00000000000E+00 0.  1.
         11    1    3    3    0    0  0.14817011956E+01  0.37876476979E+01 -0.28742347719E+01  0.49802549434E+01  0.51100000000E-03 0.  1.
        -11    1    3    3    0    0  0.18214791043E+02  0.90800979515E+01 -0.14022641256E+02  0.24715607611E+02  0.51100000000E-03 0. -1.
         12    1    3    3    0    0  0.13865089942E+02  0.61091988973E+01 -0.63970983433E+01  0.16446455468E+02  0.00000000000E+00 0. -1.
</event>
<event>
 7    1  0.1683291E-008  0.4614232E+02  0.7816164E-02  0.1320468E+00
        -11   -1    0    0    0    0  0.00000000000E+00  0.00000000000E+00  0.45593999997E+02  0.45594000000E+02  0.51100000000E-03 0.  1.
         11   -1    0    0    0    0 -0.00000000000E+00 -0.00000000000E+00 -0.45593999997E+02  0.45594000000E+02  0.51100000000E-03 0. -1.
    9900012    2    1    2    0    0 -0.44317668314E+02  0.80576559144E+01 -0.36313077672E+00  0.46142318658E+02  0.10000008180E+02 0.  0.
        -12    1    1    2    0    0  0.44317668314E+02 -0.80576559144E+01  0.36313077672E+00  0.45045681342E+02  0.00000000000E+00 0.  1.
         11    1    3    3    0    0 -0.15426228090E+02  0.15534619271E+01  0.77969012770E+00  0.15523842114E+02  0.51100000000E-03 0. -1.
        -11    1    3    3    0    0 -0.41585487232E+01  0.51551823830E+00  0.25485727698E+01  0.49045397298E+01  0.51100000000E-03 0.  1.
        -12    1    3    3    0    0 -0.24732891501E+02  0.59886757490E+01 -0.36913936742E+01  0.25713936814E+02  0.00000000000E+00 0.  1.
</event>
<event>
 7    1  0.1683291E-008  0.4614232E+02  0.7816164E-02  0.1320468E+00
        -11   -1    0    0    0    0  0.00000000000E+00  0.00000000000E+00  0.45593999997E+02  0.45594000000E+02  0.51100000000E-03 0.  1.
         11   -1    0    0    0    0 -0.00000000000E+00 -0.00000000000E+00 -0.45593999997E+02  0.45594000000E+02  0.51100000000E-03 0. -1.
    9900012    2    1    2    0    0  0.81560110879E+01  0.21718297467E+02 -0.38612285152E+02  0.46142317339E+02  0.99999961464E+01 0.  0.
        -12    1    1    2    0    0 -0.81560110879E+01 -0.21718297467E+02  0.38612285152E+02  0.45045682661E+02  0.00000000000E+00 0.  1.
         11    1    3    3    0    0 -0.87286236340E+00  0.39830374922E+01 -0.69433345371E+01  0.80521035217E+01  0.51100000000E-03 0. -1.
        -11    1    3    3    0    0  0.84627336268E+01  0.99725233182E+01 -0.16636592329E+02  0.21162355406E+02  0.51100000000E-03 0.  1.
        -12    1    3    3    0    0  0.56613982447E+00  0.77627366570E+01 -0.15032358287E+02  0.16927858411E+02  0.00000000000E+00 0.  1.
</event>
<event>
 7    1  0.1683291E-008  0.4614231E+02  0.7816164E-02  0.1320468E+00
        -11   -1    0    0    0    0  0.00000000000E+00  0.00000000000E+00  0.45593999997E+02  0.45594000000E+02  0.51100000000E-03 0. -1.
         11   -1    0    0    0    0 -0.00000000000E+00 -0.00000000000E+00 -0.45593999997E+02  0.45594000000E+02  0.51100000000E-03 0.  1.
    9900012    2    1    2    0    0 -0.32108034999E+02  0.25005659961E+02  0.19310749708E+02  0.46142312128E+02  0.99999486362E+01 0.  0.
        -12    1    1    2    0    0  0.32108034999E+02 -0.25005659961E+02 -0.19310749708E+02  0.45045687872E+02  0.00000000000E+00 0.  1.
         11    1    3    3    0    0 -0.13692955641E+02  0.76893972485E+01  0.65734763544E+01  0.17024525129E+02  0.51100000000E-03 0. -1.
        -11    1    3    3    0    0 -0.22801866720E+01  0.51527714671E+01  0.48233144567E+01  0.74171873147E+01  0.51100000000E-03 0.  1.
         12    1    3    3    0    0 -0.16134892686E+02  0.12163491245E+02  0.79139588966E+01  0.21700599685E+02  0.00000000000E+00 0. -1.
</event>
<event>
 7    1  0.1683291E-008  0.4614232E+02  0.7816164E-02  0.1320468E+00
        -11   -1    0    0    0    0  0.00000000000E+00  0.00000000000E+00  0.45593999997E+02  0.45594000000E+02  0.51100000000E-03 0.  1.
         11   -1    0    0    0    0 -0.00000000000E+00 -0.00000000000E+00 -0.45593999997E+02  0.45594000000E+02  0.51100000000E-03 0. -1.
    9900012    2    1    2    0    0 -0.58308731303E+01  0.40924503887E+02 -0.17896910372E+02  0.46142317624E+02  0.99999987516E+01 0.  0.
        -12    1    1    2    0    0  0.58308731303E+01 -0.40924503887E+02  0.17896910372E+02  0.45045682376E+02  0.00000000000E+00 0.  1.
         11    1    3    3    0    0 -0.89401733821E+00  0.10074954865E+01 -0.28541082718E+01  0.31559861287E+01  0.51100000000E-03 0. -1.
        -11    1    3    3    0    0 -0.45188987664E+01  0.30170003206E+02 -0.11709932414E+02  0.32676781618E+02  0.51100000000E-03 0.  1.
         12    1    3    3    0    0 -0.41795702571E+00  0.97470051938E+01 -0.33328696867E+01  0.10309549877E+02  0.00000000000E+00 0. -1.
</event>
<event>
 7    1  0.1683291E-008  0.4614232E+02  0.7816164E-02  0.1320468E+00
        -11   -1    0    0    0    0  0.00000000000E+00  0.00000000000E+00  0.45593999997E+02  0.45594000000E+02  0.51100000000E-03 0.  1.
         11   -1    0    0    0    0 -0.00000000000E+00 -0.00000000000E+00 -0.45593999997E+02  0.45594000000E+02  0.51100000000E-03 0. -1.
    9900012    2    1    2    0    0 -0.34382664244E+02 -0.17230698310E+02 -0.23453123397E+02  0.46142316946E+02  0.99999925659E+01 0.  0.
        -12    1    1    2    0    0  0.34382664244E+02  0.17230698310E+02  0.23453123397E+02  0.45045683054E+02  0.00000000000E+00 0.  1.
         11    1    3    3    0    0 -0.13769794448E+02 -0.81066841377E+01 -0.11752787813E+02  0.19835664559E+02  0.51100000000E-03 0. -1.
        -11    1    3    3    0    0 -0.17277880701E+02 -0.93874466743E+01 -0.11849793663E+02  0.22957938207E+02  0.51100000000E-03 0.  1.
        -12    1    3    3    0    0 -0.33349890948E+01  0.26343250181E+00  0.14945807940E+00  0.33487141805E+01  0.00000000000E+00 0.  1.
</event>
<event>
 7    1  0.1683291E-008  0.4614232E+02  0.7816164E-02  0.1320468E+00
        -11   -1    0    0    0    0  0.00000000000E+00  0.00000000000E+00  0.45593999997E+02  0.45594000000E+02  0.51100000000E-03 0.  1.
         11   -1    0    0    0    0 -0.00000000000E+00 -0.00000000000E+00 -0.45593999997E+02  0.45594000000E+02  0.51100000000E-03 0. -1.
    9900012    2    1    2    0    0  0.19733585022E+02  0.27518989667E+00 -0.40492262855E+02  0.46142318093E+02  0.10000003030E+02 0.  0.
        -12    1    1    2    0    0 -0.19733585022E+02 -0.27518989667E+00  0.40492262855E+02  0.45045681907E+02  0.00000000000E+00 0.  1.
         11    1    3    3    0    0  0.41914586046E+01 -0.28930656201E+01 -0.68262449016E+01  0.85167936240E+01  0.51100000000E-03 0. -1.
        -11    1    3    3    0    0  0.15616931263E+02  0.38373679366E+01 -0.32784860904E+02  0.36516585814E+02  0.51100000000E-03 0.  1.
        -12    1    3    3    0    0 -0.74804845769E-01 -0.66911241981E+00 -0.88115704963E+00  0.11089386554E+01  0.00000000000E+00 0.  1.
</event>
<event>
 7    1  0.1683291E-008  0.4614232E+02  0.7816164E-02  0.1320468E+00
        -11   -1    0    0    0    0  0.00000000000E+00  0.00000000000E+00  0.45593999997E+02  0.45594000000E+02  0.51100000000E-03 0.  1.
         11   -1    0    0    0    0 -0.00000000000E+00 -0.00000000000E+00 -0.45593999997E+02  0.45594000000E+02  0.51100000000E-03 0. -1.
    9900012    2    1    2    0    0  0.17459873409E+02 -0.36894901618E+02 -0.19053412883E+02  0.46142317772E+02  0.10000000104E+02 0.  0.
        -12    1    1    2    0    0 -0.17459873409E+02  0.36894901618E+02  0.19053412883E+02  0.45045682228E+02  0.00000000000E+00 0.  1.
         11    1    3    3    0    0  0.17378892103E+02 -0.31321642563E+02 -0.16183744943E+02  0.39306294460E+02  0.51100000000E-03 0. -1.
        -11    1    3    3    0    0  0.10909832359E+01 -0.19583775152E+01 -0.24302091910E+00  0.22548938648E+01  0.51100000000E-03 0.  1.
         12    1    3    3    0    0 -0.10100019291E+01 -0.36148815401E+01 -0.26266470211E+01  0.45811294480E+01  0.00000000000E+00 0. -1.
</event>
<event>
 7    1  0.1683291E-008  0.4614232E+02  0.7816164E-02  0.1320468E+00
        -11   -1    0    0    0    0  0.00000000000E+00  0.00000000000E+00  0.45593999997E+02  0.45594000000E+02  0.51100000000E-03 0.  1.
         11   -1    0    0    0    0 -0.00000000000E+00 -0.00000000000E+00 -0.45593999997E+02  0.45594000000E+02  0.51100000000E-03 0. -1.
    9900012    2    1    2    0    0  0.15016946746E+02 -0.30556988871E+02 -0.29493649303E+02  0.46142316437E+02  0.99999879247E+01 0.  0.
        -12    1    1    2    0    0 -0.15016946746E+02  0.30556988871E+02  0.29493649303E+02  0.45045683563E+02  0.00000000000E+00 0.  1.
         11    1    3    3    0    0  0.78204155756E+01 -0.10531612276E+02 -0.12973400581E+02  0.18449468280E+02  0.51100000000E-03 0. -1.
        -11    1    3    3    0    0 -0.10589678588E+01 -0.42593175191E+01 -0.26248029806E+01  0.51139798203E+01  0.51100000000E-03 0.  1.
        -12    1    3    3    0    0  0.82554990295E+01 -0.15766059076E+02 -0.13895445741E+02  0.22578868337E+02  0.00000000000E+00 0.  1.
</event>
<event>
 7    1  0.1683291E-008  0.4614232E+02  0.7816164E-02  0.1320468E+00
        -11   -1    0    0    0    0  0.00000000000E+00  0.00000000000E+00  0.45593999997E+02  0.45594000000E+02  0.51100000000E-03 0.  1.
         11   -1    0    0    0    0 -0.00000000000E+00 -0.00000000000E+00 -0.45593999997E+02  0.45594000000E+02  0.51100000000E-03 0. -1.
    9900012    2    1    2    0    0  0.71840090114E+01 -0.38807815591E-01 -0.44469112455E+02  0.46142318142E+02  0.10000003472E+02 0.  0.
        -12    1    1    2    0    0 -0.71840090114E+01  0.38807815591E-01  0.44469112455E+02  0.45045681858E+02  0.00000000000E+00 0.  1.
         11    1    3    3    0    0  0.56582874324E+01  0.26418111704E+01 -0.32968821823E+02  0.33555008502E+02  0.51100000000E-03 0. -1.
        -11    1    3    3    0    0 -0.34672421137E+00 -0.17335488961E+01 -0.13553598966E+01  0.22276467773E+01  0.51100000000E-03 0.  1.
        -12    1    3    3    0    0  0.18724457903E+01 -0.94707008992E+00 -0.10144930735E+02  0.10359662862E+02  0.00000000000E+00 0.  1.
</event>
<event>
 7    1  0.1683291E-008  0.4614231E+02  0.7816164E-02  0.1320468E+00
        -11   -1    0    0    0    0  0.00000000000E+00  0.00000000000E+00  0.45593999997E+02  0.45594000000E+02  0.51100000000E-03 0. -1.
         11   -1    0    0    0    0 -0.00000000000E+00 -0.00000000000E+00 -0.45593999997E+02  0.45594000000E+02  0.51100000000E-03 0.  1.
    9900012    2    1    2    0    0 -0.19757862845E+02  0.40444166100E+02 -0.17351621567E+01  0.46142306494E+02  0.99998972552E+01 0.  0.
        -12    1    1    2    0    0  0.19757862845E+02 -0.40444166100E+02  0.17351621567E+01  0.45045693506E+02  0.00000000000E+00 0.  1.
         11    1    3    3    0    0 -0.48551433492E+01  0.15973135589E+02 -0.34925476169E+00  0.16698366885E+02  0.51100000000E-03 0. -1.
        -11    1    3    3    0    0 -0.45230741648E+01  0.10229859923E+02  0.23513012067E+01  0.11429647920E+02  0.51100000000E-03 0.  1.
         12    1    3    3    0    0 -0.10379645331E+02  0.14241170589E+02 -0.37372086017E+01  0.18014291689E+02  0.00000000000E+00 0. -1.
</event>
<event>
 7    1  0.1683291E-008  0.4614232E+02  0.7816164E-02  0.1320468E+00
        -11   -1    0    0    0    0  0.00000000000E+00  0.00000000000E+00  0.45593999997E+02  0.45594000000E+02  0.51100000000E-03 0.  1.
         11   -1    0    0    0    0 -0.00000000000E+00 -0.00000000000E+00 -0.45593999997E+02  0.45594000000E+02  0.51100000000E-03 0. -1.
    9900012    2    1    2    0    0 -0.85734177732E+01  0.35631207059E+02 -0.26192118860E+02  0.46142317641E+02  0.99999989066E+01 0.  0.
        -12    1    1    2    0    0  0.85734177732E+01 -0.35631207059E+02  0.26192118860E+02  0.45045682359E+02  0.00000000000E+00 0.  1.
         11    1    3    3    0    0 -0.16876560760E+01  0.22641458263E+01 -0.42479682522E-01  0.28242422237E+01  0.51100000000E-03 0. -1.
        -11    1    3    3    0    0 -0.38750276302E+01  0.70394046049E+01 -0.61190048936E+01  0.10100063241E+02  0.51100000000E-03 0.  1.
         12    1    3    3    0    0 -0.30107340670E+01  0.26327656628E+02 -0.20030634284E+02  0.33218012176E+02  0.00000000000E+00 0. -1.
</event>
<event>
 7    1  0.1683291E-008  0.4614232E+02  0.7816164E-02  0.1320468E+00
        -11   -1    0    0    0    0  0.00000000000E+00  0.00000000000E+00  0.45593999997E+02  0.45594000000E+02  0.51100000000E-03 0.  1.
         11   -1    0    0    0    0 -0.00000000000E+00 -0.00000000000E+00 -0.45593999997E+02  0.45594000000E+02  0.51100000000E-03 0. -1.
    9900012    2    1    2    0    0 -0.10226703337E+02 -0.36629709219E+02 -0.24141093969E+02  0.46142317891E+02  0.10000001188E+02 0.  0.
        -12    1    1    2    0    0  0.10226703337E+02  0.36629709219E+02  0.24141093969E+02  0.45045682109E+02  0.00000000000E+00 0.  1.
         11    1    3    3    0    0 -0.38309619808E+01 -0.16360271899E+02 -0.10306761802E+02  0.19712029460E+02  0.51100000000E-03 0. -1.
        -11    1    3    3    0    0 -0.42222099004E+01 -0.32838000024E+01 -0.25770773777E+01  0.59373164789E+01  0.51100000000E-03 0.  1.
        -12    1    3    3    0    0 -0.21735314556E+01 -0.16985637318E+02 -0.11257254789E+02  0.20492971953E+02  0.00000000000E+00 0.  1.
</event>
<event>
 7    1  0.1683291E-008  0.4614232E+02  0.7816164E-02  0.1320468E+00
        -11   -1    0    0    0    0  0.00000000000E+00  0.00000000000E+00  0.45593999997E+02  0.45594000000E+02  0.51100000000E-03 0.  1.
         11   -1    0    0    0    0 -0.00000000000E+00 -0.00000000000E+00 -0.45593999997E+02  0.45594000000E+02  0.51100000000E-03 0. -1.
    9900012    2    1    2    0    0  0.59537625964E+01  0.44542196033E+02 -0.31078850573E+01  0.46142318009E+02  0.10000002265E+02 0.  0.
        -12    1    1    2    0    0 -0.59537625964E+01 -0.44542196033E+02  0.31078850573E+01  0.45045681991E+02  0.00000000000E+00 0.  1.
         11    1    3    3    0    0  0.29215231796E+01  0.11438086841E+02 -0.21208185307E+01  0.11994290298E+02  0.51100000000E-03 0. -1.
        -11    1    3    3    0    0 -0.22315341998E+01  0.42371810367E+01 -0.26539198178E+00  0.47962361481E+01  0.51100000000E-03 0.  1.
        -12    1    3    3    0    0  0.52637736166E+01  0.28866928155E+02 -0.72167454483E+00  0.29351791563E+02  0.00000000000E+00 0.  1.
</event>
<event>
 7    1  0.1683291E-008  0.4614232E+02  0.7816164E-02  0.1320468E+00
        -11   -1    0    0    0    0  0.00000000000E+00  0.00000000000E+00  0.45593999997E+02  0.45594000000E+02  0.51100000000E-03 0.  1.
         11   -1    0    0    0    0 -0.00000000000E+00 -0.00000000000E+00 -0.45593999997E+02  0.45594000000E+02  0.51100000000E-03 0. -1.
    9900012    2    1    2    0    0  0.61475104428E+01  0.34992478094E+02 -0.27692020586E+02  0.46142318610E+02  0.10000007738E+02 0.  0.
        -12    1    1    2    0    0 -0.61475104428E+01 -0.34992478094E+02  0.27692020586E+02  0.45045681390E+02  0.00000000000E+00 0.  1.
         11    1    3    3    0    0  0.57237122942E+00  0.10664975619E+02 -0.53642309127E+01  0.11951748296E+02  0.51100000000E-03 0. -1.
        -11    1    3    3    0    0 -0.70932857334E+00  0.11716942831E+02 -0.11360097506E+02  0.16335290384E+02  0.51100000000E-03 0.  1.
        -12    1    3    3    0    0  0.62844677867E+01  0.12610559643E+02 -0.10967692167E+02  0.17855279930E+02  0.00000000000E+00 0.  1.
</event>
<event>
 7    1  0.1683291E-008  0.4614232E+02  0.7816164E-02  0.1320468E+00
        -11   -1    0    0    0    0  0.00000000000E+00  0.00000000000E+00  0.45593999997E+02  0.45594000000E+02  0.51100000000E-03 0. -1.
         11   -1    0    0    0    0 -0.00000000000E+00 -0.00000000000E+00 -0.45593999997E+02  0.45594000000E+02  0.51100000000E-03 0.  1.
    9900012    2    1    2    0    0  0.26155802739E+02  0.36141923402E+02  0.62248567198E+01  0.46142317795E+02  0.10000000311E+02 0.  0.
        -12    1    1    2    0    0 -0.26155802739E+02 -0.36141923402E+02 -0.62248567198E+01  0.45045682205E+02  0.00000000000E+00 0.  1.
         11    1    3    3    0    0  0.25053847822E+02  0.32075291281E+02  0.45476698401E+01  0.40953643338E+02  0.51100000000E-03 0. -1.
        -11    1    3    3    0    0  0.41289725490E+00  0.98332340124E+00  0.17260220584E+01  0.20289311131E+01  0.51100000000E-03 0.  1.
         12    1    3    3    0    0  0.68905766196E+00  0.30833087202E+01 -0.48835178726E-01  0.31597433441E+01  0.00000000000E+00 0. -1.
</event>
<event>
 7    1  0.1683291E-008  0.4614232E+02  0.7816164E-02  0.1320468E+00
        -11   -1    0    0    0    0  0.00000000000E+00  0.00000000000E+00  0.45593999997E+02  0.45594000000E+02  0.51100000000E-03 0.  1.
         11   -1    0    0    0    0 -0.00000000000E+00 -0.00000000000E+00 -0.45593999997E+02  0.45594000000E+02  0.51100000000E-03 0. -1.
    9900012    2    1    2    0    0 -0.48636056111E+01  0.39427578097E+02 -0.21234991896E+02  0.46142318132E+02  0.10000003382E+02 0.  0.
        -12    1    1    2    0    0  0.48636056111E+01 -0.39427578097E+02  0.21234991896E+02  0.45045681868E+02  0.00000000000E+00 0.  1.
         11    1    3    3    0    0 -0.12783760427E+01  0.61477716499E+01 -0.43215808373E+01  0.76226899950E+01  0.51100000000E-03 0. -1.
        -11    1    3    3    0    0  0.17313712819E+01  0.37913860599E+01 -0.43619088438E+01  0.60331172534E+01  0.51100000000E-03 0.  1.
        -12    1    3    3    0    0 -0.53166008502E+01  0.29488420387E+02 -0.12551502215E+02  0.32486510884E+02  0.00000000000E+00 0.  1.
</event>
<event>
 7    1  0.1683291E-008  0.4614232E+02  0.7816164E-02  0.1320468E+00
        -11   -1    0    0    0    0  0.00000000000E+00  0.00000000000E+00  0.45593999997E+02  0.45594000000E+02  0.51100000000E-03 0.  1.
         11   -1    0    0    0    0 -0.00000000000E+00 -0.00000000000E+00 -0.45593999997E+02  0.45594000000E+02  0.51100000000E-03 0. -1.
    9900012    2    1    2    0    0 -0.44972796599E+02 -0.24751590086E+01 -0.65929935796E+00  0.46142317391E+02  0.99999966222E+01 0.  0.
        -12    1    1    2    0    0  0.44972796599E+02  0.24751590086E+01  0.65929935796E+00  0.45045682609E+02  0.00000000000E+00 0.  1.
         11    1    3    3    0    0 -0.55334471662E+01  0.21962484961E+01 -0.16383384533E+01  0.61746820279E+01  0.51100000000E-03 0.  1.
        -11    1    3    3    0    0 -0.20731494049E+02 -0.28244474067E+00  0.14993253058E+00  0.20733960079E+02  0.51100000000E-03 0. -1.
        -12    1    3    3    0    0 -0.18707855384E+02 -0.43889627640E+01  0.82910656477E+00  0.19233675284E+02  0.00000000000E+00 0.  1.
</event>
<event>
 7    1  0.1683291E-008  0.4614232E+02  0.7816164E-02  0.1320468E+00
        -11   -1    0    0    0    0  0.00000000000E+00  0.00000000000E+00  0.45593999997E+02  0.45594000000E+02  0.51100000000E-03 0. -1.
         11   -1    0    0    0    0 -0.00000000000E+00 -0.00000000000E+00 -0.45593999997E+02  0.45594000000E+02  0.51100000000E-03 0.  1.
    9900012    2    1    2    0    0  0.34314115367E+02 -0.14637100908E+02 -0.25246986955E+02  0.46142316669E+02  0.99999900457E+01 0.  0.
        -12    1    1    2    0    0 -0.34314115367E+02  0.14637100908E+02  0.25246986955E+02  0.45045683331E+02  0.00000000000E+00 0.  1.
         11    1    3    3    0    0  0.26059340883E+02 -0.11584416587E+02 -0.18312361169E+02  0.33891452119E+02  0.51100000000E-03 0. -1.
        -11    1    3    3    0    0  0.18187155327E+01 -0.52354933940E+00 -0.45636775965E+01  0.49405448652E+01  0.51100000000E-03 0.  1.
         12    1    3    3    0    0  0.64360589512E+01 -0.25291349812E+01 -0.23709481901E+01  0.73103196850E+01  0.00000000000E+00 0. -1.
</event>
<event>
 7    1  0.1683291E-008  0.4614232E+02  0.7816164E-02  0.1320468E+00
        -11   -1    0    0    0    0  0.00000000000E+00  0.00000000000E+00  0.45593999997E+02  0.45594000000E+02  0.51100000000E-03 0.  1.
         11   -1    0    0    0    0 -0.00000000000E+00 -0.00000000000E+00 -0.45593999997E+02  0.45594000000E+02  0.51100000000E-03 0. -1.
    9900012    2    1    2    0    0 -0.24569342411E+02 -0.30935826223E+02 -0.21643373348E+02  0.46142317183E+02  0.99999947310E+01 0.  0.
        -12    1    1    2    0    0  0.24569342411E+02  0.30935826223E+02  0.21643373348E+02  0.45045682817E+02  0.00000000000E+00 0.  1.
         11    1    3    3    0    0 -0.47817284937E+01 -0.34055202796E+01 -0.42720263169E+01  0.72603515670E+01  0.51100000000E-03 0. -1.
        -11    1    3    3    0    0 -0.91581294071E+01 -0.17553136690E+02 -0.70361031030E+01  0.21011679825E+02  0.51100000000E-03 0.  1.
        -12    1    3    3    0    0 -0.10629484510E+02 -0.99771692524E+01 -0.10335243928E+02  0.17870285792E+02  0.00000000000E+00 0.  1.
</event>
<event>
 7    1  0.1683291E-008  0.4614232E+02  0.7816164E-02  0.1320468E+00
        -11   -1    0    0    0    0  0.00000000000E+00  0.00000000000E+00  0.45593999997E+02  0.45594000000E+02  0.51100000000E-03 0.  1.
         11   -1    0    0    0    0 -0.00000000000E+00 -0.00000000000E+00 -0.45593999997E+02  0.45594000000E+02  0.51100000000E-03 0. -1.
    9900012    2    1    2    0    0 -0.10892680311E+02  0.27319746711E+01 -0.43623381013E+02  0.46142317177E+02  0.99999946754E+01 0.  0.
        -12    1    1    2    0    0  0.10892680311E+02 -0.27319746711E+01  0.43623381013E+02  0.45045682823E+02  0.00000000000E+00 0.  1.
         11    1    3    3    0    0 -0.82695976861E+01  0.21217551260E+01 -0.29020022288E+02  0.30249789827E+02  0.51100000000E-03 0. -1.
        -11    1    3    3    0    0 -0.34285152343E+01  0.11930039824E+00 -0.40957632675E+01  0.53426796929E+01  0.51100000000E-03 0.  1.
        -12    1    3    3    0    0  0.80543260936E+00  0.49091914687E+00 -0.10507595458E+02  0.10549847658E+02  0.00000000000E+00 0.  1.
</event>
<event>
 7    1  0.1683291E-008  0.4614232E+02  0.7816164E-02  0.1320468E+00
        -11   -1    0    0    0    0  0.00000000000E+00  0.00000000000E+00  0.45593999997E+02  0.45594000000E+02  0.51100000000E-03 0. -1.
         11   -1    0    0    0    0 -0.00000000000E+00 -0.00000000000E+00 -0.45593999997E+02  0.45594000000E+02  0.51100000000E-03 0.  1.
    9900012    2    1    2    0    0  0.32644393998E+02  0.14399101366E+01  0.31006189154E+02  0.46142316893E+02  0.99999920840E+01 0.  0.
        -12    1    1    2    0    0 -0.32644393998E+02 -0.14399101366E+01 -0.31006189154E+02  0.45045683107E+02  0.00000000000E+00 0.  1.
         11    1    3    3    0    0  0.13010934567E+02  0.51023439195E+01  0.10206676249E+02  0.17305911478E+02  0.51100000000E-03 0. -1.
        -11    1    3    3    0    0  0.11153306565E+02 -0.21434167416E+01  0.11734883959E+02  0.16330890498E+02  0.51100000000E-03 0.  1.
         12    1    3    3    0    0  0.84801528671E+01 -0.15190170412E+01  0.90646289460E+01  0.12505514917E+02  0.00000000000E+00 0. -1.
</event>
<event>
 7    1  0.1683291E-008  0.4614232E+02  0.7816164E-02  0.1320468E+00
        -11   -1    0    0    0    0  0.00000000000E+00  0.00000000000E+00  0.45593999997E+02  0.45594000000E+02  0.51100000000E-03 0.  1.
         11   -1    0    0    0    0 -0.00000000000E+00 -0.00000000000E+00 -0.45593999997E+02  0.45594000000E+02  0.51100000000E-03 0. -1.
    9900012    2    1    2    0    0 -0.37403763831E+02  0.17799762582E+02 -0.17698599735E+02  0.46142317307E+02  0.99999958625E+01 0.  0.
        -12    1    1    2    0    0  0.37403763831E+02 -0.17799762582E+02  0.17698599735E+02  0.45045682693E+02  0.00000000000E+00 0.  1.
         11    1    3    3    0    0 -0.23175155248E+02  0.11273288291E+02 -0.90974044550E+01  0.27330159490E+02  0.51100000000E-03 0. -1.
        -11    1    3    3    0    0 -0.74197621441E+01  0.19437844827E+00 -0.34917177132E+01  0.82026060558E+01  0.51100000000E-03 0.  1.
        -12    1    3    3    0    0 -0.68088464385E+01  0.63320958422E+01 -0.51094775663E+01  0.10609551761E+02  0.00000000000E+00 0.  1.
</event>
<event>
 7    1  0.1683291E-008  0.4614232E+02  0.7816164E-02  0.1320468E+00
        -11   -1    0    0    0    0  0.00000000000E+00  0.00000000000E+00  0.45593999997E+02  0.45594000000E+02  0.51100000000E-03 0.  1.
         11   -1    0    0    0    0 -0.00000000000E+00 -0.00000000000E+00 -0.45593999997E+02  0.45594000000E+02  0.51100000000E-03 0. -1.
    9900012    2    1    2    0    0 -0.32486023617E+02  0.18732715275E+02 -0.24957103086E+02  0.46142319337E+02  0.10000014366E+02 0.  0.
        -12    1    1    2    0    0  0.32486023617E+02 -0.18732715275E+02  0.24957103086E+02  0.45045680663E+02  0.00000000000E+00 0.  1.
         11    1    3    3    0    0 -0.21412207036E+01  0.41010737326E+01 -0.47069887422E+01  0.65999526621E+01  0.51100000000E-03 0. -1.
        -11    1    3    3    0    0 -0.11190949595E+02  0.71423717878E+01 -0.63259405445E+01  0.14706065130E+02  0.51100000000E-03 0.  1.
         12    1    3    3    0    0 -0.19153853318E+02  0.74892697546E+01 -0.13924173799E+02  0.24836301544E+02  0.00000000000E+00 0. -1.
</event>
<event>
 7    1  0.1683291E-008  0.4614232E+02  0.7816164E-02  0.1320468E+00
        -11   -1    0    0    0    0  0.00000000000E+00  0.00000000000E+00  0.45593999997E+02  0.45594000000E+02  0.51100000000E-03 0. -1.
         11   -1    0    0    0    0 -0.00000000000E+00 -0.00000000000E+00 -0.45593999997E+02  0.45594000000E+02  0.51100000000E-03 0.  1.
    9900012    2    1    2    0    0 -0.10733385990E+02  0.10148316973E+02  0.42554902484E+02  0.46142316104E+02  0.99999848932E+01 0.  0.
        -12    1    1    2    0    0  0.10733385990E+02 -0.10148316973E+02 -0.42554902484E+02  0.45045683896E+02  0.00000000000E+00 0.  1.
         11    1    3    3    0    0  0.11399194438E+01  0.38018586679E+01  0.10827233338E+02  0.11531805049E+02  0.51100000000E-03 0. -1.
        -11    1    3    3    0    0 -0.10477647854E+02  0.52006525409E+01  0.24333201865E+02  0.26998751909E+02  0.51100000000E-03 0.  1.
        -12    1    3    3    0    0 -0.13956575801E+01  0.11458057644E+01  0.73944672806E+01  0.76117591459E+01  0.00000000000E+00 0.  1.
</event>
<event>
 7    1  0.1683291E-008  0.4614231E+02  0.7816164E-02  0.1320468E+00
        -11   -1    0    0    0    0  0.00000000000E+00  0.00000000000E+00  0.45593999997E+02  0.45594000000E+02  0.51100000000E-03 0.  1.
         11   -1    0    0    0    0 -0.00000000000E+00 -0.00000000000E+00 -0.45593999997E+02  0.45594000000E+02  0.51100000000E-03 0. -1.
    9900012    2    1    2    0    0  0.15928778859E+02 -0.29385175377E+02 -0.30197674504E+02  0.46142311268E+02  0.99999407893E+01 0.  0.
        -12    1    1    2    0    0 -0.15928778859E+02  0.29385175377E+02  0.30197674504E+02  0.45045688732E+02  0.00000000000E+00 0.  1.
         11    1    3    3    0    0  0.67853005911E+01 -0.11864176234E+02 -0.15327952814E+02  0.20536433954E+02  0.51100000000E-03 0. -1.
        -11    1    3    3    0    0  0.16517906777E+01 -0.25801337258E+01 -0.58739631786E+01  0.66248732947E+01  0.51100000000E-03 0.  1.
         12    1    3    3    0    0  0.74916875905E+01 -0.14940865418E+02 -0.89957585118E+01  0.18981004020E+02  0.00000000000E+00 0. -1.
</event>
<event>
 7    1  0.1683291E-008  0.4614232E+02  0.7816164E-02  0.1320468E+00
        -11   -1    0    0    0    0  0.00000000000E+00  0.00000000000E+00  0.45593999997E+02  0.45594000000E+02  0.51100000000E-03 0.  1.
         11   -1    0    0    0    0 -0.00000000000E+00 -0.00000000000E+00 -0.45593999997E+02  0.45594000000E+02  0.51100000000E-03 0. -1.
    9900012    2    1    2    0    0  0.39754786936E+02  0.21119820633E+00 -0.21180786868E+02  0.46142318505E+02  0.10000006785E+02 0.  0.
        -12    1    1    2    0    0 -0.39754786936E+02 -0.21119820633E+00  0.21180786868E+02  0.45045681495E+02  0.00000000000E+00 0.  1.
         11    1    3    3    0    0  0.15974501174E+02  0.29981947393E+01 -0.88874028360E+01  0.18524572569E+02  0.51100000000E-03 0.  1.
        -11    1    3    3    0    0  0.14477354005E+02 -0.35632643702E+01 -0.10159254545E+02  0.18041648625E+02  0.51100000000E-03 0. -1.
        -12    1    3    3    0    0  0.93029317568E+01  0.77626783729E+00 -0.21341294875E+01  0.95760973102E+01  0.00000000000E+00 0.  1.
</event>
<event>
 7    1  0.1683291E-008  0.4614232E+02  0.7816164E-02  0.1320468E+00
        -11   -1    0    0    0    0  0.00000000000E+00  0.00000000000E+00  0.45593999997E+02  0.45594000000E+02  0.51100000000E-03 0.  1.
         11   -1    0    0    0    0 -0.00000000000E+00 -0.00000000000E+00 -0.45593999997E+02  0.45594000000E+02  0.51100000000E-03 0. -1.
    9900012    2    1    2    0    0  0.40787304596E+02 -0.47728973329E+00 -0.19112337923E+02  0.46142317825E+02  0.10000000587E+02 0.  0.
        -12    1    1    2    0    0 -0.40787304596E+02  0.47728973329E+00  0.19112337923E+02  0.45045682175E+02  0.00000000000E+00 0.  1.
         11    1    3    3    0    0  0.20853588335E+02  0.15619128812E+01 -0.14260040153E+02  0.25311271476E+02  0.51100000000E-03 0. -1.
        -11    1    3    3    0    0  0.17019901882E+02 -0.27293642863E+01 -0.37528739128E+01  0.17641160743E+02  0.51100000000E-03 0.  1.
         12    1    3    3    0    0  0.29138143790E+01  0.69016167186E+00 -0.10994238567E+01  0.31898856069E+01  0.00000000000E+00 0. -1.
</event>
<event>
 7    1  0.1683291E-008  0.4614232E+02  0.7816164E-02  0.1320468E+00
        -11   -1    0    0    0    0  0.00000000000E+00  0.00000000000E+00  0.45593999997E+02  0.45594000000E+02  0.51100000000E-03 0. -1.
         11   -1    0    0    0    0 -0.00000000000E+00 -0.00000000000E+00 -0.45593999997E+02  0.45594000000E+02  0.51100000000E-03 0.  1.
    9900012    2    1    2    0    0  0.39441470734E+02 -0.46159566721E+01  0.21264449504E+02  0.46142317827E+02  0.10000000604E+02 0.  0.
        -12    1    1    2    0    0 -0.39441470734E+02  0.46159566721E+01 -0.21264449504E+02  0.45045682173E+02  0.00000000000E+00 0.  1.
         11    1    3    3    0    0  0.33752035435E+02 -0.58650320133E+01  0.15872922814E+02  0.37756432240E+02  0.51100000000E-03 0. -1.
        -11    1    3    3    0    0  0.16834697416E+01  0.94017720055E+00  0.33830805607E+01  0.38940002415E+01  0.51100000000E-03 0.  1.
         12    1    3    3    0    0  0.40059655576E+01  0.30889814064E+00  0.20084461291E+01  0.44918853462E+01  0.00000000000E+00 0. -1.
</event>
<event>
 7    1  0.1683291E-008  0.4614232E+02  0.7816164E-02  0.1320468E+00
        -11   -1    0    0    0    0  0.00000000000E+00  0.00000000000E+00  0.45593999997E+02  0.45594000000E+02  0.51100000000E-03 0. -1.
         11   -1    0    0    0    0 -0.00000000000E+00 -0.00000000000E+00 -0.45593999997E+02  0.45594000000E+02  0.51100000000E-03 0.  1.
    9900012    2    1    2    0    0 -0.15941521796E+02 -0.41277164816E+02 -0.84366466107E+01  0.46142318093E+02  0.10000003031E+02 0.  0.
        -12    1    1    2    0    0  0.15941521796E+02  0.41277164816E+02  0.84366466107E+01  0.45045681907E+02  0.00000000000E+00 0.  1.
         11    1    3    3    0    0 -0.22140248958E+01 -0.99115174949E+01 -0.20332815440E+01  0.10357331673E+02  0.51100000000E-03 0. -1.
        -11    1    3    3    0    0  0.84587137386E+00 -0.44902511461E+01 -0.15786613393E+01  0.48342554361E+01  0.51100000000E-03 0.  1.
        -12    1    3    3    0    0 -0.14573368274E+02 -0.26875396175E+02 -0.48247037274E+01  0.30950730984E+02  0.00000000000E+00 0.  1.
</event>
<event>
 7    1  0.1683291E-008  0.4614232E+02  0.7816164E-02  0.1320468E+00
        -11   -1    0    0    0    0  0.00000000000E+00  0.00000000000E+00  0.45593999997E+02  0.45594000000E+02  0.51100000000E-03 0. -1.
         11   -1    0    0    0    0 -0.00000000000E+00 -0.00000000000E+00 -0.45593999997E+02  0.45594000000E+02  0.51100000000E-03 0.  1.
    9900012    2    1    2    0    0 -0.18233661265E+02 -0.16250626320E+02  0.37849230333E+02  0.46142317679E+02  0.99999992524E+01 0.  0.
        -12    1    1    2    0    0  0.18233661265E+02  0.16250626320E+02 -0.37849230333E+02  0.45045682321E+02  0.00000000000E+00 0.  1.
         11    1    3    3    0    0 -0.13904138533E+02 -0.95339866436E+01  0.23825883684E+02  0.29187235279E+02  0.51100000000E-03 0. -1.
        -11    1    3    3    0    0 -0.24034719663E+00 -0.38627303211E+01  0.93564224651E+01  0.10125270066E+02  0.51100000000E-03 0.  1.
        -12    1    3    3    0    0 -0.40891755359E+01 -0.28539093554E+01  0.46669241843E+01  0.68298123338E+01  0.00000000000E+00 0.  1.
</event>
<event>
 7    1  0.1683291E-008  0.4614232E+02  0.7816164E-02  0.1320468E+00
        -11   -1    0    0    0    0  0.00000000000E+00  0.00000000000E+00  0.45593999997E+02  0.45594000000E+02  0.51100000000E-03 0.  1.
         11   -1    0    0    0    0 -0.00000000000E+00 -0.00000000000E+00 -0.45593999997E+02  0.45594000000E+02  0.51100000000E-03 0. -1.
    9900012    2    1    2    0    0 -0.35095865350E+02  0.18978590676E+02 -0.20909493671E+02  0.46142316585E+02  0.99999892773E+01 0.  0.
        -12    1    1    2    0    0  0.35095865350E+02 -0.18978590676E+02  0.20909493671E+02  0.45045683415E+02  0.00000000000E+00 0.  1.
         11    1    3    3    0    0 -0.17867011958E+02  0.72894685783E+01 -0.80648222361E+01  0.20914297177E+02  0.51100000000E-03 0. -1.
        -11    1    3    3    0    0  0.44367038754E+00  0.61091232782E+00 -0.96219370448E+00  0.12230593899E+01  0.51100000000E-03 0.  1.
         12    1    3    3    0    0 -0.17672523780E+02  0.11078209770E+02 -0.11882477731E+02  0.24004960018E+02  0.00000000000E+00 0. -1.
</event>
<event>
 7    1  0.1683291E-008  0.4614232E+02  0.7816164E-02  0.1320468E+00
        -11   -1    0    0    0    0  0.00000000000E+00  0.00000000000E+00  0.45593999997E+02  0.45594000000E+02  0.51100000000E-03 0. -1.
         11   -1    0    0    0    0 -0.00000000000E+00 -0.00000000000E+00 -0.45593999997E+02  0.45594000000E+02  0.51100000000E-03 0.  1.
    9900012    2    1    2    0    0  0.33243185137E+02  0.30161079252E+02 -0.37832913710E+01  0.46142319261E+02  0.10000013675E+02 0.  0.
        -12    1    1    2    0    0 -0.33243185137E+02 -0.30161079252E+02  0.37832913710E+01  0.45045680739E+02  0.00000000000E+00 0.  1.
         11    1    3    3    0    0  0.25634764437E+02  0.23958936571E+02 -0.30447795100E+01  0.35219915841E+02  0.51100000000E-03 0. -1.
        -11    1    3    3    0    0 -0.42329774570E+00  0.14275898625E+01 -0.51649704642E+00  0.15760594079E+01  0.51100000000E-03 0.  1.
         12    1    3    3    0    0  0.80317184460E+01  0.47745528182E+01 -0.22201481452E+00  0.93463440118E+01  0.00000000000E+00 0. -1.
</event>
<event>
 7    1  0.1683291E-008  0.4614232E+02  0.7816164E-02  0.1320468E+00
        -11   -1    0    0    0    0  0.00000000000E+00  0.00000000000E+00  0.45593999997E+02  0.45594000000E+02  0.51100000000E-03 0.  1.
         11   -1    0    0    0    0 -0.00000000000E+00 -0.00000000000E+00 -0.45593999997E+02  0.45594000000E+02  0.51100000000E-03 0. -1.
    9900012    2    1    2    0    0  0.26110216153E+02 -0.34200679512E+02 -0.13329797758E+02  0.46142319021E+02  0.10000011485E+02 0.  0.
        -12    1    1    2    0    0 -0.26110216153E+02  0.34200679512E+02  0.13329797758E+02  0.45045680979E+02  0.00000000000E+00 0.  1.
         11    1    3    3    0    0  0.11647103197E+01 -0.42130233329E+00 -0.13502099260E+01  0.18322425850E+01  0.51100000000E-03 0. -1.
        -11    1    3    3    0    0  0.51840888768E+01 -0.37485391948E+01  0.61434781868E-01  0.63976634852E+01  0.51100000000E-03 0.  1.
         12    1    3    3    0    0  0.19761416957E+02 -0.30030837984E+02 -0.12041022614E+02  0.37912412950E+02  0.00000000000E+00 0. -1.
</event>
<event>
 7    1  0.1683291E-008  0.4614231E+02  0.7816164E-02  0.1320468E+00
        -11   -1    0    0    0    0  0.00000000000E+00  0.00000000000E+00  0.45593999997E+02  0.45594000000E+02  0.51100000000E-03 0.  1.
         11   -1    0    0    0    0 -0.00000000000E+00 -0.00000000000E+00 -0.45593999997E+02  0.45594000000E+02  0.51100000000E-03 0. -1.
    9900012    2    1    2    0    0  0.27771799661E+02 -0.10678389828E+01 -0.35449977835E+02  0.46142311361E+02  0.99999416345E+01 0.  0.
        -12    1    1    2    0    0 -0.27771799661E+02  0.10678389828E+01  0.35449977835E+02  0.45045688639E+02  0.00000000000E+00 0.  1.
         11    1    3    3    0    0  0.17728801433E+02 -0.33786798984E+00 -0.22186546866E+02  0.28401891084E+02  0.51100000000E-03 0. -1.
        -11    1    3    3    0    0  0.54891876670E+01 -0.22749978363E+01 -0.36021601107E+01  0.69485505052E+01  0.51100000000E-03 0.  1.
        -12    1    3    3    0    0  0.45538105606E+01  0.15450268434E+01 -0.96612708582E+01  0.10791869771E+02  0.00000000000E+00 0.  1.
</event>
<event>
 7    1  0.1683291E-008  0.4614232E+02  0.7816164E-02  0.1320468E+00
        -11   -1    0    0    0    0  0.00000000000E+00  0.00000000000E+00  0.45593999997E+02  0.45594000000E+02  0.51100000000E-03 0.  1.
         11   -1    0    0    0    0 -0.00000000000E+00 -0.00000000000E+00 -0.45593999997E+02  0.45594000000E+02  0.51100000000E-03 0. -1.
    9900012    2    1    2    0    0  0.28788055063E+02  0.22879497042E+02 -0.26017111228E+02  0.46142316790E+02  0.99999911450E+01 0.  0.
        -12    1    1    2    0    0 -0.28788055063E+02 -0.22879497042E+02  0.26017111228E+02  0.45045683210E+02  0.00000000000E+00 0.  1.
         11    1    3    3    0    0  0.85710415995E+01  0.49056932009E+01 -0.89128351215E+01  0.13302902317E+02  0.51100000000E-03 0.  1.
        -11    1    3    3    0    0  0.16884324082E+02  0.16371465522E+02 -0.17205885069E+02  0.29140140087E+02  0.51100000000E-03 0. -1.
        -12    1    3    3    0    0  0.33326893814E+01  0.16023383188E+01  0.10160896243E+00  0.36992743859E+01  0.00000000000E+00 0.  1.
</event>
<event>
 7    1  0.1683291E-008  0.4614232E+02  0.7816164E-02  0.1320468E+00
        -11   -1    0    0    0    0  0.00000000000E+00  0.00000000000E+00  0.45593999997E+02  0.45594000000E+02  0.51100000000E-03 0. -1.
         11   -1    0    0    0    0 -0.00000000000E+00 -0.00000000000E+00 -0.45593999997E+02  0.45594000000E+02  0.51100000000E-03 0.  1.
    9900012    2    1    2    0    0 -0.10609000306E+02  0.43764099225E+02  0.11252645961E+01  0.46142317755E+02  0.99999999435E+01 0.  0.
        -12    1    1    2    0    0  0.10609000306E+02 -0.43764099225E+02 -0.11252645961E+01  0.45045682245E+02  0.00000000000E+00 0.  1.
         11    1    3    3    0    0 -0.40705413366E+01  0.23738551069E+02  0.31178932973E+01  0.24285991282E+02  0.51100000000E-03 0. -1.
        -11    1    3    3    0    0 -0.15930667577E+01  0.83490438178E+01 -0.32799058350E+01  0.91105530520E+01  0.51100000000E-03 0.  1.
         12    1    3    3    0    0 -0.49453922121E+01  0.11676504338E+02  0.12872771338E+01  0.12745773421E+02  0.00000000000E+00 0. -1.
</event>
<event>
 7    1  0.1683291E-008  0.4614232E+02  0.7816164E-02  0.1320468E+00
        -11   -1    0    0    0    0  0.00000000000E+00  0.00000000000E+00  0.45593999997E+02  0.45594000000E+02  0.51100000000E-03 0. -1.
         11   -1    0    0    0    0 -0.00000000000E+00 -0.00000000000E+00 -0.45593999997E+02  0.45594000000E+02  0.51100000000E-03 0.  1.
    9900012    2    1    2    0    0 -0.27697241595E+02  0.31678357905E+02  0.16076626683E+02  0.46142317887E+02  0.10000001147E+02 0.  0.
        -12    1    1    2    0    0  0.27697241595E+02 -0.31678357905E+02 -0.16076626683E+02  0.45045682113E+02  0.00000000000E+00 0.  1.
         11    1    3    3    0    0 -0.20787030926E+02  0.24250899445E+02  0.91677498602E+01  0.33230323747E+02  0.51100000000E-03 0. -1.
        -11    1    3    3    0    0 -0.11208254495E+01  0.17808962818E+00  0.22735124806E+01  0.25410283084E+01  0.51100000000E-03 0.  1.
         12    1    3    3    0    0 -0.57893852192E+01  0.72493688320E+01  0.46353643427E+01  0.10370965831E+02  0.00000000000E+00 0. -1.
</event>
<event>
 7    1  0.1683291E-008  0.4614232E+02  0.7816164E-02  0.1320468E+00
        -11   -1    0    0    0    0  0.00000000000E+00  0.00000000000E+00  0.45593999997E+02  0.45594000000E+02  0.51100000000E-03 0.  1.
         11   -1    0    0    0    0 -0.00000000000E+00 -0.00000000000E+00 -0.45593999997E+02  0.45594000000E+02  0.51100000000E-03 0. -1.
    9900012    2    1    2    0    0  0.10705197602E+02  0.38672168608E+02 -0.20468892027E+02  0.46142318505E+02  0.10000006781E+02 0.  0.
        -12    1    1    2    0    0 -0.10705197602E+02 -0.38672168608E+02  0.20468892027E+02  0.45045681495E+02  0.00000000000E+00 0.  1.
         11    1    3    3    0    0  0.30907195112E+01  0.19965996064E+02 -0.83893723971E+01  0.21876359738E+02  0.51100000000E-03 0. -1.
        -11    1    3    3    0    0  0.46874690045E+00 -0.21099608080E+00 -0.11950829553E+01  0.13009483211E+01  0.51100000000E-03 0.  1.
         12    1    3    3    0    0  0.71457311908E+01  0.18917168625E+02 -0.10884436675E+02  0.22965010445E+02  0.00000000000E+00 0. -1.
</event>
<event>
 7    1  0.1683291E-008  0.4614231E+02  0.7816164E-02  0.1320468E+00
        -11   -1    0    0    0    0  0.00000000000E+00  0.00000000000E+00  0.45593999997E+02  0.45594000000E+02  0.51100000000E-03 0. -1.
         11   -1    0    0    0    0 -0.00000000000E+00 -0.00000000000E+00 -0.45593999997E+02  0.45594000000E+02  0.51100000000E-03 0.  1.
    9900012    2    1    2    0    0 -0.99798547697E+01 -0.40723167302E+02  0.16466328158E+02  0.46142314088E+02  0.99999665039E+01 0.  0.
        -12    1    1    2    0    0  0.99798547697E+01  0.40723167302E+02 -0.16466328158E+02  0.45045685912E+02  0.00000000000E+00 0.  1.
         11    1    3    3    0    0 -0.67916085661E+01 -0.24402255557E+02  0.72623857164E+01  0.26350299234E+02  0.51100000000E-03 0. -1.
        -11    1    3    3    0    0 -0.42634874707E+01 -0.15018540153E+02  0.72617355559E+01  0.17218207726E+02  0.51100000000E-03 0.  1.
         12    1    3    3    0    0  0.10752412671E+01 -0.13023715916E+01  0.19422068855E+01  0.25738071278E+01  0.00000000000E+00 0. -1.
</event>
<event>
 7    1  0.1683291E-008  0.4614232E+02  0.7816164E-02  0.1320468E+00
        -11   -1    0    0    0    0  0.00000000000E+00  0.00000000000E+00  0.45593999997E+02  0.45594000000E+02  0.51100000000E-03 0.  1.
         11   -1    0    0    0    0 -0.00000000000E+00 -0.00000000000E+00 -0.45593999997E+02  0.45594000000E+02  0.51100000000E-03 0. -1.
    9900012    2    1    2    0    0  0.20109954595E+02 -0.33243443828E+02 -0.22794223804E+02  0.46142317963E+02  0.10000001840E+02 0.  0.
        -12    1    1    2    0    0 -0.20109954595E+02  0.33243443828E+02  0.22794223804E+02  0.45045682037E+02  0.00000000000E+00 0.  1.
         11    1    3    3    0    0  0.16787148253E+01 -0.77288414685E+01 -0.33514037897E+01  0.85898184807E+01  0.51100000000E-03 0. -1.
        -11    1    3    3    0    0  0.36712176179E+00 -0.22247012589E+00 -0.17225664005E+01  0.17752483235E+01  0.51100000000E-03 0.  1.
         12    1    3    3    0    0  0.18064118008E+02 -0.25292132233E+02 -0.17720253614E+02  0.35777251159E+02  0.00000000000E+00 0. -1.
</event>
<event>
 7    1  0.1683291E-008  0.4614232E+02  0.7816164E-02  0.1320468E+00
        -11   -1    0    0    0    0  0.00000000000E+00  0.00000000000E+00  0.45593999997E+02  0.45594000000E+02  0.51100000000E-03 0. -1.
         11   -1    0    0    0    0 -0.00000000000E+00 -0.00000000000E+00 -0.45593999997E+02  0.45594000000E+02  0.51100000000E-03 0.  1.
    9900012    2    1    2    0    0  0.21021175911E+02  0.53370583643E+01  0.39480874267E+02  0.46142318059E+02  0.10000002717E+02 0.  0.
        -12    1    1    2    0    0 -0.21021175911E+02 -0.53370583643E+01 -0.39480874267E+02  0.45045681941E+02  0.00000000000E+00 0.  1.
         11    1    3    3    0    0  0.64889109933E+01  0.31358278930E+01  0.20508860109E+02  0.21738277892E+02  0.51100000000E-03 0. -1.
        -11    1    3    3    0    0  0.13965407351E+02  0.19065315443E+01  0.19114607119E+02  0.23749435164E+02  0.51100000000E-03 0.  1.
        -12    1    3    3    0    0  0.56685756644E+00  0.29469892701E+00 -0.14259296163E+00  0.65460500374E+00  0.00000000000E+00 0.  1.
</event>
<event>
 7    1  0.1683291E-008  0.4614232E+02  0.7816164E-02  0.1320468E+00
        -11   -1    0    0    0    0  0.00000000000E+00  0.00000000000E+00  0.45593999997E+02  0.45594000000E+02  0.51100000000E-03 0.  1.
         11   -1    0    0    0    0 -0.00000000000E+00 -0.00000000000E+00 -0.45593999997E+02  0.45594000000E+02  0.51100000000E-03 0. -1.
    9900012    2    1    2    0    0 -0.44431021925E+02  0.11503093509E+01 -0.73262941743E+01  0.46142317552E+02  0.99999980926E+01 0.  0.
        -12    1    1    2    0    0  0.44431021925E+02 -0.11503093509E+01  0.73262941743E+01  0.45045682448E+02  0.00000000000E+00 0.  1.
         11    1    3    3    0    0 -0.12078088754E+02 -0.99454181699E+00 -0.38615708518E+01  0.12719318814E+02  0.51100000000E-03 0. -1.
        -11    1    3    3    0    0 -0.29925663519E+02  0.19077099950E+01 -0.10707099049E+01  0.30005518067E+02  0.51100000000E-03 0.  1.
        -12    1    3    3    0    0 -0.24272696512E+01  0.23714117294E+00 -0.23940134176E+01  0.34174806714E+01  0.00000000000E+00 0.  1.
</event>
<event>
 7    1  0.1910779E-008  0.4614232E+02  0.7816164E-02  0.1320468E+00
        -11   -1    0    0    0    0  0.00000000000E+00  0.00000000000E+00  0.45593999997E+02  0.45594000000E+02  0.51100000000E-03 0. -1.
         11   -1    0    0    0    0 -0.00000000000E+00 -0.00000000000E+00 -0.45593999997E+02  0.45594000000E+02  0.51100000000E-03 0.  1.
    9900012    2    1    2    0    0 -0.26251429741E+02  0.10724474749E+02  0.34999450988E+02  0.46142317725E+02  0.99999996719E+01 0.  0.
        -12    1    1    2    0    0  0.26251429741E+02 -0.10724474749E+02 -0.34999450988E+02  0.45045682275E+02  0.00000000000E+00 0.  1.
         11    1    3    3    0    0 -0.16880688295E+02  0.89581084699E+01  0.17647394231E+02  0.26012225358E+02  0.51100000000E-03 0. -1.
        -11    1    3    3    0    0 -0.11173691575E+01  0.15964331998E+01  0.32350471773E+01  0.37765914918E+01  0.51100000000E-03 0.  1.
         12    1    3    3    0    0 -0.82533722886E+01  0.16993307968E+00  0.14117009580E+02  0.16353500875E+02  0.00000000000E+00 0. -1.
</event>
<event>
 7    1  0.1683291E-008  0.4614232E+02  0.7816164E-02  0.1320468E+00
        -11   -1    0    0    0    0  0.00000000000E+00  0.00000000000E+00  0.45593999997E+02  0.45594000000E+02  0.51100000000E-03 0.  1.
         11   -1    0    0    0    0 -0.00000000000E+00 -0.00000000000E+00 -0.45593999997E+02  0.45594000000E+02  0.51100000000E-03 0. -1.
    9900012    2    1    2    0    0  0.34626879475E+02  0.28643074052E+02 -0.31090899448E+01  0.46142324141E+02  0.10000058178E+02 0.  0.
        -12    1    1    2    0    0 -0.34626879475E+02 -0.28643074052E+02  0.31090899448E+01  0.45045675859E+02  0.00000000000E+00 0.  1.
         11    1    3    3    0    0  0.94973269078E+01  0.39694172321E+01  0.20319437054E+01  0.10492105939E+02  0.51100000000E-03 0. -1.
        -11    1    3    3    0    0  0.12312335439E+02  0.12860052534E+02 -0.17206188903E+01  0.17886729292E+02  0.51100000000E-03 0.  1.
         12    1    3    3    0    0  0.12817217128E+02  0.11813604286E+02 -0.34204147598E+01  0.17763488910E+02  0.00000000000E+00 0. -1.
</event>
<event>
 7    1  0.1683291E-008  0.4614232E+02  0.7816164E-02  0.1320468E+00
        -11   -1    0    0    0    0  0.00000000000E+00  0.00000000000E+00  0.45593999997E+02  0.45594000000E+02  0.51100000000E-03 0.  1.
         11   -1    0    0    0    0 -0.00000000000E+00 -0.00000000000E+00 -0.45593999997E+02  0.45594000000E+02  0.51100000000E-03 0. -1.
    9900012    2    1    2    0    0  0.41613171540E+02 -0.57528624564E+01 -0.16259215053E+02  0.46142317120E+02  0.99999941495E+01 0.  0.
        -12    1    1    2    0    0 -0.41613171540E+02  0.57528624564E+01  0.16259215053E+02  0.45045682880E+02  0.00000000000E+00 0.  1.
         11    1    3    3    0    0  0.11094268502E+02 -0.20680061904E+00 -0.60862615686E+01  0.12655755222E+02  0.51100000000E-03 0. -1.
        -11    1    3    3    0    0  0.22238970474E+02 -0.10109526762E+01 -0.88377648288E+01  0.23952033744E+02  0.51100000000E-03 0.  1.
        -12    1    3    3    0    0  0.82799325640E+01 -0.45351091612E+01 -0.13351886552E+01  0.95345281537E+01  0.00000000000E+00 0.  1.
</event>
<event>
 7    1  0.1683291E-008  0.4614232E+02  0.7816164E-02  0.1320468E+00
        -11   -1    0    0    0    0  0.00000000000E+00  0.00000000000E+00  0.45593999997E+02  0.45594000000E+02  0.51100000000E-03 0. -1.
         11   -1    0    0    0    0 -0.00000000000E+00 -0.00000000000E+00 -0.45593999997E+02  0.45594000000E+02  0.51100000000E-03 0.  1.
    9900012    2    1    2    0    0  0.39069670331E+02 -0.21918137635E+02  0.47190648644E+01  0.46142317961E+02  0.10000001821E+02 0.  0.
        -12    1    1    2    0    0 -0.39069670331E+02  0.21918137635E+02 -0.47190648644E+01  0.45045682039E+02  0.00000000000E+00 0.  1.
         11    1    3    3    0    0  0.18360772151E+02 -0.13496216522E+02  0.37847136909E+01  0.23099564333E+02  0.51100000000E-03 0. -1.
        -11    1    3    3    0    0  0.14086119416E+02 -0.48810775747E+01  0.31001634145E+01  0.15226775494E+02  0.51100000000E-03 0.  1.
        -12    1    3    3    0    0  0.66227787641E+01 -0.35408435389E+01 -0.21658122410E+01  0.78159781339E+01  0.00000000000E+00 0.  1.
</event>
<event>
 7    1  0.1683291E-008  0.4614232E+02  0.7816164E-02  0.1320468E+00
        -11   -1    0    0    0    0  0.00000000000E+00  0.00000000000E+00  0.45593999997E+02  0.45594000000E+02  0.51100000000E-03 0. -1.
         11   -1    0    0    0    0 -0.00000000000E+00 -0.00000000000E+00 -0.45593999997E+02  0.45594000000E+02  0.51100000000E-03 0.  1.
    9900012    2    1    2    0    0 -0.12500770961E+02  0.43173284086E+02  0.29852521113E+01  0.46142318037E+02  0.10000002514E+02 0.  0.
        -12    1    1    2    0    0  0.12500770961E+02 -0.43173284086E+02 -0.29852521113E+01  0.45045681963E+02  0.00000000000E+00 0.  1.
         11    1    3    3    0    0 -0.34696308954E+01  0.18979718426E+02 -0.34456400846E+00  0.19297325584E+02  0.51100000000E-03 0. -1.
        -11    1    3    3    0    0 -0.39462285031E+01  0.76701631066E+01  0.40769454248E+01  0.95407340252E+01  0.51100000000E-03 0.  1.
        -12    1    3    3    0    0 -0.50849115623E+01  0.16523402554E+02 -0.74712930503E+00  0.17304258428E+02  0.00000000000E+00 0.  1.
</event>
<event>
 7    1  0.1683291E-008  0.4614232E+02  0.7816164E-02  0.1320468E+00
        -11   -1    0    0    0    0  0.00000000000E+00  0.00000000000E+00  0.45593999997E+02  0.45594000000E+02  0.51100000000E-03 0.  1.
         11   -1    0    0    0    0 -0.00000000000E+00 -0.00000000000E+00 -0.45593999997E+02  0.45594000000E+02  0.51100000000E-03 0. -1.
    9900012    2    1    2    0    0  0.11357686217E+01  0.53291366669E+01 -0.44714916300E+02  0.46142318657E+02  0.10000008168E+02 0.  0.
        -12    1    1    2    0    0 -0.11357686217E+01 -0.53291366669E+01  0.44714916300E+02  0.45045681343E+02  0.00000000000E+00 0.  1.
         11    1    3    3    0    0  0.17414872278E+01  0.63435374615E+01 -0.42737337713E+02  0.43240643847E+02  0.51100000000E-03 0. -1.
        -11    1    3    3    0    0 -0.98243317267E+00 -0.19839065045E+00 -0.38632406927E+00  0.10741416743E+01  0.51100000000E-03 0.  1.
         12    1    3    3    0    0  0.37671456658E+00 -0.81601014422E+00 -0.15912545179E+01  0.18275331353E+01  0.00000000000E+00 0. -1.
</event>
<event>
 7    1  0.1683291E-008  0.4614232E+02  0.7816164E-02  0.1320468E+00
        -11   -1    0    0    0    0  0.00000000000E+00  0.00000000000E+00  0.45593999997E+02  0.45594000000E+02  0.51100000000E-03 0. -1.
         11   -1    0    0    0    0 -0.00000000000E+00 -0.00000000000E+00 -0.45593999997E+02  0.45594000000E+02  0.51100000000E-03 0.  1.
    9900012    2    1    2    0    0  0.90690592529E+01 -0.38308486798E+02  0.21893502288E+02  0.46142318310E+02  0.10000005002E+02 0.  0.
        -12    1    1    2    0    0 -0.90690592529E+01  0.38308486798E+02 -0.21893502288E+02  0.45045681690E+02  0.00000000000E+00 0.  1.
         11    1    3    3    0    0  0.42389260465E+01 -0.17210420791E+02  0.11863144650E+02  0.21328414828E+02  0.51100000000E-03 0. -1.
        -11    1    3    3    0    0 -0.11178008964E+01 -0.51089951579E+01  0.44440066774E+01  0.68629808376E+01  0.51100000000E-03 0.  1.
        -12    1    3    3    0    0  0.59479341028E+01 -0.15989070849E+02  0.55863509613E+01  0.17950922644E+02  0.00000000000E+00 0.  1.
</event>
<event>
 7    1  0.1683291E-008  0.4614232E+02  0.7816164E-02  0.1320468E+00
        -11   -1    0    0    0    0  0.00000000000E+00  0.00000000000E+00  0.45593999997E+02  0.45594000000E+02  0.51100000000E-03 0.  1.
         11   -1    0    0    0    0 -0.00000000000E+00 -0.00000000000E+00 -0.45593999997E+02  0.45594000000E+02  0.51100000000E-03 0. -1.
    9900012    2    1    2    0    0 -0.10368161118E+02  0.41113846984E+02 -0.15207443021E+02  0.46142317609E+02  0.99999986131E+01 0.  0.
        -12    1    1    2    0    0  0.10368161118E+02 -0.41113846984E+02  0.15207443021E+02  0.45045682391E+02  0.00000000000E+00 0.  1.
         11    1    3    3    0    0 -0.22447452913E+01  0.19616791589E+02 -0.81117932448E+01  0.21346160863E+02  0.51100000000E-03 0. -1.
        -11    1    3    3    0    0 -0.48182060850E+01  0.52437683486E+01 -0.28897997245E+01  0.76852559541E+01  0.51100000000E-03 0.  1.
         12    1    3    3    0    0 -0.33052097416E+01  0.16253287047E+02 -0.42058500522E+01  0.17110900792E+02  0.00000000000E+00 0. -1.
</event>
<event>
 7    1  0.1683291E-008  0.4614232E+02  0.7816164E-02  0.1320468E+00
        -11   -1    0    0    0    0  0.00000000000E+00  0.00000000000E+00  0.45593999997E+02  0.45594000000E+02  0.51100000000E-03 0.  1.
         11   -1    0    0    0    0 -0.00000000000E+00 -0.00000000000E+00 -0.45593999997E+02  0.45594000000E+02  0.51100000000E-03 0. -1.
    9900012    2    1    2    0    0 -0.71549438901E+01  0.35927919276E+02 -0.26212688726E+02  0.46142315903E+02  0.99999830539E+01 0.  0.
        -12    1    1    2    0    0  0.71549438901E+01 -0.35927919276E+02  0.26212688726E+02  0.45045684097E+02  0.00000000000E+00 0.  1.
         11    1    3    3    0    0 -0.75308108802E+01  0.35085865993E+02 -0.25142694410E+02  0.43816505879E+02  0.51100000000E-03 0. -1.
        -11    1    3    3    0    0  0.18366907148E+00  0.25115070233E+00 -0.15245153972E+01  0.15559429490E+01  0.51100000000E-03 0.  1.
         12    1    3    3    0    0  0.19219791860E+00  0.59090257992E+00  0.45452108129E+00  0.76986707438E+00  0.00000000000E+00 0. -1.
</event>
<event>
 7    1  0.1683291E-008  0.4614232E+02  0.7816164E-02  0.1320468E+00
        -11   -1    0    0    0    0  0.00000000000E+00  0.00000000000E+00  0.45593999997E+02  0.45594000000E+02  0.51100000000E-03 0. -1.
         11   -1    0    0    0    0 -0.00000000000E+00 -0.00000000000E+00 -0.45593999997E+02  0.45594000000E+02  0.51100000000E-03 0.  1.
    9900012    2    1    2    0    0 -0.56537303526E+01 -0.15237505663E+02  0.42011513056E+02  0.46142317909E+02  0.10000001351E+02 0.  0.
        -12    1    1    2    0    0  0.56537303526E+01  0.15237505663E+02 -0.42011513056E+02  0.45045682091E+02  0.00000000000E+00 0.  1.
         11    1    3    3    0    0  0.98166894111E+00 -0.11201837262E+01  0.42923584365E+01  0.45434377622E+01  0.51100000000E-03 0. -1.
        -11    1    3    3    0    0 -0.45923608435E+01 -0.72260334446E+01  0.29317559533E+02  0.30542177963E+02  0.51100000000E-03 0.  1.
        -12    1    3    3    0    0 -0.20430384503E+01 -0.68912884923E+01  0.84015950869E+01  0.11056702185E+02  0.00000000000E+00 0.  1.
</event>
<event>
 7    1  0.1683291E-008  0.4614232E+02  0.7816164E-02  0.1320468E+00
        -11   -1    0    0    0    0  0.00000000000E+00  0.00000000000E+00  0.45593999997E+02  0.45594000000E+02  0.51100000000E-03 0.  1.
         11   -1    0    0    0    0 -0.00000000000E+00 -0.00000000000E+00 -0.45593999997E+02  0.45594000000E+02  0.51100000000E-03 0. -1.
    9900012    2    1    2    0    0 -0.32532274969E+02  0.31090532905E+02  0.20354802936E+01  0.46142319508E+02  0.10000015928E+02 0.  0.
        -12    1    1    2    0    0  0.32532274969E+02 -0.31090532905E+02 -0.20354802936E+01  0.45045680492E+02  0.00000000000E+00 0.  1.
         11    1    3    3    0    0 -0.93398421996E+01  0.57044016578E+01  0.21089655875E+01  0.11145428960E+02  0.51100000000E-03 0.  1.
        -11    1    3    3    0    0 -0.82811159530E+01  0.13848037558E+02 -0.39645245992E+00  0.16140080559E+02  0.51100000000E-03 0. -1.
         12    1    3    3    0    0 -0.14911316816E+02  0.11538093689E+02  0.32296716609E+00  0.18856809989E+02  0.00000000000E+00 0. -1.
</event>
<event>
 7    1  0.1683291E-008  0.4614232E+02  0.7816164E-02  0.1320468E+00
        -11   -1    0    0    0    0  0.00000000000E+00  0.00000000000E+00  0.45593999997E+02  0.45594000000E+02  0.51100000000E-03 0.  1.
         11   -1    0    0    0    0 -0.00000000000E+00 -0.00000000000E+00 -0.45593999997E+02  0.45594000000E+02  0.51100000000E-03 0. -1.
    9900012    2    1    2    0    0 -0.30533157276E+02 -0.32888085957E+02 -0.39004609186E+01  0.46142317782E+02  0.10000000189E+02 0.  0.
        -12    1    1    2    0    0  0.30533157276E+02  0.32888085957E+02  0.39004609186E+01  0.45045682218E+02  0.00000000000E+00 0.  1.
         11    1    3    3    0    0 -0.54373049477E+01 -0.41103330925E+01 -0.16688452861E+01  0.70174189041E+01  0.51100000000E-03 0. -1.
        -11    1    3    3    0    0 -0.17857998422E+01 -0.11893638378E+01  0.17765222618E+01  0.27856236327E+01  0.51100000000E-03 0.  1.
        -12    1    3    3    0    0 -0.23310052486E+02 -0.27588389026E+02 -0.40081378943E+01  0.36339275245E+02  0.00000000000E+00 0.  1.
</event>
<event>
 7    1  0.1683291E-008  0.4614232E+02  0.7816164E-02  0.1320468E+00
        -11   -1    0    0    0    0  0.00000000000E+00  0.00000000000E+00  0.45593999997E+02  0.45594000000E+02  0.51100000000E-03 0.  1.
         11   -1    0    0    0    0 -0.00000000000E+00 -0.00000000000E+00 -0.45593999997E+02  0.45594000000E+02  0.51100000000E-03 0. -1.
    9900012    2    1    2    0    0  0.21923453555E+02 -0.39349348578E+02 -0.32299036136E+00  0.46142319052E+02  0.10000011773E+02 0.  0.
        -12    1    1    2    0    0 -0.21923453555E+02  0.39349348578E+02  0.32299036136E+00  0.45045680948E+02  0.00000000000E+00 0.  1.
         11    1    3    3    0    0  0.83551750283E+01 -0.20836104371E+02  0.25888600927E+01  0.22597663418E+02  0.51100000000E-03 0. -1.
        -11    1    3    3    0    0  0.76462399768E+01 -0.68360053634E+01 -0.87013229228E+00  0.10293351523E+02  0.51100000000E-03 0.  1.
        -12    1    3    3    0    0  0.59220385501E+01 -0.11677238844E+02 -0.20417181618E+01  0.13251304111E+02  0.00000000000E+00 0.  1.
</event>
<event>
 7    1  0.1683291E-008  0.4614232E+02  0.7816164E-02  0.1320468E+00
        -11   -1    0    0    0    0  0.00000000000E+00  0.00000000000E+00  0.45593999997E+02  0.45594000000E+02  0.51100000000E-03 0. -1.
         11   -1    0    0    0    0 -0.00000000000E+00 -0.00000000000E+00 -0.45593999997E+02  0.45594000000E+02  0.51100000000E-03 0.  1.
    9900012    2    1    2    0    0 -0.31523152146E+02  0.15083701505E+02 -0.28423341651E+02  0.46142317378E+02  0.99999965021E+01 0.  0.
        -12    1    1    2    0    0  0.31523152146E+02 -0.15083701505E+02  0.28423341651E+02  0.45045682622E+02  0.00000000000E+00 0.  1.
         11    1    3    3    0    0 -0.30025602862E+02  0.13572444225E+02 -0.26190508267E+02  0.42091457483E+02  0.51100000000E-03 0. -1.
        -11    1    3    3    0    0  0.58440458981E+00  0.81522705070E+00 -0.13083739791E+00  0.10115545238E+01  0.51100000000E-03 0.  1.
        -12    1    3    3    0    0 -0.20819538741E+01  0.69603022892E+00 -0.21019959862E+01  0.30393053712E+01  0.00000000000E+00 0.  1.
</event>
<event>
 7    1  0.1683291E-008  0.4614232E+02  0.7816164E-02  0.1320468E+00
        -11   -1    0    0    0    0  0.00000000000E+00  0.00000000000E+00  0.45593999997E+02  0.45594000000E+02  0.51100000000E-03 0.  1.
         11   -1    0    0    0    0 -0.00000000000E+00 -0.00000000000E+00 -0.45593999997E+02  0.45594000000E+02  0.51100000000E-03 0. -1.
    9900012    2    1    2    0    0 -0.27621371347E+02  0.26432323083E+02 -0.23822376570E+02  0.46142317808E+02  0.10000000431E+02 0.  0.
        -12    1    1    2    0    0  0.27621371347E+02 -0.26432323083E+02  0.23822376570E+02  0.45045682192E+02  0.00000000000E+00 0.  1.
         11    1    3    3    0    0 -0.14910605633E+01  0.61519809568E+01 -0.45262764983E+01  0.77818577793E+01  0.51100000000E-03 0. -1.
        -11    1    3    3    0    0 -0.65744292782E+01  0.42121464159E+01 -0.38067755745E+01  0.86865895666E+01  0.51100000000E-03 0.  1.
         12    1    3    3    0    0 -0.19555881505E+02  0.16068195711E+02 -0.15489324497E+02  0.29673870463E+02  0.00000000000E+00 0. -1.
</event>
<event>
 7    1  0.1683291E-008  0.4614232E+02  0.7816164E-02  0.1320468E+00
        -11   -1    0    0    0    0  0.00000000000E+00  0.00000000000E+00  0.45593999997E+02  0.45594000000E+02  0.51100000000E-03 0.  1.
         11   -1    0    0    0    0 -0.00000000000E+00 -0.00000000000E+00 -0.45593999997E+02  0.45594000000E+02  0.51100000000E-03 0. -1.
    9900012    2    1    2    0    0  0.74858241892E+01 -0.25687646602E+02 -0.36238387661E+02  0.46142317720E+02  0.99999996273E+01 0.  0.
        -12    1    1    2    0    0 -0.74858241892E+01  0.25687646602E+02  0.36238387661E+02  0.45045682280E+02  0.00000000000E+00 0.  1.
         11    1    3    3    0    0  0.75013345737E+01 -0.16198085011E+02 -0.23080357463E+02  0.29177917665E+02  0.51100000000E-03 0.  1.
        -11    1    3    3    0    0 -0.22720888115E+01 -0.68624648078E+01 -0.93202207184E+01  0.11795012730E+02  0.51100000000E-03 0. -1.
         12    1    3    3    0    0  0.22565784270E+01 -0.26270967835E+01 -0.38378094799E+01  0.51693873245E+01  0.00000000000E+00 0. -1.
</event>
<event>
 7    1  0.1683291E-008  0.4614232E+02  0.7816164E-02  0.1320468E+00
        -11   -1    0    0    0    0  0.00000000000E+00  0.00000000000E+00  0.45593999997E+02  0.45594000000E+02  0.51100000000E-03 0.  1.
         11   -1    0    0    0    0 -0.00000000000E+00 -0.00000000000E+00 -0.45593999997E+02  0.45594000000E+02  0.51100000000E-03 0. -1.
    9900012    2    1    2    0    0 -0.23587598710E+02 -0.23125731036E+02 -0.30625790822E+02  0.46142319715E+02  0.10000017817E+02 0.  0.
        -12    1    1    2    0    0  0.23587598710E+02  0.23125731036E+02  0.30625790822E+02  0.45045680285E+02  0.00000000000E+00 0.  1.
         11    1    3    3    0    0 -0.98386078615E+01 -0.11108684638E+02 -0.13221285710E+02  0.19874694340E+02  0.51100000000E-03 0. -1.
        -11    1    3    3    0    0  0.88707708136E-01 -0.55992259633E+00  0.60539215875E+00  0.82938670013E+00  0.51100000000E-03 0.  1.
        -12    1    3    3    0    0 -0.13837698557E+02 -0.11457123802E+02 -0.18009897271E+02  0.25438238675E+02  0.00000000000E+00 0.  1.
</event>
<event>
 7    1  0.1683291E-008  0.4614232E+02  0.7816164E-02  0.1320468E+00
        -11   -1    0    0    0    0  0.00000000000E+00  0.00000000000E+00  0.45593999997E+02  0.45594000000E+02  0.51100000000E-03 0. -1.
         11   -1    0    0    0    0 -0.00000000000E+00 -0.00000000000E+00 -0.45593999997E+02  0.45594000000E+02  0.51100000000E-03 0.  1.
    9900012    2    1    2    0    0 -0.25675869633E+02  0.44979373080E+01  0.36737334135E+02  0.46142318289E+02  0.10000004816E+02 0.  0.
        -12    1    1    2    0    0  0.25675869633E+02 -0.44979373080E+01 -0.36737334135E+02  0.45045681711E+02  0.00000000000E+00 0.  1.
         11    1    3    3    0    0 -0.14171365373E+02  0.47206820284E+01  0.20925081600E+02  0.25709365523E+02  0.51100000000E-03 0. -1.
        -11    1    3    3    0    0 -0.41030119889E+01 -0.29095504863E+01  0.54170612056E+01  0.73922083155E+01  0.51100000000E-03 0.  1.
        -12    1    3    3    0    0 -0.74014922720E+01  0.26868057660E+01  0.10395191329E+02  0.13040744451E+02  0.00000000000E+00 0.  1.
</event>
<event>
 7    1  0.1683291E-008  0.4614232E+02  0.7816164E-02  0.1320468E+00
        -11   -1    0    0    0    0  0.00000000000E+00  0.00000000000E+00  0.45593999997E+02  0.45594000000E+02  0.51100000000E-03 0. -1.
         11   -1    0    0    0    0 -0.00000000000E+00 -0.00000000000E+00 -0.45593999997E+02  0.45594000000E+02  0.51100000000E-03 0.  1.
    9900012    2    1    2    0    0 -0.67049729244E+01  0.53331390563E+00  0.44540682914E+02  0.46142317409E+02  0.99999967912E+01 0.  0.
        -12    1    1    2    0    0  0.67049729244E+01 -0.53331390563E+00 -0.44540682914E+02  0.45045682591E+02  0.00000000000E+00 0.  1.
         11    1    3    3    0    0 -0.10789674177E+01  0.17762260994E+01  0.54890719857E+01  0.58693322764E+01  0.51100000000E-03 0. -1.
        -11    1    3    3    0    0 -0.35341052489E+01 -0.66275264522E+00  0.37328790807E+02  0.37501570158E+02  0.51100000000E-03 0.  1.
        -12    1    3    3    0    0 -0.20919002579E+01 -0.58015954857E+00  0.17228201212E+01  0.27714149744E+01  0.00000000000E+00 0.  1.
</event>
<event>
 7    1  0.1683291E-008  0.4614232E+02  0.7816164E-02  0.1320468E+00
        -11   -1    0    0    0    0  0.00000000000E+00  0.00000000000E+00  0.45593999997E+02  0.45594000000E+02  0.51100000000E-03 0.  1.
         11   -1    0    0    0    0 -0.00000000000E+00 -0.00000000000E+00 -0.45593999997E+02  0.45594000000E+02  0.51100000000E-03 0. -1.
    9900012    2    1    2    0    0 -0.31737180720E+02  0.24472571371E+02 -0.20565938794E+02  0.46142320650E+02  0.10000026347E+02 0.  0.
        -12    1    1    2    0    0  0.31737180720E+02 -0.24472571371E+02  0.20565938794E+02  0.45045679350E+02  0.00000000000E+00 0.  1.
         11    1    3    3    0    0 -0.71451386607E+01  0.83538355419E+01 -0.29694405601E+01  0.11386709456E+02  0.51100000000E-03 0. -1.
        -11    1    3    3    0    0 -0.77132687369E+01  0.77228565159E+01 -0.84424227454E+01  0.13798968420E+02  0.51100000000E-03 0.  1.
         12    1    3    3    0    0 -0.16878773323E+02  0.83958793129E+01 -0.91540754888E+01  0.20956642774E+02  0.00000000000E+00 0. -1.
</event>
<event>
 7    1  0.1683291E-008  0.4614232E+02  0.7816164E-02  0.1320468E+00
        -11   -1    0    0    0    0  0.00000000000E+00  0.00000000000E+00  0.45593999997E+02  0.45594000000E+02  0.51100000000E-03 0.  1.
         11   -1    0    0    0    0 -0.00000000000E+00 -0.00000000000E+00 -0.45593999997E+02  0.45594000000E+02  0.51100000000E-03 0. -1.
    9900012    2    1    2    0    0  0.26329184573E+02  0.31591544183E+02 -0.18381024887E+02  0.46142315411E+02  0.99999785726E+01 0.  0.
        -12    1    1    2    0    0 -0.26329184573E+02 -0.31591544183E+02  0.18381024887E+02  0.45045684589E+02  0.00000000000E+00 0.  1.
         11    1    3    3    0    0  0.90324118446E+01  0.14625271270E+02 -0.10364677420E+02  0.20072607248E+02  0.51100000000E-03 0. -1.
        -11    1    3    3    0    0  0.15653369321E+01  0.17890420075E+01  0.78744414540E+00  0.25042003832E+01  0.51100000000E-03 0.  1.
        -12    1    3    3    0    0  0.15731435797E+02  0.15177230906E+02 -0.88037916127E+01  0.23565507781E+02  0.00000000000E+00 0.  1.
</event>
<event>
 7    1  0.1683291E-008  0.4614232E+02  0.7816164E-02  0.1320468E+00
        -11   -1    0    0    0    0  0.00000000000E+00  0.00000000000E+00  0.45593999997E+02  0.45594000000E+02  0.51100000000E-03 0. -1.
         11   -1    0    0    0    0 -0.00000000000E+00 -0.00000000000E+00 -0.45593999997E+02  0.45594000000E+02  0.51100000000E-03 0.  1.
    9900012    2    1    2    0    0  0.11749754963E+02 -0.39590963809E+02  0.17989229179E+02  0.46142317371E+02  0.99999964444E+01 0.  0.
        -12    1    1    2    0    0 -0.11749754963E+02  0.39590963809E+02 -0.17989229179E+02  0.45045682629E+02  0.00000000000E+00 0.  1.
         11    1    3    3    0    0  0.80839258598E+01 -0.18937152905E+02  0.10444291887E+02  0.23087850717E+02  0.51100000000E-03 0. -1.
        -11    1    3    3    0    0  0.50583810191E+01 -0.12069589401E+02  0.46758972245E+01  0.13896986075E+02  0.51100000000E-03 0.  1.
         12    1    3    3    0    0 -0.13925519157E+01 -0.85842215034E+01  0.28690400679E+01  0.91574805797E+01  0.00000000000E+00 0. -1.
</event>
<event>
 7    1  0.1683291E-008  0.4614232E+02  0.7816164E-02  0.1320468E+00
        -11   -1    0    0    0    0  0.00000000000E+00  0.00000000000E+00  0.45593999997E+02  0.45594000000E+02  0.51100000000E-03 0.  1.
         11   -1    0    0    0    0 -0.00000000000E+00 -0.00000000000E+00 -0.45593999997E+02  0.45594000000E+02  0.51100000000E-03 0. -1.
    9900012    2    1    2    0    0  0.30460810850E+02 -0.25548059483E+02 -0.21178977881E+02  0.46142318242E+02  0.10000004385E+02 0.  0.
        -12    1    1    2    0    0 -0.30460810850E+02  0.25548059483E+02  0.21178977881E+02  0.45045681758E+02  0.00000000000E+00 0.  1.
         11    1    3    3    0    0  0.75883436484E+01 -0.11189388493E+02 -0.60698745686E+01  0.14819876913E+02  0.51100000000E-03 0. -1.
        -11    1    3    3    0    0  0.12194051882E+02 -0.82823644385E+01 -0.10908022410E+02  0.18337868337E+02  0.51100000000E-03 0.  1.
        -12    1    3    3    0    0  0.10678415319E+02 -0.60763065515E+01 -0.42010809022E+01  0.12984572992E+02  0.00000000000E+00 0.  1.
</event>
<event>
 7    1  0.1683291E-008  0.4614232E+02  0.7816164E-02  0.1320468E+00
        -11   -1    0    0    0    0  0.00000000000E+00  0.00000000000E+00  0.45593999997E+02  0.45594000000E+02  0.51100000000E-03 0. -1.
         11   -1    0    0    0    0 -0.00000000000E+00 -0.00000000000E+00 -0.45593999997E+02  0.45594000000E+02  0.51100000000E-03 0.  1.
    9900012    2    1    2    0    0  0.98913617348E+01  0.43346971985E+02 -0.72328761664E+01  0.46142317467E+02  0.99999973184E+01 0.  0.
        -12    1    1    2    0    0 -0.98913617348E+01 -0.43346971985E+02  0.72328761664E+01  0.45045682533E+02  0.00000000000E+00 0.  1.
         11    1    3    3    0    0  0.64296694252E+01  0.30965801756E+02 -0.71576143309E+01  0.32426115562E+02  0.51100000000E-03 0. -1.
        -11    1    3    3    0    0  0.23997755390E+01  0.16313173484E+01 -0.25116521459E+00  0.29125938877E+01  0.51100000000E-03 0.  1.
         12    1    3    3    0    0  0.10619167706E+01  0.10749852881E+02  0.17590337914E+00  0.10803608017E+02  0.00000000000E+00 0. -1.
</event>
<event>
 7    1  0.1683291E-008  0.4614232E+02  0.7816164E-02  0.1320468E+00
        -11   -1    0    0    0    0  0.00000000000E+00  0.00000000000E+00  0.45593999997E+02  0.45594000000E+02  0.51100000000E-03 0.  1.
         11   -1    0    0    0    0 -0.00000000000E+00 -0.00000000000E+00 -0.45593999997E+02  0.45594000000E+02  0.51100000000E-03 0. -1.
    9900012    2    1    2    0    0  0.20959982847E+01  0.22901052598E+01 -0.44938576436E+02  0.46142318265E+02  0.10000004592E+02 0.  0.
        -12    1    1    2    0    0 -0.20959982847E+01 -0.22901052598E+01  0.44938576436E+02  0.45045681735E+02  0.00000000000E+00 0.  1.
         11    1    3    3    0    0  0.35388529521E+01 -0.17876394894E+01 -0.98442155015E+01  0.10612620518E+02  0.51100000000E-03 0.  1.
        -11    1    3    3    0    0 -0.69215316571E+00 -0.22546897229E+00 -0.16787807095E+01  0.18298134314E+01  0.51100000000E-03 0. -1.
         12    1    3    3    0    0 -0.75070150172E+00  0.43032137215E+01 -0.33415580225E+02  0.33699884315E+02  0.00000000000E+00 0. -1.
</event>
<event>
 7    1  0.1683291E-008  0.4614232E+02  0.7816164E-02  0.1320468E+00
        -11   -1    0    0    0    0  0.00000000000E+00  0.00000000000E+00  0.45593999997E+02  0.45594000000E+02  0.51100000000E-03 0. -1.
         11   -1    0    0    0    0 -0.00000000000E+00 -0.00000000000E+00 -0.45593999997E+02  0.45594000000E+02  0.51100000000E-03 0.  1.
    9900012    2    1    2    0    0 -0.17849400040E+02 -0.29744054770E+02  0.28736800450E+02  0.46142316787E+02  0.99999911217E+01 0.  0.
        -12    1    1    2    0    0  0.17849400040E+02  0.29744054770E+02 -0.28736800450E+02  0.45045683213E+02  0.00000000000E+00 0.  1.
         11    1    3    3    0    0 -0.88450391168E+01 -0.12147065159E+02  0.69382568458E+01  0.16550689329E+02  0.51100000000E-03 0. -1.
        -11    1    3    3    0    0 -0.56530016713E+01 -0.10804597222E+02  0.15625620931E+02  0.19820589769E+02  0.51100000000E-03 0.  1.
         12    1    3    3    0    0 -0.33513592517E+01 -0.67923923887E+01  0.61729226737E+01  0.97710376896E+01  0.00000000000E+00 0. -1.
</event>
<event>
 7    1  0.1683291E-008  0.4614232E+02  0.7816164E-02  0.1320468E+00
        -11   -1    0    0    0    0  0.00000000000E+00  0.00000000000E+00  0.45593999997E+02  0.45594000000E+02  0.51100000000E-03 0.  1.
         11   -1    0    0    0    0 -0.00000000000E+00 -0.00000000000E+00 -0.45593999997E+02  0.45594000000E+02  0.51100000000E-03 0. -1.
    9900012    2    1    2    0    0  0.16560243383E+02 -0.32298865711E+02 -0.26676863762E+02  0.46142318217E+02  0.10000004156E+02 0.  0.
        -12    1    1    2    0    0 -0.16560243383E+02  0.32298865711E+02  0.26676863762E+02  0.45045681783E+02  0.00000000000E+00 0.  1.
         11    1    3    3    0    0  0.13312751709E+02 -0.16507160741E+02 -0.17632261322E+02  0.27579201463E+02  0.51100000000E-03 0. -1.
        -11    1    3    3    0    0  0.98561241668E+00 -0.68107178335E+01 -0.46982977447E+01  0.83325453015E+01  0.51100000000E-03 0.  1.
         12    1    3    3    0    0  0.22618792579E+01 -0.89809871365E+01 -0.43463046959E+01  0.10230571452E+02  0.00000000000E+00 0. -1.
</event>
<event>
 7    1  0.1683291E-008  0.4614232E+02  0.7816164E-02  0.1320468E+00
        -11   -1    0    0    0    0  0.00000000000E+00  0.00000000000E+00  0.45593999997E+02  0.45594000000E+02  0.51100000000E-03 0.  1.
         11   -1    0    0    0    0 -0.00000000000E+00 -0.00000000000E+00 -0.45593999997E+02  0.45594000000E+02  0.51100000000E-03 0. -1.
    9900012    2    1    2    0    0  0.22728689501E+02 -0.37189293463E+02 -0.11378780225E+02  0.46142317476E+02  0.99999973975E+01 0.  0.
        -12    1    1    2    0    0 -0.22728689501E+02  0.37189293463E+02  0.11378780225E+02  0.45045682524E+02  0.00000000000E+00 0.  1.
         11    1    3    3    0    0  0.38891240578E+01 -0.76550322088E+01 -0.54919276796E+01  0.10192451813E+02  0.51100000000E-03 0.  1.
        -11    1    3    3    0    0  0.39228916703E+01 -0.10962754061E+02 -0.18213743383E+01  0.11785094841E+02  0.51100000000E-03 0. -1.
         12    1    3    3    0    0  0.14916673772E+02 -0.18571507193E+02 -0.40654782073E+01  0.24164770822E+02  0.00000000000E+00 0. -1.
</event>
<event>
 7    1  0.1683291E-008  0.4614232E+02  0.7816164E-02  0.1320468E+00
        -11   -1    0    0    0    0  0.00000000000E+00  0.00000000000E+00  0.45593999997E+02  0.45594000000E+02  0.51100000000E-03 0.  1.
         11   -1    0    0    0    0 -0.00000000000E+00 -0.00000000000E+00 -0.45593999997E+02  0.45594000000E+02  0.51100000000E-03 0. -1.
    9900012    2    1    2    0    0 -0.24853324898E+02 -0.24917063313E+02  0.28117000821E+02  0.46142317213E+02  0.99999949977E+01 0.  0.
        -12    1    1    2    0    0  0.24853324898E+02  0.24917063313E+02 -0.28117000821E+02  0.45045682787E+02  0.00000000000E+00 0.  1.
         11    1    3    3    0    0 -0.92137231085E+01 -0.84773195921E+01  0.95295802442E+01  0.15734374499E+02  0.51100000000E-03 0.  1.
        -11    1    3    3    0    0 -0.14195303356E+02 -0.14143009617E+02  0.19058478586E+02  0.27654239542E+02  0.51100000000E-03 0. -1.
        -12    1    3    3    0    0 -0.14442984335E+01 -0.22967341035E+01 -0.47105800876E+00  0.27537031712E+01  0.00000000000E+00 0.  1.
</event>
<event>
 7    1  0.1683291E-008  0.4614232E+02  0.7816164E-02  0.1320468E+00
        -11   -1    0    0    0    0  0.00000000000E+00  0.00000000000E+00  0.45593999997E+02  0.45594000000E+02  0.51100000000E-03 0.  1.
         11   -1    0    0    0    0 -0.00000000000E+00 -0.00000000000E+00 -0.45593999997E+02  0.45594000000E+02  0.51100000000E-03 0. -1.
    9900012    2    1    2    0    0 -0.26759053756E+02 -0.28554169919E+02 -0.22309771085E+02  0.46142318037E+02  0.10000002515E+02 0.  0.
        -12    1    1    2    0    0  0.26759053756E+02  0.28554169919E+02  0.22309771085E+02  0.45045681963E+02  0.00000000000E+00 0.  1.
         11    1    3    3    0    0 -0.23956129092E+02 -0.20810000094E+02 -0.19621280237E+02  0.37308804100E+02  0.51100000000E-03 0. -1.
        -11    1    3    3    0    0 -0.19417245950E+01 -0.57132151044E+01 -0.27395213777E+01  0.66269222776E+01  0.51100000000E-03 0.  1.
         12    1    3    3    0    0 -0.86120006927E+00 -0.20309547207E+01  0.51030530162E-01  0.22065916595E+01  0.00000000000E+00 0. -1.
</event>
<event>
 7    1  0.1934677E-008  0.4614232E+02  0.7816164E-02  0.1320468E+00
        -11   -1    0    0    0    0  0.00000000000E+00  0.00000000000E+00  0.45593999997E+02  0.45594000000E+02  0.51100000000E-03 0. -1.
         11   -1    0    0    0    0 -0.00000000000E+00 -0.00000000000E+00 -0.45593999997E+02  0.45594000000E+02  0.51100000000E-03 0.  1.
    9900012    2    1    2    0    0 -0.19385740799E+02  0.24222379530E+02  0.32658579415E+02  0.46142318455E+02  0.10000006329E+02 0.  0.
        -12    1    1    2    0    0  0.19385740799E+02 -0.24222379530E+02 -0.32658579415E+02  0.45045681545E+02  0.00000000000E+00 0.  1.
         11    1    3    3    0    0 -0.13053292201E+01  0.68323211325E+01  0.64138392737E+01  0.94615976938E+01  0.51100000000E-03 0. -1.
        -11    1    3    3    0    0 -0.25934605863E+01  0.15994663239E+01  0.58466834260E+01  0.65930294765E+01  0.51100000000E-03 0.  1.
         12    1    3    3    0    0 -0.15486950992E+02  0.15790592074E+02  0.20398056716E+02  0.30087691285E+02  0.00000000000E+00 0. -1.
</event>
<event>
 7    1  0.1683291E-008  0.4614232E+02  0.7816164E-02  0.1320468E+00
        -11   -1    0    0    0    0  0.00000000000E+00  0.00000000000E+00  0.45593999997E+02  0.45594000000E+02  0.51100000000E-03 0.  1.
         11   -1    0    0    0    0 -0.00000000000E+00 -0.00000000000E+00 -0.45593999997E+02  0.45594000000E+02  0.51100000000E-03 0. -1.
    9900012    2    1    2    0    0  0.59572573229E+01 -0.31392678791E+02 -0.31750972641E+02  0.46142318075E+02  0.10000002858E+02 0.  0.
        -12    1    1    2    0    0 -0.59572573229E+01  0.31392678791E+02  0.31750972641E+02  0.45045681925E+02  0.00000000000E+00 0.  1.
         11    1    3    3    0    0  0.16862468462E+01 -0.13490640155E+02 -0.10101722463E+02  0.16937697517E+02  0.51100000000E-03 0. -1.
        -11    1    3    3    0    0  0.32824930623E+01 -0.83145355010E+01 -0.58032780868E+01  0.10657593449E+02  0.51100000000E-03 0.  1.
        -12    1    3    3    0    0  0.98851741437E+00 -0.95875031348E+01 -0.15845972092E+02  0.18547027109E+02  0.00000000000E+00 0.  1.
</event>
<event>
 7    1  0.1683291E-008  0.4614232E+02  0.7816164E-02  0.1320468E+00
        -11   -1    0    0    0    0  0.00000000000E+00  0.00000000000E+00  0.45593999997E+02  0.45594000000E+02  0.51100000000E-03 0. -1.
         11   -1    0    0    0    0 -0.00000000000E+00 -0.00000000000E+00 -0.45593999997E+02  0.45594000000E+02  0.51100000000E-03 0.  1.
    9900012    2    1    2    0    0  0.39090830672E+02 -0.22357960078E+02 -0.10684802662E+01  0.46142322387E+02  0.10000042183E+02 0.  0.
        -12    1    1    2    0    0 -0.39090830672E+02  0.22357960078E+02  0.10684802662E+01  0.45045677613E+02  0.00000000000E+00 0.  1.
         11    1    3    3    0    0  0.17692063423E+02 -0.67581327702E+01 -0.84956988400E-01  0.18939078242E+02  0.51100000000E-03 0. -1.
        -11    1    3    3    0    0  0.16462966674E+02 -0.14804937394E+02 -0.14101900565E+01  0.22185672837E+02  0.51100000000E-03 0.  1.
         12    1    3    3    0    0  0.49358005757E+01 -0.79488991395E+00  0.42666677868E+00  0.50175713087E+01  0.00000000000E+00 0. -1.
</event>
<event>
 7    1  0.2045126E-008  0.4614232E+02  0.7816164E-02  0.1320468E+00
        -11   -1    0    0    0    0  0.00000000000E+00  0.00000000000E+00  0.45593999997E+02  0.45594000000E+02  0.51100000000E-03 0. -1.
         11   -1    0    0    0    0 -0.00000000000E+00 -0.00000000000E+00 -0.45593999997E+02  0.45594000000E+02  0.51100000000E-03 0.  1.
    9900012    2    1    2    0    0 -0.62830727514E+01 -0.43727227294E+02  0.88071598084E+01  0.46142317922E+02  0.10000001467E+02 0.  0.
        -12    1    1    2    0    0  0.62830727514E+01  0.43727227294E+02 -0.88071598084E+01  0.45045682078E+02  0.00000000000E+00 0.  1.
         11    1    3    3    0    0 -0.69691078377E+01 -0.18145870092E+02  0.43972002549E+01  0.19929285883E+02  0.51100000000E-03 0. -1.
        -11    1    3    3    0    0  0.53633423498E+00 -0.19107808656E+01  0.12158520713E+01  0.23274523515E+01  0.51100000000E-03 0.  1.
         12    1    3    3    0    0  0.14970085127E+00 -0.23670576336E+02  0.31941074822E+01  0.23885579687E+02  0.00000000000E+00 0. -1.
</event>
<event>
 7    1  0.1683291E-008  0.4614231E+02  0.7816164E-02  0.1320468E+00
        -11   -1    0    0    0    0  0.00000000000E+00  0.00000000000E+00  0.45593999997E+02  0.45594000000E+02  0.51100000000E-03 0.  1.
         11   -1    0    0    0    0 -0.00000000000E+00 -0.00000000000E+00 -0.45593999997E+02  0.45594000000E+02  0.51100000000E-03 0. -1.
    9900012    2    1    2    0    0 -0.27006802265E+02 -0.12920311234E+02 -0.33657272659E+02  0.46142314149E+02  0.99999670633E+01 0.  0.
        -12    1    1    2    0    0  0.27006802265E+02  0.12920311234E+02  0.33657272659E+02  0.45045685851E+02  0.00000000000E+00 0.  1.
         11    1    3    3    0    0 -0.22855232402E+02 -0.95274364984E+01 -0.31186504313E+02  0.39821247418E+02  0.51100000000E-03 0. -1.
        -11    1    3    3    0    0 -0.33742652419E+01 -0.17625388418E+01 -0.86406343341E+00  0.39036924789E+01  0.51100000000E-03 0.  1.
         12    1    3    3    0    0 -0.77730462035E+00 -0.16303358941E+01 -0.16067049120E+01  0.24173742521E+01  0.00000000000E+00 0. -1.
</event>
<event>
 7    1  0.1683291E-008  0.4614232E+02  0.7816164E-02  0.1320468E+00
        -11   -1    0    0    0    0  0.00000000000E+00  0.00000000000E+00  0.45593999997E+02  0.45594000000E+02  0.51100000000E-03 0. -1.
         11   -1    0    0    0    0 -0.00000000000E+00 -0.00000000000E+00 -0.45593999997E+02  0.45594000000E+02  0.51100000000E-03 0.  1.
    9900012    2    1    2    0    0  0.17529014938E+02  0.22241150620E+02  0.35031105798E+02  0.46142317420E+02  0.99999968934E+01 0.  0.
        -12    1    1    2    0    0 -0.17529014938E+02 -0.22241150620E+02 -0.35031105798E+02  0.45045682580E+02  0.00000000000E+00 0.  1.
         11    1    3    3    0    0  0.32075464345E+01  0.14170685939E+01  0.48830572100E+01  0.60117123606E+01  0.51100000000E-03 0. -1.
        -11    1    3    3    0    0  0.21198414365E+01  0.42717235681E+01  0.17729924326E+01  0.50877158318E+01  0.51100000000E-03 0.  1.
        -12    1    3    3    0    0  0.12201627068E+02  0.16552358458E+02  0.28375056156E+02  0.35042889228E+02  0.00000000000E+00 0.  1.
</event>
<event>
 7    1  0.1683291E-008  0.4614232E+02  0.7816164E-02  0.1320468E+00
        -11   -1    0    0    0    0  0.00000000000E+00  0.00000000000E+00  0.45593999997E+02  0.45594000000E+02  0.51100000000E-03 0.  1.
         11   -1    0    0    0    0 -0.00000000000E+00 -0.00000000000E+00 -0.45593999997E+02  0.45594000000E+02  0.51100000000E-03 0. -1.
    9900012    2    1    2    0    0  0.39976901207E+02 -0.19098888129E+02  0.81359260950E+01  0.46142318172E+02  0.10000003749E+02 0.  0.
        -12    1    1    2    0    0 -0.39976901207E+02  0.19098888129E+02 -0.81359260950E+01  0.45045681828E+02  0.00000000000E+00 0.  1.
         11    1    3    3    0    0  0.19578120214E+00 -0.29588109362E+00  0.24038598578E+00  0.42855756200E+00  0.51100000000E-03 0.  1.
        -11    1    3    3    0    0  0.37477411466E+02 -0.19060648521E+02  0.55408190930E+01  0.42409496210E+02  0.51100000000E-03 0. -1.
        -12    1    3    3    0    0  0.23037085386E+01  0.25764148530E+00  0.23547210163E+01  0.33042644007E+01  0.00000000000E+00 0.  1.
</event>
<event>
 7    1  0.1683291E-008  0.4614232E+02  0.7816164E-02  0.1320468E+00
        -11   -1    0    0    0    0  0.00000000000E+00  0.00000000000E+00  0.45593999997E+02  0.45594000000E+02  0.51100000000E-03 0.  1.
         11   -1    0    0    0    0 -0.00000000000E+00 -0.00000000000E+00 -0.45593999997E+02  0.45594000000E+02  0.51100000000E-03 0. -1.
    9900012    2    1    2    0    0  0.11836085447E+02  0.33461449879E+02 -0.27737193560E+02  0.46142318151E+02  0.10000003553E+02 0.  0.
        -12    1    1    2    0    0 -0.11836085447E+02 -0.33461449879E+02  0.27737193560E+02  0.45045681849E+02  0.00000000000E+00 0.  1.
         11    1    3    3    0    0  0.18685759730E+01  0.12221853354E+02 -0.13709267588E+02  0.18461020926E+02  0.51100000000E-03 0. -1.
        -11    1    3    3    0    0 -0.23053693819E+00  0.23465108188E+01 -0.94955045456E+00  0.25418313535E+01  0.51100000000E-03 0.  1.
         12    1    3    3    0    0  0.10198046412E+02  0.18893085706E+02 -0.13078375517E+02  0.25139465871E+02  0.00000000000E+00 0. -1.
</event>
<event>
 7    1  0.1683291E-008  0.4614232E+02  0.7816164E-02  0.1320468E+00
        -11   -1    0    0    0    0  0.00000000000E+00  0.00000000000E+00  0.45593999997E+02  0.45594000000E+02  0.51100000000E-03 0. -1.
         11   -1    0    0    0    0 -0.00000000000E+00 -0.00000000000E+00 -0.45593999997E+02  0.45594000000E+02  0.51100000000E-03 0.  1.
    9900012    2    1    2    0    0 -0.37356239397E+02 -0.17044026960E+01 -0.25114135347E+02  0.46142318690E+02  0.10000008469E+02 0.  0.
        -12    1    1    2    0    0  0.37356239397E+02  0.17044026960E+01  0.25114135347E+02  0.45045681310E+02  0.00000000000E+00 0.  1.
         11    1    3    3    0    0 -0.51343657792E+01  0.24037153798E+01 -0.48806125772E+01  0.74806376047E+01  0.51100000000E-03 0. -1.
        -11    1    3    3    0    0 -0.20017669237E+02 -0.47827489916E+01 -0.14397035696E+02  0.25116855032E+02  0.51100000000E-03 0.  1.
        -12    1    3    3    0    0 -0.12204204381E+02  0.67463091571E+00 -0.58364870737E+01  0.13544826053E+02  0.00000000000E+00 0.  1.
</event>
<event>
 7    1  0.1683291E-008  0.4614232E+02  0.7816164E-02  0.1320468E+00
        -11   -1    0    0    0    0  0.00000000000E+00  0.00000000000E+00  0.45593999997E+02  0.45594000000E+02  0.51100000000E-03 0.  1.
         11   -1    0    0    0    0 -0.00000000000E+00 -0.00000000000E+00 -0.45593999997E+02  0.45594000000E+02  0.51100000000E-03 0. -1.
    9900012    2    1    2    0    0 -0.40945576256E+02 -0.13470145269E+02 -0.13081611082E+02  0.46142316777E+02  0.99999910239E+01 0.  0.
        -12    1    1    2    0    0  0.40945576256E+02  0.13470145269E+02  0.13081611082E+02  0.45045683223E+02  0.00000000000E+00 0.  1.
         11    1    3    3    0    0 -0.23010574533E+02 -0.10272855898E+02 -0.35895214036E+01  0.25453934329E+02  0.51100000000E-03 0. -1.
        -11    1    3    3    0    0 -0.21674235997E+01  0.41287179174E+00 -0.10996173102E+01  0.24652275082E+01  0.51100000000E-03 0.  1.
         12    1    3    3    0    0 -0.15767578123E+02 -0.36101611631E+01 -0.83924723686E+01  0.18223154940E+02  0.00000000000E+00 0. -1.
</event>
<event>
 7    1  0.1683291E-008  0.4614232E+02  0.7816164E-02  0.1320468E+00
        -11   -1    0    0    0    0  0.00000000000E+00  0.00000000000E+00  0.45593999997E+02  0.45594000000E+02  0.51100000000E-03 0.  1.
         11   -1    0    0    0    0 -0.00000000000E+00 -0.00000000000E+00 -0.45593999997E+02  0.45594000000E+02  0.51100000000E-03 0. -1.
    9900012    2    1    2    0    0  0.13854745998E+02 -0.29391729835E+02 -0.31197528462E+02  0.46142317060E+02  0.99999936062E+01 0.  0.
        -12    1    1    2    0    0 -0.13854745998E+02  0.29391729835E+02  0.31197528462E+02  0.45045682940E+02  0.00000000000E+00 0.  1.
         11    1    3    3    0    0  0.10606181621E+02 -0.11319762158E+02 -0.13819690567E+02  0.20775272598E+02  0.51100000000E-03 0. -1.
        -11    1    3    3    0    0  0.21932264451E+01 -0.12408871982E+02 -0.13213403770E+02  0.18258816653E+02  0.51100000000E-03 0.  1.
         12    1    3    3    0    0  0.10553379323E+01 -0.56630956954E+01 -0.41644341247E+01  0.71082278091E+01  0.00000000000E+00 0. -1.
</event>
<event>
 7    1  0.1683291E-008  0.4614232E+02  0.7816164E-02  0.1320468E+00
        -11   -1    0    0    0    0  0.00000000000E+00  0.00000000000E+00  0.45593999997E+02  0.45594000000E+02  0.51100000000E-03 0.  1.
         11   -1    0    0    0    0 -0.00000000000E+00 -0.00000000000E+00 -0.45593999997E+02  0.45594000000E+02  0.51100000000E-03 0. -1.
    9900012    2    1    2    0    0  0.40783536192E+01 -0.34138836977E+02 -0.29103606183E+02  0.46142322614E+02  0.10000044248E+02 0.  0.
        -12    1    1    2    0    0 -0.40783536192E+01  0.34138836977E+02  0.29103606183E+02  0.45045677386E+02  0.00000000000E+00 0.  1.
         11    1    3    3    0    0  0.29813279410E+01 -0.33813892019E+02 -0.28877115697E+02  0.44566303649E+02  0.51100000000E-03 0. -1.
        -11    1    3    3    0    0  0.10165083059E+01 -0.42414045946E+00 -0.54786589207E+00  0.12301794837E+01  0.51100000000E-03 0.  1.
         12    1    3    3    0    0  0.80517372287E-01  0.99195501308E-01  0.32137540601E+00  0.34583948055E+00  0.00000000000E+00 0. -1.
</event>
<event>
 7    1  0.1683291E-008  0.4614232E+02  0.7816164E-02  0.1320468E+00
        -11   -1    0    0    0    0  0.00000000000E+00  0.00000000000E+00  0.45593999997E+02  0.45594000000E+02  0.51100000000E-03 0. -1.
         11   -1    0    0    0    0 -0.00000000000E+00 -0.00000000000E+00 -0.45593999997E+02  0.45594000000E+02  0.51100000000E-03 0.  1.
    9900012    2    1    2    0    0 -0.35595254437E+02 -0.17619416372E+02  0.21251999327E+02  0.46142318219E+02  0.10000004173E+02 0.  0.
        -12    1    1    2    0    0  0.35595254437E+02  0.17619416372E+02 -0.21251999327E+02  0.45045681781E+02  0.00000000000E+00 0.  1.
         11    1    3    3    0    0 -0.22737121347E+02 -0.11305403102E+02  0.11959681036E+02  0.28068181224E+02  0.51100000000E-03 0.  1.
        -11    1    3    3    0    0 -0.44606577381E+01 -0.54517456264E+01  0.46465004872E+01  0.84385404467E+01  0.51100000000E-03 0. -1.
        -12    1    3    3    0    0 -0.83974753523E+01 -0.86226764297E+00  0.46458178037E+01  0.96355965485E+01  0.00000000000E+00 0.  1.
</event>
<event>
 7    1  0.1683291E-008  0.4614232E+02  0.7816164E-02  0.1320468E+00
        -11   -1    0    0    0    0  0.00000000000E+00  0.00000000000E+00  0.45593999997E+02  0.45594000000E+02  0.51100000000E-03 0.  1.
         11   -1    0    0    0    0 -0.00000000000E+00 -0.00000000000E+00 -0.45593999997E+02  0.45594000000E+02  0.51100000000E-03 0. -1.
    9900012    2    1    2    0    0  0.11698288948E+01 -0.18881683415E+02 -0.40880643724E+02  0.46142317638E+02  0.99999988735E+01 0.  0.
        -12    1    1    2    0    0 -0.11698288948E+01  0.18881683415E+02  0.40880643724E+02  0.45045682362E+02  0.00000000000E+00 0.  1.
         11    1    3    3    0    0  0.14985346610E+01 -0.10949827570E+02 -0.30753072647E+02  0.32678675117E+02  0.51100000000E-03 0. -1.
        -11    1    3    3    0    0 -0.10781025233E+01 -0.73495757677E+01 -0.70428076790E+01  0.10236196036E+02  0.51100000000E-03 0.  1.
        -12    1    3    3    0    0  0.74939675718E+00 -0.58228007635E+00 -0.30847633984E+01  0.32274464846E+01  0.00000000000E+00 0.  1.
</event>
<event>
 7    1  0.1683291E-008  0.4614232E+02  0.7816164E-02  0.1320468E+00
        -11   -1    0    0    0    0  0.00000000000E+00  0.00000000000E+00  0.45593999997E+02  0.45594000000E+02  0.51100000000E-03 0.  1.
         11   -1    0    0    0    0 -0.00000000000E+00 -0.00000000000E+00 -0.45593999997E+02  0.45594000000E+02  0.51100000000E-03 0. -1.
    9900012    2    1    2    0    0  0.16281561189E+02  0.30504290232E+02 -0.28870617528E+02  0.46142317479E+02  0.99999974295E+01 0.  0.
        -12    1    1    2    0    0 -0.16281561189E+02 -0.30504290232E+02  0.28870617528E+02  0.45045682521E+02  0.00000000000E+00 0.  1.
         11    1    3    3    0    0  0.67180441828E+01  0.11032964344E+02 -0.12247608748E+02  0.17800627521E+02  0.51100000000E-03 0. -1.
        -11    1    3    3    0    0  0.37410845773E+01  0.44580941601E+01 -0.85124381349E+01  0.10311737032E+02  0.51100000000E-03 0.  1.
         12    1    3    3    0    0  0.58224324285E+01  0.15013231729E+02 -0.81105706453E+01  0.18029952926E+02  0.00000000000E+00 0. -1.
</event>
<event>
 7    1  0.1683291E-008  0.4614232E+02  0.7816164E-02  0.1320468E+00
        -11   -1    0    0    0    0  0.00000000000E+00  0.00000000000E+00  0.45593999997E+02  0.45594000000E+02  0.51100000000E-03 0. -1.
         11   -1    0    0    0    0 -0.00000000000E+00 -0.00000000000E+00 -0.45593999997E+02  0.45594000000E+02  0.51100000000E-03 0.  1.
    9900012    2    1    2    0    0 -0.11220881836E+02 -0.12379309100E+02  0.41832497903E+02  0.46142319144E+02  0.10000012610E+02 0.  0.
        -12    1    1    2    0    0  0.11220881836E+02  0.12379309100E+02 -0.41832497903E+02  0.45045680856E+02  0.00000000000E+00 0.  1.
         11    1    3    3    0    0 -0.48127380401E+01 -0.34745910205E+01  0.63658083018E+01  0.87039500112E+01  0.51100000000E-03 0. -1.
        -11    1    3    3    0    0 -0.57873226017E+01 -0.94852253366E+01  0.33537426822E+02  0.35330179743E+02  0.51100000000E-03 0.  1.
         12    1    3    3    0    0 -0.62082119428E+00  0.58050725708E+00  0.19292627791E+01  0.21081893894E+01  0.00000000000E+00 0. -1.
</event>
<event>
 7    1  0.1683291E-008  0.4614232E+02  0.7816164E-02  0.1320468E+00
        -11   -1    0    0    0    0  0.00000000000E+00  0.00000000000E+00  0.45593999997E+02  0.45594000000E+02  0.51100000000E-03 0.  1.
         11   -1    0    0    0    0 -0.00000000000E+00 -0.00000000000E+00 -0.45593999997E+02  0.45594000000E+02  0.51100000000E-03 0. -1.
    9900012    2    1    2    0    0  0.31193174342E+02  0.29187729669E+02 -0.14289011755E+02  0.46142317125E+02  0.99999941967E+01 0.  0.
        -12    1    1    2    0    0 -0.31193174342E+02 -0.29187729669E+02  0.14289011755E+02  0.45045682875E+02  0.00000000000E+00 0.  1.
         11    1    3    3    0    0  0.95550022044E+01  0.40701448796E+01 -0.54348901289E+01  0.11721867489E+02  0.51100000000E-03 0. -1.
        -11    1    3    3    0    0  0.15388833342E+02  0.19190778815E+02 -0.57202518712E+01  0.25255167093E+02  0.51100000000E-03 0.  1.
        -12    1    3    3    0    0  0.62493387953E+01  0.59268059746E+01 -0.31338697548E+01  0.91652825422E+01  0.00000000000E+00 0.  1.
</event>
<event>
 7    1  0.1683291E-008  0.4614232E+02  0.7816164E-02  0.1320468E+00
        -11   -1    0    0    0    0  0.00000000000E+00  0.00000000000E+00  0.45593999997E+02  0.45594000000E+02  0.51100000000E-03 0.  1.
         11   -1    0    0    0    0 -0.00000000000E+00 -0.00000000000E+00 -0.45593999997E+02  0.45594000000E+02  0.51100000000E-03 0. -1.
    9900012    2    1    2    0    0 -0.34947236582E+00  0.12098052070E+02 -0.43389268602E+02  0.46142316249E+02  0.99999862077E+01 0.  0.
        -12    1    1    2    0    0  0.34947236582E+00 -0.12098052070E+02  0.43389268602E+02  0.45045683751E+02  0.00000000000E+00 0.  1.
         11    1    3    3    0    0 -0.79339188032E+00  0.43618279900E+01 -0.19856159672E+02  0.20345075357E+02  0.51100000000E-03 0.  1.
        -11    1    3    3    0    0 -0.13468440666E+01  0.85010761886E+01 -0.18656307777E+02  0.20546048414E+02  0.51100000000E-03 0. -1.
        -12    1    3    3    0    0  0.17907635811E+01 -0.76485210896E+00 -0.48768011530E+01  0.52511924777E+01  0.00000000000E+00 0.  1.
</event>
<event>
 7    1  0.1683291E-008  0.4614232E+02  0.7816164E-02  0.1320468E+00
        -11   -1    0    0    0    0  0.00000000000E+00  0.00000000000E+00  0.45593999997E+02  0.45594000000E+02  0.51100000000E-03 0.  1.
         11   -1    0    0    0    0 -0.00000000000E+00 -0.00000000000E+00 -0.45593999997E+02  0.45594000000E+02  0.51100000000E-03 0. -1.
    9900012    2    1    2    0    0 -0.44161195883E+02  0.55829656267E+01 -0.69088933343E+01  0.46142317254E+02  0.99999953724E+01 0.  0.
        -12    1    1    2    0    0  0.44161195883E+02 -0.55829656267E+01  0.69088933343E+01  0.45045682746E+02  0.00000000000E+00 0.  1.
         11    1    3    3    0    0 -0.35733316034E+02  0.30070614433E+01 -0.27895241053E+01  0.35967954325E+02  0.51100000000E-03 0. -1.
        -11    1    3    3    0    0 -0.65111941465E+01  0.30474377527E+01 -0.39256408481E+01  0.81910428152E+01  0.51100000000E-03 0.  1.
         12    1    3    3    0    0 -0.19166857022E+01 -0.47153356930E+00 -0.19372838088E+00  0.19833201137E+01  0.00000000000E+00 0. -1.
</event>
<event>
 7    1  0.1683291E-008  0.4614232E+02  0.7816164E-02  0.1320468E+00
        -11   -1    0    0    0    0  0.00000000000E+00  0.00000000000E+00  0.45593999997E+02  0.45594000000E+02  0.51100000000E-03 0.  1.
         11   -1    0    0    0    0 -0.00000000000E+00 -0.00000000000E+00 -0.45593999997E+02  0.45594000000E+02  0.51100000000E-03 0. -1.
    9900012    2    1    2    0    0  0.39500522717E+02  0.47457107280E+01 -0.21125821935E+02  0.46142318545E+02  0.10000007152E+02 0.  0.
        -12    1    1    2    0    0 -0.39500522717E+02 -0.47457107280E+01  0.21125821935E+02  0.45045681455E+02  0.00000000000E+00 0.  1.
         11    1    3    3    0    0  0.15799692325E+02  0.21625718498E+01 -0.75665220515E+01  0.17651041068E+02  0.51100000000E-03 0. -1.
        -11    1    3    3    0    0  0.15259240196E+02 -0.11761863411E+01 -0.56052780355E+01  0.16298679940E+02  0.51100000000E-03 0.  1.
        -12    1    3    3    0    0  0.84415901966E+01  0.37593252192E+01 -0.79540218483E+01  0.12192597538E+02  0.00000000000E+00 0.  1.
</event>
<event>
 7    1  0.1683291E-008  0.4614232E+02  0.7816164E-02  0.1320468E+00
        -11   -1    0    0    0    0  0.00000000000E+00  0.00000000000E+00  0.45593999997E+02  0.45594000000E+02  0.51100000000E-03 0.  1.
         11   -1    0    0    0    0 -0.00000000000E+00 -0.00000000000E+00 -0.45593999997E+02  0.45594000000E+02  0.51100000000E-03 0. -1.
    9900012    2    1    2    0    0 -0.34329665571E+02 -0.29157030424E+02 -0.67467956131E+00  0.46142317034E+02  0.99999933712E+01 0.  0.
        -12    1    1    2    0    0  0.34329665571E+02  0.29157030424E+02  0.67467956131E+00  0.45045682966E+02  0.00000000000E+00 0.  1.
         11    1    3    3    0    0 -0.10653339408E+02 -0.71823960722E+01  0.20288979932E+01  0.13007570150E+02  0.51100000000E-03 0. -1.
        -11    1    3    3    0    0 -0.16011046087E+02 -0.12097501744E+02 -0.43227379283E+01  0.20527766774E+02  0.51100000000E-03 0.  1.
        -12    1    3    3    0    0 -0.76652800754E+01 -0.98771326083E+01  0.16191603738E+01  0.12606980111E+02  0.00000000000E+00 0.  1.
</event>
<event>
 7    1  0.1683291E-008  0.4614232E+02  0.7816164E-02  0.1320468E+00
        -11   -1    0    0    0    0  0.00000000000E+00  0.00000000000E+00  0.45593999997E+02  0.45594000000E+02  0.51100000000E-03 0.  1.
         11   -1    0    0    0    0 -0.00000000000E+00 -0.00000000000E+00 -0.45593999997E+02  0.45594000000E+02  0.51100000000E-03 0. -1.
    9900012    2    1    2    0    0  0.17722816679E+02 -0.41327408950E+02 -0.26571627218E+01  0.46142317907E+02  0.10000001326E+02 0.  0.
        -12    1    1    2    0    0 -0.17722816679E+02  0.41327408950E+02  0.26571627218E+01  0.45045682093E+02  0.00000000000E+00 0.  1.
         11    1    3    3    0    0  0.12446597848E+02 -0.27190012313E+02 -0.50093834364E+01  0.30320100433E+02  0.51100000000E-03 0. -1.
        -11    1    3    3    0    0  0.28299198934E+01 -0.10554019283E+02  0.32327005727E+01  0.11395004295E+02  0.51100000000E-03 0.  1.
         12    1    3    3    0    0  0.24462989375E+01 -0.35833773531E+01 -0.88047985804E+00  0.44272131783E+01  0.00000000000E+00 0. -1.
</event>
<event>
 7    1  0.1683291E-008  0.4614232E+02  0.7816164E-02  0.1320468E+00
        -11   -1    0    0    0    0  0.00000000000E+00  0.00000000000E+00  0.45593999997E+02  0.45594000000E+02  0.51100000000E-03 0.  1.
         11   -1    0    0    0    0 -0.00000000000E+00 -0.00000000000E+00 -0.45593999997E+02  0.45594000000E+02  0.51100000000E-03 0. -1.
    9900012    2    1    2    0    0 -0.26547051324E+02 -0.80768589533E+00 -0.36382898318E+02  0.46142316738E+02  0.99999906746E+01 0.  0.
        -12    1    1    2    0    0  0.26547051324E+02  0.80768589533E+00  0.36382898318E+02  0.45045683262E+02  0.00000000000E+00 0.  1.
         11    1    3    3    0    0 -0.16420657328E+02  0.24981961286E+01 -0.23737274587E+02  0.28971316437E+02  0.51100000000E-03 0.  1.
        -11    1    3    3    0    0 -0.62027206916E+01 -0.40053822969E+01 -0.64493555061E+01  0.98036226991E+01  0.51100000000E-03 0. -1.
         12    1    3    3    0    0 -0.39236733039E+01  0.69950027295E+00 -0.61962682244E+01  0.73673776024E+01  0.00000000000E+00 0. -1.
</event>
<event>
 7    1  0.1683291E-008  0.4614232E+02  0.7816164E-02  0.1320468E+00
        -11   -1    0    0    0    0  0.00000000000E+00  0.00000000000E+00  0.45593999997E+02  0.45594000000E+02  0.51100000000E-03 0.  1.
         11   -1    0    0    0    0 -0.00000000000E+00 -0.00000000000E+00 -0.45593999997E+02  0.45594000000E+02  0.51100000000E-03 0. -1.
    9900012    2    1    2    0    0  0.12485247529E+02 -0.33010596224E+02  0.27991652998E+02  0.46142317560E+02  0.99999981653E+01 0.  0.
        -12    1    1    2    0    0 -0.12485247529E+02  0.33010596224E+02 -0.27991652998E+02  0.45045682440E+02  0.00000000000E+00 0.  1.
         11    1    3    3    0    0  0.97666356211E+00 -0.23428607186E+01  0.25754129773E+01  0.36160227219E+01  0.51100000000E-03 0. -1.
        -11    1    3    3    0    0 -0.92329426127E+00 -0.25786952954E+01  0.13334834640E+00  0.27422479395E+01  0.51100000000E-03 0.  1.
         12    1    3    3    0    0  0.12431878228E+02 -0.28089040210E+02  0.25282891675E+02  0.39784046899E+02  0.00000000000E+00 0. -1.
</event>
<event>
 7    1  0.1683291E-008  0.4614232E+02  0.7816164E-02  0.1320468E+00
        -11   -1    0    0    0    0  0.00000000000E+00  0.00000000000E+00  0.45593999997E+02  0.45594000000E+02  0.51100000000E-03 0.  1.
         11   -1    0    0    0    0 -0.00000000000E+00 -0.00000000000E+00 -0.45593999997E+02  0.45594000000E+02  0.51100000000E-03 0. -1.
    9900012    2    1    2    0    0  0.86981451518E+01  0.16766496480E+02 -0.40894258669E+02  0.46142317350E+02  0.99999962551E+01 0.  0.
        -12    1    1    2    0    0 -0.86981451518E+01 -0.16766496480E+02  0.40894258669E+02  0.45045682650E+02  0.00000000000E+00 0.  1.
         11    1    3    3    0    0  0.43344074267E+01  0.41693336358E+01 -0.10278297231E+02  0.11908560993E+02  0.51100000000E-03 0. -1.
        -11    1    3    3    0    0  0.40234236576E+01  0.16849337075E+01 -0.98550880648E+01  0.10777277047E+02  0.51100000000E-03 0.  1.
        -12    1    3    3    0    0  0.34031406756E+00  0.10912229136E+02 -0.20760873374E+02  0.23456479310E+02  0.00000000000E+00 0.  1.
</event>
<event>
 7    1  0.1683291E-008  0.4614232E+02  0.7816164E-02  0.1320468E+00
        -11   -1    0    0    0    0  0.00000000000E+00  0.00000000000E+00  0.45593999997E+02  0.45594000000E+02  0.51100000000E-03 0.  1.
         11   -1    0    0    0    0 -0.00000000000E+00 -0.00000000000E+00 -0.45593999997E+02  0.45594000000E+02  0.51100000000E-03 0. -1.
    9900012    2    1    2    0    0 -0.25879446659E+02  0.17879010528E+02 -0.32244511918E+02  0.46142319567E+02  0.10000016469E+02 0.  0.
        -12    1    1    2    0    0  0.25879446659E+02 -0.17879010528E+02  0.32244511918E+02  0.45045680433E+02  0.00000000000E+00 0.  1.
         11    1    3    3    0    0 -0.54482752494E+00  0.11823953529E+01 -0.32526959425E+01  0.35035591844E+01  0.51100000000E-03 0. -1.
        -11    1    3    3    0    0  0.38427798000E-01 -0.27372302915E+00  0.24610778162E+00  0.37009497921E+00  0.51100000000E-03 0.  1.
         12    1    3    3    0    0 -0.25373046932E+02  0.16970338204E+02 -0.29237923757E+02  0.42268665404E+02  0.00000000000E+00 0. -1.
</event>
<event>
 7    1  0.1683291E-008  0.4614232E+02  0.7816164E-02  0.1320468E+00
        -11   -1    0    0    0    0  0.00000000000E+00  0.00000000000E+00  0.45593999997E+02  0.45594000000E+02  0.51100000000E-03 0.  1.
         11   -1    0    0    0    0 -0.00000000000E+00 -0.00000000000E+00 -0.45593999997E+02  0.45594000000E+02  0.51100000000E-03 0. -1.
    9900012    2    1    2    0    0 -0.41832582600E+02  0.10234432469E+02 -0.13206246853E+02  0.46142317289E+02  0.99999956979E+01 0.  0.
        -12    1    1    2    0    0  0.41832582600E+02 -0.10234432469E+02  0.13206246853E+02  0.45045682711E+02  0.00000000000E+00 0.  1.
         11    1    3    3    0    0 -0.93795452590E+01  0.47421211520E+01 -0.25018922659E+01  0.10803844106E+02  0.51100000000E-03 0. -1.
        -11    1    3    3    0    0 -0.47319845042E+01 -0.64069274786E-02 -0.42258966576E+01  0.63442825614E+01  0.51100000000E-03 0.  1.
        -12    1    3    3    0    0 -0.27721052837E+02  0.54987182439E+01 -0.64784579293E+01  0.28994190622E+02  0.00000000000E+00 0.  1.
</event>
<event>
 7    1  0.1683291E-008  0.4614232E+02  0.7816164E-02  0.1320468E+00
        -11   -1    0    0    0    0  0.00000000000E+00  0.00000000000E+00  0.45593999997E+02  0.45594000000E+02  0.51100000000E-03 0.  1.
         11   -1    0    0    0    0 -0.00000000000E+00 -0.00000000000E+00 -0.45593999997E+02  0.45594000000E+02  0.51100000000E-03 0. -1.
    9900012    2    1    2    0    0 -0.13151580192E+02  0.18865356303E+02 -0.38733031362E+02  0.46142318204E+02  0.10000004041E+02 0.  0.
        -12    1    1    2    0    0  0.13151580192E+02 -0.18865356303E+02  0.38733031362E+02  0.45045681796E+02  0.00000000000E+00 0.  1.
         11    1    3    3    0    0 -0.87436457358E+00  0.37309705746E+01 -0.21753305576E+01  0.44064405286E+01  0.51100000000E-03 0. -1.
        -11    1    3    3    0    0 -0.81409493985E+01  0.60303320651E+01 -0.17970420307E+02  0.20629492679E+02  0.51100000000E-03 0.  1.
         12    1    3    3    0    0 -0.41362662199E+01  0.91040536632E+01 -0.18587280497E+02  0.21106384996E+02  0.00000000000E+00 0. -1.
</event>
<event>
 7    1  0.1683291E-008  0.4614232E+02  0.7816164E-02  0.1320468E+00
        -11   -1    0    0    0    0  0.00000000000E+00  0.00000000000E+00  0.45593999997E+02  0.45594000000E+02  0.51100000000E-03 0.  1.
         11   -1    0    0    0    0 -0.00000000000E+00 -0.00000000000E+00 -0.45593999997E+02  0.45594000000E+02  0.51100000000E-03 0. -1.
    9900012    2    1    2    0    0 -0.56791258837E+01 -0.19802858513E+02 -0.40058806383E+02  0.46142316023E+02  0.99999841512E+01 0.  0.
        -12    1    1    2    0    0  0.56791258837E+01  0.19802858513E+02  0.40058806383E+02  0.45045683977E+02  0.00000000000E+00 0.  1.
         11    1    3    3    0    0 -0.20324121340E+01 -0.95100249093E+01 -0.12768340035E+02  0.16049977582E+02  0.51100000000E-03 0.  1.
        -11    1    3    3    0    0  0.65295779538E+00 -0.72750924030E+01 -0.13772088476E+02  0.15589218858E+02  0.51100000000E-03 0. -1.
        -12    1    3    3    0    0 -0.42996715450E+01 -0.30177412006E+01 -0.13518377872E+02  0.14503119583E+02  0.00000000000E+00 0.  1.
</event>
<event>
 7    1  0.1683291E-008  0.4614232E+02  0.7816164E-02  0.1320468E+00
        -11   -1    0    0    0    0  0.00000000000E+00  0.00000000000E+00  0.45593999997E+02  0.45594000000E+02  0.51100000000E-03 0.  1.
         11   -1    0    0    0    0 -0.00000000000E+00 -0.00000000000E+00 -0.45593999997E+02  0.45594000000E+02  0.51100000000E-03 0. -1.
    9900012    2    1    2    0    0  0.40779210671E+02  0.17139960552E+02 -0.85083041530E+01  0.46142317518E+02  0.99999977859E+01 0.  0.
        -12    1    1    2    0    0 -0.40779210671E+02 -0.17139960552E+02  0.85083041530E+01  0.45045682482E+02  0.00000000000E+00 0.  1.
         11    1    3    3    0    0  0.21738987557E+02  0.88264902800E+01 -0.81098139714E+01  0.24824576403E+02  0.51100000000E-03 0. -1.
        -11    1    3    3    0    0  0.10418083614E+02  0.19574553900E+01 -0.34232408807E+00  0.10605907969E+02  0.51100000000E-03 0.  1.
        -12    1    3    3    0    0  0.86221395001E+01  0.63560148821E+01 -0.56166093473E-01  0.10711833147E+02  0.00000000000E+00 0.  1.
</event>
<event>
 7    1  0.1683291E-008  0.4614232E+02  0.7816164E-02  0.1320468E+00
        -11   -1    0    0    0    0  0.00000000000E+00  0.00000000000E+00  0.45593999997E+02  0.45594000000E+02  0.51100000000E-03 0.  1.
         11   -1    0    0    0    0 -0.00000000000E+00 -0.00000000000E+00 -0.45593999997E+02  0.45594000000E+02  0.51100000000E-03 0. -1.
    9900012    2    1    2    0    0  0.34126349078E+02 -0.93823098790E+01 -0.27865356094E+02  0.46142317518E+02  0.99999977787E+01 0.  0.
        -12    1    1    2    0    0 -0.34126349078E+02  0.93823098790E+01  0.27865356094E+02  0.45045682482E+02  0.00000000000E+00 0.  1.
         11    1    3    3    0    0  0.53977866420E+01 -0.67667917126E-01 -0.65718397848E+01  0.85046903529E+01  0.51100000000E-03 0. -1.
        -11    1    3    3    0    0  0.94225147512E+01  0.34043271105E+00 -0.58467240693E+01  0.11094316620E+02  0.51100000000E-03 0.  1.
        -12    1    3    3    0    0  0.19306047685E+02 -0.96550746729E+01 -0.15446792240E+02  0.26543310544E+02  0.00000000000E+00 0.  1.
</event>
<event>
 7    1  0.1683291E-008  0.4614232E+02  0.7816164E-02  0.1320468E+00
        -11   -1    0    0    0    0  0.00000000000E+00  0.00000000000E+00  0.45593999997E+02  0.45594000000E+02  0.51100000000E-03 0.  1.
         11   -1    0    0    0    0 -0.00000000000E+00 -0.00000000000E+00 -0.45593999997E+02  0.45594000000E+02  0.51100000000E-03 0. -1.
    9900012    2    1    2    0    0  0.42104151615E+02 -0.14589195654E+02 -0.65961535199E+01  0.46142318139E+02  0.10000003445E+02 0.  0.
        -12    1    1    2    0    0 -0.42104151615E+02  0.14589195654E+02  0.65961535199E+01  0.45045681861E+02  0.00000000000E+00 0.  1.
         11    1    3    3    0    0  0.13516343384E+01 -0.69168620581E+00 -0.10542431182E+01  0.18484517861E+01  0.51100000000E-03 0. -1.
        -11    1    3    3    0    0  0.10990377197E+02 -0.14701064427E+00  0.28475871017E+00  0.10995048470E+02  0.51100000000E-03 0.  1.
        -12    1    3    3    0    0  0.29762140080E+02 -0.13750498804E+02 -0.58266691119E+01  0.33298817883E+02  0.00000000000E+00 0.  1.
</event>
<event>
 7    1  0.1683291E-008  0.4614232E+02  0.7816164E-02  0.1320468E+00
        -11   -1    0    0    0    0  0.00000000000E+00  0.00000000000E+00  0.45593999997E+02  0.45594000000E+02  0.51100000000E-03 0.  1.
         11   -1    0    0    0    0 -0.00000000000E+00 -0.00000000000E+00 -0.45593999997E+02  0.45594000000E+02  0.51100000000E-03 0. -1.
    9900012    2    1    2    0    0 -0.31011472992E+02 -0.29272802674E+00 -0.32669807308E+02  0.46142318116E+02  0.10000003236E+02 0.  0.
        -12    1    1    2    0    0  0.31011472992E+02  0.29272802674E+00  0.32669807308E+02  0.45045681884E+02  0.00000000000E+00 0.  1.
         11    1    3    3    0    0 -0.23873061033E+02  0.26842691155E+01 -0.20194660388E+02  0.31383955331E+02  0.51100000000E-03 0. -1.
        -11    1    3    3    0    0 -0.58387855137E+01 -0.17849072025E+01 -0.92684197214E+01  0.11098689760E+02  0.51100000000E-03 0.  1.
         12    1    3    3    0    0 -0.12996264455E+01 -0.11920899397E+01 -0.32067271988E+01  0.36596730250E+01  0.00000000000E+00 0. -1.
</event>
<event>
 7    1  0.1683291E-008  0.4614232E+02  0.7816164E-02  0.1320468E+00
        -11   -1    0    0    0    0  0.00000000000E+00  0.00000000000E+00  0.45593999997E+02  0.45594000000E+02  0.51100000000E-03 0.  1.
         11   -1    0    0    0    0 -0.00000000000E+00 -0.00000000000E+00 -0.45593999997E+02  0.45594000000E+02  0.51100000000E-03 0. -1.
    9900012    2    1    2    0    0  0.52824875603E+01 -0.20417222127E+02 -0.39803841396E+02  0.46142318474E+02  0.10000006504E+02 0.  0.
        -12    1    1    2    0    0 -0.52824875603E+01  0.20417222127E+02  0.39803841396E+02  0.45045681526E+02  0.00000000000E+00 0.  1.
         11    1    3    3    0    0  0.47156038190E+01 -0.75963053815E+01 -0.15941404721E+02  0.18277558906E+02  0.51100000000E-03 0. -1.
        -11    1    3    3    0    0  0.18824040364E+00 -0.12017777803E+02 -0.16309801724E+02  0.20260109830E+02  0.51100000000E-03 0.  1.
        -12    1    3    3    0    0  0.37864333767E+00 -0.80313894242E+00 -0.75526349517E+01  0.76046497389E+01  0.00000000000E+00 0.  1.
</event>
<event>
 7    1  0.1683291E-008  0.4614232E+02  0.7816164E-02  0.1320468E+00
        -11   -1    0    0    0    0  0.00000000000E+00  0.00000000000E+00  0.45593999997E+02  0.45594000000E+02  0.51100000000E-03 0.  1.
         11   -1    0    0    0    0 -0.00000000000E+00 -0.00000000000E+00 -0.45593999997E+02  0.45594000000E+02  0.51100000000E-03 0. -1.
    9900012    2    1    2    0    0 -0.38242715141E+02  0.23336440442E+02 -0.46923786994E+01  0.46142321720E+02  0.10000036097E+02 0.  0.
        -12    1    1    2    0    0  0.38242715141E+02 -0.23336440442E+02  0.46923786994E+01  0.45045678280E+02  0.00000000000E+00 0.  1.
         11    1    3    3    0    0 -0.44871465841E+01  0.27144503157E+01  0.16595571820E+01  0.55006231724E+01  0.51100000000E-03 0. -1.
        -11    1    3    3    0    0 -0.30635643184E+02  0.20744649290E+02 -0.62114883455E+01  0.37516205767E+02  0.51100000000E-03 0.  1.
        -12    1    3    3    0    0 -0.31199253736E+01 -0.12265916396E+00 -0.14044753595E+00  0.31254927799E+01  0.00000000000E+00 0.  1.
</event>
<event>
 7    1  0.1683291E-008  0.4614231E+02  0.7816164E-02  0.1320468E+00
        -11   -1    0    0    0    0  0.00000000000E+00  0.00000000000E+00  0.45593999997E+02  0.45594000000E+02  0.51100000000E-03 0.  1.
         11   -1    0    0    0    0 -0.00000000000E+00 -0.00000000000E+00 -0.45593999997E+02  0.45594000000E+02  0.51100000000E-03 0. -1.
    9900012    2    1    2    0    0  0.20567877553E+02 -0.19963412046E+02 -0.34749655301E+02  0.46142312625E+02  0.99999531602E+01 0.  0.
        -12    1    1    2    0    0 -0.20567877553E+02  0.19963412046E+02  0.34749655301E+02  0.45045687375E+02  0.00000000000E+00 0.  1.
         11    1    3    3    0    0  0.15040803667E+02 -0.11025843980E+02 -0.15796659354E+02  0.24440324414E+02  0.51100000000E-03 0. -1.
        -11    1    3    3    0    0  0.10484454963E+01 -0.96860326754E+00 -0.23860325209E+01  0.27803923645E+01  0.51100000000E-03 0.  1.
         12    1    3    3    0    0  0.44786283901E+01 -0.79689647984E+01 -0.16566963426E+02  0.18921595847E+02  0.00000000000E+00 0. -1.
</event>
<event>
 7    1  0.1683291E-008  0.4614232E+02  0.7816164E-02  0.1320468E+00
        -11   -1    0    0    0    0  0.00000000000E+00  0.00000000000E+00  0.45593999997E+02  0.45594000000E+02  0.51100000000E-03 0.  1.
         11   -1    0    0    0    0 -0.00000000000E+00 -0.00000000000E+00 -0.45593999997E+02  0.45594000000E+02  0.51100000000E-03 0. -1.
    9900012    2    1    2    0    0 -0.37465114957E+02  0.22551703061E+02  0.10812002108E+02  0.46142317197E+02  0.99999948523E+01 0.  0.
        -12    1    1    2    0    0  0.37465114957E+02 -0.22551703061E+02 -0.10812002108E+02  0.45045682803E+02  0.00000000000E+00 0.  1.
         11    1    3    3    0    0 -0.64204730253E+01  0.76494139593E+01  0.29535745042E+01  0.10414394385E+02  0.51100000000E-03 0. -1.
        -11    1    3    3    0    0 -0.66238877929E+01  0.27916209052E+01 -0.52999239890E+00  0.72076299139E+01  0.51100000000E-03 0.  1.
         12    1    3    3    0    0 -0.24420754138E+02  0.12110668196E+02  0.83884200024E+01  0.28520292898E+02  0.00000000000E+00 0. -1.
</event>
<event>
 7    1  0.1683291E-008  0.4614231E+02  0.7816164E-02  0.1320468E+00
        -11   -1    0    0    0    0  0.00000000000E+00  0.00000000000E+00  0.45593999997E+02  0.45594000000E+02  0.51100000000E-03 0.  1.
         11   -1    0    0    0    0 -0.00000000000E+00 -0.00000000000E+00 -0.45593999997E+02  0.45594000000E+02  0.51100000000E-03 0. -1.
    9900012    2    1    2    0    0 -0.13745324783E+02  0.15883284011E+02 -0.39848482541E+02  0.46142309583E+02  0.99999254208E+01 0.  0.
        -12    1    1    2    0    0  0.13745324783E+02 -0.15883284011E+02  0.39848482541E+02  0.45045690417E+02  0.00000000000E+00 0.  1.
         11    1    3    3    0    0 -0.13055592899E+02  0.12264020612E+02 -0.37123320560E+02  0.41218874768E+02  0.51100000000E-03 0. -1.
        -11    1    3    3    0    0  0.37192968383E+00  0.18871171060E+01 -0.19774488702E+01  0.27585951056E+01  0.51100000000E-03 0.  1.
        -12    1    3    3    0    0 -0.10616615685E+01  0.17321462936E+01 -0.74771311064E+00  0.21648397087E+01  0.00000000000E+00 0.  1.
</event>
<event>
 7    1  0.1683291E-008  0.4614232E+02  0.7816164E-02  0.1320468E+00
        -11   -1    0    0    0    0  0.00000000000E+00  0.00000000000E+00  0.45593999997E+02  0.45594000000E+02  0.51100000000E-03 0.  1.
         11   -1    0    0    0    0 -0.00000000000E+00 -0.00000000000E+00 -0.45593999997E+02  0.45594000000E+02  0.51100000000E-03 0. -1.
    9900012    2    1    2    0    0  0.11179655152E+02 -0.12433052743E+02 -0.41827599335E+02  0.46142317011E+02  0.99999931622E+01 0.  0.
        -12    1    1    2    0    0 -0.11179655152E+02  0.12433052743E+02  0.41827599335E+02  0.45045682989E+02  0.00000000000E+00 0.  1.
         11    1    3    3    0    0  0.96743714638E+01 -0.11626089674E+02 -0.31547758544E+02  0.34986004255E+02  0.51100000000E-03 0. -1.
        -11    1    3    3    0    0 -0.94829857451E+00 -0.23933907330E+00 -0.58483109424E+00  0.11395530037E+01  0.51100000000E-03 0.  1.
         12    1    3    3    0    0  0.24535822631E+01 -0.56762399493E+00 -0.96950096967E+01  0.10016759753E+02  0.00000000000E+00 0. -1.
</event>
<event>
 7    1  0.1683291E-008  0.4614232E+02  0.7816164E-02  0.1320468E+00
        -11   -1    0    0    0    0  0.00000000000E+00  0.00000000000E+00  0.45593999997E+02  0.45594000000E+02  0.51100000000E-03 0.  1.
         11   -1    0    0    0    0 -0.00000000000E+00 -0.00000000000E+00 -0.45593999997E+02  0.45594000000E+02  0.51100000000E-03 0. -1.
    9900012    2    1    2    0    0 -0.12839922157E+02 -0.20277823605E+02 -0.38119013537E+02  0.46142324024E+02  0.10000057108E+02 0.  0.
        -12    1    1    2    0    0  0.12839922157E+02  0.20277823605E+02  0.38119013537E+02  0.45045675976E+02  0.00000000000E+00 0.  1.
         11    1    3    3    0    0 -0.33757761011E+01 -0.42747988956E+00 -0.72448599275E+01  0.80041613534E+01  0.51100000000E-03 0. -1.
        -11    1    3    3    0    0 -0.19714761830E+01 -0.85612136721E+01 -0.10852366525E+02  0.13962627164E+02  0.51100000000E-03 0.  1.
         12    1    3    3    0    0 -0.74926698729E+01 -0.11289130043E+02 -0.20021787085E+02  0.24175535506E+02  0.00000000000E+00 0. -1.
</event>
<event>
 7    1  0.1683291E-008  0.4614232E+02  0.7816164E-02  0.1320468E+00
        -11   -1    0    0    0    0  0.00000000000E+00  0.00000000000E+00  0.45593999997E+02  0.45594000000E+02  0.51100000000E-03 0.  1.
         11   -1    0    0    0    0 -0.00000000000E+00 -0.00000000000E+00 -0.45593999997E+02  0.45594000000E+02  0.51100000000E-03 0. -1.
    9900012    2    1    2    0    0 -0.17735785882E+02  0.34826546784E+02 -0.22397924234E+02  0.46142317946E+02  0.10000001683E+02 0.  0.
        -12    1    1    2    0    0  0.17735785882E+02 -0.34826546784E+02  0.22397924234E+02  0.45045682054E+02  0.00000000000E+00 0.  1.
         11    1    3    3    0    0 -0.70258531412E+01  0.18593294142E+02 -0.15566681146E+02  0.25246678229E+02  0.51100000000E-03 0. -1.
        -11    1    3    3    0    0 -0.40762614399E+01  0.77538749409E+01 -0.15203105088E+01  0.88909970323E+01  0.51100000000E-03 0.  1.
         12    1    3    3    0    0 -0.66336713007E+01  0.84793777007E+01 -0.53109325790E+01  0.12004642684E+02  0.00000000000E+00 0. -1.
</event>
<event>
 7    1  0.1683291E-008  0.4614231E+02  0.7816164E-02  0.1320468E+00
        -11   -1    0    0    0    0  0.00000000000E+00  0.00000000000E+00  0.45593999997E+02  0.45594000000E+02  0.51100000000E-03 0. -1.
         11   -1    0    0    0    0 -0.00000000000E+00 -0.00000000000E+00 -0.45593999997E+02  0.45594000000E+02  0.51100000000E-03 0.  1.
    9900012    2    1    2    0    0  0.31957277624E+02  0.10013528419E+02  0.30126006052E+02  0.46142305587E+02  0.99998889842E+01 0.  0.
        -12    1    1    2    0    0 -0.31957277624E+02 -0.10013528419E+02 -0.30126006052E+02  0.45045694413E+02  0.00000000000E+00 0.  1.
         11    1    3    3    0    0  0.13834207399E+02  0.48216909714E+01  0.19544025915E+02  0.24425456954E+02  0.51100000000E-03 0.  1.
        -11    1    3    3    0    0  0.13452827308E+02  0.46347149212E+01  0.84900779010E+01  0.16569265765E+02  0.51100000000E-03 0. -1.
         12    1    3    3    0    0  0.46702429167E+01  0.55712252642E+00  0.20919022356E+01  0.51475828671E+01  0.00000000000E+00 0. -1.
</event>
<event>
 7    1  0.1683291E-008  0.4614232E+02  0.7816164E-02  0.1320468E+00
        -11   -1    0    0    0    0  0.00000000000E+00  0.00000000000E+00  0.45593999997E+02  0.45594000000E+02  0.51100000000E-03 0.  1.
         11   -1    0    0    0    0 -0.00000000000E+00 -0.00000000000E+00 -0.45593999997E+02  0.45594000000E+02  0.51100000000E-03 0. -1.
    9900012    2    1    2    0    0  0.17599401141E+02 -0.14912259917E+02 -0.38691072503E+02  0.46142317546E+02  0.99999980373E+01 0.  0.
        -12    1    1    2    0    0 -0.17599401141E+02  0.14912259917E+02  0.38691072503E+02  0.45045682454E+02  0.00000000000E+00 0.  1.
         11    1    3    3    0    0  0.12131779067E+02 -0.13207480228E+02 -0.23165111395E+02  0.29295733196E+02  0.51100000000E-03 0. -1.
        -11    1    3    3    0    0  0.20978242083E+01  0.80178179178E+00 -0.41260487013E+01  0.46976588421E+01  0.51100000000E-03 0.  1.
         12    1    3    3    0    0  0.33697978657E+01 -0.25065614806E+01 -0.11399912406E+02  0.12148925508E+02  0.00000000000E+00 0. -1.
</event>
<event>
 7    1  0.1683291E-008  0.4614232E+02  0.7816164E-02  0.1320468E+00
        -11   -1    0    0    0    0  0.00000000000E+00  0.00000000000E+00  0.45593999997E+02  0.45594000000E+02  0.51100000000E-03 0. -1.
         11   -1    0    0    0    0 -0.00000000000E+00 -0.00000000000E+00 -0.45593999997E+02  0.45594000000E+02  0.51100000000E-03 0.  1.
    9900012    2    1    2    0    0 -0.32328625227E+02 -0.24318393169E+02  0.19813863922E+02  0.46142318088E+02  0.10000002981E+02 0.  0.
        -12    1    1    2    0    0  0.32328625227E+02  0.24318393169E+02 -0.19813863922E+02  0.45045681912E+02  0.00000000000E+00 0.  1.
         11    1    3    3    0    0 -0.12040527492E+02 -0.13596119818E+02  0.86904281067E+01  0.20133363289E+02  0.51100000000E-03 0. -1.
        -11    1    3    3    0    0 -0.19573141666E+02 -0.11099818702E+02  0.99965873571E+01  0.24622055335E+02  0.51100000000E-03 0.  1.
        -12    1    3    3    0    0 -0.71495606944E+00  0.37754535148E+00  0.11268484583E+01  0.13868994634E+01  0.00000000000E+00 0.  1.
</event>
<event>
 7    1  0.1683291E-008  0.4614232E+02  0.7816164E-02  0.1320468E+00
        -11   -1    0    0    0    0  0.00000000000E+00  0.00000000000E+00  0.45593999997E+02  0.45594000000E+02  0.51100000000E-03 0.  1.
         11   -1    0    0    0    0 -0.00000000000E+00 -0.00000000000E+00 -0.45593999997E+02  0.45594000000E+02  0.51100000000E-03 0. -1.
    9900012    2    1    2    0    0  0.38808787913E+02 -0.18081393749E+02 -0.14001950134E+02  0.46142318446E+02  0.10000006241E+02 0.  0.
        -12    1    1    2    0    0 -0.38808787913E+02  0.18081393749E+02  0.14001950134E+02  0.45045681554E+02  0.00000000000E+00 0.  1.
         11    1    3    3    0    0  0.25996049796E+02 -0.88573823541E+01 -0.12019883740E+02  0.29978749683E+02  0.51100000000E-03 0. -1.
        -11    1    3    3    0    0  0.72127232442E+01 -0.67029404665E+01 -0.57577019167E+00  0.98632803402E+01  0.51100000000E-03 0.  1.
         12    1    3    3    0    0  0.56000148729E+01 -0.25210709286E+01 -0.14062962018E+01  0.63002884228E+01  0.00000000000E+00 0. -1.
</event>
<event>
 7    1  0.1683291E-008  0.4614232E+02  0.7816164E-02  0.1320468E+00
        -11   -1    0    0    0    0  0.00000000000E+00  0.00000000000E+00  0.45593999997E+02  0.45594000000E+02  0.51100000000E-03 0.  1.
         11   -1    0    0    0    0 -0.00000000000E+00 -0.00000000000E+00 -0.45593999997E+02  0.45594000000E+02  0.51100000000E-03 0. -1.
    9900012    2    1    2    0    0 -0.44012406803E+01 -0.17894785907E+02 -0.41103762185E+02  0.46142317099E+02  0.99999939651E+01 0.  0.
        -12    1    1    2    0    0  0.44012406803E+01  0.17894785907E+02  0.41103762185E+02  0.45045682901E+02  0.00000000000E+00 0.  1.
         11    1    3    3    0    0 -0.14568169237E+01 -0.79541139749E+01 -0.26751280309E+02  0.27946757292E+02  0.51100000000E-03 0. -1.
        -11    1    3    3    0    0 -0.42625116932E+00  0.32044054814E+00 -0.12837502044E+01  0.13901032525E+01  0.51100000000E-03 0.  1.
         12    1    3    3    0    0 -0.25181725873E+01 -0.10261112481E+02 -0.13068731672E+02  0.16805456555E+02  0.00000000000E+00 0. -1.
</event>
<event>
 7    1  0.1683291E-008  0.4614232E+02  0.7816164E-02  0.1320468E+00
        -11   -1    0    0    0    0  0.00000000000E+00  0.00000000000E+00  0.45593999997E+02  0.45594000000E+02  0.51100000000E-03 0.  1.
         11   -1    0    0    0    0 -0.00000000000E+00 -0.00000000000E+00 -0.45593999997E+02  0.45594000000E+02  0.51100000000E-03 0. -1.
    9900012    2    1    2    0    0  0.32660317446E+01 -0.27583993683E+02 -0.35462230590E+02  0.46142317973E+02  0.10000001930E+02 0.  0.
        -12    1    1    2    0    0 -0.32660317446E+01  0.27583993683E+02  0.35462230590E+02  0.45045682027E+02  0.00000000000E+00 0.  1.
         11    1    3    3    0    0  0.29163475989E+01 -0.14384548212E+02 -0.13240194628E+02  0.19766716081E+02  0.51100000000E-03 0. -1.
        -11    1    3    3    0    0 -0.14857999561E+01 -0.59528217931E+01 -0.13871706088E+02  0.15167989942E+02  0.51100000000E-03 0.  1.
        -12    1    3    3    0    0  0.18354841019E+01 -0.72466236779E+01 -0.83503298739E+01  0.11207611950E+02  0.00000000000E+00 0.  1.
</event>
<event>
 7    1  0.1683291E-008  0.4614232E+02  0.7816164E-02  0.1320468E+00
        -11   -1    0    0    0    0  0.00000000000E+00  0.00000000000E+00  0.45593999997E+02  0.45594000000E+02  0.51100000000E-03 0.  1.
         11   -1    0    0    0    0 -0.00000000000E+00 -0.00000000000E+00 -0.45593999997E+02  0.45594000000E+02  0.51100000000E-03 0. -1.
    9900012    2    1    2    0    0 -0.89126388101E+00  0.15166068418E+01 -0.45011321373E+02  0.46142317640E+02  0.99999988916E+01 0.  0.
        -12    1    1    2    0    0  0.89126388101E+00 -0.15166068418E+01  0.45011321373E+02  0.45045682360E+02  0.00000000000E+00 0.  1.
         11    1    3    3    0    0  0.33372873177E+01  0.38390330143E+01 -0.21920645326E+02  0.22503118737E+02  0.51100000000E-03 0. -1.
        -11    1    3    3    0    0 -0.21137968949E+01 -0.61260976048E+00 -0.76252218474E+01  0.79364624686E+01  0.51100000000E-03 0.  1.
         12    1    3    3    0    0 -0.21147543038E+01 -0.17098164120E+01 -0.15465454199E+02  0.15702736434E+02  0.00000000000E+00 0. -1.
</event>
<event>
 7    1  0.1683291E-008  0.4614232E+02  0.7816164E-02  0.1320468E+00
        -11   -1    0    0    0    0  0.00000000000E+00  0.00000000000E+00  0.45593999997E+02  0.45594000000E+02  0.51100000000E-03 0.  1.
         11   -1    0    0    0    0 -0.00000000000E+00 -0.00000000000E+00 -0.45593999997E+02  0.45594000000E+02  0.51100000000E-03 0. -1.
    9900012    2    1    2    0    0 -0.41006939262E+02  0.66602503707E+01 -0.17412212371E+02  0.46142321602E+02  0.10000035028E+02 0.  0.
        -12    1    1    2    0    0  0.41006939262E+02 -0.66602503707E+01  0.17412212371E+02  0.45045678398E+02  0.00000000000E+00 0.  1.
         11    1    3    3    0    0 -0.94436361490E+01  0.90944275242E+00 -0.44981477215E+01  0.10499651567E+02  0.51100000000E-03 0. -1.
        -11    1    3    3    0    0 -0.27820456120E+02  0.78744310670E+01 -0.11050581322E+02  0.30953187092E+02  0.51100000000E-03 0.  1.
        -12    1    3    3    0    0 -0.37428469934E+01 -0.21236234487E+01 -0.18634833278E+01  0.46894829439E+01  0.00000000000E+00 0.  1.
</event>
<event>
 7    1  0.1683291E-008  0.4614232E+02  0.7816164E-02  0.1320468E+00
        -11   -1    0    0    0    0  0.00000000000E+00  0.00000000000E+00  0.45593999997E+02  0.45594000000E+02  0.51100000000E-03 0.  1.
         11   -1    0    0    0    0 -0.00000000000E+00 -0.00000000000E+00 -0.45593999997E+02  0.45594000000E+02  0.51100000000E-03 0. -1.
    9900012    2    1    2    0    0 -0.85755133047E+01 -0.26507324236E+02 -0.35396833698E+02  0.46142317605E+02  0.99999985775E+01 0.  0.
        -12    1    1    2    0    0  0.85755133047E+01  0.26507324236E+02  0.35396833698E+02  0.45045682395E+02  0.00000000000E+00 0.  1.
         11    1    3    3    0    0 -0.38956469058E+01 -0.12613414688E+02 -0.18828919944E+02  0.22995706587E+02  0.51100000000E-03 0. -1.
        -11    1    3    3    0    0 -0.64495128162E+00 -0.44069696740E+01 -0.11507989327E+01  0.46001828559E+01  0.51100000000E-03 0.  1.
        -12    1    3    3    0    0 -0.40349151173E+01 -0.94869398741E+01 -0.15417114821E+02  0.18546428162E+02  0.00000000000E+00 0.  1.
</event>
<event>
 7    1  0.1683291E-008  0.4614232E+02  0.7816164E-02  0.1320468E+00
        -11   -1    0    0    0    0  0.00000000000E+00  0.00000000000E+00  0.45593999997E+02  0.45594000000E+02  0.51100000000E-03 0.  1.
         11   -1    0    0    0    0 -0.00000000000E+00 -0.00000000000E+00 -0.45593999997E+02  0.45594000000E+02  0.51100000000E-03 0. -1.
    9900012    2    1    2    0    0  0.16211077005E+01 -0.85759396492E+01 -0.44192065421E+02  0.46142318995E+02  0.10000011254E+02 0.  0.
        -12    1    1    2    0    0 -0.16211077005E+01  0.85759396492E+01  0.44192065421E+02  0.45045681005E+02  0.00000000000E+00 0.  1.
         11    1    3    3    0    0 -0.20179509420E+01 -0.12391484410E+01 -0.22777246534E+02  0.22900012550E+02  0.51100000000E-03 0. -1.
        -11    1    3    3    0    0  0.42149655487E+01 -0.56427054938E+01 -0.18780764220E+02  0.20057995035E+02  0.51100000000E-03 0.  1.
         12    1    3    3    0    0 -0.57590690623E+00 -0.16940857143E+01 -0.26340546667E+01  0.31843114105E+01  0.00000000000E+00 0. -1.
</event>
<event>
 7    1  0.1683291E-008  0.4614232E+02  0.7816164E-02  0.1320468E+00
        -11   -1    0    0    0    0  0.00000000000E+00  0.00000000000E+00  0.45593999997E+02  0.45594000000E+02  0.51100000000E-03 0. -1.
         11   -1    0    0    0    0 -0.00000000000E+00 -0.00000000000E+00 -0.45593999997E+02  0.45594000000E+02  0.51100000000E-03 0.  1.
    9900012    2    1    2    0    0  0.17890809205E+01 -0.44703587243E+02 -0.52442320260E+01  0.46142317715E+02  0.99999995809E+01 0.  0.
        -12    1    1    2    0    0 -0.17890809205E+01  0.44703587243E+02  0.52442320260E+01  0.45045682285E+02  0.00000000000E+00 0.  1.
         11    1    3    3    0    0  0.16884677869E+01 -0.24267528119E+02 -0.23529390738E+01  0.24439725183E+02  0.51100000000E-03 0. -1.
        -11    1    3    3    0    0  0.33291398957E+01 -0.10603740657E+02 -0.78612435343E+00  0.11141834684E+02  0.51100000000E-03 0.  1.
         12    1    3    3    0    0 -0.32285267621E+01 -0.98323184668E+01 -0.21051685988E+01  0.10560757848E+02  0.00000000000E+00 0. -1.
</event>
<event>
 7    1  0.1683291E-008  0.4614232E+02  0.7816164E-02  0.1320468E+00
        -11   -1    0    0    0    0  0.00000000000E+00  0.00000000000E+00  0.45593999997E+02  0.45594000000E+02  0.51100000000E-03 0.  1.
         11   -1    0    0    0    0 -0.00000000000E+00 -0.00000000000E+00 -0.45593999997E+02  0.45594000000E+02  0.51100000000E-03 0. -1.
    9900012    2    1    2    0    0  0.13094002111E+02  0.23933029472E+02 -0.35845092356E+02  0.46142318331E+02  0.10000005196E+02 0.  0.
        -12    1    1    2    0    0 -0.13094002111E+02 -0.23933029472E+02  0.35845092356E+02  0.45045681669E+02  0.00000000000E+00 0.  1.
         11    1    3    3    0    0  0.51804424781E+01  0.15132316764E+02 -0.17018653172E+02  0.23355054077E+02  0.51100000000E-03 0. -1.
        -11    1    3    3    0    0  0.20893198795E+01  0.19483996946E+01 -0.91113338633E+01  0.95487132096E+01  0.51100000000E-03 0.  1.
        -12    1    3    3    0    0  0.58242397529E+01  0.68523130137E+01 -0.97151053216E+01  0.13238551044E+02  0.00000000000E+00 0.  1.
</event>
<event>
 7    1  0.1683291E-008  0.4614232E+02  0.7816164E-02  0.1320468E+00
        -11   -1    0    0    0    0  0.00000000000E+00  0.00000000000E+00  0.45593999997E+02  0.45594000000E+02  0.51100000000E-03 0.  1.
         11   -1    0    0    0    0 -0.00000000000E+00 -0.00000000000E+00 -0.45593999997E+02  0.45594000000E+02  0.51100000000E-03 0. -1.
    9900012    2    1    2    0    0  0.33235044860E+01 -0.17037762328E+02 -0.41566602651E+02  0.46142317819E+02  0.10000000527E+02 0.  0.
        -12    1    1    2    0    0 -0.33235044860E+01  0.17037762328E+02  0.41566602651E+02  0.45045682181E+02  0.00000000000E+00 0.  1.
         11    1    3    3    0    0 -0.39346082584E+00 -0.12928864282E+02 -0.20090916461E+02  0.23894670275E+02  0.51100000000E-03 0. -1.
        -11    1    3    3    0    0  0.28000520127E+01 -0.21351270730E+01 -0.11059698353E+02  0.11606721622E+02  0.51100000000E-03 0.  1.
         12    1    3    3    0    0  0.91691329914E+00 -0.19737709732E+01 -0.10415987838E+02  0.10640925922E+02  0.00000000000E+00 0. -1.
</event>
<event>
 7    1  0.1683291E-008  0.4614232E+02  0.7816164E-02  0.1320468E+00
        -11   -1    0    0    0    0  0.00000000000E+00  0.00000000000E+00  0.45593999997E+02  0.45594000000E+02  0.51100000000E-03 0.  1.
         11   -1    0    0    0    0 -0.00000000000E+00 -0.00000000000E+00 -0.45593999997E+02  0.45594000000E+02  0.51100000000E-03 0. -1.
    9900012    2    1    2    0    0  0.16150013459E+02 -0.39173648115E+02 -0.15287765569E+02  0.46142318548E+02  0.10000007177E+02 0.  0.
        -12    1    1    2    0    0 -0.16150013459E+02  0.39173648115E+02  0.15287765569E+02  0.45045681452E+02  0.00000000000E+00 0.  1.
         11    1    3    3    0    0  0.63401163098E+01 -0.77746365440E+01 -0.11611325478E+01  0.10099023580E+02  0.51100000000E-03 0.  1.
        -11    1    3    3    0    0  0.12959148218E+01 -0.46146938009E+01 -0.37430470829E+01  0.60815455131E+01  0.51100000000E-03 0. -1.
        -12    1    3    3    0    0  0.85139823273E+01 -0.26784317770E+02 -0.10383585938E+02  0.29961749455E+02  0.00000000000E+00 0.  1.
</event>
<event>
 7    1  0.1683291E-008  0.4614230E+02  0.7816164E-02  0.1320468E+00
        -11   -1    0    0    0    0  0.00000000000E+00  0.00000000000E+00  0.45593999997E+02  0.45594000000E+02  0.51100000000E-03 0. -1.
         11   -1    0    0    0    0 -0.00000000000E+00 -0.00000000000E+00 -0.45593999997E+02  0.45594000000E+02  0.51100000000E-03 0.  1.
    9900012    2    1    2    0    0  0.32249211368E+02 -0.20353395293E+02  0.23975872560E+02  0.46142303215E+02  0.99998673573E+01 0.  0.
        -12    1    1    2    0    0 -0.32249211368E+02  0.20353395293E+02 -0.23975872560E+02  0.45045696785E+02  0.00000000000E+00 0.  1.
         11    1    3    3    0    0  0.14365578887E+02 -0.10255833147E+02  0.12172549887E+02  0.21441150652E+02  0.51100000000E-03 0. -1.
        -11    1    3    3    0    0  0.13459722609E+02 -0.43251161301E+01  0.58403819068E+01  0.15296431719E+02  0.51100000000E-03 0.  1.
        -12    1    3    3    0    0  0.44239098720E+01 -0.57724460160E+01  0.59629407668E+01  0.94047208440E+01  0.00000000000E+00 0.  1.
</event>
<event>
 7    1  0.1683291E-008  0.4614232E+02  0.7816164E-02  0.1320468E+00
        -11   -1    0    0    0    0  0.00000000000E+00  0.00000000000E+00  0.45593999997E+02  0.45594000000E+02  0.51100000000E-03 0.  1.
         11   -1    0    0    0    0 -0.00000000000E+00 -0.00000000000E+00 -0.45593999997E+02  0.45594000000E+02  0.51100000000E-03 0. -1.
    9900012    2    1    2    0    0  0.11250575291E+02 -0.16190100504E+02 -0.40502083119E+02  0.46142317236E+02  0.99999952071E+01 0.  0.
        -12    1    1    2    0    0 -0.11250575291E+02  0.16190100504E+02  0.40502083119E+02  0.45045682764E+02  0.00000000000E+00 0.  1.
         11    1    3    3    0    0  0.38497771670E+01 -0.16091147403E+01 -0.15356599477E+02  0.15913364894E+02  0.51100000000E-03 0. -1.
        -11    1    3    3    0    0  0.51095121548E+01 -0.12818140557E+02 -0.19530357665E+02  0.23913316637E+02  0.51100000000E-03 0.  1.
        -12    1    3    3    0    0  0.22912859692E+01 -0.17628452076E+01 -0.56151259769E+01  0.63156357048E+01  0.00000000000E+00 0.  1.
</event>
<event>
 7    1  0.1683291E-008  0.4614232E+02  0.7816164E-02  0.1320468E+00
        -11   -1    0    0    0    0  0.00000000000E+00  0.00000000000E+00  0.45593999997E+02  0.45594000000E+02  0.51100000000E-03 0. -1.
         11   -1    0    0    0    0 -0.00000000000E+00 -0.00000000000E+00 -0.45593999997E+02  0.45594000000E+02  0.51100000000E-03 0.  1.
    9900012    2    1    2    0    0  0.37145743561E+02 -0.24279693440E+02 -0.77332796600E+01  0.46142318825E+02  0.10000009698E+02 0.  0.
        -12    1    1    2    0    0 -0.37145743561E+02  0.24279693440E+02  0.77332796600E+01  0.45045681175E+02  0.00000000000E+00 0.  1.
         11    1    3    3    0    0  0.27024302997E+02 -0.15718026332E+02 -0.58610523789E+01  0.31807565759E+02  0.51100000000E-03 0. -1.
        -11    1    3    3    0    0  0.42288276443E+01 -0.68040523107E+01 -0.45286410082E+00  0.80239140852E+01  0.51100000000E-03 0.  1.
        -12    1    3    3    0    0  0.58926129205E+01 -0.17576147968E+01 -0.14193631803E+01  0.63108389808E+01  0.00000000000E+00 0.  1.
</event>
<event>
 7    1  0.1683291E-008  0.4614232E+02  0.7816164E-02  0.1320468E+00
        -11   -1    0    0    0    0  0.00000000000E+00  0.00000000000E+00  0.45593999997E+02  0.45594000000E+02  0.51100000000E-03 0. -1.
         11   -1    0    0    0    0 -0.00000000000E+00 -0.00000000000E+00 -0.45593999997E+02  0.45594000000E+02  0.51100000000E-03 0.  1.
    9900012    2    1    2    0    0 -0.21834496769E+02  0.39399951536E+02  0.10889832843E+00  0.46142319974E+02  0.10000020175E+02 0.  0.
        -12    1    1    2    0    0  0.21834496769E+02 -0.39399951536E+02 -0.10889832843E+00  0.45045680026E+02  0.00000000000E+00 0.  1.
         11    1    3    3    0    0 -0.15660527089E+02  0.24738782015E+02  0.12016144577E+01  0.29303640079E+02  0.51100000000E-03 0. -1.
        -11    1    3    3    0    0 -0.27521092516E+01  0.11192445659E+02 -0.24443690663E+01  0.11782185093E+02  0.51100000000E-03 0.  1.
        -12    1    3    3    0    0 -0.34218604283E+01  0.34687238613E+01  0.13516529370E+01  0.50564948016E+01  0.00000000000E+00 0.  1.
</event>
<event>
 7    1  0.1683291E-008  0.4614232E+02  0.7816164E-02  0.1320468E+00
        -11   -1    0    0    0    0  0.00000000000E+00  0.00000000000E+00  0.45593999997E+02  0.45594000000E+02  0.51100000000E-03 0.  1.
         11   -1    0    0    0    0 -0.00000000000E+00 -0.00000000000E+00 -0.45593999997E+02  0.45594000000E+02  0.51100000000E-03 0. -1.
    9900012    2    1    2    0    0 -0.30391528477E+00  0.40638779628E+02  0.19429633373E+02  0.46142318440E+02  0.10000006191E+02 0.  0.
        -12    1    1    2    0    0  0.30391528477E+00 -0.40638779628E+02 -0.19429633373E+02  0.45045681560E+02  0.00000000000E+00 0.  1.
         11    1    3    3    0    0  0.58297855151E+00  0.27790831955E+02  0.13801689956E+02  0.31034768416E+02  0.51100000000E-03 0. -1.
        -11    1    3    3    0    0 -0.17489442812E+01  0.80316030959E+01  0.60355599312E+01  0.10197717310E+02  0.51100000000E-03 0.  1.
        -12    1    3    3    0    0  0.86205044492E+00  0.48163445777E+01 -0.40761651367E+00  0.49098327144E+01  0.00000000000E+00 0.  1.
</event>
<event>
 7    1  0.1683291E-008  0.4614232E+02  0.7816164E-02  0.1320468E+00
        -11   -1    0    0    0    0  0.00000000000E+00  0.00000000000E+00  0.45593999997E+02  0.45594000000E+02  0.51100000000E-03 0.  1.
         11   -1    0    0    0    0 -0.00000000000E+00 -0.00000000000E+00 -0.45593999997E+02  0.45594000000E+02  0.51100000000E-03 0. -1.
    9900012    2    1    2    0    0  0.79044080319E+01  0.16493424655E+01 -0.44316063074E+02  0.46142318261E+02  0.10000004562E+02 0.  0.
        -12    1    1    2    0    0 -0.79044080319E+01 -0.16493424655E+01  0.44316063074E+02  0.45045681739E+02  0.00000000000E+00 0.  1.
         11    1    3    3    0    0  0.22703504777E+01  0.28870893384E+01 -0.55400876750E+01  0.66469803556E+01  0.51100000000E-03 0. -1.
        -11    1    3    3    0    0  0.18678766742E+01 -0.15559350890E+01 -0.27406089939E+02  0.27513699557E+02  0.51100000000E-03 0.  1.
        -12    1    3    3    0    0  0.37661808800E+01  0.31818821608E+00 -0.11369885460E+02  0.11981638349E+02  0.00000000000E+00 0.  1.
</event>
<event>
 7    1  0.1683291E-008  0.4614232E+02  0.7816164E-02  0.1320468E+00
        -11   -1    0    0    0    0  0.00000000000E+00  0.00000000000E+00  0.45593999997E+02  0.45594000000E+02  0.51100000000E-03 0. -1.
         11   -1    0    0    0    0 -0.00000000000E+00 -0.00000000000E+00 -0.45593999997E+02  0.45594000000E+02  0.51100000000E-03 0.  1.
    9900012    2    1    2    0    0  0.30291699353E+02 -0.19171110426E+01  0.33284398052E+02  0.46142317431E+02  0.99999969877E+01 0.  0.
        -12    1    1    2    0    0 -0.30291699353E+02  0.19171110426E+01 -0.33284398052E+02  0.45045682569E+02  0.00000000000E+00 0.  1.
         11    1    3    3    0    0  0.15019011433E+02 -0.30907338263E+01  0.12514190636E+02  0.19792127413E+02  0.51100000000E-03 0. -1.
        -11    1    3    3    0    0  0.68843498569E+01  0.19598700316E+01  0.59734061391E+01  0.93229257563E+01  0.51100000000E-03 0.  1.
         12    1    3    3    0    0  0.83883380638E+01 -0.78624724785E+00  0.14796801277E+02  0.17027264262E+02  0.00000000000E+00 0. -1.
</event>
<event>
 7    1  0.1683291E-008  0.4614232E+02  0.7816164E-02  0.1320468E+00
        -11   -1    0    0    0    0  0.00000000000E+00  0.00000000000E+00  0.45593999997E+02  0.45594000000E+02  0.51100000000E-03 0. -1.
         11   -1    0    0    0    0 -0.00000000000E+00 -0.00000000000E+00 -0.45593999997E+02  0.45594000000E+02  0.51100000000E-03 0.  1.
    9900012    2    1    2    0    0 -0.14703948052E+01 -0.41361561045E+02 -0.17781246898E+02  0.46142317253E+02  0.99999953638E+01 0.  0.
        -12    1    1    2    0    0  0.14703948052E+01  0.41361561045E+02  0.17781246898E+02  0.45045682747E+02  0.00000000000E+00 0.  1.
         11    1    3    3    0    0  0.48809281549E+00 -0.41127753541E+01  0.53868299304E+00  0.41765219188E+01  0.51100000000E-03 0. -1.
        -11    1    3    3    0    0 -0.21095666611E+01 -0.24414120861E+02 -0.90084571159E+01  0.26108463547E+02  0.51100000000E-03 0.  1.
        -12    1    3    3    0    0  0.15107904039E+00 -0.12834664829E+02 -0.93114727750E+01  0.15857331787E+02  0.00000000000E+00 0.  1.
</event>
<event>
 7    1  0.1683291E-008  0.4614232E+02  0.7816164E-02  0.1320468E+00
        -11   -1    0    0    0    0  0.00000000000E+00  0.00000000000E+00  0.45593999997E+02  0.45594000000E+02  0.51100000000E-03 0. -1.
         11   -1    0    0    0    0 -0.00000000000E+00 -0.00000000000E+00 -0.45593999997E+02  0.45594000000E+02  0.51100000000E-03 0.  1.
    9900012    2    1    2    0    0 -0.12766295512E+02 -0.18211802528E+02  0.39172254002E+02  0.46142317232E+02  0.99999951741E+01 0.  0.
        -12    1    1    2    0    0  0.12766295512E+02  0.18211802528E+02 -0.39172254002E+02  0.45045682768E+02  0.00000000000E+00 0.  1.
         11    1    3    3    0    0 -0.74022466806E+01 -0.97077688527E+01  0.13578610178E+02  0.18259591634E+02  0.51100000000E-03 0. -1.
        -11    1    3    3    0    0  0.60820827229E+00 -0.25787502638E+01  0.59303028634E+01  0.64952569263E+01  0.51100000000E-03 0.  1.
        -12    1    3    3    0    0 -0.59722571041E+01 -0.59252834111E+01  0.19663340962E+02  0.21387468672E+02  0.00000000000E+00 0.  1.
</event>
<event>
 7    1  0.1683291E-008  0.4614233E+02  0.7816164E-02  0.1320468E+00
        -11   -1    0    0    0    0  0.00000000000E+00  0.00000000000E+00  0.45593999997E+02  0.45594000000E+02  0.51100000000E-03 0.  1.
         11   -1    0    0    0    0 -0.00000000000E+00 -0.00000000000E+00 -0.45593999997E+02  0.45594000000E+02  0.51100000000E-03 0. -1.
    9900012    2    1    2    0    0  0.34503091290E+02  0.13896243183E+02 -0.25407547778E+02  0.46142330205E+02  0.10000113471E+02 0.  0.
        -12    1    1    2    0    0 -0.34503091290E+02 -0.13896243183E+02  0.25407547778E+02  0.45045669795E+02  0.00000000000E+00 0.  1.
         11    1    3    3    0    0  0.30585744053E+02  0.92464052986E+01 -0.22036989797E+02  0.38815108783E+02  0.51100000000E-03 0. -1.
        -11    1    3    3    0    0  0.10438461581E+01  0.29891856137E+01 -0.19392392079E+01  0.37128822230E+01  0.51100000000E-03 0.  1.
        -12    1    3    3    0    0  0.28735010790E+01  0.16606522707E+01 -0.14313187728E+01  0.36143391989E+01  0.00000000000E+00 0.  1.
</event>
<event>
 7    1  0.1683291E-008  0.4614232E+02  0.7816164E-02  0.1320468E+00
        -11   -1    0    0    0    0  0.00000000000E+00  0.00000000000E+00  0.45593999997E+02  0.45594000000E+02  0.51100000000E-03 0. -1.
         11   -1    0    0    0    0 -0.00000000000E+00 -0.00000000000E+00 -0.45593999997E+02  0.45594000000E+02  0.51100000000E-03 0.  1.
    9900012    2    1    2    0    0 -0.37574693874E+02 -0.16648760658E+02  0.18441114265E+02  0.46142317116E+02  0.99999941131E+01 0.  0.
        -12    1    1    2    0    0  0.37574693874E+02  0.16648760658E+02 -0.18441114265E+02  0.45045682884E+02  0.00000000000E+00 0.  1.
         11    1    3    3    0    0 -0.21789270303E+02 -0.11834482744E+02  0.11951340123E+02  0.27525657361E+02  0.51100000000E-03 0. -1.
        -11    1    3    3    0    0 -0.12049177312E+02 -0.28404840764E+01  0.72161374765E+01  0.14329119443E+02  0.51100000000E-03 0.  1.
        -12    1    3    3    0    0 -0.37362462593E+01 -0.19737938376E+01 -0.72636333492E+00  0.42875403109E+01  0.00000000000E+00 0.  1.
</event>
<event>
 7    1  0.1683291E-008  0.4614232E+02  0.7816164E-02  0.1320468E+00
        -11   -1    0    0    0    0  0.00000000000E+00  0.00000000000E+00  0.45593999997E+02  0.45594000000E+02  0.51100000000E-03 0. -1.
         11   -1    0    0    0    0 -0.00000000000E+00 -0.00000000000E+00 -0.45593999997E+02  0.45594000000E+02  0.51100000000E-03 0.  1.
    9900012    2    1    2    0    0 -0.69005565810E+01 -0.40328907383E+02 -0.18843433442E+02  0.46142318346E+02  0.10000005333E+02 0.  0.
        -12    1    1    2    0    0  0.69005565810E+01  0.40328907383E+02  0.18843433442E+02  0.45045681654E+02  0.00000000000E+00 0.  1.
         11    1    3    3    0    0 -0.70321726452E+00 -0.21096853725E+02 -0.75583636127E+01  0.22420985981E+02  0.51100000000E-03 0. -1.
        -11    1    3    3    0    0 -0.31142700564E+01 -0.35401548248E+01 -0.13899110093E+01  0.49156105463E+01  0.51100000000E-03 0.  1.
        -12    1    3    3    0    0 -0.30830692600E+01 -0.15691898833E+02 -0.98951588197E+01  0.18805721818E+02  0.00000000000E+00 0.  1.
</event>
<event>
 7    1  0.1683291E-008  0.4614232E+02  0.7816164E-02  0.1320468E+00
        -11   -1    0    0    0    0  0.00000000000E+00  0.00000000000E+00  0.45593999997E+02  0.45594000000E+02  0.51100000000E-03 0.  1.
         11   -1    0    0    0    0 -0.00000000000E+00 -0.00000000000E+00 -0.45593999997E+02  0.45594000000E+02  0.51100000000E-03 0. -1.
    9900012    2    1    2    0    0  0.16999126425E+02 -0.53510190164E+01 -0.41370397726E+02  0.46142317502E+02  0.99999976382E+01 0.  0.
        -12    1    1    2    0    0 -0.16999126425E+02  0.53510190164E+01  0.41370397726E+02  0.45045682498E+02  0.00000000000E+00 0.  1.
         11    1    3    3    0    0  0.38444949872E+01  0.69183823098E+00 -0.39376327849E+01  0.55465064730E+01  0.51100000000E-03 0. -1.
        -11    1    3    3    0    0  0.48408690554E+01 -0.89429644325E+00 -0.64975857310E+01  0.81518341453E+01  0.51100000000E-03 0.  1.
         12    1    3    3    0    0  0.83137623824E+01 -0.51485608042E+01 -0.30935179210E+02  0.32443976884E+02  0.00000000000E+00 0. -1.
</event>
<event>
 7    1  0.1683291E-008  0.4614232E+02  0.7816164E-02  0.1320468E+00
        -11   -1    0    0    0    0  0.00000000000E+00  0.00000000000E+00  0.45593999997E+02  0.45594000000E+02  0.51100000000E-03 0.  1.
         11   -1    0    0    0    0 -0.00000000000E+00 -0.00000000000E+00 -0.45593999997E+02  0.45594000000E+02  0.51100000000E-03 0. -1.
    9900012    2    1    2    0    0 -0.28623440797E+02  0.19457476772E+02 -0.28830864895E+02  0.46142317232E+02  0.99999951787E+01 0.  0.
        -12    1    1    2    0    0  0.28623440797E+02 -0.19457476772E+02  0.28830864895E+02  0.45045682768E+02  0.00000000000E+00 0.  1.
         11    1    3    3    0    0 -0.15849841660E+02  0.15417664771E+02 -0.20599589514E+02  0.30220273924E+02  0.51100000000E-03 0. -1.
        -11    1    3    3    0    0 -0.20137415938E+01 -0.20784137084E+00 -0.16596417937E+01  0.26177785213E+01  0.51100000000E-03 0.  1.
         12    1    3    3    0    0 -0.10759857543E+02  0.42476533718E+01 -0.65716335878E+01  0.13304264787E+02  0.00000000000E+00 0. -1.
</event>
<event>
 7    1  0.1683291E-008  0.4614232E+02  0.7816164E-02  0.1320468E+00
        -11   -1    0    0    0    0  0.00000000000E+00  0.00000000000E+00  0.45593999997E+02  0.45594000000E+02  0.51100000000E-03 0.  1.
         11   -1    0    0    0    0 -0.00000000000E+00 -0.00000000000E+00 -0.45593999997E+02  0.45594000000E+02  0.51100000000E-03 0. -1.
    9900012    2    1    2    0    0  0.23373194723E+02  0.44662770029E+01 -0.38247347150E+02  0.46142318455E+02  0.10000006330E+02 0.  0.
        -12    1    1    2    0    0 -0.23373194723E+02 -0.44662770029E+01  0.38247347150E+02  0.45045681545E+02  0.00000000000E+00 0.  1.
         11    1    3    3    0    0  0.16950762304E+02  0.22018101070E+01 -0.33902280803E+02  0.37967630349E+02  0.51100000000E-03 0. -1.
        -11    1    3    3    0    0  0.23918830832E+01  0.12336257773E+01 -0.11389995764E+01  0.29223719028E+01  0.51100000000E-03 0.  1.
         12    1    3    3    0    0  0.40305493360E+01  0.10308411186E+01 -0.32060667702E+01  0.52523162031E+01  0.00000000000E+00 0. -1.
</event>
<event>
 7    1  0.1887952E-008  0.4614232E+02  0.7816164E-02  0.1320468E+00
        -11   -1    0    0    0    0  0.00000000000E+00  0.00000000000E+00  0.45593999997E+02  0.45594000000E+02  0.51100000000E-03 0. -1.
         11   -1    0    0    0    0 -0.00000000000E+00 -0.00000000000E+00 -0.45593999997E+02  0.45594000000E+02  0.51100000000E-03 0.  1.
    9900012    2    1    2    0    0  0.10403868443E+02  0.43119101950E+02 -0.78495899644E+01  0.46142317697E+02  0.99999994117E+01 0.  0.
        -12    1    1    2    0    0 -0.10403868443E+02 -0.43119101950E+02  0.78495899644E+01  0.45045682303E+02  0.00000000000E+00 0.  1.
         11    1    3    3    0    0  0.12152353517E+02  0.39879653997E+02 -0.69458067093E+01  0.42264769371E+02  0.51100000000E-03 0. -1.
        -11    1    3    3    0    0 -0.14315310192E+01  0.31185154060E+01 -0.83135755674E+00  0.35306621256E+01  0.51100000000E-03 0.  1.
         12    1    3    3    0    0 -0.31695405477E+00  0.12093254750E+00 -0.72425698371E-01  0.34688619988E+00  0.00000000000E+00 0. -1.
</event>
<event>
 7    1  0.1683291E-008  0.4614232E+02  0.7816164E-02  0.1320468E+00
        -11   -1    0    0    0    0  0.00000000000E+00  0.00000000000E+00  0.45593999997E+02  0.45594000000E+02  0.51100000000E-03 0.  1.
         11   -1    0    0    0    0 -0.00000000000E+00 -0.00000000000E+00 -0.45593999997E+02  0.45594000000E+02  0.51100000000E-03 0. -1.
    9900012    2    1    2    0    0  0.30583042112E+02 -0.31734443717E+02 -0.93121359414E+01  0.46142320311E+02  0.10000023250E+02 0.  0.
        -12    1    1    2    0    0 -0.30583042112E+02  0.31734443717E+02  0.93121359414E+01  0.45045679689E+02  0.00000000000E+00 0.  1.
         11    1    3    3    0    0  0.23007220233E+02 -0.20171222258E+02 -0.37810293404E+01  0.30830286625E+02  0.51100000000E-03 0. -1.
        -11    1    3    3    0    0  0.58505769900E+01 -0.10712897223E+02 -0.55002824327E+01  0.13388372758E+02  0.51100000000E-03 0.  1.
        -12    1    3    3    0    0  0.17252448891E+01 -0.85032423650E+00 -0.30824168302E-01  0.19236609275E+01  0.00000000000E+00 0.  1.
</event>
<event>
 7    1  0.1683291E-008  0.4614232E+02  0.7816164E-02  0.1320468E+00
        -11   -1    0    0    0    0  0.00000000000E+00  0.00000000000E+00  0.45593999997E+02  0.45594000000E+02  0.51100000000E-03 0.  1.
         11   -1    0    0    0    0 -0.00000000000E+00 -0.00000000000E+00 -0.45593999997E+02  0.45594000000E+02  0.51100000000E-03 0. -1.
    9900012    2    1    2    0    0 -0.15132296700E+02 -0.41619364649E+02  0.82435153782E+01  0.46142318043E+02  0.10000002570E+02 0.  0.
        -12    1    1    2    0    0  0.15132296700E+02  0.41619364649E+02 -0.82435153782E+01  0.45045681957E+02  0.00000000000E+00 0.  1.
         11    1    3    3    0    0 -0.77863108480E+01 -0.21273243373E+02  0.66943345081E+01  0.23621846562E+02  0.51100000000E-03 0. -1.
        -11    1    3    3    0    0 -0.21937018395E+01 -0.45209904443E+01 -0.21595707078E+01  0.54694998182E+01  0.51100000000E-03 0.  1.
        -12    1    3    3    0    0 -0.51522840126E+01 -0.15825130831E+02  0.37087515780E+01  0.17050971662E+02  0.00000000000E+00 0.  1.
</event>
<event>
 7    1  0.1683291E-008  0.4614232E+02  0.7816164E-02  0.1320468E+00
        -11   -1    0    0    0    0  0.00000000000E+00  0.00000000000E+00  0.45593999997E+02  0.45594000000E+02  0.51100000000E-03 0.  1.
         11   -1    0    0    0    0 -0.00000000000E+00 -0.00000000000E+00 -0.45593999997E+02  0.45594000000E+02  0.51100000000E-03 0. -1.
    9900012    2    1    2    0    0  0.11001714879E+02 -0.49261684113E+00 -0.43678747901E+02  0.46142318522E+02  0.10000006939E+02 0.  0.
        -12    1    1    2    0    0 -0.11001714879E+02  0.49261684113E+00  0.43678747901E+02  0.45045681478E+02  0.00000000000E+00 0.  1.
         11    1    3    3    0    0  0.52035227554E+01  0.82986547664E+00 -0.13740773917E+02  0.14716459964E+02  0.51100000000E-03 0. -1.
        -11    1    3    3    0    0  0.14551780065E+01  0.28222914166E+01 -0.65417477956E+01  0.72716804353E+01  0.51100000000E-03 0.  1.
        -12    1    3    3    0    0  0.43430141167E+01 -0.41447737344E+01 -0.23396226189E+02  0.24154178123E+02  0.00000000000E+00 0.  1.
</event>
<event>
 7    1  0.1683291E-008  0.4614231E+02  0.7816164E-02  0.1320468E+00
        -11   -1    0    0    0    0  0.00000000000E+00  0.00000000000E+00  0.45593999997E+02  0.45594000000E+02  0.51100000000E-03 0.  1.
         11   -1    0    0    0    0 -0.00000000000E+00 -0.00000000000E+00 -0.45593999997E+02  0.45594000000E+02  0.51100000000E-03 0. -1.
    9900012    2    1    2    0    0 -0.16887769770E+02  0.15783725212E+02 -0.38662531634E+02  0.46142310953E+02  0.99999379165E+01 0.  0.
        -12    1    1    2    0    0  0.16887769770E+02 -0.15783725212E+02  0.38662531634E+02  0.45045689047E+02  0.00000000000E+00 0.  1.
         11    1    3    3    0    0 -0.97209313771E+01  0.13910536300E+02 -0.31391086798E+02  0.35684728633E+02  0.51100000000E-03 0. -1.
        -11    1    3    3    0    0 -0.30672253609E+01  0.11556817931E+01 -0.39495610285E+01  0.51324949489E+01  0.51100000000E-03 0.  1.
         12    1    3    3    0    0 -0.40996130316E+01  0.71750711810E+00 -0.33218838083E+01  0.53250873711E+01  0.00000000000E+00 0. -1.
</event>
<event>
 7    1  0.1683291E-008  0.4614232E+02  0.7816164E-02  0.1320468E+00
        -11   -1    0    0    0    0  0.00000000000E+00  0.00000000000E+00  0.45593999997E+02  0.45594000000E+02  0.51100000000E-03 0. -1.
         11   -1    0    0    0    0 -0.00000000000E+00 -0.00000000000E+00 -0.45593999997E+02  0.45594000000E+02  0.51100000000E-03 0.  1.
    9900012    2    1    2    0    0  0.95170274876E+01 -0.44027937885E+02 -0.28340010587E+00  0.46142318273E+02  0.10000004667E+02 0.  0.
        -12    1    1    2    0    0 -0.95170274876E+01  0.44027937885E+02  0.28340010587E+00  0.45045681727E+02  0.00000000000E+00 0.  1.
         11    1    3    3    0    0  0.44285099964E+01 -0.12277499684E+02 -0.41740318507E+01  0.13702964695E+02  0.51100000000E-03 0. -1.
        -11    1    3    3    0    0  0.27884176386E+01 -0.14476643322E+02  0.25495038525E+01  0.14961565592E+02  0.51100000000E-03 0.  1.
         12    1    3    3    0    0  0.23000998527E+01 -0.17273794880E+02  0.13411278923E+01  0.17477787986E+02  0.00000000000E+00 0. -1.
</event>
<event>
 7    1  0.1683291E-008  0.4614232E+02  0.7816164E-02  0.1320468E+00
        -11   -1    0    0    0    0  0.00000000000E+00  0.00000000000E+00  0.45593999997E+02  0.45594000000E+02  0.51100000000E-03 0.  1.
         11   -1    0    0    0    0 -0.00000000000E+00 -0.00000000000E+00 -0.45593999997E+02  0.45594000000E+02  0.51100000000E-03 0. -1.
    9900012    2    1    2    0    0  0.31491233628E+02  0.32181171668E+02 -0.13371393896E+01  0.46142317109E+02  0.99999940580E+01 0.  0.
        -12    1    1    2    0    0 -0.31491233628E+02 -0.32181171668E+02  0.13371393896E+01  0.45045682891E+02  0.00000000000E+00 0.  1.
         11    1    3    3    0    0  0.30521746624E+01  0.73012623607E+01 -0.65969212381E+00  0.79409946599E+01  0.51100000000E-03 0. -1.
        -11    1    3    3    0    0  0.22960382962E+02  0.16904963421E+02 -0.83273381306E+00  0.28524558190E+02  0.51100000000E-03 0.  1.
        -12    1    3    3    0    0  0.54786760035E+01  0.79749458857E+01  0.15528654723E+00  0.96767642600E+01  0.00000000000E+00 0.  1.
</event>
<event>
 7    1  0.1683291E-008  0.4614232E+02  0.7816164E-02  0.1320468E+00
        -11   -1    0    0    0    0  0.00000000000E+00  0.00000000000E+00  0.45593999997E+02  0.45594000000E+02  0.51100000000E-03 0. -1.
         11   -1    0    0    0    0 -0.00000000000E+00 -0.00000000000E+00 -0.45593999997E+02  0.45594000000E+02  0.51100000000E-03 0.  1.
    9900012    2    1    2    0    0  0.25746463919E+02  0.18542627185E+02  0.31975053500E+02  0.46142317925E+02  0.10000001497E+02 0.  0.
        -12    1    1    2    0    0 -0.25746463919E+02 -0.18542627185E+02 -0.31975053500E+02  0.45045682075E+02  0.00000000000E+00 0.  1.
         11    1    3    3    0    0  0.57903631366E+01  0.80513084120E+00  0.46432990050E+01  0.74657060507E+01  0.51100000000E-03 0. -1.
        -11    1    3    3    0    0  0.92577747568E+01  0.47931000397E+01  0.85556695067E+01  0.13486277559E+02  0.51100000000E-03 0.  1.
         12    1    3    3    0    0  0.10698326025E+02  0.12944396304E+02  0.18776084988E+02  0.25190334315E+02  0.00000000000E+00 0. -1.
</event>
<event>
 7    1  0.1683291E-008  0.4614232E+02  0.7816164E-02  0.1320468E+00
        -11   -1    0    0    0    0  0.00000000000E+00  0.00000000000E+00  0.45593999997E+02  0.45594000000E+02  0.51100000000E-03 0.  1.
         11   -1    0    0    0    0 -0.00000000000E+00 -0.00000000000E+00 -0.45593999997E+02  0.45594000000E+02  0.51100000000E-03 0. -1.
    9900012    2    1    2    0    0 -0.65254094239E+01 -0.40796524329E+02 -0.17949265262E+02  0.46142317755E+02  0.99999999478E+01 0.  0.
        -12    1    1    2    0    0  0.65254094239E+01  0.40796524329E+02  0.17949265262E+02  0.45045682245E+02  0.00000000000E+00 0.  1.
         11    1    3    3    0    0 -0.27359305898E+01 -0.23525857468E+02 -0.52836725409E+01  0.24266612487E+02  0.51100000000E-03 0. -1.
        -11    1    3    3    0    0 -0.33450709622E+01 -0.15044274584E+02 -0.99880241169E+01  0.18365193261E+02  0.51100000000E-03 0.  1.
         12    1    3    3    0    0 -0.44440787184E+00 -0.22263922768E+01 -0.26775686040E+01  0.35105120077E+01  0.00000000000E+00 0. -1.
</event>
<event>
 7    1  0.1683291E-008  0.4614232E+02  0.7816164E-02  0.1320468E+00
        -11   -1    0    0    0    0  0.00000000000E+00  0.00000000000E+00  0.45593999997E+02  0.45594000000E+02  0.51100000000E-03 0.  1.
         11   -1    0    0    0    0 -0.00000000000E+00 -0.00000000000E+00 -0.45593999997E+02  0.45594000000E+02  0.51100000000E-03 0. -1.
    9900012    2    1    2    0    0  0.46985063208E+01  0.32953224752E+02 -0.30350000984E+02  0.46142317156E+02  0.99999944780E+01 0.  0.
        -12    1    1    2    0    0 -0.46985063208E+01 -0.32953224752E+02  0.30350000984E+02  0.45045682844E+02  0.00000000000E+00 0.  1.
         11    1    3    3    0    0  0.34174792889E+01  0.16831275048E+02 -0.10674240415E+02  0.20221532908E+02  0.51100000000E-03 0. -1.
        -11    1    3    3    0    0  0.18940692931E+01  0.22997169901E+01 -0.43630671018E+01  0.52832330554E+01  0.51100000000E-03 0.  1.
         12    1    3    3    0    0 -0.61304226125E+00  0.13822232714E+02 -0.15312693467E+02  0.20637551192E+02  0.00000000000E+00 0. -1.
</event>
<event>
 7    1  0.1683291E-008  0.4614232E+02  0.7816164E-02  0.1320468E+00
        -11   -1    0    0    0    0  0.00000000000E+00  0.00000000000E+00  0.45593999997E+02  0.45594000000E+02  0.51100000000E-03 0.  1.
         11   -1    0    0    0    0 -0.00000000000E+00 -0.00000000000E+00 -0.45593999997E+02  0.45594000000E+02  0.51100000000E-03 0. -1.
    9900012    2    1    2    0    0  0.32193817791E+02 -0.10100756682E+02 -0.29843698071E+02  0.46142317587E+02  0.99999984131E+01 0.  0.
        -12    1    1    2    0    0 -0.32193817791E+02  0.10100756682E+02  0.29843698071E+02  0.45045682413E+02  0.00000000000E+00 0.  1.
         11    1    3    3    0    0  0.80812656053E+01 -0.31793464725E+01 -0.50141403182E+01  0.10027796426E+02  0.51100000000E-03 0. -1.
        -11    1    3    3    0    0 -0.45081912811E+00 -0.55601306175E+00 -0.14228766712E+01  0.15927858280E+01  0.51100000000E-03 0.  1.
         12    1    3    3    0    0  0.24563371314E+02 -0.63653971479E+01 -0.23406681081E+02  0.34521735333E+02  0.00000000000E+00 0. -1.
</event>
<event>
 7    1  0.1683291E-008  0.4614232E+02  0.7816164E-02  0.1320468E+00
        -11   -1    0    0    0    0  0.00000000000E+00  0.00000000000E+00  0.45593999997E+02  0.45594000000E+02  0.51100000000E-03 0.  1.
         11   -1    0    0    0    0 -0.00000000000E+00 -0.00000000000E+00 -0.45593999997E+02  0.45594000000E+02  0.51100000000E-03 0. -1.
    9900012    2    1    2    0    0 -0.83991254050E+01  0.21072485848E+02 -0.38916816119E+02  0.46142317141E+02  0.99999943495E+01 0.  0.
        -12    1    1    2    0    0  0.83991254050E+01 -0.21072485848E+02  0.38916816119E+02  0.45045682859E+02  0.00000000000E+00 0.  1.
         11    1    3    3    0    0 -0.68772143921E+01  0.14390808753E+02 -0.27874389051E+02  0.32114996802E+02  0.51100000000E-03 0. -1.
        -11    1    3    3    0    0 -0.58926061959E+00  0.33938616873E+01 -0.12645709457E+01  0.36694230021E+01  0.51100000000E-03 0.  1.
        -12    1    3    3    0    0 -0.93265039340E+00  0.32878154071E+01 -0.97778561220E+01  0.10357897337E+02  0.00000000000E+00 0.  1.
</event>
<event>
 7    1  0.1683291E-008  0.4614232E+02  0.7816164E-02  0.1320468E+00
        -11   -1    0    0    0    0  0.00000000000E+00  0.00000000000E+00  0.45593999997E+02  0.45594000000E+02  0.51100000000E-03 0. -1.
         11   -1    0    0    0    0 -0.00000000000E+00 -0.00000000000E+00 -0.45593999997E+02  0.45594000000E+02  0.51100000000E-03 0.  1.
    9900012    2    1    2    0    0 -0.41175941919E+02  0.13853906572E+02  0.11904815171E+02  0.46142317139E+02  0.99999943226E+01 0.  0.
        -12    1    1    2    0    0  0.41175941919E+02 -0.13853906572E+02 -0.11904815171E+02  0.45045682861E+02  0.00000000000E+00 0.  1.
         11    1    3    3    0    0 -0.99816010179E+00 -0.18426330610E+00  0.15230739004E+01  0.18303089690E+01  0.51100000000E-03 0. -1.
        -11    1    3    3    0    0 -0.59995789337E+01 -0.31481762210E+00  0.13324676485E+01  0.61538222117E+01  0.51100000000E-03 0.  1.
         12    1    3    3    0    0 -0.34178202883E+02  0.14352987500E+02  0.90492736222E+01  0.38158185958E+02  0.00000000000E+00 0. -1.
</event>
<event>
 7    1  0.1683291E-008  0.4614232E+02  0.7816164E-02  0.1320468E+00
        -11   -1    0    0    0    0  0.00000000000E+00  0.00000000000E+00  0.45593999997E+02  0.45594000000E+02  0.51100000000E-03 0. -1.
         11   -1    0    0    0    0 -0.00000000000E+00 -0.00000000000E+00 -0.45593999997E+02  0.45594000000E+02  0.51100000000E-03 0.  1.
    9900012    2    1    2    0    0 -0.28802348148E+02 -0.31280226274E+02 -0.14868950005E+02  0.46142317756E+02  0.99999999500E+01 0.  0.
        -12    1    1    2    0    0  0.28802348148E+02  0.31280226274E+02  0.14868950005E+02  0.45045682244E+02  0.00000000000E+00 0.  1.
         11    1    3    3    0    0 -0.13147049556E+02 -0.97159351418E+01 -0.82852856034E+01  0.18327309281E+02  0.51100000000E-03 0. -1.
        -11    1    3    3    0    0 -0.64030407139E+01 -0.10668909386E+02 -0.50887703719E+01  0.13443219184E+02  0.51100000000E-03 0.  1.
        -12    1    3    3    0    0 -0.92522578788E+01 -0.10895381746E+02 -0.14948940301E+01  0.14371789291E+02  0.00000000000E+00 0.  1.
</event>
<event>
 7    1  0.1683291E-008  0.4614231E+02  0.7816164E-02  0.1320468E+00
        -11   -1    0    0    0    0  0.00000000000E+00  0.00000000000E+00  0.45593999997E+02  0.45594000000E+02  0.51100000000E-03 0. -1.
         11   -1    0    0    0    0 -0.00000000000E+00 -0.00000000000E+00 -0.45593999997E+02  0.45594000000E+02  0.51100000000E-03 0.  1.
    9900012    2    1    2    0    0  0.35549346279E+02  0.26620008681E+02 -0.75321322473E+01  0.46142313200E+02  0.99999584122E+01 0.  0.
        -12    1    1    2    0    0 -0.35549346279E+02 -0.26620008681E+02  0.75321322473E+01  0.45045686800E+02  0.00000000000E+00 0.  1.
         11    1    3    3    0    0  0.13638406355E+02  0.15472172745E+02 -0.37325649464E+01  0.20960112087E+02  0.51100000000E-03 0. -1.
        -11    1    3    3    0    0  0.65692501254E+01  0.50114214794E+01 -0.16705852166E+00  0.82642181279E+01  0.51100000000E-03 0.  1.
         12    1    3    3    0    0  0.15341689799E+02  0.61364144559E+01 -0.36325087793E+01  0.16917982985E+02  0.00000000000E+00 0. -1.
</event>
<event>
 7    1  0.1683291E-008  0.4614232E+02  0.7816164E-02  0.1320468E+00
        -11   -1    0    0    0    0  0.00000000000E+00  0.00000000000E+00  0.45593999997E+02  0.45594000000E+02  0.51100000000E-03 0. -1.
         11   -1    0    0    0    0 -0.00000000000E+00 -0.00000000000E+00 -0.45593999997E+02  0.45594000000E+02  0.51100000000E-03 0.  1.
    9900012    2    1    2    0    0 -0.42134682958E+02  0.15813090117E+02 -0.19308582946E+01  0.46142317180E+02  0.99999946980E+01 0.  0.
        -12    1    1    2    0    0  0.42134682958E+02 -0.15813090117E+02  0.19308582946E+01  0.45045682820E+02  0.00000000000E+00 0.  1.
         11    1    3    3    0    0 -0.20316915918E+02  0.67730652427E+01  0.46282167985E+00  0.21421150514E+02  0.51100000000E-03 0. -1.
        -11    1    3    3    0    0 -0.54534440385E+01  0.42539149748E+01  0.18331877690E+01  0.71551675139E+01  0.51100000000E-03 0.  1.
        -12    1    3    3    0    0 -0.16364323002E+02  0.47861098991E+01 -0.42268677434E+01  0.17565999151E+02  0.00000000000E+00 0.  1.
</event>
<event>
 7    1  0.1683291E-008  0.4614232E+02  0.7816164E-02  0.1320468E+00
        -11   -1    0    0    0    0  0.00000000000E+00  0.00000000000E+00  0.45593999997E+02  0.45594000000E+02  0.51100000000E-03 0.  1.
         11   -1    0    0    0    0 -0.00000000000E+00 -0.00000000000E+00 -0.45593999997E+02  0.45594000000E+02  0.51100000000E-03 0. -1.
    9900012    2    1    2    0    0 -0.15641105616E+02  0.36615119993E+01 -0.42083994215E+02  0.46142318475E+02  0.10000006509E+02 0.  0.
        -12    1    1    2    0    0  0.15641105616E+02 -0.36615119993E+01  0.42083994215E+02  0.45045681525E+02  0.00000000000E+00 0.  1.
         11    1    3    3    0    0 -0.77214236448E+01  0.25022285021E+01 -0.11214044465E+02  0.13843277217E+02  0.51100000000E-03 0. -1.
        -11    1    3    3    0    0  0.59628295938E+00  0.26176422815E+00 -0.51510220806E+01  0.51920229790E+01  0.51100000000E-03 0.  1.
         12    1    3    3    0    0 -0.85159649302E+01  0.89751926903E+00 -0.25718927669E+02  0.27107018279E+02  0.00000000000E+00 0. -1.
</event>
<event>
 7    1  0.1683291E-008  0.4614232E+02  0.7816164E-02  0.1320468E+00
        -11   -1    0    0    0    0  0.00000000000E+00  0.00000000000E+00  0.45593999997E+02  0.45594000000E+02  0.51100000000E-03 0.  1.
         11   -1    0    0    0    0 -0.00000000000E+00 -0.00000000000E+00 -0.45593999997E+02  0.45594000000E+02  0.51100000000E-03 0. -1.
    9900012    2    1    2    0    0  0.30687813914E+02  0.90021780389E+01 -0.31722740866E+02  0.46142318516E+02  0.10000006886E+02 0.  0.
        -12    1    1    2    0    0 -0.30687813914E+02 -0.90021780389E+01  0.31722740866E+02  0.45045681484E+02  0.00000000000E+00 0.  1.
         11    1    3    3    0    0  0.17209401667E+02  0.97632813624E+01 -0.19950654521E+02  0.28098287933E+02  0.51100000000E-03 0. -1.
        -11    1    3    3    0    0  0.10835001905E+02 -0.86610022483E+00 -0.10483628855E+02  0.15101452583E+02  0.51100000000E-03 0.  1.
         12    1    3    3    0    0  0.26434103413E+01  0.10499690135E+00 -0.12884574908E+01  0.29425780002E+01  0.00000000000E+00 0. -1.
</event>
<event>
 7    1  0.1683291E-008  0.4614232E+02  0.7816164E-02  0.1320468E+00
        -11   -1    0    0    0    0  0.00000000000E+00  0.00000000000E+00  0.45593999997E+02  0.45594000000E+02  0.51100000000E-03 0.  1.
         11   -1    0    0    0    0 -0.00000000000E+00 -0.00000000000E+00 -0.45593999997E+02  0.45594000000E+02  0.51100000000E-03 0. -1.
    9900012    2    1    2    0    0 -0.15111415273E+02 -0.37689770481E+00 -0.42433673300E+02  0.46142317042E+02  0.99999934435E+01 0.  0.
        -12    1    1    2    0    0  0.15111415273E+02  0.37689770481E+00  0.42433673300E+02  0.45045682958E+02  0.00000000000E+00 0.  1.
         11    1    3    3    0    0 -0.22566539995E+01  0.17845511763E+01 -0.66746301636E+01  0.72682734027E+01  0.51100000000E-03 0. -1.
        -11    1    3    3    0    0 -0.63756528434E+01 -0.38130694405E+00 -0.27474861542E+02  0.28207487680E+02  0.51100000000E-03 0.  1.
        -12    1    3    3    0    0 -0.64791084299E+01 -0.17801419371E+01 -0.82841815939E+01  0.10666555960E+02  0.00000000000E+00 0.  1.
</event>
<event>
 7    1  0.1683291E-008  0.4614232E+02  0.7816164E-02  0.1320468E+00
        -11   -1    0    0    0    0  0.00000000000E+00  0.00000000000E+00  0.45593999997E+02  0.45594000000E+02  0.51100000000E-03 0. -1.
         11   -1    0    0    0    0 -0.00000000000E+00 -0.00000000000E+00 -0.45593999997E+02  0.45594000000E+02  0.51100000000E-03 0.  1.
    9900012    2    1    2    0    0  0.30074086981E+02  0.33473448208E+02 -0.20471977913E+01  0.46142318060E+02  0.10000002724E+02 0.  0.
        -12    1    1    2    0    0 -0.30074086981E+02 -0.33473448208E+02  0.20471977913E+01  0.45045681940E+02  0.00000000000E+00 0.  1.
         11    1    3    3    0    0  0.61966920746E+01  0.73845663105E+01 -0.23824387486E+00  0.96430064123E+01  0.51100000000E-03 0. -1.
        -11    1    3    3    0    0  0.24507493779E+02  0.24191106726E+02 -0.19775494722E+01  0.34492573087E+02  0.51100000000E-03 0.  1.
        -12    1    3    3    0    0 -0.63009887276E+00  0.18977751715E+01  0.16859555571E+00  0.20067385610E+01  0.00000000000E+00 0.  1.
</event>
<event>
 7    1  0.1683291E-008  0.4614232E+02  0.7816164E-02  0.1320468E+00
        -11   -1    0    0    0    0  0.00000000000E+00  0.00000000000E+00  0.45593999997E+02  0.45594000000E+02  0.51100000000E-03 0.  1.
         11   -1    0    0    0    0 -0.00000000000E+00 -0.00000000000E+00 -0.45593999997E+02  0.45594000000E+02  0.51100000000E-03 0. -1.
    9900012    2    1    2    0    0  0.21766554937E+02  0.33556441043E+02  0.20719455644E+02  0.46142317726E+02  0.99999996821E+01 0.  0.
        -12    1    1    2    0    0 -0.21766554937E+02 -0.33556441043E+02 -0.20719455644E+02  0.45045682274E+02  0.00000000000E+00 0.  1.
         11    1    3    3    0    0  0.27710966207E+01  0.36334264735E+01  0.48335279288E+01  0.66515980726E+01  0.51100000000E-03 0. -1.
        -11    1    3    3    0    0  0.55016364695E+00 -0.26081375139E+00  0.87014275945E+00  0.10620040180E+01  0.51100000000E-03 0.  1.
         12    1    3    3    0    0  0.18445294669E+02  0.30183828321E+02  0.15015784956E+02  0.38428715636E+02  0.00000000000E+00 0. -1.
</event>
<event>
 7    1  0.1683291E-008  0.4614232E+02  0.7816164E-02  0.1320468E+00
        -11   -1    0    0    0    0  0.00000000000E+00  0.00000000000E+00  0.45593999997E+02  0.45594000000E+02  0.51100000000E-03 0.  1.
         11   -1    0    0    0    0 -0.00000000000E+00 -0.00000000000E+00 -0.45593999997E+02  0.45594000000E+02  0.51100000000E-03 0. -1.
    9900012    2    1    2    0    0 -0.23404378602E+02  0.94909227074E+00 -0.38476586562E+02  0.46142318438E+02  0.10000006174E+02 0.  0.
        -12    1    1    2    0    0  0.23404378602E+02 -0.94909227074E+00  0.38476586562E+02  0.45045681562E+02  0.00000000000E+00 0.  1.
         11    1    3    3    0    0 -0.77506772267E+01  0.42981638679E+01 -0.10490962658E+02  0.13733444865E+02  0.51100000000E-03 0. -1.
        -11    1    3    3    0    0 -0.64349623396E+01 -0.86877953492E-02 -0.12913225658E+02  0.14427758418E+02  0.51100000000E-03 0.  1.
         12    1    3    3    0    0 -0.92187390356E+01 -0.33403838018E+01 -0.15072398246E+02  0.17981115156E+02  0.00000000000E+00 0. -1.
</event>
<event>
 7    1  0.1683291E-008  0.4614232E+02  0.7816164E-02  0.1320468E+00
        -11   -1    0    0    0    0  0.00000000000E+00  0.00000000000E+00  0.45593999997E+02  0.45594000000E+02  0.51100000000E-03 0. -1.
         11   -1    0    0    0    0 -0.00000000000E+00 -0.00000000000E+00 -0.45593999997E+02  0.45594000000E+02  0.51100000000E-03 0.  1.
    9900012    2    1    2    0    0 -0.13004130161E+02 -0.41205537503E+02  0.12732235890E+02  0.46142317044E+02  0.99999934647E+01 0.  0.
        -12    1    1    2    0    0  0.13004130161E+02  0.41205537503E+02 -0.12732235890E+02  0.45045682956E+02  0.00000000000E+00 0.  1.
         11    1    3    3    0    0 -0.12319539342E+02 -0.27406956745E+02  0.11049977272E+02  0.32015844914E+02  0.51100000000E-03 0. -1.
        -11    1    3    3    0    0 -0.11023152314E+01 -0.11986551837E+02  0.21041608415E+01  0.12219656989E+02  0.51100000000E-03 0.  1.
         12    1    3    3    0    0  0.41772441199E+00 -0.18120289214E+01 -0.42190222423E+00  0.19068151413E+01  0.00000000000E+00 0. -1.
</event>
<event>
 7    1  0.1683291E-008  0.4614232E+02  0.7816164E-02  0.1320468E+00
        -11   -1    0    0    0    0  0.00000000000E+00  0.00000000000E+00  0.45593999997E+02  0.45594000000E+02  0.51100000000E-03 0.  1.
         11   -1    0    0    0    0 -0.00000000000E+00 -0.00000000000E+00 -0.45593999997E+02  0.45594000000E+02  0.51100000000E-03 0. -1.
    9900012    2    1    2    0    0 -0.24986091944E+02 -0.36893538782E+02 -0.66087227128E+01  0.46142320847E+02  0.10000028136E+02 0.  0.
        -12    1    1    2    0    0  0.24986091944E+02  0.36893538782E+02  0.66087227128E+01  0.45045679153E+02  0.00000000000E+00 0.  1.
         11    1    3    3    0    0 -0.18543152185E+02 -0.32160462709E+02 -0.55263323081E+01  0.37532442016E+02  0.51100000000E-03 0. -1.
        -11    1    3    3    0    0 -0.14036091585E+01  0.21600186427E+00  0.19077675019E+00  0.14328892157E+01  0.51100000000E-03 0.  1.
        -12    1    3    3    0    0 -0.50393306013E+01 -0.49490779369E+01 -0.12731671549E+01  0.71769896153E+01  0.00000000000E+00 0.  1.
</event>
<event>
 7    1  0.1683291E-008  0.4614232E+02  0.7816164E-02  0.1320468E+00
        -11   -1    0    0    0    0  0.00000000000E+00  0.00000000000E+00  0.45593999997E+02  0.45594000000E+02  0.51100000000E-03 0.  1.
         11   -1    0    0    0    0 -0.00000000000E+00 -0.00000000000E+00 -0.45593999997E+02  0.45594000000E+02  0.51100000000E-03 0. -1.
    9900012    2    1    2    0    0 -0.19304176782E+02  0.95581816587E+01 -0.39561388960E+02  0.46142316807E+02  0.99999913030E+01 0.  0.
        -12    1    1    2    0    0  0.19304176782E+02 -0.95581816587E+01  0.39561388960E+02  0.45045683193E+02  0.00000000000E+00 0.  1.
         11    1    3    3    0    0 -0.15064043773E+02  0.78052708815E+01 -0.23381333446E+02  0.28888309440E+02  0.51100000000E-03 0. -1.
        -11    1    3    3    0    0 -0.17259000177E+01 -0.11824066271E+01 -0.48184075875E+01  0.52529866022E+01  0.51100000000E-03 0.  1.
         12    1    3    3    0    0 -0.25142329912E+01  0.29353174043E+01 -0.11361647927E+02  0.12001020765E+02  0.00000000000E+00 0. -1.
</event>
<event>
 7    1  0.1683291E-008  0.4614232E+02  0.7816164E-02  0.1320468E+00
        -11   -1    0    0    0    0  0.00000000000E+00  0.00000000000E+00  0.45593999997E+02  0.45594000000E+02  0.51100000000E-03 0.  1.
         11   -1    0    0    0    0 -0.00000000000E+00 -0.00000000000E+00 -0.45593999997E+02  0.45594000000E+02  0.51100000000E-03 0. -1.
    9900012    2    1    2    0    0  0.34414186915E+02  0.26375232967E+02 -0.12211652279E+02  0.46142316228E+02  0.99999860226E+01 0.  0.
        -12    1    1    2    0    0 -0.34414186915E+02 -0.26375232967E+02  0.12211652279E+02  0.45045683772E+02  0.00000000000E+00 0.  1.
         11    1    3    3    0    0  0.36775508598E+01  0.62974782157E+01 -0.21539549155E+01  0.76040866804E+01  0.51100000000E-03 0. -1.
        -11    1    3    3    0    0  0.22624067285E+02  0.13077451967E+02 -0.95117309871E+01  0.27809012875E+02  0.51100000000E-03 0.  1.
        -12    1    3    3    0    0  0.81125687696E+01  0.70003027851E+01 -0.54596637620E+00  0.10729216673E+02  0.00000000000E+00 0.  1.
</event>
<event>
 7    1  0.1683291E-008  0.4614232E+02  0.7816164E-02  0.1320468E+00
        -11   -1    0    0    0    0  0.00000000000E+00  0.00000000000E+00  0.45593999997E+02  0.45594000000E+02  0.51100000000E-03 0.  1.
         11   -1    0    0    0    0 -0.00000000000E+00 -0.00000000000E+00 -0.45593999997E+02  0.45594000000E+02  0.51100000000E-03 0. -1.
    9900012    2    1    2    0    0 -0.32643051946E+02 -0.13868577212E+02 -0.27770619742E+02  0.46142316577E+02  0.99999891988E+01 0.  0.
        -12    1    1    2    0    0  0.32643051946E+02  0.13868577212E+02  0.27770619742E+02  0.45045683423E+02  0.00000000000E+00 0.  1.
         11    1    3    3    0    0 -0.12104691221E+02 -0.62681360632E+01 -0.73327458017E+01  0.15478444383E+02  0.51100000000E-03 0. -1.
        -11    1    3    3    0    0 -0.84955010934E+01 -0.65929912335E+01 -0.10282332465E+02  0.14878421738E+02  0.51100000000E-03 0.  1.
         12    1    3    3    0    0 -0.12042859632E+02 -0.10074499158E+01 -0.10155541476E+02  0.15785450456E+02  0.00000000000E+00 0. -1.
</event>
<event>
 7    1  0.1683291E-008  0.4614232E+02  0.7816164E-02  0.1320468E+00
        -11   -1    0    0    0    0  0.00000000000E+00  0.00000000000E+00  0.45593999997E+02  0.45594000000E+02  0.51100000000E-03 0.  1.
         11   -1    0    0    0    0 -0.00000000000E+00 -0.00000000000E+00 -0.45593999997E+02  0.45594000000E+02  0.51100000000E-03 0. -1.
    9900012    2    1    2    0    0  0.28221391856E+01  0.13663697400E+02 -0.42830507936E+02  0.46142317563E+02  0.99999981891E+01 0.  0.
        -12    1    1    2    0    0 -0.28221391856E+01 -0.13663697400E+02  0.42830507936E+02  0.45045682437E+02  0.00000000000E+00 0.  1.
         11    1    3    3    0    0 -0.19737288455E+01  0.87816211717E+01 -0.17197664796E+02  0.19410619533E+02  0.51100000000E-03 0. -1.
        -11    1    3    3    0    0  0.41347758115E+01  0.20555374008E+01 -0.17392410926E+02  0.17994931595E+02  0.51100000000E-03 0.  1.
         12    1    3    3    0    0  0.66109221960E+00  0.28265388278E+01 -0.82404322137E+01  0.87367664348E+01  0.00000000000E+00 0. -1.
</event>
<event>
 7    1  0.1683291E-008  0.4614232E+02  0.7816164E-02  0.1320468E+00
        -11   -1    0    0    0    0  0.00000000000E+00  0.00000000000E+00  0.45593999997E+02  0.45594000000E+02  0.51100000000E-03 0.  1.
         11   -1    0    0    0    0 -0.00000000000E+00 -0.00000000000E+00 -0.45593999997E+02  0.45594000000E+02  0.51100000000E-03 0. -1.
    9900012    2    1    2    0    0 -0.42208195139E+02 -0.15077548041E+02  0.44999282372E+01  0.46142317122E+02  0.99999941681E+01 0.  0.
        -12    1    1    2    0    0  0.42208195139E+02  0.15077548041E+02 -0.44999282372E+01  0.45045682878E+02  0.00000000000E+00 0.  1.
         11    1    3    3    0    0 -0.12342207128E+02 -0.42534991521E+01  0.43342406560E+01  0.13755288952E+02  0.51100000000E-03 0. -1.
        -11    1    3    3    0    0 -0.66119312656E+00 -0.12944841219E+01  0.80212992750E+00  0.16602042567E+01  0.51100000000E-03 0.  1.
         12    1    3    3    0    0 -0.29204794885E+02 -0.95295647670E+01 -0.63644234626E+00  0.30726823913E+02  0.00000000000E+00 0. -1.
</event>
<event>
 7    1  0.1683291E-008  0.4614232E+02  0.7816164E-02  0.1320468E+00
        -11   -1    0    0    0    0  0.00000000000E+00  0.00000000000E+00  0.45593999997E+02  0.45594000000E+02  0.51100000000E-03 0.  1.
         11   -1    0    0    0    0 -0.00000000000E+00 -0.00000000000E+00 -0.45593999997E+02  0.45594000000E+02  0.51100000000E-03 0. -1.
    9900012    2    1    2    0    0 -0.18984841510E+02 -0.39597038227E+02 -0.10038116014E+02  0.46142318558E+02  0.10000007265E+02 0.  0.
        -12    1    1    2    0    0  0.18984841510E+02  0.39597038227E+02  0.10038116014E+02  0.45045681442E+02  0.00000000000E+00 0.  1.
         11    1    3    3    0    0 -0.10059705967E+02 -0.17522952300E+02 -0.72709686919E+01  0.21473670562E+02  0.51100000000E-03 0. -1.
        -11    1    3    3    0    0 -0.58327541865E+01 -0.19534208343E+02 -0.32282562930E+01  0.20640444664E+02  0.51100000000E-03 0.  1.
         12    1    3    3    0    0 -0.30923813563E+01 -0.25398775843E+01  0.46110897098E+00  0.40282033314E+01  0.00000000000E+00 0. -1.
</event>
<event>
 7    1  0.1683291E-008  0.4614232E+02  0.7816164E-02  0.1320468E+00
        -11   -1    0    0    0    0  0.00000000000E+00  0.00000000000E+00  0.45593999997E+02  0.45594000000E+02  0.51100000000E-03 0. -1.
         11   -1    0    0    0    0 -0.00000000000E+00 -0.00000000000E+00 -0.45593999997E+02  0.45594000000E+02  0.51100000000E-03 0.  1.
    9900012    2    1    2    0    0  0.25717514512E+01 -0.67866744384E+00  0.44967088008E+02  0.46142317644E+02  0.99999989320E+01 0.  0.
        -12    1    1    2    0    0 -0.25717514512E+01  0.67866744384E+00 -0.44967088008E+02  0.45045682356E+02  0.00000000000E+00 0.  1.
         11    1    3    3    0    0 -0.20782727442E+01 -0.59742555918E+00  0.78788117132E+01  0.81701780379E+01  0.51100000000E-03 0. -1.
        -11    1    3    3    0    0  0.48498975694E+01 -0.26778160866E+01  0.25478749036E+02  0.26074103208E+02  0.51100000000E-03 0.  1.
        -12    1    3    3    0    0 -0.19987337405E+00  0.25965742019E+01  0.11609527259E+02  0.11898036398E+02  0.00000000000E+00 0.  1.
</event>
<event>
 7    1  0.1683291E-008  0.4614232E+02  0.7816164E-02  0.1320468E+00
        -11   -1    0    0    0    0  0.00000000000E+00  0.00000000000E+00  0.45593999997E+02  0.45594000000E+02  0.51100000000E-03 0.  1.
         11   -1    0    0    0    0 -0.00000000000E+00 -0.00000000000E+00 -0.45593999997E+02  0.45594000000E+02  0.51100000000E-03 0. -1.
    9900012    2    1    2    0    0  0.21961231409E+01  0.60202656898E+01 -0.44587520143E+02  0.46142317539E+02  0.99999979786E+01 0.  0.
        -12    1    1    2    0    0 -0.21961231409E+01 -0.60202656898E+01  0.44587520143E+02  0.45045682461E+02  0.00000000000E+00 0.  1.
         11    1    3    3    0    0 -0.62354747746E-01  0.10401924508E+01 -0.25690277243E+01  0.27723261278E+01  0.51100000000E-03 0. -1.
        -11    1    3    3    0    0 -0.83638322086E+00  0.52150529370E+01 -0.37606794852E+02  0.37975878308E+02  0.51100000000E-03 0.  1.
        -12    1    3    3    0    0  0.30948611095E+01 -0.23497969801E+00 -0.44116975672E+01  0.53941131032E+01  0.00000000000E+00 0.  1.
</event>
<event>
 7    1  0.1683291E-008  0.4614232E+02  0.7816164E-02  0.1320468E+00
        -11   -1    0    0    0    0  0.00000000000E+00  0.00000000000E+00  0.45593999997E+02  0.45594000000E+02  0.51100000000E-03 0.  1.
         11   -1    0    0    0    0 -0.00000000000E+00 -0.00000000000E+00 -0.45593999997E+02  0.45594000000E+02  0.51100000000E-03 0. -1.
    9900012    2    1    2    0    0 -0.21889238004E+02  0.20978895632E+02 -0.33314572047E+02  0.46142317488E+02  0.99999975088E+01 0.  0.
        -12    1    1    2    0    0  0.21889238004E+02 -0.20978895632E+02  0.33314572047E+02  0.45045682512E+02  0.00000000000E+00 0.  1.
         11    1    3    3    0    0 -0.10164905979E+02  0.11773084709E+02 -0.18936300033E+02  0.24505393209E+02  0.51100000000E-03 0. -1.
        -11    1    3    3    0    0 -0.12010240195E+02  0.69406035083E+01 -0.12024671900E+02  0.18357847945E+02  0.51100000000E-03 0.  1.
        -12    1    3    3    0    0  0.28590816931E+00  0.22652074147E+01 -0.23536001140E+01  0.32790763348E+01  0.00000000000E+00 0.  1.
</event>
<event>
 7    1  0.1683291E-008  0.4614232E+02  0.7816164E-02  0.1320468E+00
        -11   -1    0    0    0    0  0.00000000000E+00  0.00000000000E+00  0.45593999997E+02  0.45594000000E+02  0.51100000000E-03 0.  1.
         11   -1    0    0    0    0 -0.00000000000E+00 -0.00000000000E+00 -0.45593999997E+02  0.45594000000E+02  0.51100000000E-03 0. -1.
    9900012    2    1    2    0    0  0.13624178588E+02  0.30049296431E+01 -0.42830662779E+02  0.46142317427E+02  0.99999969547E+01 0.  0.
        -12    1    1    2    0    0 -0.13624178588E+02 -0.30049296431E+01  0.42830662779E+02  0.45045682573E+02  0.00000000000E+00 0.  1.
         11    1    3    3    0    0  0.80341064100E+01  0.44249333705E+00 -0.29764722989E+02  0.30833121818E+02  0.51100000000E-03 0. -1.
        -11    1    3    3    0    0  0.16349564722E+01 -0.12459187940E+01 -0.16297399195E+01  0.26232515651E+01  0.51100000000E-03 0.  1.
        -12    1    3    3    0    0  0.39551157061E+01  0.38083551000E+01 -0.11436199871E+02  0.12685944044E+02  0.00000000000E+00 0.  1.
</event>
<event>
 7    1  0.1683291E-008  0.4614232E+02  0.7816164E-02  0.1320468E+00
        -11   -1    0    0    0    0  0.00000000000E+00  0.00000000000E+00  0.45593999997E+02  0.45594000000E+02  0.51100000000E-03 0.  1.
         11   -1    0    0    0    0 -0.00000000000E+00 -0.00000000000E+00 -0.45593999997E+02  0.45594000000E+02  0.51100000000E-03 0. -1.
    9900012    2    1    2    0    0 -0.39019178596E+02  0.91687145601E+01 -0.20556065244E+02  0.46142318262E+02  0.10000004565E+02 0.  0.
        -12    1    1    2    0    0  0.39019178596E+02 -0.91687145601E+01  0.20556065244E+02  0.45045681738E+02  0.00000000000E+00 0.  1.
         11    1    3    3    0    0 -0.78510088552E+01  0.43784066608E-01 -0.29264986948E+00  0.78565833093E+01  0.51100000000E-03 0. -1.
        -11    1    3    3    0    0 -0.20112532666E+02  0.56362110560E+01 -0.13293633167E+02  0.24758867671E+02  0.51100000000E-03 0.  1.
         12    1    3    3    0    0 -0.11055637074E+02  0.34887194375E+01 -0.69697822072E+01  0.13526867281E+02  0.00000000000E+00 0. -1.
</event>
<event>
 7    1  0.1683291E-008  0.4614232E+02  0.7816164E-02  0.1320468E+00
        -11   -1    0    0    0    0  0.00000000000E+00  0.00000000000E+00  0.45593999997E+02  0.45594000000E+02  0.51100000000E-03 0. -1.
         11   -1    0    0    0    0 -0.00000000000E+00 -0.00000000000E+00 -0.45593999997E+02  0.45594000000E+02  0.51100000000E-03 0.  1.
    9900012    2    1    2    0    0 -0.28807618070E+01 -0.44115950979E+02 -0.86369818768E+01  0.46142319016E+02  0.10000011441E+02 0.  0.
        -12    1    1    2    0    0  0.28807618070E+01  0.44115950979E+02  0.86369818768E+01  0.45045680984E+02  0.00000000000E+00 0.  1.
         11    1    3    3    0    0 -0.24013387387E+01 -0.39508080804E+02 -0.57767867484E+01  0.40000326773E+02  0.51100000000E-03 0. -1.
        -11    1    3    3    0    0 -0.59769494885E+00 -0.22575597909E+01 -0.29795283508E+01  0.37856842071E+01  0.51100000000E-03 0.  1.
        -12    1    3    3    0    0  0.11827188055E+00 -0.23503103847E+01  0.11933322242E+00  0.23563080359E+01  0.00000000000E+00 0.  1.
</event>
<event>
 7    1  0.1683291E-008  0.4614232E+02  0.7816164E-02  0.1320468E+00
        -11   -1    0    0    0    0  0.00000000000E+00  0.00000000000E+00  0.45593999997E+02  0.45594000000E+02  0.51100000000E-03 0.  1.
         11   -1    0    0    0    0 -0.00000000000E+00 -0.00000000000E+00 -0.45593999997E+02  0.45594000000E+02  0.51100000000E-03 0. -1.
    9900012    2    1    2    0    0  0.28218176770E+02 -0.25414148950E+01 -0.35019841014E+02  0.46142317027E+02  0.99999933026E+01 0.  0.
        -12    1    1    2    0    0 -0.28218176770E+02  0.25414148950E+01  0.35019841014E+02  0.45045682973E+02  0.00000000000E+00 0.  1.
         11    1    3    3    0    0  0.13512065511E+02 -0.38523347125E+00 -0.17910071703E+02  0.22438693987E+02  0.51100000000E-03 0. -1.
        -11    1    3    3    0    0  0.13892038199E+02 -0.21253597784E+00 -0.16367999215E+02  0.21469636593E+02  0.51100000000E-03 0.  1.
        -12    1    3    3    0    0  0.81407306000E+00 -0.19436454459E+01 -0.74177009589E+00  0.22339864462E+01  0.00000000000E+00 0.  1.
</event>
<event>
 7    1  0.1683291E-008  0.4614232E+02  0.7816164E-02  0.1320468E+00
        -11   -1    0    0    0    0  0.00000000000E+00  0.00000000000E+00  0.45593999997E+02  0.45594000000E+02  0.51100000000E-03 0.  1.
         11   -1    0    0    0    0 -0.00000000000E+00 -0.00000000000E+00 -0.45593999997E+02  0.45594000000E+02  0.51100000000E-03 0. -1.
    9900012    2    1    2    0    0  0.37552892009E+02 -0.17050714854E+02 -0.18115378169E+02  0.46142317616E+02  0.99999986726E+01 0.  0.
        -12    1    1    2    0    0 -0.37552892009E+02  0.17050714854E+02  0.18115378169E+02  0.45045682384E+02  0.00000000000E+00 0.  1.
         11    1    3    3    0    0  0.27811418938E+02 -0.11787234771E+02 -0.13391300103E+02  0.33041501866E+02  0.51100000000E-03 0. -1.
        -11    1    3    3    0    0  0.70089051050E+01 -0.56813130379E+01 -0.50129728007E+01  0.10321432321E+02  0.51100000000E-03 0.  1.
        -12    1    3    3    0    0  0.27325679666E+01  0.41783295561E+00  0.28889473442E+00  0.27793834277E+01  0.00000000000E+00 0.  1.
</event>
<event>
 7    1  0.1683291E-008  0.4614232E+02  0.7816164E-02  0.1320468E+00
        -11   -1    0    0    0    0  0.00000000000E+00  0.00000000000E+00  0.45593999997E+02  0.45594000000E+02  0.51100000000E-03 0.  1.
         11   -1    0    0    0    0 -0.00000000000E+00 -0.00000000000E+00 -0.45593999997E+02  0.45594000000E+02  0.51100000000E-03 0. -1.
    9900012    2    1    2    0    0  0.22558658398E+02  0.38303418206E+02 -0.72847870793E+01  0.46142322762E+02  0.10000045604E+02 0.  0.
        -12    1    1    2    0    0 -0.22558658398E+02 -0.38303418206E+02  0.72847870793E+01  0.45045677238E+02  0.00000000000E+00 0.  1.
         11    1    3    3    0    0  0.20005046982E+02  0.26782859752E+02 -0.63807521116E+01  0.34032888197E+02  0.51100000000E-03 0. -1.
        -11    1    3    3    0    0  0.91418891923E+00  0.74303133691E+01  0.44908534793E+00  0.74997984009E+01  0.51100000000E-03 0.  1.
        -12    1    3    3    0    0  0.16394224972E+01  0.40902450855E+01 -0.13531203156E+01  0.46096361648E+01  0.00000000000E+00 0.  1.
</event>
<event>
 7    1  0.1683291E-008  0.4614232E+02  0.7816164E-02  0.1320468E+00
        -11   -1    0    0    0    0  0.00000000000E+00  0.00000000000E+00  0.45593999997E+02  0.45594000000E+02  0.51100000000E-03 0.  1.
         11   -1    0    0    0    0 -0.00000000000E+00 -0.00000000000E+00 -0.45593999997E+02  0.45594000000E+02  0.51100000000E-03 0. -1.
    9900012    2    1    2    0    0 -0.40166105817E+01  0.38019164722E+01 -0.44704874308E+02  0.46142317451E+02  0.99999971688E+01 0.  0.
        -12    1    1    2    0    0  0.40166105817E+01 -0.38019164722E+01  0.44704874308E+02  0.45045682549E+02  0.00000000000E+00 0.  1.
         11    1    3    3    0    0 -0.31519269477E+01  0.14534570837E+01 -0.40729527481E+02  0.40877152421E+02  0.51100000000E-03 0. -1.
        -11    1    3    3    0    0 -0.93732792860E+00  0.10030186953E+01 -0.37822070249E+00  0.14239667516E+01  0.51100000000E-03 0.  1.
         12    1    3    3    0    0  0.72644294623E-01  0.13454406933E+01 -0.35971261248E+01  0.38411982779E+01  0.00000000000E+00 0. -1.
</event>
<event>
 7    1  0.1683291E-008  0.4614232E+02  0.7816164E-02  0.1320468E+00
        -11   -1    0    0    0    0  0.00000000000E+00  0.00000000000E+00  0.45593999997E+02  0.45594000000E+02  0.51100000000E-03 0.  1.
         11   -1    0    0    0    0 -0.00000000000E+00 -0.00000000000E+00 -0.45593999997E+02  0.45594000000E+02  0.51100000000E-03 0. -1.
    9900012    2    1    2    0    0 -0.61454125707E+01  0.44026358829E+00 -0.44622343912E+02  0.46142317589E+02  0.99999984290E+01 0.  0.
        -12    1    1    2    0    0  0.61454125707E+01 -0.44026358829E+00  0.44622343912E+02  0.45045682411E+02  0.00000000000E+00 0.  1.
         11    1    3    3    0    0 -0.32648425376E+01 -0.16501531071E+01 -0.22626826705E+02  0.22920634570E+02  0.51100000000E-03 0. -1.
        -11    1    3    3    0    0 -0.29826496988E+01  0.42364792207E+01 -0.17274980758E+02  0.18035213219E+02  0.51100000000E-03 0.  1.
         12    1    3    3    0    0  0.10207966571E+00 -0.21460625253E+01 -0.47205364493E+01  0.51864698003E+01  0.00000000000E+00 0. -1.
</event>
<event>
 7    1  0.1683291E-008  0.4614232E+02  0.7816164E-02  0.1320468E+00
        -11   -1    0    0    0    0  0.00000000000E+00  0.00000000000E+00  0.45593999997E+02  0.45594000000E+02  0.51100000000E-03 0.  1.
         11   -1    0    0    0    0 -0.00000000000E+00 -0.00000000000E+00 -0.45593999997E+02  0.45594000000E+02  0.51100000000E-03 0. -1.
    9900012    2    1    2    0    0  0.24486825568E+02  0.13587880697E+02 -0.35282833792E+02  0.46142317759E+02  0.99999999767E+01 0.  0.
        -12    1    1    2    0    0 -0.24486825568E+02 -0.13587880697E+02  0.35282833792E+02  0.45045682241E+02  0.00000000000E+00 0.  1.
         11    1    3    3    0    0  0.18312152492E+02  0.60696903549E+01 -0.21635754471E+02  0.28987617041E+02  0.51100000000E-03 0. -1.
        -11    1    3    3    0    0  0.65572475565E+01  0.75473722470E+01 -0.12967131777E+02  0.16373968063E+02  0.51100000000E-03 0.  1.
        -12    1    3    3    0    0 -0.38257448038E+00 -0.29181904910E-01 -0.67994754291E+00  0.78073265444E+00  0.00000000000E+00 0.  1.
</event>
<event>
 7    1  0.1683291E-008  0.4614232E+02  0.7816164E-02  0.1320468E+00
        -11   -1    0    0    0    0  0.00000000000E+00  0.00000000000E+00  0.45593999997E+02  0.45594000000E+02  0.51100000000E-03 0.  1.
         11   -1    0    0    0    0 -0.00000000000E+00 -0.00000000000E+00 -0.45593999997E+02  0.45594000000E+02  0.51100000000E-03 0. -1.
    9900012    2    1    2    0    0  0.20773832068E+01  0.15155155265E+02 -0.42368847380E+02  0.46142317850E+02  0.10000000810E+02 0.  0.
        -12    1    1    2    0    0 -0.20773832068E+01 -0.15155155265E+02  0.42368847380E+02  0.45045682150E+02  0.00000000000E+00 0.  1.
         11    1    3    3    0    0  0.23816031324E+01  0.66625099088E+01 -0.21218301701E+02  0.22366881747E+02  0.51100000000E-03 0. -1.
        -11    1    3    3    0    0  0.16303798313E+00  0.69219666434E+01 -0.21020631469E+02  0.22131587182E+02  0.51100000000E-03 0.  1.
        -12    1    3    3    0    0 -0.46725790877E+00  0.15706787125E+01 -0.12991420990E+00  0.16438489204E+01  0.00000000000E+00 0.  1.
</event>
<event>
 7    1  0.1683291E-008  0.4614232E+02  0.7816164E-02  0.1320468E+00
        -11   -1    0    0    0    0  0.00000000000E+00  0.00000000000E+00  0.45593999997E+02  0.45594000000E+02  0.51100000000E-03 0.  1.
         11   -1    0    0    0    0 -0.00000000000E+00 -0.00000000000E+00 -0.45593999997E+02  0.45594000000E+02  0.51100000000E-03 0. -1.
    9900012    2    1    2    0    0 -0.24381496913E+02 -0.37617724787E+02 -0.44229943667E+01  0.46142317754E+02  0.99999999359E+01 0.  0.
        -12    1    1    2    0    0  0.24381496913E+02  0.37617724787E+02  0.44229943667E+01  0.45045682246E+02  0.00000000000E+00 0.  1.
         11    1    3    3    0    0 -0.68787516150E+01 -0.79487657921E+01 -0.21042874839E+01  0.10720453697E+02  0.51100000000E-03 0. -1.
        -11    1    3    3    0    0  0.76664777152E+00 -0.18959940360E+01  0.33732408446E+00  0.20727590283E+01  0.51100000000E-03 0.  1.
        -12    1    3    3    0    0 -0.18269393069E+02 -0.27772964959E+02 -0.26560309673E+01  0.33349105029E+02  0.00000000000E+00 0.  1.
</event>
<event>
 7    1  0.1683291E-008  0.4614232E+02  0.7816164E-02  0.1320468E+00
        -11   -1    0    0    0    0  0.00000000000E+00  0.00000000000E+00  0.45593999997E+02  0.45594000000E+02  0.51100000000E-03 0.  1.
         11   -1    0    0    0    0 -0.00000000000E+00 -0.00000000000E+00 -0.45593999997E+02  0.45594000000E+02  0.51100000000E-03 0. -1.
    9900012    2    1    2    0    0 -0.59754812652E+01 -0.17306518806E+01 -0.44614033198E+02  0.46142317738E+02  0.99999997870E+01 0.  0.
        -12    1    1    2    0    0  0.59754812652E+01  0.17306518806E+01  0.44614033198E+02  0.45045682262E+02  0.00000000000E+00 0.  1.
         11    1    3    3    0    0 -0.16154299163E+01 -0.22331175234E+00 -0.22668754311E+02  0.22727338257E+02  0.51100000000E-03 0. -1.
        -11    1    3    3    0    0 -0.58654522831E+01 -0.59892899054E+00 -0.12671833653E+02  0.13976323365E+02  0.51100000000E-03 0.  1.
        -12    1    3    3    0    0  0.15054009341E+01 -0.90841113770E+00 -0.92734452338E+01  0.94386561157E+01  0.00000000000E+00 0.  1.
</event>
<event>
 7    1  0.1683291E-008  0.4614232E+02  0.7816164E-02  0.1320468E+00
        -11   -1    0    0    0    0  0.00000000000E+00  0.00000000000E+00  0.45593999997E+02  0.45594000000E+02  0.51100000000E-03 0.  1.
         11   -1    0    0    0    0 -0.00000000000E+00 -0.00000000000E+00 -0.45593999997E+02  0.45594000000E+02  0.51100000000E-03 0. -1.
    9900012    2    1    2    0    0  0.20739619302E+02  0.57325529608E+01 -0.39574227922E+02  0.46142317767E+02  0.10000000053E+02 0.  0.
        -12    1    1    2    0    0 -0.20739619302E+02 -0.57325529608E+01  0.39574227922E+02  0.45045682233E+02  0.00000000000E+00 0.  1.
         11    1    3    3    0    0  0.21437574767E+01  0.19449183705E+01 -0.92243038901E+01  0.96677911699E+01  0.51100000000E-03 0. -1.
        -11    1    3    3    0    0  0.43850976155E+00  0.18860173044E+01 -0.36117775053E+01  0.40980835878E+01  0.51100000000E-03 0.  1.
        -12    1    3    3    0    0  0.18157352064E+02  0.19016172859E+01 -0.26738146526E+02  0.32376443009E+02  0.00000000000E+00 0.  1.
</event>
<event>
 7    1  0.1683291E-008  0.4614232E+02  0.7816164E-02  0.1320468E+00
        -11   -1    0    0    0    0  0.00000000000E+00  0.00000000000E+00  0.45593999997E+02  0.45594000000E+02  0.51100000000E-03 0.  1.
         11   -1    0    0    0    0 -0.00000000000E+00 -0.00000000000E+00 -0.45593999997E+02  0.45594000000E+02  0.51100000000E-03 0. -1.
    9900012    2    1    2    0    0  0.85298061646E+01 -0.40009851121E+02 -0.18856502610E+02  0.46142317958E+02  0.10000001795E+02 0.  0.
        -12    1    1    2    0    0 -0.85298061646E+01  0.40009851121E+02  0.18856502610E+02  0.45045682042E+02  0.00000000000E+00 0.  1.
         11    1    3    3    0    0  0.64100594057E+00 -0.15756522746E+02 -0.67687030664E+01  0.17160834453E+02  0.51100000000E-03 0. -1.
        -11    1    3    3    0    0  0.33531153359E+01 -0.55293216393E+01 -0.46907356640E+00  0.64835800695E+01  0.51100000000E-03 0.  1.
        -12    1    3    3    0    0  0.45356848882E+01 -0.18724006736E+02 -0.11618725978E+02  0.22497903436E+02  0.00000000000E+00 0.  1.
</event>
<event>
 7    1  0.1683291E-008  0.4614232E+02  0.7816164E-02  0.1320468E+00
        -11   -1    0    0    0    0  0.00000000000E+00  0.00000000000E+00  0.45593999997E+02  0.45594000000E+02  0.51100000000E-03 0.  1.
         11   -1    0    0    0    0 -0.00000000000E+00 -0.00000000000E+00 -0.45593999997E+02  0.45594000000E+02  0.51100000000E-03 0. -1.
    9900012    2    1    2    0    0 -0.39452140265E+02  0.20486813233E+02 -0.72754488187E+01  0.46142322699E+02  0.10000045031E+02 0.  0.
        -12    1    1    2    0    0  0.39452140265E+02 -0.20486813233E+02  0.72754488187E+01  0.45045677301E+02  0.00000000000E+00 0.  1.
         11    1    3    3    0    0 -0.77268043502E+01  0.36163115557E+01 -0.32860399577E+01  0.91421700706E+01  0.51100000000E-03 0. -1.
        -11    1    3    3    0    0 -0.36056230224E+01  0.18155258490E+01  0.20649522078E+01  0.45343885331E+01  0.51100000000E-03 0.  1.
        -12    1    3    3    0    0 -0.28119712893E+02  0.15054975829E+02 -0.60543610688E+01  0.32465764096E+02  0.00000000000E+00 0.  1.
</event>
<event>
 7    1  0.1683291E-008  0.4614232E+02  0.7816164E-02  0.1320468E+00
        -11   -1    0    0    0    0  0.00000000000E+00  0.00000000000E+00  0.45593999997E+02  0.45594000000E+02  0.51100000000E-03 0.  1.
         11   -1    0    0    0    0 -0.00000000000E+00 -0.00000000000E+00 -0.45593999997E+02  0.45594000000E+02  0.51100000000E-03 0. -1.
    9900012    2    1    2    0    0  0.22367935675E+02  0.62200808994E+01 -0.38601807464E+02  0.46142317718E+02  0.99999996083E+01 0.  0.
        -12    1    1    2    0    0 -0.22367935675E+02 -0.62200808994E+01  0.38601807464E+02  0.45045682282E+02  0.00000000000E+00 0.  1.
         11    1    3    3    0    0  0.16221108508E+02  0.41018249357E+01 -0.21620745578E+02  0.27338726537E+02  0.51100000000E-03 0. -1.
        -11    1    3    3    0    0  0.18569306108E+01 -0.13936719473E+01 -0.32377376403E+01  0.39841508604E+01  0.51100000000E-03 0.  1.
         12    1    3    3    0    0  0.42898965563E+01  0.35119279110E+01 -0.13743324246E+02  0.14819440321E+02  0.00000000000E+00 0. -1.
</event>
<event>
 7    1  0.1683291E-008  0.4614232E+02  0.7816164E-02  0.1320468E+00
        -11   -1    0    0    0    0  0.00000000000E+00  0.00000000000E+00  0.45593999997E+02  0.45594000000E+02  0.51100000000E-03 0. -1.
         11   -1    0    0    0    0 -0.00000000000E+00 -0.00000000000E+00 -0.45593999997E+02  0.45594000000E+02  0.51100000000E-03 0.  1.
    9900012    2    1    2    0    0 -0.73643778807E+01  0.28622419788E+01  0.44347344625E+02  0.46142318009E+02  0.10000002261E+02 0.  0.
        -12    1    1    2    0    0  0.73643778807E+01 -0.28622419788E+01 -0.44347344625E+02  0.45045681991E+02  0.00000000000E+00 0.  1.
         11    1    3    3    0    0  0.41986969356E-01 -0.20948450975E+00  0.55928292001E+00  0.59870218903E+00  0.51100000000E-03 0. -1.
        -11    1    3    3    0    0 -0.74849707604E+01  0.54967780751E+01  0.26370582420E+02  0.27957950103E+02  0.51100000000E-03 0.  1.
        -12    1    3    3    0    0  0.78605910406E-01 -0.24250515865E+01  0.17417479285E+02  0.17585665718E+02  0.00000000000E+00 0.  1.
</event>
<event>
 7    1  0.1683291E-008  0.4614232E+02  0.7816164E-02  0.1320468E+00
        -11   -1    0    0    0    0  0.00000000000E+00  0.00000000000E+00  0.45593999997E+02  0.45594000000E+02  0.51100000000E-03 0. -1.
         11   -1    0    0    0    0 -0.00000000000E+00 -0.00000000000E+00 -0.45593999997E+02  0.45594000000E+02  0.51100000000E-03 0.  1.
    9900012    2    1    2    0    0  0.52416467485E+01 -0.44119496685E+02  0.74235181017E+01  0.46142317972E+02  0.10000001924E+02 0.  0.
        -12    1    1    2    0    0 -0.52416467485E+01  0.44119496685E+02 -0.74235181017E+01  0.45045682028E+02  0.00000000000E+00 0.  1.
         11    1    3    3    0    0  0.58565573180E+01 -0.26423859895E+02  0.52430191059E+00  0.27070177837E+02  0.51100000000E-03 0. -1.
        -11    1    3    3    0    0 -0.89294838562E+00 -0.81451300587E+01  0.26154875299E+01  0.86012368746E+01  0.51100000000E-03 0.  1.
         12    1    3    3    0    0  0.27803781609E+00 -0.95505067308E+01  0.42837286612E+01  0.10470903260E+02  0.00000000000E+00 0. -1.
</event>
<event>
 7    1  0.1683291E-008  0.4614232E+02  0.7816164E-02  0.1320468E+00
        -11   -1    0    0    0    0  0.00000000000E+00  0.00000000000E+00  0.45593999997E+02  0.45594000000E+02  0.51100000000E-03 0.  1.
         11   -1    0    0    0    0 -0.00000000000E+00 -0.00000000000E+00 -0.45593999997E+02  0.45594000000E+02  0.51100000000E-03 0. -1.
    9900012    2    1    2    0    0  0.11539124600E+02 -0.42427091659E+02 -0.97930536504E+01  0.46142318709E+02  0.10000008643E+02 0.  0.
        -12    1    1    2    0    0 -0.11539124600E+02  0.42427091659E+02  0.97930536504E+01  0.45045681291E+02  0.00000000000E+00 0.  1.
         11    1    3    3    0    0 -0.70628770343E+00 -0.43241381607E+01 -0.29065160253E+01  0.52578368955E+01  0.51100000000E-03 0. -1.
        -11    1    3    3    0    0  0.26098455776E+01 -0.37377423290E+01 -0.14402285481E+01  0.47808231707E+01  0.51100000000E-03 0.  1.
         12    1    3    3    0    0  0.96355667253E+01 -0.34365211169E+02 -0.54463090770E+01  0.36103658643E+02  0.00000000000E+00 0. -1.
</event>
<event>
 7    1  0.1683291E-008  0.4614232E+02  0.7816164E-02  0.1320468E+00
        -11   -1    0    0    0    0  0.00000000000E+00  0.00000000000E+00  0.45593999997E+02  0.45594000000E+02  0.51100000000E-03 0.  1.
         11   -1    0    0    0    0 -0.00000000000E+00 -0.00000000000E+00 -0.45593999997E+02  0.45594000000E+02  0.51100000000E-03 0. -1.
    9900012    2    1    2    0    0  0.38242134984E+02 -0.17897254677E+02 -0.15695248176E+02  0.46142318427E+02  0.10000006068E+02 0.  0.
        -12    1    1    2    0    0 -0.38242134984E+02  0.17897254677E+02  0.15695248176E+02  0.45045681573E+02  0.00000000000E+00 0.  1.
         11    1    3    3    0    0  0.20131450761E+02 -0.82283089733E+01 -0.56521186765E+01  0.22470576853E+02  0.51100000000E-03 0. -1.
        -11    1    3    3    0    0  0.41883983786E+01 -0.40838828497E+00 -0.42363401193E+01  0.59712678584E+01  0.51100000000E-03 0.  1.
        -12    1    3    3    0    0  0.13922285844E+02 -0.92605574189E+01 -0.58067893800E+01  0.17700473715E+02  0.00000000000E+00 0.  1.
</event>
<event>
 7    1  0.1683291E-008  0.4614232E+02  0.7816164E-02  0.1320468E+00
        -11   -1    0    0    0    0  0.00000000000E+00  0.00000000000E+00  0.45593999997E+02  0.45594000000E+02  0.51100000000E-03 0.  1.
         11   -1    0    0    0    0 -0.00000000000E+00 -0.00000000000E+00 -0.45593999997E+02  0.45594000000E+02  0.51100000000E-03 0. -1.
    9900012    2    1    2    0    0 -0.10110390152E+02 -0.13615412126E+02 -0.41731453765E+02  0.46142315748E+02  0.99999816428E+01 0.  0.
        -12    1    1    2    0    0  0.10110390152E+02  0.13615412126E+02  0.41731453765E+02  0.45045684252E+02  0.00000000000E+00 0.  1.
         11    1    3    3    0    0 -0.20238362279E+01 -0.18351138057E+01 -0.37470164667E+01  0.46372069633E+01  0.51100000000E-03 0. -1.
        -11    1    3    3    0    0  0.70147319880E+00 -0.50122404943E-01  0.88072684548E-01  0.70875522079E+00  0.51100000000E-03 0.  1.
        -12    1    3    3    0    0 -0.87880271230E+01 -0.11730175916E+02 -0.38072509983E+02  0.40796353564E+02  0.00000000000E+00 0.  1.
</event>
<event>
 7    1  0.1683291E-008  0.4614232E+02  0.7816164E-02  0.1320468E+00
        -11   -1    0    0    0    0  0.00000000000E+00  0.00000000000E+00  0.45593999997E+02  0.45594000000E+02  0.51100000000E-03 0. -1.
         11   -1    0    0    0    0 -0.00000000000E+00 -0.00000000000E+00 -0.45593999997E+02  0.45594000000E+02  0.51100000000E-03 0.  1.
    9900012    2    1    2    0    0  0.43133033221E+01  0.42879438299E+02  0.13109644910E+02  0.46142316477E+02  0.99999882889E+01 0.  0.
        -12    1    1    2    0    0 -0.43133033221E+01 -0.42879438299E+02 -0.13109644910E+02  0.45045683523E+02  0.00000000000E+00 0.  1.
         11    1    3    3    0    0  0.36094975411E+01  0.22894124058E+02  0.83351933807E+01  0.24630161141E+02  0.51100000000E-03 0. -1.
        -11    1    3    3    0    0 -0.22877084438E+01  0.32837031647E+01  0.70666420562E+00  0.40639501668E+01  0.51100000000E-03 0.  1.
        -12    1    3    3    0    0  0.29915142248E+01  0.16701611076E+02  0.40677873242E+01  0.17448205169E+02  0.00000000000E+00 0.  1.
</event>
<event>
 7    1  0.1683291E-008  0.4614232E+02  0.7816164E-02  0.1320468E+00
        -11   -1    0    0    0    0  0.00000000000E+00  0.00000000000E+00  0.45593999997E+02  0.45594000000E+02  0.51100000000E-03 0. -1.
         11   -1    0    0    0    0 -0.00000000000E+00 -0.00000000000E+00 -0.45593999997E+02  0.45594000000E+02  0.51100000000E-03 0.  1.
    9900012    2    1    2    0    0 -0.11518947789E+02 -0.20991179340E+02  0.38154917093E+02  0.46142318003E+02  0.10000002203E+02 0.  0.
        -12    1    1    2    0    0  0.11518947789E+02  0.20991179340E+02 -0.38154917093E+02  0.45045681997E+02  0.00000000000E+00 0.  1.
         11    1    3    3    0    0 -0.25415325454E+00 -0.12495996043E+01  0.29419118141E+01  0.32063902493E+01  0.51100000000E-03 0. -1.
        -11    1    3    3    0    0 -0.71392153926E+01 -0.44513877673E+01  0.15630278412E+02  0.17750742322E+02  0.51100000000E-03 0.  1.
        -12    1    3    3    0    0 -0.41255791421E+01 -0.15290191969E+02  0.19582726867E+02  0.25185185432E+02  0.00000000000E+00 0.  1.
</event>
<event>
 7    1  0.1683291E-008  0.4614232E+02  0.7816164E-02  0.1320468E+00
        -11   -1    0    0    0    0  0.00000000000E+00  0.00000000000E+00  0.45593999997E+02  0.45594000000E+02  0.51100000000E-03 0. -1.
         11   -1    0    0    0    0 -0.00000000000E+00 -0.00000000000E+00 -0.45593999997E+02  0.45594000000E+02  0.51100000000E-03 0.  1.
    9900012    2    1    2    0    0 -0.27323388922E+02  0.27255679849E+02  0.23230882412E+02  0.46142316924E+02  0.99999923634E+01 0.  0.
        -12    1    1    2    0    0  0.27323388922E+02 -0.27255679849E+02 -0.23230882412E+02  0.45045683076E+02  0.00000000000E+00 0.  1.
         11    1    3    3    0    0 -0.15199549378E+02  0.12815028035E+02  0.14335480338E+02  0.24510349684E+02  0.51100000000E-03 0. -1.
        -11    1    3    3    0    0 -0.11424363160E+01  0.53138603845E+01  0.26502724241E+01  0.60470006702E+01  0.51100000000E-03 0.  1.
        -12    1    3    3    0    0 -0.10981403227E+02  0.91267914291E+01  0.62451296495E+01  0.15584966569E+02  0.00000000000E+00 0.  1.
</event>
<event>
 7    1  0.1683291E-008  0.4614232E+02  0.7816164E-02  0.1320468E+00
        -11   -1    0    0    0    0  0.00000000000E+00  0.00000000000E+00  0.45593999997E+02  0.45594000000E+02  0.51100000000E-03 0.  1.
         11   -1    0    0    0    0 -0.00000000000E+00 -0.00000000000E+00 -0.45593999997E+02  0.45594000000E+02  0.51100000000E-03 0. -1.
    9900012    2    1    2    0    0 -0.30428525320E+02  0.23401520119E+02 -0.23570901916E+02  0.46142315255E+02  0.99999771479E+01 0.  0.
        -12    1    1    2    0    0  0.30428525320E+02 -0.23401520119E+02  0.23570901916E+02  0.45045684745E+02  0.00000000000E+00 0.  1.
         11    1    3    3    0    0 -0.14025201328E+02  0.81135768380E+01 -0.12066970105E+02  0.20202677277E+02  0.51100000000E-03 0. -1.
        -11    1    3    3    0    0 -0.32133459546E+01  0.28614343318E+01  0.29916760484E+00  0.43131079486E+01  0.51100000000E-03 0.  1.
         12    1    3    3    0    0 -0.13189978037E+02  0.12426508949E+02 -0.11803099416E+02  0.21626530029E+02  0.00000000000E+00 0. -1.
</event>
<event>
 7    1  0.1683291E-008  0.4614232E+02  0.7816164E-02  0.1320468E+00
        -11   -1    0    0    0    0  0.00000000000E+00  0.00000000000E+00  0.45593999997E+02  0.45594000000E+02  0.51100000000E-03 0. -1.
         11   -1    0    0    0    0 -0.00000000000E+00 -0.00000000000E+00 -0.45593999997E+02  0.45594000000E+02  0.51100000000E-03 0.  1.
    9900012    2    1    2    0    0 -0.39762858921E+02 -0.19826466805E+02  0.74121369543E+01  0.46142317524E+02  0.99999978385E+01 0.  0.
        -12    1    1    2    0    0  0.39762858921E+02  0.19826466805E+02 -0.74121369543E+01  0.45045682476E+02  0.00000000000E+00 0.  1.
         11    1    3    3    0    0 -0.81913821326E+01 -0.58326634258E+01 -0.71938282576E+00  0.10081478849E+02  0.51100000000E-03 0.  1.
        -11    1    3    3    0    0 -0.30482008145E+01 -0.11160572481E+01  0.28561644550E+01  0.43237469447E+01  0.51100000000E-03 0. -1.
         12    1    3    3    0    0 -0.28523275974E+02 -0.12877746131E+02  0.52753553251E+01  0.31737091730E+02  0.00000000000E+00 0. -1.
</event>
<event>
 7    1  0.1683291E-008  0.4614232E+02  0.7816164E-02  0.1320468E+00
        -11   -1    0    0    0    0  0.00000000000E+00  0.00000000000E+00  0.45593999997E+02  0.45594000000E+02  0.51100000000E-03 0. -1.
         11   -1    0    0    0    0 -0.00000000000E+00 -0.00000000000E+00 -0.45593999997E+02  0.45594000000E+02  0.51100000000E-03 0.  1.
    9900012    2    1    2    0    0 -0.38302569703E+02 -0.21726867835E+02  0.94852436360E+01  0.46142317869E+02  0.10000000988E+02 0.  0.
        -12    1    1    2    0    0  0.38302569703E+02  0.21726867835E+02 -0.94852436360E+01  0.45045682131E+02  0.00000000000E+00 0.  1.
         11    1    3    3    0    0 -0.18429668251E+02 -0.95998340089E+01  0.26462202723E+01  0.20947839193E+02  0.51100000000E-03 0. -1.
        -11    1    3    3    0    0 -0.47886419334E+01 -0.65873716690E+01  0.16622949183E+01  0.83119060226E+01  0.51100000000E-03 0.  1.
         12    1    3    3    0    0 -0.15084259518E+02 -0.55396621571E+01  0.51767284454E+01  0.16882572654E+02  0.00000000000E+00 0. -1.
</event>
<event>
 7    1  0.1683291E-008  0.4614232E+02  0.7816164E-02  0.1320468E+00
        -11   -1    0    0    0    0  0.00000000000E+00  0.00000000000E+00  0.45593999997E+02  0.45594000000E+02  0.51100000000E-03 0.  1.
         11   -1    0    0    0    0 -0.00000000000E+00 -0.00000000000E+00 -0.45593999997E+02  0.45594000000E+02  0.51100000000E-03 0. -1.
    9900012    2    1    2    0    0  0.18558404314E+02 -0.41259786552E+01 -0.40837180854E+02  0.46142318624E+02  0.10000007865E+02 0.  0.
        -12    1    1    2    0    0 -0.18558404314E+02  0.41259786552E+01  0.40837180854E+02  0.45045681376E+02  0.00000000000E+00 0.  1.
         11    1    3    3    0    0  0.94626519932E+01 -0.52255969371E+01 -0.16719725560E+02  0.19909743071E+02  0.51100000000E-03 0. -1.
        -11    1    3    3    0    0  0.23894744389E+01 -0.86968107466E-01 -0.12820337261E+02  0.13041403271E+02  0.51100000000E-03 0.  1.
         12    1    3    3    0    0  0.67062778819E+01  0.11865863894E+01 -0.11297118034E+02  0.13191172282E+02  0.00000000000E+00 0. -1.
</event>
<event>
 7    1  0.1683291E-008  0.4614232E+02  0.7816164E-02  0.1320468E+00
        -11   -1    0    0    0    0  0.00000000000E+00  0.00000000000E+00  0.45593999997E+02  0.45594000000E+02  0.51100000000E-03 0. -1.
         11   -1    0    0    0    0 -0.00000000000E+00 -0.00000000000E+00 -0.45593999997E+02  0.45594000000E+02  0.51100000000E-03 0.  1.
    9900012    2    1    2    0    0  0.36889554247E+02 -0.22573882013E+02  0.12597387238E+02  0.46142317333E+02  0.99999961000E+01 0.  0.
        -12    1    1    2    0    0 -0.36889554247E+02  0.22573882013E+02 -0.12597387238E+02  0.45045682667E+02  0.00000000000E+00 0.  1.
         11    1    3    3    0    0  0.18078711950E+02 -0.79216799047E+01  0.74782681410E+01  0.21107281515E+02  0.51100000000E-03 0. -1.
        -11    1    3    3    0    0  0.46122899453E+01 -0.11398377848E+01  0.21345426002E+01  0.52085238877E+01  0.51100000000E-03 0.  1.
         12    1    3    3    0    0  0.14198552351E+02 -0.13512364324E+02  0.29845764969E+01  0.19826511931E+02  0.00000000000E+00 0. -1.
</event>
<event>
 7    1  0.1683291E-008  0.4614232E+02  0.7816164E-02  0.1320468E+00
        -11   -1    0    0    0    0  0.00000000000E+00  0.00000000000E+00  0.45593999997E+02  0.45594000000E+02  0.51100000000E-03 0.  1.
         11   -1    0    0    0    0 -0.00000000000E+00 -0.00000000000E+00 -0.45593999997E+02  0.45594000000E+02  0.51100000000E-03 0. -1.
    9900012    2    1    2    0    0 -0.65349836516E+01  0.19365366868E+02 -0.40142122691E+02  0.46142318083E+02  0.10000002933E+02 0.  0.
        -12    1    1    2    0    0  0.65349836516E+01 -0.19365366868E+02  0.40142122691E+02  0.45045681917E+02  0.00000000000E+00 0.  1.
         11    1    3    3    0    0 -0.70098242253E+01  0.16672606751E+02 -0.27211750042E+02  0.32674038504E+02  0.51100000000E-03 0. -1.
        -11    1    3    3    0    0  0.14894607224E+01  0.19882438667E+01 -0.75613440272E+01  0.79589905563E+01  0.51100000000E-03 0.  1.
         12    1    3    3    0    0 -0.10146201487E+01  0.70451625041E+00 -0.53690286217E+01  0.55092890225E+01  0.00000000000E+00 0. -1.
</event>
<event>
 7    1  0.1683291E-008  0.4614232E+02  0.7816164E-02  0.1320468E+00
        -11   -1    0    0    0    0  0.00000000000E+00  0.00000000000E+00  0.45593999997E+02  0.45594000000E+02  0.51100000000E-03 0.  1.
         11   -1    0    0    0    0 -0.00000000000E+00 -0.00000000000E+00 -0.45593999997E+02  0.45594000000E+02  0.51100000000E-03 0. -1.
    9900012    2    1    2    0    0 -0.43243195424E+02  0.12584573501E+02 -0.87632678184E+00  0.46142318860E+02  0.10000010025E+02 0.  0.
        -12    1    1    2    0    0  0.43243195424E+02 -0.12584573501E+02  0.87632678184E+00  0.45045681140E+02  0.00000000000E+00 0.  1.
         11    1    3    3    0    0 -0.19396134529E+02  0.20757351580E+01 -0.30046279445E+01  0.19736932397E+02  0.51100000000E-03 0. -1.
        -11    1    3    3    0    0 -0.98043293697E+01  0.63096725198E+01  0.11460386172E+01  0.11715385033E+02  0.51100000000E-03 0.  1.
         12    1    3    3    0    0 -0.14042731526E+02  0.41991658234E+01  0.98226254552E+00  0.14690001430E+02  0.00000000000E+00 0. -1.
</event>
<event>
 7    1  0.1683291E-008  0.4614232E+02  0.7816164E-02  0.1320468E+00
        -11   -1    0    0    0    0  0.00000000000E+00  0.00000000000E+00  0.45593999997E+02  0.45594000000E+02  0.51100000000E-03 0.  1.
         11   -1    0    0    0    0 -0.00000000000E+00 -0.00000000000E+00 -0.45593999997E+02  0.45594000000E+02  0.51100000000E-03 0. -1.
    9900012    2    1    2    0    0  0.12565958696E+02  0.31718762520E+02 -0.29413096721E+02  0.46142317938E+02  0.10000001611E+02 0.  0.
        -12    1    1    2    0    0 -0.12565958696E+02 -0.31718762520E+02  0.29413096721E+02  0.45045682062E+02  0.00000000000E+00 0.  1.
         11    1    3    3    0    0  0.61189575282E+01  0.10676841399E+02 -0.88937637848E+01  0.15183399422E+02  0.51100000000E-03 0. -1.
        -11    1    3    3    0    0  0.34930380950E+01  0.47582755004E+01 -0.91196064650E+01  0.10863228029E+02  0.51100000000E-03 0.  1.
         12    1    3    3    0    0  0.29539630733E+01  0.16283645620E+02 -0.11399726471E+02  0.20095690486E+02  0.00000000000E+00 0. -1.
</event>
<event>
 7    1  0.1803994E-008  0.4614232E+02  0.7816164E-02  0.1320468E+00
        -11   -1    0    0    0    0  0.00000000000E+00  0.00000000000E+00  0.45593999997E+02  0.45594000000E+02  0.51100000000E-03 0. -1.
         11   -1    0    0    0    0 -0.00000000000E+00 -0.00000000000E+00 -0.45593999997E+02  0.45594000000E+02  0.51100000000E-03 0.  1.
    9900012    2    1    2    0    0  0.28105833559E+02  0.32316374826E+02 -0.13958071344E+02  0.46142315216E+02  0.99999767960E+01 0.  0.
        -12    1    1    2    0    0 -0.28105833559E+02 -0.32316374826E+02  0.13958071344E+02  0.45045684784E+02  0.00000000000E+00 0.  1.
         11    1    3    3    0    0  0.56779477109E+01  0.55647535632E+01  0.14059599064E+00  0.79514363432E+01  0.51100000000E-03 0. -1.
        -11    1    3    3    0    0  0.42930827483E+00  0.26566132363E+01 -0.21518052782E+01  0.34456009198E+01  0.51100000000E-03 0.  1.
         12    1    3    3    0    0  0.21998577574E+02  0.24095008027E+02 -0.11946862056E+02  0.34745277954E+02  0.00000000000E+00 0. -1.
</event>
<event>
 7    1  0.1683291E-008  0.4614232E+02  0.7816164E-02  0.1320468E+00
        -11   -1    0    0    0    0  0.00000000000E+00  0.00000000000E+00  0.45593999997E+02  0.45594000000E+02  0.51100000000E-03 0. -1.
         11   -1    0    0    0    0 -0.00000000000E+00 -0.00000000000E+00 -0.45593999997E+02  0.45594000000E+02  0.51100000000E-03 0.  1.
    9900012    2    1    2    0    0  0.16334444701E+02 -0.24152097809E+02  0.34336217285E+02  0.46142315082E+02  0.99999755734E+01 0.  0.
        -12    1    1    2    0    0 -0.16334444701E+02  0.24152097809E+02 -0.34336217285E+02  0.45045684918E+02  0.00000000000E+00 0.  1.
         11    1    3    3    0    0  0.27648134276E+01 -0.69126893767E+01  0.14634117630E+02  0.16419100669E+02  0.51100000000E-03 0. -1.
        -11    1    3    3    0    0  0.11365482384E+02 -0.11791633256E+02  0.14632473244E+02  0.21961923370E+02  0.51100000000E-03 0.  1.
         12    1    3    3    0    0  0.22041488894E+01 -0.54477751764E+01  0.50696264116E+01  0.77612910429E+01  0.00000000000E+00 0. -1.
</event>
<event>
 7    1  0.1683291E-008  0.4614232E+02  0.7816164E-02  0.1320468E+00
        -11   -1    0    0    0    0  0.00000000000E+00  0.00000000000E+00  0.45593999997E+02  0.45594000000E+02  0.51100000000E-03 0.  1.
         11   -1    0    0    0    0 -0.00000000000E+00 -0.00000000000E+00 -0.45593999997E+02  0.45594000000E+02  0.51100000000E-03 0. -1.
    9900012    2    1    2    0    0 -0.77524291449E+01  0.35633199008E+02 -0.26444050773E+02  0.46142324842E+02  0.10000064567E+02 0.  0.
        -12    1    1    2    0    0  0.77524291449E+01 -0.35633199008E+02  0.26444050773E+02  0.45045675158E+02  0.00000000000E+00 0.  1.
         11    1    3    3    0    0 -0.74329884829E+01  0.19892522124E+02 -0.18924476817E+02  0.28444640572E+02  0.51100000000E-03 0. -1.
        -11    1    3    3    0    0  0.56126546656E+00  0.11012403060E+02 -0.39680854497E+01  0.11718948011E+02  0.51100000000E-03 0.  1.
        -12    1    3    3    0    0 -0.88070612855E+00  0.47282738239E+01 -0.35514885058E+01  0.59787362582E+01  0.00000000000E+00 0.  1.
</event>
<event>
 7    1  0.1683291E-008  0.4614232E+02  0.7816164E-02  0.1320468E+00
        -11   -1    0    0    0    0  0.00000000000E+00  0.00000000000E+00  0.45593999997E+02  0.45594000000E+02  0.51100000000E-03 0. -1.
         11   -1    0    0    0    0 -0.00000000000E+00 -0.00000000000E+00 -0.45593999997E+02  0.45594000000E+02  0.51100000000E-03 0.  1.
    9900012    2    1    2    0    0 -0.42301514837E+02 -0.12740197986E+02 -0.87967414929E+01  0.46142318042E+02  0.10000002558E+02 0.  0.
        -12    1    1    2    0    0  0.42301514837E+02  0.12740197986E+02  0.87967414929E+01  0.45045681958E+02  0.00000000000E+00 0.  1.
         11    1    3    3    0    0 -0.30427063913E+02 -0.12169017198E+02 -0.96001077403E+01  0.34147522118E+02  0.51100000000E-03 0. -1.
        -11    1    3    3    0    0 -0.11718350073E+02 -0.44329626762E+00  0.65627657433E+00  0.11745081490E+02  0.51100000000E-03 0.  1.
         12    1    3    3    0    0 -0.15610085113E+00 -0.12788452020E+00  0.14708967306E+00  0.24971443321E+00  0.00000000000E+00 0. -1.
</event>
<event>
 7    1  0.1683291E-008  0.4614232E+02  0.7816164E-02  0.1320468E+00
        -11   -1    0    0    0    0  0.00000000000E+00  0.00000000000E+00  0.45593999997E+02  0.45594000000E+02  0.51100000000E-03 0.  1.
         11   -1    0    0    0    0 -0.00000000000E+00 -0.00000000000E+00 -0.45593999997E+02  0.45594000000E+02  0.51100000000E-03 0. -1.
    9900012    2    1    2    0    0  0.41118481288E+02 -0.64286397974E+01 -0.17235322700E+02  0.46142320277E+02  0.10000022945E+02 0.  0.
        -12    1    1    2    0    0 -0.41118481288E+02  0.64286397974E+01  0.17235322700E+02  0.45045679723E+02  0.00000000000E+00 0.  1.
         11    1    3    3    0    0  0.52193901063E+01  0.39571263126E-01 -0.23834835141E+01  0.57379955463E+01  0.51100000000E-03 0. -1.
        -11    1    3    3    0    0  0.64702714392E+01  0.93118584406E+00 -0.57977185419E+01  0.87375660298E+01  0.51100000000E-03 0.  1.
        -12    1    3    3    0    0  0.29428819743E+02 -0.73993969046E+01 -0.90541206438E+01  0.31666758701E+02  0.00000000000E+00 0.  1.
</event>
<event>
 7    1  0.1683291E-008  0.4614232E+02  0.7816164E-02  0.1320468E+00
        -11   -1    0    0    0    0  0.00000000000E+00  0.00000000000E+00  0.45593999997E+02  0.45594000000E+02  0.51100000000E-03 0. -1.
         11   -1    0    0    0    0 -0.00000000000E+00 -0.00000000000E+00 -0.45593999997E+02  0.45594000000E+02  0.51100000000E-03 0.  1.
    9900012    2    1    2    0    0  0.43193913267E+02  0.12748016037E+02 -0.94200369221E+00  0.46142318441E+02  0.10000006200E+02 0.  0.
        -12    1    1    2    0    0 -0.43193913267E+02 -0.12748016037E+02  0.94200369221E+00  0.45045681559E+02  0.00000000000E+00 0.  1.
         11    1    3    3    0    0  0.10363827451E+02  0.23186102560E+01  0.13681777148E+01  0.10707790784E+02  0.51100000000E-03 0. -1.
        -11    1    3    3    0    0  0.75669872917E+01 -0.97332401294E+00 -0.88759546346E+00  0.76807865661E+01  0.51100000000E-03 0.  1.
        -12    1    3    3    0    0  0.25263098524E+02  0.11402729794E+02 -0.14225859435E+01  0.27753741091E+02  0.00000000000E+00 0.  1.
</event>
<event>
 7    1  0.1683291E-008  0.4614232E+02  0.7816164E-02  0.1320468E+00
        -11   -1    0    0    0    0  0.00000000000E+00  0.00000000000E+00  0.45593999997E+02  0.45594000000E+02  0.51100000000E-03 0. -1.
         11   -1    0    0    0    0 -0.00000000000E+00 -0.00000000000E+00 -0.45593999997E+02  0.45594000000E+02  0.51100000000E-03 0.  1.
    9900012    2    1    2    0    0  0.12857327374E+02 -0.43119828805E+02 -0.21172796904E+01  0.46142319001E+02  0.10000011306E+02 0.  0.
        -12    1    1    2    0    0 -0.12857327374E+02  0.43119828805E+02  0.21172796904E+01  0.45045680999E+02  0.00000000000E+00 0.  1.
         11    1    3    3    0    0 -0.79084453808E-01 -0.40213775256E+01  0.15517740030E+01  0.43111175317E+01  0.51100000000E-03 0. -1.
        -11    1    3    3    0    0  0.13373807936E+01 -0.10676578656E+02 -0.28132850030E+01  0.11121712636E+02  0.51100000000E-03 0.  1.
         12    1    3    3    0    0  0.11599031034E+02 -0.28421872623E+02 -0.85576869036E+00  0.30709488833E+02  0.00000000000E+00 0. -1.
</event>
<event>
 7    1  0.1683291E-008  0.4614232E+02  0.7816164E-02  0.1320468E+00
        -11   -1    0    0    0    0  0.00000000000E+00  0.00000000000E+00  0.45593999997E+02  0.45594000000E+02  0.51100000000E-03 0.  1.
         11   -1    0    0    0    0 -0.00000000000E+00 -0.00000000000E+00 -0.45593999997E+02  0.45594000000E+02  0.51100000000E-03 0. -1.
    9900012    2    1    2    0    0  0.42712430487E+02 -0.13933853370E+02 -0.32572340083E+01  0.46142316952E+02  0.99999926247E+01 0.  0.
        -12    1    1    2    0    0 -0.42712430487E+02  0.13933853370E+02  0.32572340083E+01  0.45045683048E+02  0.00000000000E+00 0.  1.
         11    1    3    3    0    0  0.11724832744E+02 -0.65198076443E+01 -0.28397419323E+01  0.13712903744E+02  0.51100000000E-03 0.  1.
        -11    1    3    3    0    0  0.13272565525E+02 -0.19423894587E+01  0.25455431946E+01  0.13653338890E+02  0.51100000000E-03 0. -1.
         12    1    3    3    0    0  0.17715032218E+02 -0.54716562671E+01 -0.29630352706E+01  0.18776074318E+02  0.00000000000E+00 0. -1.
</event>
<event>
 7    1  0.1683291E-008  0.4614232E+02  0.7816164E-02  0.1320468E+00
        -11   -1    0    0    0    0  0.00000000000E+00  0.00000000000E+00  0.45593999997E+02  0.45594000000E+02  0.51100000000E-03 0.  1.
         11   -1    0    0    0    0 -0.00000000000E+00 -0.00000000000E+00 -0.45593999997E+02  0.45594000000E+02  0.51100000000E-03 0. -1.
    9900012    2    1    2    0    0 -0.56211667451E+01  0.16891479406E+02 -0.41378665240E+02  0.46142317309E+02  0.99999958760E+01 0.  0.
        -12    1    1    2    0    0  0.56211667451E+01 -0.16891479406E+02  0.41378665240E+02  0.45045682691E+02  0.00000000000E+00 0.  1.
         11    1    3    3    0    0 -0.17495752610E+01  0.26050723609E+01 -0.73731180915E+01  0.80131321124E+01  0.51100000000E-03 0. -1.
        -11    1    3    3    0    0 -0.45465384692E+01  0.67584741321E+01 -0.96516270240E+01  0.12629405731E+02  0.51100000000E-03 0.  1.
        -12    1    3    3    0    0  0.67494698510E+00  0.75279329133E+01 -0.24353920124E+02  0.25499779465E+02  0.00000000000E+00 0.  1.
</event>
<event>
 7    1  0.3239384E-008  0.4614232E+02  0.7816164E-02  0.1320468E+00
        -11   -1    0    0    0    0  0.00000000000E+00  0.00000000000E+00  0.45593999997E+02  0.45594000000E+02  0.51100000000E-03 0. -1.
         11   -1    0    0    0    0 -0.00000000000E+00 -0.00000000000E+00 -0.45593999997E+02  0.45594000000E+02  0.51100000000E-03 0.  1.
    9900012    2    1    2    0    0 -0.97668951724E+01  0.28607112190E+02  0.33396920676E+02  0.46142318522E+02  0.10000006937E+02 0.  0.
        -12    1    1    2    0    0  0.97668951724E+01 -0.28607112190E+02 -0.33396920676E+02  0.45045681478E+02  0.00000000000E+00 0.  1.
         11    1    3    3    0    0 -0.93271982512E+01  0.27537888745E+02  0.32429718504E+02  0.43554776848E+02  0.51100000000E-03 0. -1.
        -11    1    3    3    0    0 -0.31941235852E+00 -0.61479408012E+00  0.43184638296E+00  0.81638690296E+00  0.51100000000E-03 0.  1.
         12    1    3    3    0    0 -0.12028456265E+00  0.16840175254E+01  0.53535578934E+00  0.17711547711E+01  0.00000000000E+00 0. -1.
</event>
<event>
 7    1  0.1683291E-008  0.4614232E+02  0.7816164E-02  0.1320468E+00
        -11   -1    0    0    0    0  0.00000000000E+00  0.00000000000E+00  0.45593999997E+02  0.45594000000E+02  0.51100000000E-03 0.  1.
         11   -1    0    0    0    0 -0.00000000000E+00 -0.00000000000E+00 -0.45593999997E+02  0.45594000000E+02  0.51100000000E-03 0. -1.
    9900012    2    1    2    0    0 -0.34679657923E+02  0.23654257496E+02 -0.16337407827E+02  0.46142318012E+02  0.10000002285E+02 0.  0.
        -12    1    1    2    0    0  0.34679657923E+02 -0.23654257496E+02  0.16337407827E+02  0.45045681988E+02  0.00000000000E+00 0.  1.
         11    1    3    3    0    0 -0.15588432977E+02  0.12927044527E+02 -0.52843335220E+01  0.20929211736E+02  0.51100000000E-03 0. -1.
        -11    1    3    3    0    0 -0.17175894134E+02  0.11364806987E+02 -0.10513022532E+02  0.23123447411E+02  0.51100000000E-03 0.  1.
        -12    1    3    3    0    0 -0.19153308121E+01 -0.63759401850E+00 -0.54005177266E+00  0.20896588644E+01  0.00000000000E+00 0.  1.
</event>
<event>
 7    1  0.1683291E-008  0.4614232E+02  0.7816164E-02  0.1320468E+00
        -11   -1    0    0    0    0  0.00000000000E+00  0.00000000000E+00  0.45593999997E+02  0.45594000000E+02  0.51100000000E-03 0.  1.
         11   -1    0    0    0    0 -0.00000000000E+00 -0.00000000000E+00 -0.45593999997E+02  0.45594000000E+02  0.51100000000E-03 0. -1.
    9900012    2    1    2    0    0  0.29401370275E+02  0.17303869122E+02 -0.29415110991E+02  0.46142320793E+02  0.10000027646E+02 0.  0.
        -12    1    1    2    0    0 -0.29401370275E+02 -0.17303869122E+02  0.29415110991E+02  0.45045679207E+02  0.00000000000E+00 0.  1.
         11    1    3    3    0    0  0.95307083879E+01  0.75149931877E+01 -0.78782935160E+01  0.14469866412E+02  0.51100000000E-03 0. -1.
        -11    1    3    3    0    0  0.65257258868E+01  0.16671704233E+00 -0.41487849275E+01  0.77346822532E+01  0.51100000000E-03 0.  1.
         12    1    3    3    0    0  0.13344936000E+02  0.96221588921E+01 -0.17388032547E+02  0.23937772128E+02  0.00000000000E+00 0. -1.
</event>
<event>
 7    1  0.1683291E-008  0.4614232E+02  0.7816164E-02  0.1320468E+00
        -11   -1    0    0    0    0  0.00000000000E+00  0.00000000000E+00  0.45593999997E+02  0.45594000000E+02  0.51100000000E-03 0.  1.
         11   -1    0    0    0    0 -0.00000000000E+00 -0.00000000000E+00 -0.45593999997E+02  0.45594000000E+02  0.51100000000E-03 0. -1.
    9900012    2    1    2    0    0 -0.50574700465E+01 -0.39201912079E+02 -0.21604295294E+02  0.46142317753E+02  0.99999999256E+01 0.  0.
        -12    1    1    2    0    0  0.50574700465E+01  0.39201912079E+02  0.21604295294E+02  0.45045682247E+02  0.00000000000E+00 0.  1.
         11    1    3    3    0    0  0.50669747671E+00 -0.13860138859E+02 -0.71843165486E+01  0.15619686170E+02  0.51100000000E-03 0.  1.
        -11    1    3    3    0    0 -0.45894847048E+00 -0.75943896806E+01 -0.78230364417E+01  0.10912620572E+02  0.51100000000E-03 0. -1.
        -12    1    3    3    0    0 -0.51052190527E+01 -0.17747383540E+02 -0.65969423039E+01  0.19610011011E+02  0.00000000000E+00 0.  1.
</event>
<event>
 7    1  0.1683291E-008  0.4614232E+02  0.7816164E-02  0.1320468E+00
        -11   -1    0    0    0    0  0.00000000000E+00  0.00000000000E+00  0.45593999997E+02  0.45594000000E+02  0.51100000000E-03 0.  1.
         11   -1    0    0    0    0 -0.00000000000E+00 -0.00000000000E+00 -0.45593999997E+02  0.45594000000E+02  0.51100000000E-03 0. -1.
    9900012    2    1    2    0    0  0.25697749476E+02  0.46054730809E+01 -0.36708701672E+02  0.46142317755E+02  0.99999999473E+01 0.  0.
        -12    1    1    2    0    0 -0.25697749476E+02 -0.46054730809E+01  0.36708701672E+02  0.45045682245E+02  0.00000000000E+00 0.  1.
         11    1    3    3    0    0  0.62926247885E+01 -0.54386414060E+00 -0.83287499560E+01  0.10452798239E+02  0.51100000000E-03 0. -1.
        -11    1    3    3    0    0  0.15761845380E+02  0.67103849224E+01 -0.25767630477E+02  0.30942459764E+02  0.51100000000E-03 0.  1.
        -12    1    3    3    0    0  0.36432793077E+01 -0.15610477009E+01 -0.26123212398E+01  0.47470597529E+01  0.00000000000E+00 0.  1.
</event>
<event>
 7    1  0.1683291E-008  0.4614232E+02  0.7816164E-02  0.1320468E+00
        -11   -1    0    0    0    0  0.00000000000E+00  0.00000000000E+00  0.45593999997E+02  0.45594000000E+02  0.51100000000E-03 0.  1.
         11   -1    0    0    0    0 -0.00000000000E+00 -0.00000000000E+00 -0.45593999997E+02  0.45594000000E+02  0.51100000000E-03 0. -1.
    9900012    2    1    2    0    0  0.40577787014E+02  0.12981155134E+02 -0.14630319372E+02  0.46142318381E+02  0.10000005652E+02 0.  0.
        -12    1    1    2    0    0 -0.40577787014E+02 -0.12981155134E+02  0.14630319372E+02  0.45045681619E+02  0.00000000000E+00 0.  1.
         11    1    3    3    0    0  0.28774027030E+02  0.11017764335E+02 -0.88078136825E+01  0.32045488678E+02  0.51100000000E-03 0. -1.
        -11    1    3    3    0    0  0.22974171467E+01 -0.84715010723E+00 -0.28291558327E+01  0.37416456055E+01  0.51100000000E-03 0.  1.
        -12    1    3    3    0    0  0.95063428379E+01  0.28105409060E+01 -0.29933498570E+01  0.10355184098E+02  0.00000000000E+00 0.  1.
</event>
<event>
 7    1  0.1683291E-008  0.4614232E+02  0.7816164E-02  0.1320468E+00
        -11   -1    0    0    0    0  0.00000000000E+00  0.00000000000E+00  0.45593999997E+02  0.45594000000E+02  0.51100000000E-03 0.  1.
         11   -1    0    0    0    0 -0.00000000000E+00 -0.00000000000E+00 -0.45593999997E+02  0.45594000000E+02  0.51100000000E-03 0. -1.
    9900012    2    1    2    0    0 -0.34307056818E+02 -0.12542862982E+02 -0.26359361533E+02  0.46142317635E+02  0.99999988510E+01 0.  0.
        -12    1    1    2    0    0  0.34307056818E+02  0.12542862982E+02  0.26359361533E+02  0.45045682365E+02  0.00000000000E+00 0.  1.
         11    1    3    3    0    0 -0.13159236688E+02 -0.19212043866E+01 -0.10790655087E+02  0.17125851044E+02  0.51100000000E-03 0. -1.
        -11    1    3    3    0    0 -0.10196980669E+02 -0.85872353615E+01 -0.90160651578E+01  0.16093739687E+02  0.51100000000E-03 0.  1.
        -12    1    3    3    0    0 -0.10950839461E+02 -0.20344232335E+01 -0.65526412880E+01  0.12922726904E+02  0.00000000000E+00 0.  1.
</event>
<event>
 7    1  0.1683291E-008  0.4614232E+02  0.7816164E-02  0.1320468E+00
        -11   -1    0    0    0    0  0.00000000000E+00  0.00000000000E+00  0.45593999997E+02  0.45594000000E+02  0.51100000000E-03 0.  1.
         11   -1    0    0    0    0 -0.00000000000E+00 -0.00000000000E+00 -0.45593999997E+02  0.45594000000E+02  0.51100000000E-03 0. -1.
    9900012    2    1    2    0    0  0.27084181488E+02  0.16643756225E+00 -0.35993511741E+02  0.46142317901E+02  0.10000001274E+02 0.  0.
        -12    1    1    2    0    0 -0.27084181488E+02 -0.16643756225E+00  0.35993511741E+02  0.45045682099E+02  0.00000000000E+00 0.  1.
         11    1    3    3    0    0  0.64392696695E+01  0.48960540027E+00 -0.49444978757E+01  0.81333859387E+01  0.51100000000E-03 0. -1.
        -11    1    3    3    0    0  0.18069343073E+02  0.27380115998E+00 -0.21426525576E+02  0.28029843465E+02  0.51100000000E-03 0.  1.
         12    1    3    3    0    0  0.25755687450E+01 -0.59696899800E+00 -0.96224882895E+01  0.99790884967E+01  0.00000000000E+00 0. -1.
</event>
<event>
 7    1  0.1683291E-008  0.4614232E+02  0.7816164E-02  0.1320468E+00
        -11   -1    0    0    0    0  0.00000000000E+00  0.00000000000E+00  0.45593999997E+02  0.45594000000E+02  0.51100000000E-03 0.  1.
         11   -1    0    0    0    0 -0.00000000000E+00 -0.00000000000E+00 -0.45593999997E+02  0.45594000000E+02  0.51100000000E-03 0. -1.
    9900012    2    1    2    0    0  0.24126330057E+02 -0.16239200982E+02 -0.34399448506E+02  0.46142317543E+02  0.99999980067E+01 0.  0.
        -12    1    1    2    0    0 -0.24126330057E+02  0.16239200982E+02  0.34399448506E+02  0.45045682457E+02  0.00000000000E+00 0.  1.
         11    1    3    3    0    0  0.11525657639E+02 -0.69766418081E+01 -0.11227932175E+02  0.17537980959E+02  0.51100000000E-03 0. -1.
        -11    1    3    3    0    0  0.21909477511E+01  0.62057350211E+00 -0.20311858856E+01  0.30514062140E+01  0.51100000000E-03 0.  1.
        -12    1    3    3    0    0  0.10409724667E+02 -0.98831326756E+01 -0.21140330446E+02  0.25552930369E+02  0.00000000000E+00 0.  1.
</event>
<event>
 7    1  0.1683291E-008  0.4614232E+02  0.7816164E-02  0.1320468E+00
        -11   -1    0    0    0    0  0.00000000000E+00  0.00000000000E+00  0.45593999997E+02  0.45594000000E+02  0.51100000000E-03 0.  1.
         11   -1    0    0    0    0 -0.00000000000E+00 -0.00000000000E+00 -0.45593999997E+02  0.45594000000E+02  0.51100000000E-03 0. -1.
    9900012    2    1    2    0    0 -0.25872589140E+02  0.62730009649E+01 -0.36336923867E+02  0.46142318231E+02  0.10000004287E+02 0.  0.
        -12    1    1    2    0    0  0.25872589140E+02 -0.62730009649E+01  0.36336923867E+02  0.45045681769E+02  0.00000000000E+00 0.  1.
         11    1    3    3    0    0 -0.34357040305E+01  0.20916458625E+01 -0.90117605425E+01  0.98686814183E+01  0.51100000000E-03 0. -1.
        -11    1    3    3    0    0 -0.16869391650E+02  0.31733886516E+01 -0.15343551599E+02  0.23023278353E+02  0.51100000000E-03 0.  1.
        -12    1    3    3    0    0 -0.55674934590E+01  0.10079664508E+01 -0.11981611725E+02  0.13250358460E+02  0.00000000000E+00 0.  1.
</event>
<event>
 7    1  0.1683291E-008  0.4614232E+02  0.7816164E-02  0.1320468E+00
        -11   -1    0    0    0    0  0.00000000000E+00  0.00000000000E+00  0.45593999997E+02  0.45594000000E+02  0.51100000000E-03 0. -1.
         11   -1    0    0    0    0 -0.00000000000E+00 -0.00000000000E+00 -0.45593999997E+02  0.45594000000E+02  0.51100000000E-03 0.  1.
    9900012    2    1    2    0    0  0.29400615460E+02 -0.32173056636E+02  0.11384722761E+02  0.46142315688E+02  0.99999810997E+01 0.  0.
        -12    1    1    2    0    0 -0.29400615460E+02  0.32173056636E+02 -0.11384722761E+02  0.45045684312E+02  0.00000000000E+00 0.  1.
         11    1    3    3    0    0  0.11567925415E+02 -0.78174621270E+01  0.33138492112E+01  0.14349606593E+02  0.51100000000E-03 0. -1.
        -11    1    3    3    0    0  0.12148391382E+02 -0.12891058173E+02  0.27128603757E+01  0.17919888550E+02  0.51100000000E-03 0.  1.
         12    1    3    3    0    0  0.56842986634E+01 -0.11464536337E+02  0.53580131745E+01  0.13872820546E+02  0.00000000000E+00 0. -1.
</event>
<event>
 7    1  0.1683291E-008  0.4614232E+02  0.7816164E-02  0.1320468E+00
        -11   -1    0    0    0    0  0.00000000000E+00  0.00000000000E+00  0.45593999997E+02  0.45594000000E+02  0.51100000000E-03 0.  1.
         11   -1    0    0    0    0 -0.00000000000E+00 -0.00000000000E+00 -0.45593999997E+02  0.45594000000E+02  0.51100000000E-03 0. -1.
    9900012    2    1    2    0    0 -0.27952772524E+01 -0.16746851159E+02 -0.41723409268E+02  0.46142317858E+02  0.10000000886E+02 0.  0.
        -12    1    1    2    0    0  0.27952772524E+01  0.16746851159E+02  0.41723409268E+02  0.45045682142E+02  0.00000000000E+00 0.  1.
         11    1    3    3    0    0 -0.53233835881E+01 -0.69633767990E+01 -0.19410728133E+02  0.21297966950E+02  0.51100000000E-03 0. -1.
        -11    1    3    3    0    0  0.31909977913E+01 -0.46978358043E+01 -0.13535524433E+02  0.14678642651E+02  0.51100000000E-03 0.  1.
        -12    1    3    3    0    0 -0.66289145562E+00 -0.50856385551E+01 -0.87771567020E+01  0.10165708257E+02  0.00000000000E+00 0.  1.
</event>
<event>
 7    1  0.1683291E-008  0.4614232E+02  0.7816164E-02  0.1320468E+00
        -11   -1    0    0    0    0  0.00000000000E+00  0.00000000000E+00  0.45593999997E+02  0.45594000000E+02  0.51100000000E-03 0.  1.
         11   -1    0    0    0    0 -0.00000000000E+00 -0.00000000000E+00 -0.45593999997E+02  0.45594000000E+02  0.51100000000E-03 0. -1.
    9900012    2    1    2    0    0 -0.19008599151E+02  0.80908675123E+01 -0.40029046177E+02  0.46142317447E+02  0.99999971372E+01 0.  0.
        -12    1    1    2    0    0  0.19008599151E+02 -0.80908675123E+01  0.40029046177E+02  0.45045682553E+02  0.00000000000E+00 0.  1.
         11    1    3    3    0    0 -0.13963706487E+02  0.67832518303E+01 -0.32568694013E+02  0.36079321421E+02  0.51100000000E-03 0. -1.
        -11    1    3    3    0    0 -0.86172931034E+00 -0.14002896211E+01 -0.10795426134E+01  0.19669267761E+01  0.51100000000E-03 0.  1.
        -12    1    3    3    0    0 -0.41831633530E+01  0.27079053031E+01 -0.63808095514E+01  0.80960692499E+01  0.00000000000E+00 0.  1.
</event>
<event>
 7    1  0.1683291E-008  0.4614232E+02  0.7816164E-02  0.1320468E+00
        -11   -1    0    0    0    0  0.00000000000E+00  0.00000000000E+00  0.45593999997E+02  0.45594000000E+02  0.51100000000E-03 0.  1.
         11   -1    0    0    0    0 -0.00000000000E+00 -0.00000000000E+00 -0.45593999997E+02  0.45594000000E+02  0.51100000000E-03 0. -1.
    9900012    2    1    2    0    0  0.14616674330E+02  0.26235585982E+01 -0.42527441436E+02  0.46142317596E+02  0.99999984909E+01 0.  0.
        -12    1    1    2    0    0 -0.14616674330E+02 -0.26235585982E+01  0.42527441436E+02  0.45045682404E+02  0.00000000000E+00 0.  1.
         11    1    3    3    0    0  0.91326854392E+01 -0.20217415388E+01 -0.19901688551E+02  0.21990238508E+02  0.51100000000E-03 0. -1.
        -11    1    3    3    0    0  0.55228359302E+01  0.51488705330E+01 -0.22317895291E+02  0.23560582229E+02  0.51100000000E-03 0.  1.
        -12    1    3    3    0    0 -0.38847039472E-01 -0.50357039593E+00 -0.30785759368E+00  0.59149685893E+00  0.00000000000E+00 0.  1.
</event>
<event>
 7    1  0.1683291E-008  0.4614232E+02  0.7816164E-02  0.1320468E+00
        -11   -1    0    0    0    0  0.00000000000E+00  0.00000000000E+00  0.45593999997E+02  0.45594000000E+02  0.51100000000E-03 0.  1.
         11   -1    0    0    0    0 -0.00000000000E+00 -0.00000000000E+00 -0.45593999997E+02  0.45594000000E+02  0.51100000000E-03 0. -1.
    9900012    2    1    2    0    0 -0.21878926797E+02  0.32038547604E+02 -0.22890118428E+02  0.46142317720E+02  0.99999996283E+01 0.  0.
        -12    1    1    2    0    0  0.21878926797E+02 -0.32038547604E+02  0.22890118428E+02  0.45045682280E+02  0.00000000000E+00 0.  1.
         11    1    3    3    0    0  0.87272355071E+00  0.98911328060E+00  0.60436361004E-02  0.13191013094E+01  0.51100000000E-03 0.  1.
        -11    1    3    3    0    0 -0.13778292106E+02  0.17342607025E+02 -0.13369501287E+02  0.25871817036E+02  0.51100000000E-03 0. -1.
        -12    1    3    3    0    0 -0.89733582416E+01  0.13706827298E+02 -0.95266607772E+01  0.18951399375E+02  0.00000000000E+00 0.  1.
</event>
<event>
 7    1  0.1683291E-008  0.4614232E+02  0.7816164E-02  0.1320468E+00
        -11   -1    0    0    0    0  0.00000000000E+00  0.00000000000E+00  0.45593999997E+02  0.45594000000E+02  0.51100000000E-03 0.  1.
         11   -1    0    0    0    0 -0.00000000000E+00 -0.00000000000E+00 -0.45593999997E+02  0.45594000000E+02  0.51100000000E-03 0. -1.
    9900012    2    1    2    0    0 -0.19609678188E+02 -0.26540948369E+02 -0.30661898959E+02  0.46142318001E+02  0.10000002184E+02 0.  0.
        -12    1    1    2    0    0  0.19609678188E+02  0.26540948369E+02  0.30661898959E+02  0.45045681999E+02  0.00000000000E+00 0.  1.
         11    1    3    3    0    0 -0.76938644930E+01 -0.13124197898E+02 -0.16155076945E+02  0.22190687972E+02  0.51100000000E-03 0. -1.
        -11    1    3    3    0    0 -0.11219515128E+01  0.14129713165E+00 -0.28496069348E+01  0.30657788604E+01  0.51100000000E-03 0.  1.
        -12    1    3    3    0    0 -0.10793862182E+02 -0.13558047603E+02 -0.11657215079E+02  0.20885851168E+02  0.00000000000E+00 0.  1.
</event>
<event>
 7    1  0.1683291E-008  0.4614232E+02  0.7816164E-02  0.1320468E+00
        -11   -1    0    0    0    0  0.00000000000E+00  0.00000000000E+00  0.45593999997E+02  0.45594000000E+02  0.51100000000E-03 0.  1.
         11   -1    0    0    0    0 -0.00000000000E+00 -0.00000000000E+00 -0.45593999997E+02  0.45594000000E+02  0.51100000000E-03 0. -1.
    9900012    2    1    2    0    0 -0.10763846703E+02 -0.15741104151E+02 -0.40810178922E+02  0.46142318083E+02  0.10000002935E+02 0.  0.
        -12    1    1    2    0    0  0.10763846703E+02  0.15741104151E+02  0.40810178922E+02  0.45045681917E+02  0.00000000000E+00 0.  1.
         11    1    3    3    0    0 -0.43106018152E+01 -0.49481967485E+01 -0.21419190195E+02  0.22401956341E+02  0.51100000000E-03 0. -1.
        -11    1    3    3    0    0 -0.35955711201E+01 -0.82208785238E+01 -0.92129801025E+01  0.12860403493E+02  0.51100000000E-03 0.  1.
        -12    1    3    3    0    0 -0.28576737674E+01 -0.25720288786E+01 -0.10178008625E+02  0.10879958248E+02  0.00000000000E+00 0.  1.
</event>
<event>
 7    1  0.1683291E-008  0.4614232E+02  0.7816164E-02  0.1320468E+00
        -11   -1    0    0    0    0  0.00000000000E+00  0.00000000000E+00  0.45593999997E+02  0.45594000000E+02  0.51100000000E-03 0. -1.
         11   -1    0    0    0    0 -0.00000000000E+00 -0.00000000000E+00 -0.45593999997E+02  0.45594000000E+02  0.51100000000E-03 0.  1.
    9900012    2    1    2    0    0 -0.17650036434E+02 -0.10603655299E+02  0.40064350840E+02  0.46142317631E+02  0.99999988181E+01 0.  0.
        -12    1    1    2    0    0  0.17650036434E+02  0.10603655299E+02 -0.40064350840E+02  0.45045682369E+02  0.00000000000E+00 0.  1.
         11    1    3    3    0    0 -0.10138202232E+02 -0.25237006137E+01  0.20113661817E+02  0.22665206843E+02  0.51100000000E-03 0. -1.
        -11    1    3    3    0    0 -0.62386001161E+01 -0.83689960273E+01  0.14464223133E+02  0.17837431906E+02  0.51100000000E-03 0.  1.
        -12    1    3    3    0    0 -0.12732340864E+01  0.28904134154E+00  0.54864658897E+01  0.56396788823E+01  0.00000000000E+00 0.  1.
</event>
<event>
 7    1  0.1683291E-008  0.4614232E+02  0.7816164E-02  0.1320468E+00
        -11   -1    0    0    0    0  0.00000000000E+00  0.00000000000E+00  0.45593999997E+02  0.45594000000E+02  0.51100000000E-03 0. -1.
         11   -1    0    0    0    0 -0.00000000000E+00 -0.00000000000E+00 -0.45593999997E+02  0.45594000000E+02  0.51100000000E-03 0.  1.
    9900012    2    1    2    0    0  0.33795895401E+02 -0.17634861501E+02  0.23999217499E+02  0.46142319556E+02  0.10000016367E+02 0.  0.
        -12    1    1    2    0    0 -0.33795895401E+02  0.17634861501E+02 -0.23999217499E+02  0.45045680444E+02  0.00000000000E+00 0.  1.
         11    1    3    3    0    0  0.84951043381E+01 -0.81000330098E+01  0.43472716667E+01  0.12517032543E+02  0.51100000000E-03 0. -1.
        -11    1    3    3    0    0  0.90446034041E+01 -0.16204891929E+01  0.71665049069E+01  0.11652880708E+02  0.51100000000E-03 0.  1.
         12    1    3    3    0    0  0.16256187658E+02 -0.79143392985E+01  0.12485440925E+02  0.21972406305E+02  0.00000000000E+00 0. -1.
</event>
<event>
 7    1  0.1683291E-008  0.4614232E+02  0.7816164E-02  0.1320468E+00
        -11   -1    0    0    0    0  0.00000000000E+00  0.00000000000E+00  0.45593999997E+02  0.45594000000E+02  0.51100000000E-03 0.  1.
         11   -1    0    0    0    0 -0.00000000000E+00 -0.00000000000E+00 -0.45593999997E+02  0.45594000000E+02  0.51100000000E-03 0. -1.
    9900012    2    1    2    0    0 -0.30387918897E+02 -0.24633557068E+02 -0.22335524363E+02  0.46142318772E+02  0.10000009220E+02 0.  0.
        -12    1    1    2    0    0  0.30387918897E+02  0.24633557068E+02  0.22335524363E+02  0.45045681228E+02  0.00000000000E+00 0.  1.
         11    1    3    3    0    0 -0.16654909638E+02 -0.86340618455E+01 -0.91015475236E+01  0.20851167991E+02  0.51100000000E-03 0.  1.
        -11    1    3    3    0    0 -0.31954823470E+01 -0.58436380757E+01 -0.60072638508E+01  0.89691935326E+01  0.51100000000E-03 0. -1.
        -12    1    3    3    0    0 -0.10537526911E+02 -0.10155857147E+02 -0.72267129883E+01  0.16321957248E+02  0.00000000000E+00 0.  1.
</event>
<event>
 7    1  0.1683291E-008  0.4614232E+02  0.7816164E-02  0.1320468E+00
        -11   -1    0    0    0    0  0.00000000000E+00  0.00000000000E+00  0.45593999997E+02  0.45594000000E+02  0.51100000000E-03 0.  1.
         11   -1    0    0    0    0 -0.00000000000E+00 -0.00000000000E+00 -0.45593999997E+02  0.45594000000E+02  0.51100000000E-03 0. -1.
    9900012    2    1    2    0    0  0.39251580415E+01  0.12273781979E+02 -0.43163188709E+02  0.46142318195E+02  0.10000003958E+02 0.  0.
        -12    1    1    2    0    0 -0.39251580415E+01 -0.12273781979E+02  0.43163188709E+02  0.45045681805E+02  0.00000000000E+00 0.  1.
         11    1    3    3    0    0  0.71197327619E+00  0.34799738551E+01 -0.27051577390E+02  0.27283785726E+02  0.51100000000E-03 0. -1.
        -11    1    3    3    0    0  0.26615262778E+01  0.88376108459E+01 -0.15439417122E+02  0.17987848368E+02  0.51100000000E-03 0.  1.
        -12    1    3    3    0    0  0.55165848756E+00 -0.43802721856E-01 -0.67219419710E+00  0.87068410112E+00  0.00000000000E+00 0.  1.
</event>
<event>
 7    1  0.1683291E-008  0.4614232E+02  0.7816164E-02  0.1320468E+00
        -11   -1    0    0    0    0  0.00000000000E+00  0.00000000000E+00  0.45593999997E+02  0.45594000000E+02  0.51100000000E-03 0.  1.
         11   -1    0    0    0    0 -0.00000000000E+00 -0.00000000000E+00 -0.45593999997E+02  0.45594000000E+02  0.51100000000E-03 0. -1.
    9900012    2    1    2    0    0  0.14822462816E+02 -0.37637720922E+02 -0.19819433673E+02  0.46142318839E+02  0.10000009831E+02 0.  0.
        -12    1    1    2    0    0 -0.14822462816E+02  0.37637720922E+02  0.19819433673E+02  0.45045681161E+02  0.00000000000E+00 0.  1.
         11    1    3    3    0    0  0.32635033196E+01 -0.78030736229E+01 -0.84296869879E+01  0.11941441909E+02  0.51100000000E-03 0. -1.
        -11    1    3    3    0    0  0.84034918890E+01 -0.22196120690E+02 -0.65394135850E+01  0.24618090501E+02  0.51100000000E-03 0.  1.
         12    1    3    3    0    0  0.31554676072E+01 -0.76385266087E+01 -0.48503331005E+01  0.95827864297E+01  0.00000000000E+00 0. -1.
</event>
<event>
 7    1  0.1683291E-008  0.4614232E+02  0.7816164E-02  0.1320468E+00
        -11   -1    0    0    0    0  0.00000000000E+00  0.00000000000E+00  0.45593999997E+02  0.45594000000E+02  0.51100000000E-03 0.  1.
         11   -1    0    0    0    0 -0.00000000000E+00 -0.00000000000E+00 -0.45593999997E+02  0.45594000000E+02  0.51100000000E-03 0. -1.
    9900012    2    1    2    0    0  0.95634886486E+00 -0.48424743337E+01 -0.44774428172E+02  0.46142316756E+02  0.99999908352E+01 0.  0.
        -12    1    1    2    0    0 -0.95634886486E+00  0.48424743337E+01  0.44774428172E+02  0.45045683244E+02  0.00000000000E+00 0.  1.
         11    1    3    3    0    0  0.15747909249E+01 -0.37134977095E+01 -0.96528109920E+01  0.10461682083E+02  0.51100000000E-03 0. -1.
        -11    1    3    3    0    0 -0.28472526014E+01  0.83454283669E+00 -0.11653269394E+02  0.12025057046E+02  0.51100000000E-03 0.  1.
         12    1    3    3    0    0  0.22288105413E+01 -0.19635194609E+01 -0.23468347786E+02  0.23655577628E+02  0.00000000000E+00 0. -1.
</event>
<event>
 7    1  0.1683291E-008  0.4614232E+02  0.7816164E-02  0.1320468E+00
        -11   -1    0    0    0    0  0.00000000000E+00  0.00000000000E+00  0.45593999997E+02  0.45594000000E+02  0.51100000000E-03 0.  1.
         11   -1    0    0    0    0 -0.00000000000E+00 -0.00000000000E+00 -0.45593999997E+02  0.45594000000E+02  0.51100000000E-03 0. -1.
    9900012    2    1    2    0    0  0.55909968462E+01  0.14165025747E+02 -0.42393469706E+02  0.46142317922E+02  0.10000001466E+02 0.  0.
        -12    1    1    2    0    0 -0.55909968462E+01 -0.14165025747E+02  0.42393469706E+02  0.45045682078E+02  0.00000000000E+00 0.  1.
         11    1    3    3    0    0  0.18500714527E+01 -0.95577556465E+00 -0.92376412917E+01  0.94694396986E+01  0.51100000000E-03 0. -1.
        -11    1    3    3    0    0  0.18042255992E+01  0.63955791755E+01 -0.16092391834E+02  0.17410449110E+02  0.51100000000E-03 0.  1.
         12    1    3    3    0    0  0.19366997943E+01  0.87252221360E+01 -0.17063436580E+02  0.19262429113E+02  0.00000000000E+00 0. -1.
</event>
<event>
 7    1  0.1911829E-008  0.4614232E+02  0.7816164E-02  0.1320468E+00
        -11   -1    0    0    0    0  0.00000000000E+00  0.00000000000E+00  0.45593999997E+02  0.45594000000E+02  0.51100000000E-03 0. -1.
         11   -1    0    0    0    0 -0.00000000000E+00 -0.00000000000E+00 -0.45593999997E+02  0.45594000000E+02  0.51100000000E-03 0.  1.
    9900012    2    1    2    0    0  0.19286101251E+02  0.36830133328E+02  0.17340720299E+02  0.46142323150E+02  0.10000049137E+02 0.  0.
        -12    1    1    2    0    0 -0.19286101251E+02 -0.36830133328E+02 -0.17340720299E+02  0.45045676850E+02  0.00000000000E+00 0.  1.
         11    1    3    3    0    0  0.12649332410E+02  0.28482585783E+02  0.11838095406E+02  0.33337723474E+02  0.51100000000E-03 0. -1.
        -11    1    3    3    0    0 -0.12306352726E+00 -0.44926610576E+00  0.26988610839E+00  0.53835252219E+00  0.51100000000E-03 0.  1.
         12    1    3    3    0    0  0.67598323676E+01  0.87968136503E+01  0.52327387853E+01  0.12266247154E+02  0.00000000000E+00 0. -1.
</event>
<event>
 7    1  0.1683291E-008  0.4614232E+02  0.7816164E-02  0.1320468E+00
        -11   -1    0    0    0    0  0.00000000000E+00  0.00000000000E+00  0.45593999997E+02  0.45594000000E+02  0.51100000000E-03 0.  1.
         11   -1    0    0    0    0 -0.00000000000E+00 -0.00000000000E+00 -0.45593999997E+02  0.45594000000E+02  0.51100000000E-03 0. -1.
    9900012    2    1    2    0    0  0.17499940786E+02 -0.35413590670E+02 -0.21650479962E+02  0.46142316364E+02  0.99999872614E+01 0.  0.
        -12    1    1    2    0    0 -0.17499940786E+02  0.35413590670E+02  0.21650479962E+02  0.45045683636E+02  0.00000000000E+00 0.  1.
         11    1    3    3    0    0  0.27361452809E+01 -0.85703331540E+01 -0.15472092574E+01  0.91285791948E+01  0.51100000000E-03 0. -1.
        -11    1    3    3    0    0  0.10093211694E+02 -0.12964470137E+02 -0.10952847191E+02  0.19746272308E+02  0.51100000000E-03 0.  1.
         12    1    3    3    0    0  0.46705838113E+01 -0.13878787379E+02 -0.91504235133E+01  0.17267464861E+02  0.00000000000E+00 0. -1.
</event>
<event>
 7    1  0.1683291E-008  0.4614232E+02  0.7816164E-02  0.1320468E+00
        -11   -1    0    0    0    0  0.00000000000E+00  0.00000000000E+00  0.45593999997E+02  0.45594000000E+02  0.51100000000E-03 0.  1.
         11   -1    0    0    0    0 -0.00000000000E+00 -0.00000000000E+00 -0.45593999997E+02  0.45594000000E+02  0.51100000000E-03 0. -1.
    9900012    2    1    2    0    0  0.29708852479E+01  0.33967045151E+02 -0.29436834395E+02  0.46142317247E+02  0.99999953161E+01 0.  0.
        -12    1    1    2    0    0 -0.29708852479E+01 -0.33967045151E+02  0.29436834395E+02  0.45045682753E+02  0.00000000000E+00 0.  1.
         11    1    3    3    0    0  0.13595247175E+01  0.79614769740E+01 -0.12742740436E+02  0.15086777560E+02  0.51100000000E-03 0. -1.
        -11    1    3    3    0    0  0.13271756144E+01  0.18788745180E+02 -0.13409809568E+02  0.23121447478E+02  0.51100000000E-03 0.  1.
         12    1    3    3    0    0  0.28418491609E+00  0.72168229963E+01 -0.32842843912E+01  0.79340922095E+01  0.00000000000E+00 0. -1.
</event>
<event>
 7    1  0.1683291E-008  0.4614232E+02  0.7816164E-02  0.1320468E+00
        -11   -1    0    0    0    0  0.00000000000E+00  0.00000000000E+00  0.45593999997E+02  0.45594000000E+02  0.51100000000E-03 0.  1.
         11   -1    0    0    0    0 -0.00000000000E+00 -0.00000000000E+00 -0.45593999997E+02  0.45594000000E+02  0.51100000000E-03 0. -1.
    9900012    2    1    2    0    0  0.12625731593E+02  0.18050093674E+02 -0.39292474958E+02  0.46142316874E+02  0.99999919137E+01 0.  0.
        -12    1    1    2    0    0 -0.12625731593E+02 -0.18050093674E+02  0.39292474958E+02  0.45045683126E+02  0.00000000000E+00 0.  1.
         11    1    3    3    0    0  0.17540065930E+01  0.28856147772E+01 -0.22942432833E+01  0.40825071065E+01  0.51100000000E-03 0. -1.
        -11    1    3    3    0    0 -0.98936152870E+00  0.22105356470E+01 -0.50956229578E+01  0.56418682783E+01  0.51100000000E-03 0.  1.
        -12    1    3    3    0    0  0.11861086529E+02  0.12953943250E+02 -0.31902608717E+02  0.36417941490E+02  0.00000000000E+00 0.  1.
</event>
<event>
 7    1  0.1683291E-008  0.4614232E+02  0.7816164E-02  0.1320468E+00
        -11   -1    0    0    0    0  0.00000000000E+00  0.00000000000E+00  0.45593999997E+02  0.45594000000E+02  0.51100000000E-03 0.  1.
         11   -1    0    0    0    0 -0.00000000000E+00 -0.00000000000E+00 -0.45593999997E+02  0.45594000000E+02  0.51100000000E-03 0. -1.
    9900012    2    1    2    0    0 -0.33743349974E+02 -0.10207659434E+02 -0.28041103459E+02  0.46142318056E+02  0.10000002690E+02 0.  0.
        -12    1    1    2    0    0  0.33743349974E+02  0.10207659434E+02  0.28041103459E+02  0.45045681944E+02  0.00000000000E+00 0.  1.
         11    1    3    3    0    0 -0.90320425953E+01 -0.53894180246E+01 -0.57619622199E+01  0.11992657294E+02  0.51100000000E-03 0. -1.
        -11    1    3    3    0    0  0.25582936123E+00  0.20025326739E+00 -0.18487846973E-01  0.32541065559E+00  0.51100000000E-03 0.  1.
        -12    1    3    3    0    0 -0.24967136740E+02 -0.50184946763E+01 -0.22260653392E+02  0.33824250106E+02  0.00000000000E+00 0.  1.
</event>
<event>
 7    1  0.1683291E-008  0.4614232E+02  0.7816164E-02  0.1320468E+00
        -11   -1    0    0    0    0  0.00000000000E+00  0.00000000000E+00  0.45593999997E+02  0.45594000000E+02  0.51100000000E-03 0. -1.
         11   -1    0    0    0    0 -0.00000000000E+00 -0.00000000000E+00 -0.45593999997E+02  0.45594000000E+02  0.51100000000E-03 0.  1.
    9900012    2    1    2    0    0 -0.24634872979E+02 -0.35088257042E+02  0.13822109394E+02  0.46142318110E+02  0.10000003177E+02 0.  0.
        -12    1    1    2    0    0  0.24634872979E+02  0.35088257042E+02 -0.13822109394E+02  0.45045681890E+02  0.00000000000E+00 0.  1.
         11    1    3    3    0    0 -0.93525550640E+01 -0.10709901887E+02  0.58465900935E+01  0.15373838188E+02  0.51100000000E-03 0. -1.
        -11    1    3    3    0    0 -0.58249350390E+01 -0.47818429310E+01 -0.16017373258E+00  0.75380067598E+01  0.51100000000E-03 0.  1.
         12    1    3    3    0    0 -0.94573828756E+01 -0.19596512224E+02  0.81356930326E+01  0.23230473162E+02  0.00000000000E+00 0. -1.
</event>
<event>
 7    1  0.1683291E-008  0.4614232E+02  0.7816164E-02  0.1320468E+00
        -11   -1    0    0    0    0  0.00000000000E+00  0.00000000000E+00  0.45593999997E+02  0.45594000000E+02  0.51100000000E-03 0.  1.
         11   -1    0    0    0    0 -0.00000000000E+00 -0.00000000000E+00 -0.45593999997E+02  0.45594000000E+02  0.51100000000E-03 0. -1.
    9900012    2    1    2    0    0  0.31186022966E+02 -0.13270339954E+01 -0.32477442605E+02  0.46142319566E+02  0.10000016458E+02 0.  0.
        -12    1    1    2    0    0 -0.31186022966E+02  0.13270339954E+01  0.32477442605E+02  0.45045680434E+02  0.00000000000E+00 0.  1.
         11    1    3    3    0    0  0.38991616167E+01  0.98409771034E+00 -0.10830809074E+01  0.41647297787E+01  0.51100000000E-03 0. -1.
        -11    1    3    3    0    0  0.99341558381E+01  0.13130434501E+01 -0.13230893207E+02  0.16597230812E+02  0.51100000000E-03 0.  1.
         12    1    3    3    0    0  0.17352705511E+02 -0.36241751558E+01 -0.18163468490E+02  0.25380358975E+02  0.00000000000E+00 0. -1.
</event>
<event>
 7    1  0.1683291E-008  0.4614231E+02  0.7816164E-02  0.1320468E+00
        -11   -1    0    0    0    0  0.00000000000E+00  0.00000000000E+00  0.45593999997E+02  0.45594000000E+02  0.51100000000E-03 0. -1.
         11   -1    0    0    0    0 -0.00000000000E+00 -0.00000000000E+00 -0.45593999997E+02  0.45594000000E+02  0.51100000000E-03 0.  1.
    9900012    2    1    2    0    0  0.42156834567E+02 -0.12037190073E+02  0.10345139044E+02  0.46142306006E+02  0.99998928080E+01 0.  0.
        -12    1    1    2    0    0 -0.42156834567E+02  0.12037190073E+02 -0.10345139044E+02  0.45045693994E+02  0.00000000000E+00 0.  1.
         11    1    3    3    0    0  0.48114470064E+01 -0.20414866341E+01  0.37556630547E+01  0.64360465516E+01  0.51100000000E-03 0. -1.
        -11    1    3    3    0    0  0.65881512322E+01 -0.35618981647E+01  0.30423860022E+01  0.80837471535E+01  0.51100000000E-03 0.  1.
         12    1    3    3    0    0  0.30757236328E+02 -0.64338052742E+01  0.35470899875E+01  0.31622512301E+02  0.00000000000E+00 0. -1.
</event>
<event>
 7    1  0.1683291E-008  0.4614232E+02  0.7816164E-02  0.1320468E+00
        -11   -1    0    0    0    0  0.00000000000E+00  0.00000000000E+00  0.45593999997E+02  0.45594000000E+02  0.51100000000E-03 0.  1.
         11   -1    0    0    0    0 -0.00000000000E+00 -0.00000000000E+00 -0.45593999997E+02  0.45594000000E+02  0.51100000000E-03 0. -1.
    9900012    2    1    2    0    0  0.31319035594E+02 -0.96095677975E+01 -0.30917432754E+02  0.46142318388E+02  0.10000005714E+02 0.  0.
        -12    1    1    2    0    0 -0.31319035594E+02  0.96095677975E+01  0.30917432754E+02  0.45045681612E+02  0.00000000000E+00 0.  1.
         11    1    3    3    0    0  0.92146234716E+01 -0.51398330305E+00 -0.72874811469E+01  0.11759287661E+02  0.51100000000E-03 0. -1.
        -11    1    3    3    0    0  0.10893025188E+02 -0.75654206061E+01 -0.15770933233E+02  0.20606210763E+02  0.51100000000E-03 0.  1.
        -12    1    3    3    0    0  0.11211386935E+02 -0.15301638884E+01 -0.78590183740E+01  0.13776819965E+02  0.00000000000E+00 0.  1.
</event>
<event>
 7    1  0.1683291E-008  0.4614232E+02  0.7816164E-02  0.1320468E+00
        -11   -1    0    0    0    0  0.00000000000E+00  0.00000000000E+00  0.45593999997E+02  0.45594000000E+02  0.51100000000E-03 0.  1.
         11   -1    0    0    0    0 -0.00000000000E+00 -0.00000000000E+00 -0.45593999997E+02  0.45594000000E+02  0.51100000000E-03 0. -1.
    9900012    2    1    2    0    0  0.35664075964E+02  0.25522564658E+02 -0.10285227252E+02  0.46142317402E+02  0.99999967265E+01 0.  0.
        -12    1    1    2    0    0 -0.35664075964E+02 -0.25522564658E+02  0.10285227252E+02  0.45045682598E+02  0.00000000000E+00 0.  1.
         11    1    3    3    0    0  0.90302718522E+01  0.49307512398E+01 -0.46484986081E+01  0.11290113245E+02  0.51100000000E-03 0.  1.
        -11    1    3    3    0    0  0.12679527267E+02  0.13977566836E+02 -0.19231360170E+01  0.18969481774E+02  0.51100000000E-03 0. -1.
         12    1    3    3    0    0  0.13954276844E+02  0.66142465826E+01 -0.37135926267E+01  0.15882722383E+02  0.00000000000E+00 0. -1.
</event>
<event>
 7    1  0.1683291E-008  0.4614232E+02  0.7816164E-02  0.1320468E+00
        -11   -1    0    0    0    0  0.00000000000E+00  0.00000000000E+00  0.45593999997E+02  0.45594000000E+02  0.51100000000E-03 0.  1.
         11   -1    0    0    0    0 -0.00000000000E+00 -0.00000000000E+00 -0.45593999997E+02  0.45594000000E+02  0.51100000000E-03 0. -1.
    9900012    2    1    2    0    0 -0.27075719106E+02 -0.27284372945E+02 -0.23485781783E+02  0.46142317431E+02  0.99999969920E+01 0.  0.
        -12    1    1    2    0    0  0.27075719106E+02  0.27284372945E+02  0.23485781783E+02  0.45045682569E+02  0.00000000000E+00 0.  1.
         11    1    3    3    0    0 -0.17800405105E+02 -0.20900009763E+02 -0.14101236371E+02  0.30862755830E+02  0.51100000000E-03 0. -1.
        -11    1    3    3    0    0 -0.16742348646E+01 -0.33074679019E+01 -0.40830018499E+01  0.55148264408E+01  0.51100000000E-03 0.  1.
         12    1    3    3    0    0 -0.76010791368E+01 -0.30768952802E+01 -0.53015435617E+01  0.97647351600E+01  0.00000000000E+00 0. -1.
</event>
<event>
 7    1  0.1683291E-008  0.4614232E+02  0.7816164E-02  0.1320468E+00
        -11   -1    0    0    0    0  0.00000000000E+00  0.00000000000E+00  0.45593999997E+02  0.45594000000E+02  0.51100000000E-03 0.  1.
         11   -1    0    0    0    0 -0.00000000000E+00 -0.00000000000E+00 -0.45593999997E+02  0.45594000000E+02  0.51100000000E-03 0. -1.
    9900012    2    1    2    0    0  0.35227197095E+01 -0.41759542684E+02 -0.16517990578E+02  0.46142323493E+02  0.10000052264E+02 0.  0.
        -12    1    1    2    0    0 -0.35227197095E+01  0.41759542684E+02  0.16517990578E+02  0.45045676507E+02  0.00000000000E+00 0.  1.
         11    1    3    3    0    0 -0.91965162008E+00 -0.26435386272E+02 -0.14159942693E+02  0.30002989581E+02  0.51100000000E-03 0. -1.
        -11    1    3    3    0    0  0.19940714876E+01 -0.79222778218E+01 -0.11439873617E+01  0.82490917274E+01  0.51100000000E-03 0.  1.
         12    1    3    3    0    0  0.24482998419E+01 -0.74018785894E+01 -0.12140605229E+01  0.78902421840E+01  0.00000000000E+00 0. -1.
</event>
<event>
 7    1  0.1683291E-008  0.4614232E+02  0.7816164E-02  0.1320468E+00
        -11   -1    0    0    0    0  0.00000000000E+00  0.00000000000E+00  0.45593999997E+02  0.45594000000E+02  0.51100000000E-03 0.  1.
         11   -1    0    0    0    0 -0.00000000000E+00 -0.00000000000E+00 -0.45593999997E+02  0.45594000000E+02  0.51100000000E-03 0. -1.
    9900012    2    1    2    0    0 -0.41342991164E+02 -0.17327391989E+02 -0.44307992370E+01  0.46142318593E+02  0.10000007584E+02 0.  0.
        -12    1    1    2    0    0  0.41342991164E+02  0.17327391989E+02  0.44307992370E+01  0.45045681407E+02  0.00000000000E+00 0.  1.
         11    1    3    3    0    0 -0.85035766412E+01 -0.23417107118E+01 -0.34540088904E+01  0.94723071333E+01  0.51100000000E-03 0. -1.
        -11    1    3    3    0    0 -0.81120230123E-01  0.43168218092E+00  0.94046779196E-01  0.44919378319E+00  0.51100000000E-03 0.  1.
         12    1    3    3    0    0 -0.32758294293E+02 -0.15417363459E+02 -0.10708371258E+01  0.36220817676E+02  0.00000000000E+00 0. -1.
</event>
<event>
 7    1  0.1683291E-008  0.4614232E+02  0.7816164E-02  0.1320468E+00
        -11   -1    0    0    0    0  0.00000000000E+00  0.00000000000E+00  0.45593999997E+02  0.45594000000E+02  0.51100000000E-03 0.  1.
         11   -1    0    0    0    0 -0.00000000000E+00 -0.00000000000E+00 -0.45593999997E+02  0.45594000000E+02  0.51100000000E-03 0. -1.
    9900012    2    1    2    0    0 -0.13864116816E+02 -0.42110440091E+02 -0.79756219063E+01  0.46142318247E+02  0.10000004433E+02 0.  0.
        -12    1    1    2    0    0  0.13864116816E+02  0.42110440091E+02  0.79756219063E+01  0.45045681753E+02  0.00000000000E+00 0.  1.
         11    1    3    3    0    0 -0.10740244458E+02 -0.38366830239E+02 -0.89386071498E+01  0.40832159037E+02  0.51100000000E-03 0. -1.
        -11    1    3    3    0    0 -0.22382779185E+01 -0.27012008019E+01  0.15329443029E+01  0.38283537336E+01  0.51100000000E-03 0.  1.
         12    1    3    3    0    0 -0.88559443988E+00 -0.10424090506E+01 -0.56995905938E+00  0.14818054765E+01  0.00000000000E+00 0. -1.
</event>
<event>
 7    1  0.1683291E-008  0.4614232E+02  0.7816164E-02  0.1320468E+00
        -11   -1    0    0    0    0  0.00000000000E+00  0.00000000000E+00  0.45593999997E+02  0.45594000000E+02  0.51100000000E-03 0.  1.
         11   -1    0    0    0    0 -0.00000000000E+00 -0.00000000000E+00 -0.45593999997E+02  0.45594000000E+02  0.51100000000E-03 0. -1.
    9900012    2    1    2    0    0 -0.23128409844E+02  0.76127017932E+01 -0.37897718239E+02  0.46142316319E+02  0.99999868515E+01 0.  0.
        -12    1    1    2    0    0  0.23128409844E+02 -0.76127017932E+01  0.37897718239E+02  0.45045683681E+02  0.00000000000E+00 0.  1.
         11    1    3    3    0    0 -0.11035876085E+02  0.30573843509E+01 -0.10723331990E+02  0.15688467397E+02  0.51100000000E-03 0. -1.
        -11    1    3    3    0    0 -0.32577115688E+01  0.19565674685E+01 -0.13053628826E+02  0.13595516419E+02  0.51100000000E-03 0.  1.
         12    1    3    3    0    0 -0.88348221903E+01  0.25987499739E+01 -0.14120757424E+02  0.16858332503E+02  0.00000000000E+00 0. -1.
</event>
<event>
 7    1  0.1683291E-008  0.4614232E+02  0.7816164E-02  0.1320468E+00
        -11   -1    0    0    0    0  0.00000000000E+00  0.00000000000E+00  0.45593999997E+02  0.45594000000E+02  0.51100000000E-03 0. -1.
         11   -1    0    0    0    0 -0.00000000000E+00 -0.00000000000E+00 -0.45593999997E+02  0.45594000000E+02  0.51100000000E-03 0.  1.
    9900012    2    1    2    0    0  0.38022323781E+02  0.14049575752E+02 -0.19647537855E+02  0.46142318428E+02  0.10000006085E+02 0.  0.
        -12    1    1    2    0    0 -0.38022323781E+02 -0.14049575752E+02  0.19647537855E+02  0.45045681572E+02  0.00000000000E+00 0.  1.
         11    1    3    3    0    0  0.12072194399E+02  0.50578102039E+01 -0.81628815936E+01  0.15425691486E+02  0.51100000000E-03 0. -1.
        -11    1    3    3    0    0  0.57283124594E+01  0.83792940675E+00  0.54423195302E+00  0.58147981911E+01  0.51100000000E-03 0.  1.
        -12    1    3    3    0    0  0.20221816923E+02  0.81538361415E+01 -0.12028888214E+02  0.24901828751E+02  0.00000000000E+00 0.  1.
</event>
<event>
 7    1  0.1683291E-008  0.4614232E+02  0.7816164E-02  0.1320468E+00
        -11   -1    0    0    0    0  0.00000000000E+00  0.00000000000E+00  0.45593999997E+02  0.45594000000E+02  0.51100000000E-03 0.  1.
         11   -1    0    0    0    0 -0.00000000000E+00 -0.00000000000E+00 -0.45593999997E+02  0.45594000000E+02  0.51100000000E-03 0. -1.
    9900012    2    1    2    0    0 -0.39241307333E+02 -0.21189060422E+02 -0.63448421095E+01  0.46142317585E+02  0.99999983980E+01 0.  0.
        -12    1    1    2    0    0  0.39241307333E+02  0.21189060422E+02  0.63448421095E+01  0.45045682415E+02  0.00000000000E+00 0.  1.
         11    1    3    3    0    0 -0.51970945639E+01 -0.34574121319E+01  0.38075024535E+00  0.62536758444E+01  0.51100000000E-03 0. -1.
        -11    1    3    3    0    0 -0.32752997663E+02 -0.18536315990E+02 -0.71532403317E+01  0.38308259082E+02  0.51100000000E-03 0.  1.
        -12    1    3    3    0    0 -0.12912151065E+01  0.80466769937E+00  0.42764797684E+00  0.15803826593E+01  0.00000000000E+00 0.  1.
</event>
<event>
 7    1  0.1683291E-008  0.4614232E+02  0.7816164E-02  0.1320468E+00
        -11   -1    0    0    0    0  0.00000000000E+00  0.00000000000E+00  0.45593999997E+02  0.45594000000E+02  0.51100000000E-03 0. -1.
         11   -1    0    0    0    0 -0.00000000000E+00 -0.00000000000E+00 -0.45593999997E+02  0.45594000000E+02  0.51100000000E-03 0.  1.
    9900012    2    1    2    0    0  0.25408628055E+01 -0.15346400820E+02  0.42274643775E+02  0.46142317541E+02  0.99999979897E+01 0.  0.
        -12    1    1    2    0    0 -0.25408628055E+01  0.15346400820E+02 -0.42274643775E+02  0.45045682459E+02  0.00000000000E+00 0.  1.
         11    1    3    3    0    0  0.32640873691E+01 -0.12244029530E+02  0.21960284989E+02  0.25353986719E+02  0.51100000000E-03 0. -1.
        -11    1    3    3    0    0  0.26369530422E+00 -0.15016307953E+01  0.16117127442E+02  0.16189077414E+02  0.51100000000E-03 0.  1.
         12    1    3    3    0    0 -0.98691986788E+00 -0.16007404943E+01  0.41972313440E+01  0.45992534080E+01  0.00000000000E+00 0. -1.
</event>
<event>
 7    1  0.1683291E-008  0.4614232E+02  0.7816164E-02  0.1320468E+00
        -11   -1    0    0    0    0  0.00000000000E+00  0.00000000000E+00  0.45593999997E+02  0.45594000000E+02  0.51100000000E-03 0.  1.
         11   -1    0    0    0    0 -0.00000000000E+00 -0.00000000000E+00 -0.45593999997E+02  0.45594000000E+02  0.51100000000E-03 0. -1.
    9900012    2    1    2    0    0 -0.31049459873E+02  0.51989601110E+01 -0.32218245443E+02  0.46142317809E+02  0.10000000439E+02 0.  0.
        -12    1    1    2    0    0  0.31049459873E+02 -0.51989601110E+01  0.32218245443E+02  0.45045682191E+02  0.00000000000E+00 0.  1.
         11    1    3    3    0    0 -0.43270275350E+01  0.45310792889E+01 -0.64232676008E+01  0.89728598420E+01  0.51100000000E-03 0. -1.
        -11    1    3    3    0    0 -0.80044021053E+01  0.74573483870E+00 -0.74417353320E+01  0.10954724941E+02  0.51100000000E-03 0.  1.
         12    1    3    3    0    0 -0.18718030232E+02 -0.77854016622E-01 -0.18353242510E+02  0.26214733027E+02  0.00000000000E+00 0. -1.
</event>
<event>
 7    1  0.1683291E-008  0.4614232E+02  0.7816164E-02  0.1320468E+00
        -11   -1    0    0    0    0  0.00000000000E+00  0.00000000000E+00  0.45593999997E+02  0.45594000000E+02  0.51100000000E-03 0.  1.
         11   -1    0    0    0    0 -0.00000000000E+00 -0.00000000000E+00 -0.45593999997E+02  0.45594000000E+02  0.51100000000E-03 0. -1.
    9900012    2    1    2    0    0 -0.36347703491E+02  0.55610889241E+01 -0.26019843737E+02  0.46142317330E+02  0.99999960728E+01 0.  0.
        -12    1    1    2    0    0  0.36347703491E+02 -0.55610889241E+01  0.26019843737E+02  0.45045682670E+02  0.00000000000E+00 0.  1.
         11    1    3    3    0    0 -0.11868705928E+02 -0.18575902571E+01 -0.83909519137E+01  0.14653494336E+02  0.51100000000E-03 0. -1.
        -11    1    3    3    0    0 -0.11982323799E+02  0.43070775599E+01 -0.57589787807E+01  0.13974721378E+02  0.51100000000E-03 0.  1.
         12    1    3    3    0    0 -0.12496673763E+02  0.31116016213E+01 -0.11869913042E+02  0.17514101617E+02  0.00000000000E+00 0. -1.
</event>
<event>
 7    1  0.1683291E-008  0.4614232E+02  0.7816164E-02  0.1320468E+00
        -11   -1    0    0    0    0  0.00000000000E+00  0.00000000000E+00  0.45593999997E+02  0.45594000000E+02  0.51100000000E-03 0.  1.
         11   -1    0    0    0    0 -0.00000000000E+00 -0.00000000000E+00 -0.45593999997E+02  0.45594000000E+02  0.51100000000E-03 0. -1.
    9900012    2    1    2    0    0  0.40394181490E+02  0.56076707779E+01 -0.19130541406E+02  0.46142317807E+02  0.10000000415E+02 0.  0.
        -12    1    1    2    0    0 -0.40394181490E+02 -0.56076707779E+01  0.19130541406E+02  0.45045682193E+02  0.00000000000E+00 0.  1.
         11    1    3    3    0    0  0.24647426955E+02  0.24992035043E+01 -0.15959829534E+02  0.29469608628E+02  0.51100000000E-03 0. -1.
        -11    1    3    3    0    0  0.68949429996E+01 -0.25256816067E+00 -0.12758880431E+01  0.70165461734E+01  0.51100000000E-03 0.  1.
         12    1    3    3    0    0  0.88518115348E+01  0.33610354343E+01 -0.18948238291E+01  0.96561630051E+01  0.00000000000E+00 0. -1.
</event>
<event>
 7    1  0.1683291E-008  0.4614232E+02  0.7816164E-02  0.1320468E+00
        -11   -1    0    0    0    0  0.00000000000E+00  0.00000000000E+00  0.45593999997E+02  0.45594000000E+02  0.51100000000E-03 0. -1.
         11   -1    0    0    0    0 -0.00000000000E+00 -0.00000000000E+00 -0.45593999997E+02  0.45594000000E+02  0.51100000000E-03 0.  1.
    9900012    2    1    2    0    0  0.14238629698E+02 -0.23894912481E+02  0.35431739186E+02  0.46142316966E+02  0.99999927540E+01 0.  0.
        -12    1    1    2    0    0 -0.14238629698E+02  0.23894912481E+02 -0.35431739186E+02  0.45045683034E+02  0.00000000000E+00 0.  1.
         11    1    3    3    0    0  0.29720516736E+01 -0.10490068808E+02  0.83758805510E+01  0.13748818495E+02  0.51100000000E-03 0. -1.
        -11    1    3    3    0    0  0.10134198186E+02 -0.12737496096E+02  0.23366484286E+02  0.28476979612E+02  0.51100000000E-03 0.  1.
         12    1    3    3    0    0  0.11323798382E+01 -0.66734757823E+00  0.36893743496E+01  0.39165188599E+01  0.00000000000E+00 0. -1.
</event>
<event>
 7    1  0.1683291E-008  0.4614232E+02  0.7816164E-02  0.1320468E+00
        -11   -1    0    0    0    0  0.00000000000E+00  0.00000000000E+00  0.45593999997E+02  0.45594000000E+02  0.51100000000E-03 0.  1.
         11   -1    0    0    0    0 -0.00000000000E+00 -0.00000000000E+00 -0.45593999997E+02  0.45594000000E+02  0.51100000000E-03 0. -1.
    9900012    2    1    2    0    0  0.22101646593E+02 -0.38421455804E+02  0.80263584255E+01  0.46142317879E+02  0.10000001071E+02 0.  0.
        -12    1    1    2    0    0 -0.22101646593E+02  0.38421455804E+02 -0.80263584255E+01  0.45045682121E+02  0.00000000000E+00 0.  1.
         11    1    3    3    0    0  0.10727411208E+02 -0.15021409836E+02  0.31581291109E+01  0.18726822593E+02  0.51100000000E-03 0. -1.
        -11    1    3    3    0    0  0.73805798778E+01 -0.16582772483E+02  0.30396921075E-01  0.18151094369E+02  0.51100000000E-03 0.  1.
        -12    1    3    3    0    0  0.39936555065E+01 -0.68172734852E+01  0.48378323935E+01  0.92644009167E+01  0.00000000000E+00 0.  1.
</event>
<event>
 7    1  0.1947010E-008  0.4614231E+02  0.7816164E-02  0.1320468E+00
        -11   -1    0    0    0    0  0.00000000000E+00  0.00000000000E+00  0.45593999997E+02  0.45594000000E+02  0.51100000000E-03 0.  1.
         11   -1    0    0    0    0 -0.00000000000E+00 -0.00000000000E+00 -0.45593999997E+02  0.45594000000E+02  0.51100000000E-03 0. -1.
    9900012    2    1    2    0    0  0.12968850816E+02 -0.38986620728E+02 -0.18465268803E+02  0.46142313866E+02  0.99999644829E+01 0.  0.
        -12    1    1    2    0    0 -0.12968850816E+02  0.38986620728E+02  0.18465268803E+02  0.45045686134E+02  0.00000000000E+00 0.  1.
         11    1    3    3    0    0  0.10265731055E+02 -0.30544189680E+02 -0.18399616837E+02  0.37106315599E+02  0.51100000000E-03 0. -1.
        -11    1    3    3    0    0  0.28357213866E+01 -0.83127691203E+01 -0.23296067606E+00  0.87862231458E+01  0.51100000000E-03 0.  1.
         12    1    3    3    0    0 -0.13260162626E+00 -0.12966192819E+00  0.16730871011E+00  0.24977512164E+00  0.00000000000E+00 0. -1.
</event>
<event>
 7    1  0.1683291E-008  0.4614232E+02  0.7816164E-02  0.1320468E+00
        -11   -1    0    0    0    0  0.00000000000E+00  0.00000000000E+00  0.45593999997E+02  0.45594000000E+02  0.51100000000E-03 0.  1.
         11   -1    0    0    0    0 -0.00000000000E+00 -0.00000000000E+00 -0.45593999997E+02  0.45594000000E+02  0.51100000000E-03 0. -1.
    9900012    2    1    2    0    0  0.64010322457E+01 -0.26871956220E+02 -0.35581431207E+02  0.46142317724E+02  0.99999996632E+01 0.  0.
        -12    1    1    2    0    0 -0.64010322457E+01  0.26871956220E+02  0.35581431207E+02  0.45045682276E+02  0.00000000000E+00 0.  1.
         11    1    3    3    0    0  0.48791833647E+01 -0.16642124077E+02 -0.21471732580E+02  0.27600761300E+02  0.51100000000E-03 0. -1.
        -11    1    3    3    0    0  0.13829142345E+01  0.32435124826E+00 -0.22916526030E+01  0.26961690278E+01  0.51100000000E-03 0.  1.
        -12    1    3    3    0    0  0.13893464650E+00 -0.10554183391E+02 -0.11818046025E+02  0.15845387396E+02  0.00000000000E+00 0.  1.
</event>
<event>
 7    1  0.1683291E-008  0.4614232E+02  0.7816164E-02  0.1320468E+00
        -11   -1    0    0    0    0  0.00000000000E+00  0.00000000000E+00  0.45593999997E+02  0.45594000000E+02  0.51100000000E-03 0.  1.
         11   -1    0    0    0    0 -0.00000000000E+00 -0.00000000000E+00 -0.45593999997E+02  0.45594000000E+02  0.51100000000E-03 0. -1.
    9900012    2    1    2    0    0  0.21633333627E+01 -0.86887489182E+01 -0.44146790807E+02  0.46142317548E+02  0.99999980566E+01 0.  0.
        -12    1    1    2    0    0 -0.21633333627E+01  0.86887489182E+01  0.44146790807E+02  0.45045682452E+02  0.00000000000E+00 0.  1.
         11    1    3    3    0    0  0.31586038896E+01 -0.25622091114E+01 -0.14363434233E+02  0.14928159206E+02  0.51100000000E-03 0. -1.
        -11    1    3    3    0    0 -0.19664046458E+01 -0.74371807953E+01 -0.25275245978E+02  0.26420001229E+02  0.51100000000E-03 0.  1.
        -12    1    3    3    0    0  0.97113411879E+00  0.13106409885E+01 -0.45081105961E+01  0.47941571130E+01  0.00000000000E+00 0.  1.
</event>
<event>
 7    1  0.1683291E-008  0.4614232E+02  0.7816164E-02  0.1320468E+00
        -11   -1    0    0    0    0  0.00000000000E+00  0.00000000000E+00  0.45593999997E+02  0.45594000000E+02  0.51100000000E-03 0.  1.
         11   -1    0    0    0    0 -0.00000000000E+00 -0.00000000000E+00 -0.45593999997E+02  0.45594000000E+02  0.51100000000E-03 0. -1.
    9900012    2    1    2    0    0  0.10811413344E+01  0.15986205076E+02 -0.42099714912E+02  0.46142316356E+02  0.99999871826E+01 0.  0.
        -12    1    1    2    0    0 -0.10811413344E+01 -0.15986205076E+02  0.42099714912E+02  0.45045683644E+02  0.00000000000E+00 0.  1.
         11    1    3    3    0    0  0.16677539763E+01  0.14344664762E+02 -0.30659357082E+02  0.33890219643E+02  0.51100000000E-03 0. -1.
        -11    1    3    3    0    0 -0.58216621541E+00 -0.63996366847E+00 -0.35625648679E+00  0.93562275775E+00  0.51100000000E-03 0.  1.
         12    1    3    3    0    0 -0.44464264951E-02  0.22815039817E+01 -0.11084101343E+02  0.11316473955E+02  0.00000000000E+00 0. -1.
</event>
<event>
 7    1  0.1683291E-008  0.4614232E+02  0.7816164E-02  0.1320468E+00
        -11   -1    0    0    0    0  0.00000000000E+00  0.00000000000E+00  0.45593999997E+02  0.45594000000E+02  0.51100000000E-03 0.  1.
         11   -1    0    0    0    0 -0.00000000000E+00 -0.00000000000E+00 -0.45593999997E+02  0.45594000000E+02  0.51100000000E-03 0. -1.
    9900012    2    1    2    0    0  0.22512659353E+02 -0.63821533190E+01 -0.38491060524E+02  0.46142318161E+02  0.10000003645E+02 0.  0.
        -12    1    1    2    0    0 -0.22512659353E+02  0.63821533190E+01  0.38491060524E+02  0.45045681839E+02  0.00000000000E+00 0.  1.
         11    1    3    3    0    0  0.65180710565E+01 -0.15721654220E+01 -0.75043108875E+01  0.10063380971E+02  0.51100000000E-03 0. -1.
        -11    1    3    3    0    0  0.95651046690E+00 -0.76844653340E+00 -0.93009329047E+01  0.93815124318E+01  0.51100000000E-03 0.  1.
        -12    1    3    3    0    0  0.15038077829E+02 -0.40415413636E+01 -0.21685816731E+02  0.26697424758E+02  0.00000000000E+00 0.  1.
</event>
<event>
 7    1  0.1683291E-008  0.4614232E+02  0.7816164E-02  0.1320468E+00
        -11   -1    0    0    0    0  0.00000000000E+00  0.00000000000E+00  0.45593999997E+02  0.45594000000E+02  0.51100000000E-03 0. -1.
         11   -1    0    0    0    0 -0.00000000000E+00 -0.00000000000E+00 -0.45593999997E+02  0.45594000000E+02  0.51100000000E-03 0.  1.
    9900012    2    1    2    0    0  0.24510116474E+02  0.17449372057E+01  0.37753448192E+02  0.46142318012E+02  0.10000002284E+02 0.  0.
        -12    1    1    2    0    0 -0.24510116474E+02 -0.17449372057E+01 -0.37753448192E+02  0.45045681988E+02  0.00000000000E+00 0.  1.
         11    1    3    3    0    0  0.49085819252E+01 -0.31203548221E+01  0.12535860264E+02  0.13819500120E+02  0.51100000000E-03 0.  1.
        -11    1    3    3    0    0  0.14087657947E+02  0.30597217768E+01  0.18167407725E+02  0.23192212216E+02  0.51100000000E-03 0. -1.
        -12    1    3    3    0    0  0.55138766017E+01  0.18055702510E+01  0.70501802033E+01  0.91306056759E+01  0.00000000000E+00 0.  1.
</event>
<event>
 7    1  0.1683291E-008  0.4614232E+02  0.7816164E-02  0.1320468E+00
        -11   -1    0    0    0    0  0.00000000000E+00  0.00000000000E+00  0.45593999997E+02  0.45594000000E+02  0.51100000000E-03 0.  1.
         11   -1    0    0    0    0 -0.00000000000E+00 -0.00000000000E+00 -0.45593999997E+02  0.45594000000E+02  0.51100000000E-03 0. -1.
    9900012    2    1    2    0    0  0.68521199618E+01  0.28008618890E+02 -0.34607503203E+02  0.46142316988E+02  0.99999929467E+01 0.  0.
        -12    1    1    2    0    0 -0.68521199618E+01 -0.28008618890E+02  0.34607503203E+02  0.45045683012E+02  0.00000000000E+00 0.  1.
         11    1    3    3    0    0  0.89626583522E+00  0.95539841751E+01 -0.17555823780E+02  0.20007220070E+02  0.51100000000E-03 0. -1.
        -11    1    3    3    0    0  0.34944771662E+01  0.14690427942E+02 -0.11445416043E+02  0.18947759562E+02  0.51100000000E-03 0.  1.
         12    1    3    3    0    0  0.24613769604E+01  0.37642067733E+01 -0.56062633802E+01  0.71873373555E+01  0.00000000000E+00 0. -1.
</event>
<event>
 7    1  0.1683291E-008  0.4614232E+02  0.7816164E-02  0.1320468E+00
        -11   -1    0    0    0    0  0.00000000000E+00  0.00000000000E+00  0.45593999997E+02  0.45594000000E+02  0.51100000000E-03 0.  1.
         11   -1    0    0    0    0 -0.00000000000E+00 -0.00000000000E+00 -0.45593999997E+02  0.45594000000E+02  0.51100000000E-03 0. -1.
    9900012    2    1    2    0    0  0.94940009738E+01  0.14614916211E+02 -0.41537713737E+02  0.46142317712E+02  0.99999995502E+01 0.  0.
        -12    1    1    2    0    0 -0.94940009738E+01 -0.14614916211E+02  0.41537713737E+02  0.45045682288E+02  0.00000000000E+00 0.  1.
         11    1    3    3    0    0  0.37567361170E+01  0.11545019710E+02 -0.24369824627E+02  0.27226621145E+02  0.51100000000E-03 0. -1.
        -11    1    3    3    0    0  0.73066649070E+00 -0.18350779784E+00 -0.15213479170E-01  0.75351200626E+00  0.51100000000E-03 0.  1.
         12    1    3    3    0    0  0.50065983662E+01  0.32534042991E+01 -0.17152675631E+02  0.18162184561E+02  0.00000000000E+00 0. -1.
</event>
<event>
 7    1  0.1683291E-008  0.4614232E+02  0.7816164E-02  0.1320468E+00
        -11   -1    0    0    0    0  0.00000000000E+00  0.00000000000E+00  0.45593999997E+02  0.45594000000E+02  0.51100000000E-03 0. -1.
         11   -1    0    0    0    0 -0.00000000000E+00 -0.00000000000E+00 -0.45593999997E+02  0.45594000000E+02  0.51100000000E-03 0.  1.
    9900012    2    1    2    0    0 -0.32044888318E+02  0.22163156496E+02  0.22606041416E+02  0.46142317836E+02  0.10000000680E+02 0.  0.
        -12    1    1    2    0    0  0.32044888318E+02 -0.22163156496E+02 -0.22606041416E+02  0.45045682164E+02  0.00000000000E+00 0.  1.
         11    1    3    3    0    0 -0.90462667830E+01  0.11880676390E+02  0.74459757608E+01  0.16686161017E+02  0.51100000000E-03 0. -1.
        -11    1    3    3    0    0 -0.15195956090E+02  0.64763514023E+01  0.10854543302E+02  0.19765660109E+02  0.51100000000E-03 0.  1.
        -12    1    3    3    0    0 -0.78026654451E+01  0.38061287032E+01  0.43055223528E+01  0.96904967098E+01  0.00000000000E+00 0.  1.
</event>
<event>
 7    1  0.1683291E-008  0.4614232E+02  0.7816164E-02  0.1320468E+00
        -11   -1    0    0    0    0  0.00000000000E+00  0.00000000000E+00  0.45593999997E+02  0.45594000000E+02  0.51100000000E-03 0.  1.
         11   -1    0    0    0    0 -0.00000000000E+00 -0.00000000000E+00 -0.45593999997E+02  0.45594000000E+02  0.51100000000E-03 0. -1.
    9900012    2    1    2    0    0 -0.63838556532E+01 -0.40857734322E+02 -0.17860725279E+02  0.46142316806E+02  0.99999912931E+01 0.  0.
        -12    1    1    2    0    0  0.63838556532E+01  0.40857734322E+02  0.17860725279E+02  0.45045683194E+02  0.00000000000E+00 0.  1.
         11    1    3    3    0    0 -0.26297426443E+01 -0.13037523610E+02 -0.68430401215E+01  0.14957264677E+02  0.51100000000E-03 0. -1.
        -11    1    3    3    0    0 -0.22380557694E+01 -0.35923062011E+01  0.59686431730E+00  0.42743192141E+01  0.51100000000E-03 0.  1.
        -12    1    3    3    0    0 -0.15160572396E+01 -0.24227904510E+02 -0.11614549475E+02  0.26910732915E+02  0.00000000000E+00 0.  1.
</event>
<event>
 7    1  0.1683291E-008  0.4614232E+02  0.7816164E-02  0.1320468E+00
        -11   -1    0    0    0    0  0.00000000000E+00  0.00000000000E+00  0.45593999997E+02  0.45594000000E+02  0.51100000000E-03 0.  1.
         11   -1    0    0    0    0 -0.00000000000E+00 -0.00000000000E+00 -0.45593999997E+02  0.45594000000E+02  0.51100000000E-03 0. -1.
    9900012    2    1    2    0    0 -0.44414277847E+02  0.72544998233E+01 -0.19640877700E+01  0.46142317797E+02  0.10000000325E+02 0.  0.
        -12    1    1    2    0    0  0.44414277847E+02 -0.72544998233E+01  0.19640877700E+01  0.45045682203E+02  0.00000000000E+00 0.  1.
         11    1    3    3    0    0 -0.24095904270E+02  0.16698919077E+01 -0.39824951183E+01  0.24479816364E+02  0.51100000000E-03 0. -1.
        -11    1    3    3    0    0 -0.13041108516E+02  0.34278045161E+01  0.34958997022E+01  0.13929884066E+02  0.51100000000E-03 0.  1.
        -12    1    3    3    0    0 -0.72772650616E+01  0.21568033994E+01 -0.14774923540E+01  0.77326173665E+01  0.00000000000E+00 0.  1.
</event>
<event>
 7    1  0.1683291E-008  0.4614232E+02  0.7816164E-02  0.1320468E+00
        -11   -1    0    0    0    0  0.00000000000E+00  0.00000000000E+00  0.45593999997E+02  0.45594000000E+02  0.51100000000E-03 0. -1.
         11   -1    0    0    0    0 -0.00000000000E+00 -0.00000000000E+00 -0.45593999997E+02  0.45594000000E+02  0.51100000000E-03 0.  1.
    9900012    2    1    2    0    0 -0.13977244848E+02  0.42285268910E+02  0.67606276119E+01  0.46142318453E+02  0.10000006305E+02 0.  0.
        -12    1    1    2    0    0  0.13977244848E+02 -0.42285268910E+02 -0.67606276119E+01  0.45045681547E+02  0.00000000000E+00 0.  1.
         11    1    3    3    0    0 -0.10302006344E+02  0.32307199136E+02  0.57092982525E+01  0.34387243820E+02  0.51100000000E-03 0. -1.
        -11    1    3    3    0    0  0.68188980071E+00  0.10308250199E+01 -0.10051082013E+01  0.15930526292E+01  0.51100000000E-03 0.  1.
        -12    1    3    3    0    0 -0.43571283044E+01  0.89472447541E+01  0.20564375607E+01  0.10162022003E+02  0.00000000000E+00 0.  1.
</event>
<event>
 7    1  0.1683291E-008  0.4614232E+02  0.7816164E-02  0.1320468E+00
        -11   -1    0    0    0    0  0.00000000000E+00  0.00000000000E+00  0.45593999997E+02  0.45594000000E+02  0.51100000000E-03 0.  1.
         11   -1    0    0    0    0 -0.00000000000E+00 -0.00000000000E+00 -0.45593999997E+02  0.45594000000E+02  0.51100000000E-03 0. -1.
    9900012    2    1    2    0    0 -0.10996671074E+02 -0.63941685964E+01 -0.43212281894E+02  0.46142317929E+02  0.10000001529E+02 0.  0.
        -12    1    1    2    0    0  0.10996671074E+02  0.63941685964E+01  0.43212281894E+02  0.45045682071E+02  0.00000000000E+00 0.  1.
         11    1    3    3    0    0 -0.11113921829E+02 -0.27780848065E+01 -0.25597645026E+02  0.28044187362E+02  0.51100000000E-03 0. -1.
        -11    1    3    3    0    0  0.87497819844E+00 -0.11934230621E+01 -0.88672273816E+01  0.89898591285E+01  0.51100000000E-03 0.  1.
        -12    1    3    3    0    0 -0.75772744349E+00 -0.24226607278E+01 -0.87474094862E+01  0.91082714386E+01  0.00000000000E+00 0.  1.
</event>
<event>
 7    1  0.1683291E-008  0.4614232E+02  0.7816164E-02  0.1320468E+00
        -11   -1    0    0    0    0  0.00000000000E+00  0.00000000000E+00  0.45593999997E+02  0.45594000000E+02  0.51100000000E-03 0.  1.
         11   -1    0    0    0    0 -0.00000000000E+00 -0.00000000000E+00 -0.45593999997E+02  0.45594000000E+02  0.51100000000E-03 0. -1.
    9900012    2    1    2    0    0 -0.24839545992E+02  0.30888013820E+02 -0.21401889714E+02  0.46142319562E+02  0.10000016420E+02 0.  0.
        -12    1    1    2    0    0  0.24839545992E+02 -0.30888013820E+02  0.21401889714E+02  0.45045680438E+02  0.00000000000E+00 0.  1.
         11    1    3    3    0    0 -0.60652982142E+01  0.73935924663E+01 -0.80022067090E+01  0.12469497362E+02  0.51100000000E-03 0. -1.
        -11    1    3    3    0    0 -0.16705055528E+02  0.18074884006E+02 -0.83747926444E+01  0.25998028081E+02  0.51100000000E-03 0.  1.
        -12    1    3    3    0    0 -0.20691922498E+01  0.54195373478E+01 -0.50248903601E+01  0.76747941185E+01  0.00000000000E+00 0.  1.
</event>
<event>
 7    1  0.1683291E-008  0.4614232E+02  0.7816164E-02  0.1320468E+00
        -11   -1    0    0    0    0  0.00000000000E+00  0.00000000000E+00  0.45593999997E+02  0.45594000000E+02  0.51100000000E-03 0. -1.
         11   -1    0    0    0    0 -0.00000000000E+00 -0.00000000000E+00 -0.45593999997E+02  0.45594000000E+02  0.51100000000E-03 0.  1.
    9900012    2    1    2    0    0 -0.28485825357E+02  0.28630351629E+02 -0.19949292273E+02  0.46142317156E+02  0.99999944833E+01 0.  0.
        -12    1    1    2    0    0  0.28485825357E+02 -0.28630351629E+02  0.19949292273E+02  0.45045682844E+02  0.00000000000E+00 0.  1.
         11    1    3    3    0    0 -0.12785577793E+02  0.12660605470E+02 -0.49420942104E+01  0.18659748815E+02  0.51100000000E-03 0. -1.
        -11    1    3    3    0    0 -0.43629194242E+01  0.77874615789E+01 -0.45235131982E+01  0.10007087271E+02  0.51100000000E-03 0.  1.
         12    1    3    3    0    0 -0.11337328139E+02  0.81822845804E+01 -0.10483684865E+02  0.17475481070E+02  0.00000000000E+00 0. -1.
</event>
<event>
 7    1  0.1683291E-008  0.4614232E+02  0.7816164E-02  0.1320468E+00
        -11   -1    0    0    0    0  0.00000000000E+00  0.00000000000E+00  0.45593999997E+02  0.45594000000E+02  0.51100000000E-03 0.  1.
         11   -1    0    0    0    0 -0.00000000000E+00 -0.00000000000E+00 -0.45593999997E+02  0.45594000000E+02  0.51100000000E-03 0. -1.
    9900012    2    1    2    0    0 -0.35004195079E+02 -0.28004643404E+02  0.44226374646E+01  0.46142318215E+02  0.10000004139E+02 0.  0.
        -12    1    1    2    0    0  0.35004195079E+02  0.28004643404E+02 -0.44226374646E+01  0.45045681785E+02  0.00000000000E+00 0.  1.
         11    1    3    3    0    0 -0.18268733311E+02 -0.16413007601E+02  0.18390185307E+01  0.24627533874E+02  0.51100000000E-03 0. -1.
        -11    1    3    3    0    0 -0.15084037538E+02 -0.72948960020E+01  0.19653303800E+01  0.16870276224E+02  0.51100000000E-03 0.  1.
        -12    1    3    3    0    0 -0.16514242300E+01 -0.42967398010E+01  0.61828855387E+00  0.46445081162E+01  0.00000000000E+00 0.  1.
</event>
<event>
 7    1  0.1683291E-008  0.4614232E+02  0.7816164E-02  0.1320468E+00
        -11   -1    0    0    0    0  0.00000000000E+00  0.00000000000E+00  0.45593999997E+02  0.45594000000E+02  0.51100000000E-03 0.  1.
         11   -1    0    0    0    0 -0.00000000000E+00 -0.00000000000E+00 -0.45593999997E+02  0.45594000000E+02  0.51100000000E-03 0. -1.
    9900012    2    1    2    0    0 -0.36612178440E+02 -0.26148466299E+02 -0.22180166510E+01  0.46142317657E+02  0.99999990508E+01 0.  0.
        -12    1    1    2    0    0  0.36612178440E+02  0.26148466299E+02  0.22180166510E+01  0.45045682343E+02  0.00000000000E+00 0.  1.
         11    1    3    3    0    0 -0.91134787470E+01 -0.73711927378E+01 -0.42014017666E+01  0.12451576379E+02  0.51100000000E-03 0.  1.
        -11    1    3    3    0    0 -0.11792671762E+02 -0.52739978079E+01  0.90469019385E+00  0.12949927597E+02  0.51100000000E-03 0. -1.
         12    1    3    3    0    0 -0.15706027931E+02 -0.13503275753E+02  0.10786949217E+01  0.20740813681E+02  0.00000000000E+00 0. -1.
</event>
<event>
 7    1  0.1683291E-008  0.4614232E+02  0.7816164E-02  0.1320468E+00
        -11   -1    0    0    0    0  0.00000000000E+00  0.00000000000E+00  0.45593999997E+02  0.45594000000E+02  0.51100000000E-03 0.  1.
         11   -1    0    0    0    0 -0.00000000000E+00 -0.00000000000E+00 -0.45593999997E+02  0.45594000000E+02  0.51100000000E-03 0. -1.
    9900012    2    1    2    0    0  0.69369123212E+01  0.10619869220E+02 -0.43222808615E+02  0.46142316973E+02  0.99999928146E+01 0.  0.
        -12    1    1    2    0    0 -0.69369123212E+01 -0.10619869220E+02  0.43222808615E+02  0.45045683027E+02  0.00000000000E+00 0.  1.
         11    1    3    3    0    0  0.44618239758E+00  0.63615017561E+01 -0.15086979352E+02  0.16379399548E+02  0.51100000000E-03 0. -1.
        -11    1    3    3    0    0  0.24833715208E+00 -0.11741487171E+01 -0.62644635772E+01  0.63783854322E+01  0.51100000000E-03 0.  1.
         12    1    3    3    0    0  0.62423927716E+01  0.54325161806E+01 -0.21871365685E+02  0.23384531992E+02  0.00000000000E+00 0. -1.
</event>
<event>
 7    1  0.1683291E-008  0.4614231E+02  0.7816164E-02  0.1320468E+00
        -11   -1    0    0    0    0  0.00000000000E+00  0.00000000000E+00  0.45593999997E+02  0.45594000000E+02  0.51100000000E-03 0.  1.
         11   -1    0    0    0    0 -0.00000000000E+00 -0.00000000000E+00 -0.45593999997E+02  0.45594000000E+02  0.51100000000E-03 0. -1.
    9900012    2    1    2    0    0  0.37441766676E+02  0.21708261721E+02 -0.12489165489E+02  0.46142314598E+02  0.99999711532E+01 0.  0.
        -12    1    1    2    0    0 -0.37441766676E+02 -0.21708261721E+02  0.12489165489E+02  0.45045685402E+02  0.00000000000E+00 0.  1.
         11    1    3    3    0    0  0.89709184631E+01  0.12279371659E+01 -0.22501409715E+01  0.93299701183E+01  0.51100000000E-03 0. -1.
        -11    1    3    3    0    0  0.16757858122E+02  0.12614953019E+02 -0.38557948506E+01  0.21326743837E+02  0.51100000000E-03 0.  1.
         12    1    3    3    0    0  0.11712990090E+02  0.78653715367E+01 -0.63832296672E+01  0.15485600642E+02  0.00000000000E+00 0. -1.
</event>
<event>
 7    1  0.1683291E-008  0.4614232E+02  0.7816164E-02  0.1320468E+00
        -11   -1    0    0    0    0  0.00000000000E+00  0.00000000000E+00  0.45593999997E+02  0.45594000000E+02  0.51100000000E-03 0.  1.
         11   -1    0    0    0    0 -0.00000000000E+00 -0.00000000000E+00 -0.45593999997E+02  0.45594000000E+02  0.51100000000E-03 0. -1.
    9900012    2    1    2    0    0  0.10665174925E+02  0.38900014641E+02 -0.20053836532E+02  0.46142318132E+02  0.10000003384E+02 0.  0.
        -12    1    1    2    0    0 -0.10665174925E+02 -0.38900014641E+02  0.20053836532E+02  0.45045681868E+02  0.00000000000E+00 0.  1.
         11    1    3    3    0    0  0.58171073565E+01  0.19922112065E+02 -0.14514075742E+02  0.25325632905E+02  0.51100000000E-03 0. -1.
        -11    1    3    3    0    0  0.91884790793E+00  0.18620590333E+01 -0.20388471401E+01  0.29100589759E+01  0.51100000000E-03 0.  1.
         12    1    3    3    0    0  0.39292196605E+01  0.17115843543E+02 -0.35009136502E+01  0.17906626252E+02  0.00000000000E+00 0. -1.
</event>
<event>
 7    1  0.1683291E-008  0.4614232E+02  0.7816164E-02  0.1320468E+00
        -11   -1    0    0    0    0  0.00000000000E+00  0.00000000000E+00  0.45593999997E+02  0.45594000000E+02  0.51100000000E-03 0.  1.
         11   -1    0    0    0    0 -0.00000000000E+00 -0.00000000000E+00 -0.45593999997E+02  0.45594000000E+02  0.51100000000E-03 0. -1.
    9900012    2    1    2    0    0  0.37954302966E+02 -0.24065855626E+02  0.30690385767E+01  0.46142317428E+02  0.99999969608E+01 0.  0.
        -12    1    1    2    0    0 -0.37954302966E+02  0.24065855626E+02 -0.30690385767E+01  0.45045682572E+02  0.00000000000E+00 0.  1.
         11    1    3    3    0    0  0.65326474399E+01 -0.52418912521E+01  0.45588080440E+00  0.83881305451E+01  0.51100000000E-03 0. -1.
        -11    1    3    3    0    0  0.89597968369E+01 -0.48843934037E+01  0.47024858792E+01  0.11236041651E+02  0.51100000000E-03 0.  1.
        -12    1    3    3    0    0  0.22461858689E+02 -0.13939570970E+02 -0.20893281069E+01  0.26518145232E+02  0.00000000000E+00 0.  1.
</event>
<event>
 7    1  0.2143522E-008  0.4614232E+02  0.7816164E-02  0.1320468E+00
        -11   -1    0    0    0    0  0.00000000000E+00  0.00000000000E+00  0.45593999997E+02  0.45594000000E+02  0.51100000000E-03 0. -1.
         11   -1    0    0    0    0 -0.00000000000E+00 -0.00000000000E+00 -0.45593999997E+02  0.45594000000E+02  0.51100000000E-03 0.  1.
    9900012    2    1    2    0    0  0.39973381040E+01 -0.96879330311E+01  0.43809573690E+02  0.46142317574E+02  0.99999982959E+01 0.  0.
        -12    1    1    2    0    0 -0.39973381040E+01  0.96879330311E+01 -0.43809573690E+02  0.45045682426E+02  0.00000000000E+00 0.  1.
         11    1    3    3    0    0  0.66030822956E+01 -0.79095063183E+01  0.33608890586E+02  0.35152788121E+02  0.51100000000E-03 0. -1.
        -11    1    3    3    0    0 -0.20726677584E+01 -0.90635750717E+00  0.94614430064E+01  0.97281210720E+01  0.51100000000E-03 0.  1.
         12    1    3    3    0    0 -0.53307643314E+00 -0.87206920568E+00  0.73924009770E+00  0.12614083816E+01  0.00000000000E+00 0. -1.
</event>
<event>
 7    1  0.1683291E-008  0.4614232E+02  0.7816164E-02  0.1320468E+00
        -11   -1    0    0    0    0  0.00000000000E+00  0.00000000000E+00  0.45593999997E+02  0.45594000000E+02  0.51100000000E-03 0. -1.
         11   -1    0    0    0    0 -0.00000000000E+00 -0.00000000000E+00 -0.45593999997E+02  0.45594000000E+02  0.51100000000E-03 0.  1.
    9900012    2    1    2    0    0  0.19247030744E+02 -0.40264938756E+02 -0.61155569118E+01  0.46142317389E+02  0.99999966113E+01 0.  0.
        -12    1    1    2    0    0 -0.19247030744E+02  0.40264938756E+02  0.61155569118E+01  0.45045682611E+02  0.00000000000E+00 0.  1.
         11    1    3    3    0    0  0.12959803104E+02 -0.16228358017E+02 -0.22394836824E+01  0.20888546810E+02  0.51100000000E-03 0. -1.
        -11    1    3    3    0    0  0.58126228970E+01 -0.21217445571E+02 -0.41305694283E+01  0.22383658896E+02  0.51100000000E-03 0.  1.
         12    1    3    3    0    0  0.47460474302E+00 -0.28191351686E+01  0.25449619891E+00  0.28701116835E+01  0.00000000000E+00 0. -1.
</event>
<event>
 7    1  0.1683291E-008  0.4614231E+02  0.7816164E-02  0.1320468E+00
        -11   -1    0    0    0    0  0.00000000000E+00  0.00000000000E+00  0.45593999997E+02  0.45594000000E+02  0.51100000000E-03 0.  1.
         11   -1    0    0    0    0 -0.00000000000E+00 -0.00000000000E+00 -0.45593999997E+02  0.45594000000E+02  0.51100000000E-03 0. -1.
    9900012    2    1    2    0    0  0.15315821618E+02 -0.79095955092E+00 -0.42354621843E+02  0.46142312078E+02  0.99999481791E+01 0.  0.
        -12    1    1    2    0    0 -0.15315821618E+02  0.79095955092E+00  0.42354621843E+02  0.45045687922E+02  0.00000000000E+00 0.  1.
         11    1    3    3    0    0  0.80969819586E+01 -0.13842519830E+01 -0.13086571448E+02  0.15451071902E+02  0.51100000000E-03 0. -1.
        -11    1    3    3    0    0  0.27014245816E+01  0.29381720046E+01 -0.10130112446E+02  0.10888054368E+02  0.51100000000E-03 0.  1.
         12    1    3    3    0    0  0.45174150777E+01 -0.23448795725E+01 -0.19137937949E+02  0.19803185808E+02  0.00000000000E+00 0. -1.
</event>
<event>
 7    1  0.1683291E-008  0.4614232E+02  0.7816164E-02  0.1320468E+00
        -11   -1    0    0    0    0  0.00000000000E+00  0.00000000000E+00  0.45593999997E+02  0.45594000000E+02  0.51100000000E-03 0. -1.
         11   -1    0    0    0    0 -0.00000000000E+00 -0.00000000000E+00 -0.45593999997E+02  0.45594000000E+02  0.51100000000E-03 0.  1.
    9900012    2    1    2    0    0 -0.38843149502E+02 -0.12863124695E+02  0.18837811033E+02  0.46142319134E+02  0.10000012518E+02 0.  0.
        -12    1    1    2    0    0  0.38843149502E+02  0.12863124695E+02 -0.18837811033E+02  0.45045680866E+02  0.00000000000E+00 0.  1.
         11    1    3    3    0    0 -0.15504171123E+02 -0.55330961145E+01  0.12146998583E+02  0.20458349143E+02  0.51100000000E-03 0. -1.
        -11    1    3    3    0    0 -0.17697297798E+02 -0.67457290232E+01  0.64480750046E+01  0.20006920826E+02  0.51100000000E-03 0.  1.
        -12    1    3    3    0    0 -0.56416805809E+01 -0.58429955731E+00  0.24273744518E+00  0.56770491645E+01  0.00000000000E+00 0.  1.
</event>
<event>
 7    1  0.1683291E-008  0.4614232E+02  0.7816164E-02  0.1320468E+00
        -11   -1    0    0    0    0  0.00000000000E+00  0.00000000000E+00  0.45593999997E+02  0.45594000000E+02  0.51100000000E-03 0. -1.
         11   -1    0    0    0    0 -0.00000000000E+00 -0.00000000000E+00 -0.45593999997E+02  0.45594000000E+02  0.51100000000E-03 0.  1.
    9900012    2    1    2    0    0 -0.44812524171E+02 -0.45145587319E+01 -0.75483831426E+00  0.46142319363E+02  0.10000014610E+02 0.  0.
        -12    1    1    2    0    0  0.44812524171E+02  0.45145587319E+01  0.75483831426E+00  0.45045680637E+02  0.00000000000E+00 0.  1.
         11    1    3    3    0    0 -0.22247227728E+02 -0.61022113503E+01 -0.94117597919E+00  0.23088134126E+02  0.51100000000E-03 0. -1.
        -11    1    3    3    0    0 -0.13800088566E+02  0.93333683569E+00 -0.20546965447E+01  0.13983395161E+02  0.51100000000E-03 0.  1.
         12    1    3    3    0    0 -0.87652078776E+01  0.65431578273E+00  0.22410342096E+01  0.90707900764E+01  0.00000000000E+00 0. -1.
</event>
<event>
 7    1  0.1683291E-008  0.4614231E+02  0.7816164E-02  0.1320468E+00
        -11   -1    0    0    0    0  0.00000000000E+00  0.00000000000E+00  0.45593999997E+02  0.45594000000E+02  0.51100000000E-03 0. -1.
         11   -1    0    0    0    0 -0.00000000000E+00 -0.00000000000E+00 -0.45593999997E+02  0.45594000000E+02  0.51100000000E-03 0.  1.
    9900012    2    1    2    0    0  0.63367526331E+01  0.39306759071E+02  0.21069837794E+02  0.46142314221E+02  0.99999677201E+01 0.  0.
        -12    1    1    2    0    0 -0.63367526331E+01 -0.39306759071E+02 -0.21069837794E+02  0.45045685779E+02  0.00000000000E+00 0.  1.
         11    1    3    3    0    0 -0.14422547219E+01  0.50949485882E+01  0.33140535776E+01  0.62467232351E+01  0.51100000000E-03 0.  1.
        -11    1    3    3    0    0  0.82915036675E+01  0.32576166600E+02  0.15380437449E+02  0.36966383645E+02  0.51100000000E-03 0. -1.
         12    1    3    3    0    0 -0.51249631244E+00  0.16356438834E+01  0.23753467670E+01  0.29292073411E+01  0.00000000000E+00 0. -1.
</event>
<event>
 7    1  0.1683291E-008  0.4614232E+02  0.7816164E-02  0.1320468E+00
        -11   -1    0    0    0    0  0.00000000000E+00  0.00000000000E+00  0.45593999997E+02  0.45594000000E+02  0.51100000000E-03 0. -1.
         11   -1    0    0    0    0 -0.00000000000E+00 -0.00000000000E+00 -0.45593999997E+02  0.45594000000E+02  0.51100000000E-03 0.  1.
    9900012    2    1    2    0    0  0.11450580500E+02  0.27272640366E+02  0.33973530540E+02  0.46142317813E+02  0.10000000474E+02 0.  0.
        -12    1    1    2    0    0 -0.11450580500E+02 -0.27272640366E+02 -0.33973530540E+02  0.45045682187E+02  0.00000000000E+00 0.  1.
         11    1    3    3    0    0  0.98393413680E+01  0.22201683255E+02  0.28994657761E+02  0.37820861398E+02  0.51100000000E-03 0. -1.
        -11    1    3    3    0    0 -0.10278246135E+01  0.13756048094E+00  0.11108131615E+01  0.15196224738E+01  0.51100000000E-03 0.  1.
         12    1    3    3    0    0  0.26390637460E+01  0.49333966303E+01  0.38680596170E+01  0.68018339415E+01  0.00000000000E+00 0. -1.
</event>
<event>
 7    1  0.1683291E-008  0.4614232E+02  0.7816164E-02  0.1320468E+00
        -11   -1    0    0    0    0  0.00000000000E+00  0.00000000000E+00  0.45593999997E+02  0.45594000000E+02  0.51100000000E-03 0. -1.
         11   -1    0    0    0    0 -0.00000000000E+00 -0.00000000000E+00 -0.45593999997E+02  0.45594000000E+02  0.51100000000E-03 0.  1.
    9900012    2    1    2    0    0  0.32675030550E+02  0.18929056839E+02 -0.24559042998E+02  0.46142318662E+02  0.10000008214E+02 0.  0.
        -12    1    1    2    0    0 -0.32675030550E+02 -0.18929056839E+02  0.24559042998E+02  0.45045681338E+02  0.00000000000E+00 0.  1.
         11    1    3    3    0    0  0.24112452307E+01  0.16948606720E+01 -0.21500644339E+01  0.36482096419E+01  0.51100000000E-03 0. -1.
        -11    1    3    3    0    0  0.65317311332E+01  0.84606755603E+01 -0.82316005912E+01  0.13490952193E+02  0.51100000000E-03 0.  1.
        -12    1    3    3    0    0  0.23732054186E+02  0.87735206064E+01 -0.14177377973E+02  0.29003156827E+02  0.00000000000E+00 0.  1.
</event>
<event>
 7    1  0.1683291E-008  0.4614232E+02  0.7816164E-02  0.1320468E+00
        -11   -1    0    0    0    0  0.00000000000E+00  0.00000000000E+00  0.45593999997E+02  0.45594000000E+02  0.51100000000E-03 0.  1.
         11   -1    0    0    0    0 -0.00000000000E+00 -0.00000000000E+00 -0.45593999997E+02  0.45594000000E+02  0.51100000000E-03 0. -1.
    9900012    2    1    2    0    0 -0.24889596792E+02  0.28976928335E+02 -0.23873816085E+02  0.46142317646E+02  0.99999989539E+01 0.  0.
        -12    1    1    2    0    0  0.24889596792E+02 -0.28976928335E+02  0.23873816085E+02  0.45045682354E+02  0.00000000000E+00 0.  1.
         11    1    3    3    0    0 -0.60857687142E+01  0.13015490835E+02 -0.97612588085E+01  0.17370139789E+02  0.51100000000E-03 0. -1.
        -11    1    3    3    0    0 -0.10670658766E+02  0.11729743591E+02 -0.80775109126E+01  0.17795955327E+02  0.51100000000E-03 0.  1.
         12    1    3    3    0    0 -0.81331693127E+01  0.42316939098E+01 -0.60350463638E+01  0.10976222530E+02  0.00000000000E+00 0. -1.
</event>
<event>
 7    1  0.1683291E-008  0.4614232E+02  0.7816164E-02  0.1320468E+00
        -11   -1    0    0    0    0  0.00000000000E+00  0.00000000000E+00  0.45593999997E+02  0.45594000000E+02  0.51100000000E-03 0.  1.
         11   -1    0    0    0    0 -0.00000000000E+00 -0.00000000000E+00 -0.45593999997E+02  0.45594000000E+02  0.51100000000E-03 0. -1.
    9900012    2    1    2    0    0 -0.13694034865E+02 -0.39418188062E+02 -0.16964472663E+02  0.46142317924E+02  0.10000001483E+02 0.  0.
        -12    1    1    2    0    0  0.13694034865E+02  0.39418188062E+02  0.16964472663E+02  0.45045682076E+02  0.00000000000E+00 0.  1.
         11    1    3    3    0    0  0.23793389393E+00 -0.28171782585E+01 -0.12770748199E+00  0.28300910481E+01  0.51100000000E-03 0.  1.
        -11    1    3    3    0    0 -0.73043839061E+01 -0.18080297067E+02 -0.42459928700E+01  0.19956944205E+02  0.51100000000E-03 0. -1.
        -12    1    3    3    0    0 -0.66275848529E+01 -0.18520712736E+02 -0.12590772311E+02  0.23355282671E+02  0.00000000000E+00 0.  1.
</event>
<event>
 7    1  0.1683291E-008  0.4614232E+02  0.7816164E-02  0.1320468E+00
        -11   -1    0    0    0    0  0.00000000000E+00  0.00000000000E+00  0.45593999997E+02  0.45594000000E+02  0.51100000000E-03 0.  1.
         11   -1    0    0    0    0 -0.00000000000E+00 -0.00000000000E+00 -0.45593999997E+02  0.45594000000E+02  0.51100000000E-03 0. -1.
    9900012    2    1    2    0    0  0.24201017852E+02  0.29385885829E+02 -0.24080987218E+02  0.46142317672E+02  0.99999991869E+01 0.  0.
        -12    1    1    2    0    0 -0.24201017852E+02 -0.29385885829E+02  0.24080987218E+02  0.45045682328E+02  0.00000000000E+00 0.  1.
         11    1    3    3    0    0  0.14918688366E+01  0.40745748229E+01 -0.63478490060E+01  0.76891494898E+01  0.51100000000E-03 0. -1.
        -11    1    3    3    0    0  0.62367303675E+01  0.73540323080E+01 -0.36640268180E+01  0.10315216413E+02  0.51100000000E-03 0.  1.
         12    1    3    3    0    0  0.16472418648E+02  0.17957278698E+02 -0.14069111394E+02  0.28137951769E+02  0.00000000000E+00 0. -1.
</event>
<event>
 7    1  0.1683291E-008  0.4614233E+02  0.7816164E-02  0.1320468E+00
        -11   -1    0    0    0    0  0.00000000000E+00  0.00000000000E+00  0.45593999997E+02  0.45594000000E+02  0.51100000000E-03 0. -1.
         11   -1    0    0    0    0 -0.00000000000E+00 -0.00000000000E+00 -0.45593999997E+02  0.45594000000E+02  0.51100000000E-03 0.  1.
    9900012    2    1    2    0    0  0.22318991033E+02 -0.73358115452E+01  0.38433855668E+02  0.46142325921E+02  0.10000074406E+02 0.  0.
        -12    1    1    2    0    0 -0.22318991033E+02  0.73358115452E+01 -0.38433855668E+02  0.45045674079E+02  0.00000000000E+00 0.  1.
         11    1    3    3    0    0  0.15375367432E+01 -0.12152822442E+01  0.47405201418E+00  0.20163471286E+01  0.51100000000E-03 0. -1.
        -11    1    3    3    0    0  0.20691865643E+01 -0.55019471294E+00  0.10821451707E+01  0.23990176514E+01  0.51100000000E-03 0.  1.
         12    1    3    3    0    0  0.18712267725E+02 -0.55703345880E+01  0.36877658483E+02  0.41726961141E+02  0.00000000000E+00 0. -1.
</event>
<event>
 7    1  0.1683291E-008  0.4614232E+02  0.7816164E-02  0.1320468E+00
        -11   -1    0    0    0    0  0.00000000000E+00  0.00000000000E+00  0.45593999997E+02  0.45594000000E+02  0.51100000000E-03 0. -1.
         11   -1    0    0    0    0 -0.00000000000E+00 -0.00000000000E+00 -0.45593999997E+02  0.45594000000E+02  0.51100000000E-03 0.  1.
    9900012    2    1    2    0    0  0.92801151618E+01 -0.35492457819E+02  0.26139592161E+02  0.46142318989E+02  0.10000011197E+02 0.  0.
        -12    1    1    2    0    0 -0.92801151618E+01  0.35492457819E+02 -0.26139592161E+02  0.45045681011E+02  0.00000000000E+00 0.  1.
         11    1    3    3    0    0  0.25667177931E+01 -0.47722791958E+01  0.36521039350E+01  0.65345659661E+01  0.51100000000E-03 0.  1.
        -11    1    3    3    0    0  0.43323985494E+01 -0.17691419278E+02  0.18041463986E+02  0.25636895606E+02  0.51100000000E-03 0. -1.
        -12    1    3    3    0    0  0.23809988193E+01 -0.13028759344E+02  0.44460242393E+01  0.13970857417E+02  0.00000000000E+00 0.  1.
</event>
<event>
 7    1  0.1683291E-008  0.4614232E+02  0.7816164E-02  0.1320468E+00
        -11   -1    0    0    0    0  0.00000000000E+00  0.00000000000E+00  0.45593999997E+02  0.45594000000E+02  0.51100000000E-03 0. -1.
         11   -1    0    0    0    0 -0.00000000000E+00 -0.00000000000E+00 -0.45593999997E+02  0.45594000000E+02  0.51100000000E-03 0.  1.
    9900012    2    1    2    0    0 -0.86060075320E+01  0.44182149701E+02  0.17285302964E+01  0.46142317245E+02  0.99999952955E+01 0.  0.
        -12    1    1    2    0    0  0.86060075320E+01 -0.44182149701E+02 -0.17285302964E+01  0.45045682755E+02  0.00000000000E+00 0.  1.
         11    1    3    3    0    0 -0.35652131606E+01  0.68671574632E+01  0.26211976131E+01  0.81694108535E+01  0.51100000000E-03 0. -1.
        -11    1    3    3    0    0 -0.14714384389E+01  0.26866921929E+02 -0.15971722723E+00  0.26907659409E+02  0.51100000000E-03 0.  1.
        -12    1    3    3    0    0 -0.35693559325E+01  0.10448070309E+02 -0.73295008943E+00  0.11065246983E+02  0.00000000000E+00 0.  1.
</event>
<event>
 7    1  0.1683291E-008  0.4614232E+02  0.7816164E-02  0.1320468E+00
        -11   -1    0    0    0    0  0.00000000000E+00  0.00000000000E+00  0.45593999997E+02  0.45594000000E+02  0.51100000000E-03 0.  1.
         11   -1    0    0    0    0 -0.00000000000E+00 -0.00000000000E+00 -0.45593999997E+02  0.45594000000E+02  0.51100000000E-03 0. -1.
    9900012    2    1    2    0    0 -0.60562449456E+01 -0.44577948092E+02  0.22894915926E+01  0.46142319511E+02  0.10000015958E+02 0.  0.
        -12    1    1    2    0    0  0.60562449456E+01  0.44577948092E+02 -0.22894915926E+01  0.45045680489E+02  0.00000000000E+00 0.  1.
         11    1    3    3    0    0 -0.41056081349E+01 -0.21178819994E+02  0.14411414366E+01  0.21621177660E+02  0.51100000000E-03 0. -1.
        -11    1    3    3    0    0  0.25213486962E+01 -0.53955598926E+01  0.16467180317E+00  0.59578840931E+01  0.51100000000E-03 0.  1.
        -12    1    3    3    0    0 -0.44719855069E+01 -0.18003568206E+02  0.68367835280E+00  0.18563257758E+02  0.00000000000E+00 0.  1.
</event>
<event>
 7    1  0.1683291E-008  0.4614232E+02  0.7816164E-02  0.1320468E+00
        -11   -1    0    0    0    0  0.00000000000E+00  0.00000000000E+00  0.45593999997E+02  0.45594000000E+02  0.51100000000E-03 0.  1.
         11   -1    0    0    0    0 -0.00000000000E+00 -0.00000000000E+00 -0.45593999997E+02  0.45594000000E+02  0.51100000000E-03 0. -1.
    9900012    2    1    2    0    0 -0.12173823517E+02 -0.92547962040E+01 -0.42370511379E+02  0.46142318006E+02  0.10000002234E+02 0.  0.
        -12    1    1    2    0    0  0.12173823517E+02  0.92547962040E+01  0.42370511379E+02  0.45045681994E+02  0.00000000000E+00 0.  1.
         11    1    3    3    0    0 -0.52081015165E+01 -0.49704792563E+01 -0.10694475327E+02  0.12891927251E+02  0.51100000000E-03 0. -1.
        -11    1    3    3    0    0 -0.35661070749E+01 -0.50226276115E+01 -0.24680368067E+02  0.25437462059E+02  0.51100000000E-03 0.  1.
        -12    1    3    3    0    0 -0.33996149260E+01  0.73831066373E+00 -0.69956679840E+01  0.78129286969E+01  0.00000000000E+00 0.  1.
</event>
<event>
 7    1  0.1683291E-008  0.4614232E+02  0.7816164E-02  0.1320468E+00
        -11   -1    0    0    0    0  0.00000000000E+00  0.00000000000E+00  0.45593999997E+02  0.45594000000E+02  0.51100000000E-03 0. -1.
         11   -1    0    0    0    0 -0.00000000000E+00 -0.00000000000E+00 -0.45593999997E+02  0.45594000000E+02  0.51100000000E-03 0.  1.
    9900012    2    1    2    0    0  0.95264247369E+01 -0.43245667750E+02 -0.82566834219E+01  0.46142319091E+02  0.10000012127E+02 0.  0.
        -12    1    1    2    0    0 -0.95264247369E+01  0.43245667750E+02  0.82566834219E+01  0.45045680909E+02  0.00000000000E+00 0.  1.
         11    1    3    3    0    0  0.72480568094E+01 -0.19640891380E+02 -0.37928959770E+01  0.21276395415E+02  0.51100000000E-03 0. -1.
        -11    1    3    3    0    0  0.24361722617E+00  0.23479658025E+00 -0.51471390731E+00  0.61596221839E+00  0.51100000000E-03 0.  1.
         12    1    3    3    0    0  0.20347507014E+01 -0.23839572950E+02 -0.39490735376E+01  0.24249961457E+02  0.00000000000E+00 0. -1.
</event>
<event>
 7    1  0.1683291E-008  0.4614232E+02  0.7816164E-02  0.1320468E+00
        -11   -1    0    0    0    0  0.00000000000E+00  0.00000000000E+00  0.45593999997E+02  0.45594000000E+02  0.51100000000E-03 0. -1.
         11   -1    0    0    0    0 -0.00000000000E+00 -0.00000000000E+00 -0.45593999997E+02  0.45594000000E+02  0.51100000000E-03 0.  1.
    9900012    2    1    2    0    0  0.12547339061E+02  0.39988948216E+02  0.16509445026E+02  0.46142317943E+02  0.10000001656E+02 0.  0.
        -12    1    1    2    0    0 -0.12547339061E+02 -0.39988948216E+02 -0.16509445026E+02  0.45045682057E+02  0.00000000000E+00 0.  1.
         11    1    3    3    0    0  0.50050178416E+01  0.15987282778E+02  0.91704524581E+01  0.19098183494E+02  0.51100000000E-03 0. -1.
        -11    1    3    3    0    0  0.86644398518E+01  0.21057322872E+02  0.56146326447E+01  0.23452237942E+02  0.51100000000E-03 0.  1.
        -12    1    3    3    0    0 -0.11221186325E+01  0.29443425666E+01  0.17243599235E+01  0.35918965075E+01  0.00000000000E+00 0.  1.
</event>
<event>
 7    1  0.1683291E-008  0.4614232E+02  0.7816164E-02  0.1320468E+00
        -11   -1    0    0    0    0  0.00000000000E+00  0.00000000000E+00  0.45593999997E+02  0.45594000000E+02  0.51100000000E-03 0.  1.
         11   -1    0    0    0    0 -0.00000000000E+00 -0.00000000000E+00 -0.45593999997E+02  0.45594000000E+02  0.51100000000E-03 0. -1.
    9900012    2    1    2    0    0  0.11328251173E+01  0.42166524666E+02 -0.15805518523E+02  0.46142317511E+02  0.99999977164E+01 0.  0.
        -12    1    1    2    0    0 -0.11328251173E+01 -0.42166524666E+02  0.15805518523E+02  0.45045682489E+02  0.00000000000E+00 0.  1.
         11    1    3    3    0    0 -0.23706004072E+01  0.11009588448E+02 -0.58922264363E+01  0.12710197351E+02  0.51100000000E-03 0.  1.
        -11    1    3    3    0    0  0.13762691811E+00  0.23458327683E+02 -0.63302324241E+01  0.24297817220E+02  0.51100000000E-03 0. -1.
         12    1    3    3    0    0  0.33657986063E+01  0.76986085350E+01 -0.35830596629E+01  0.91343029390E+01  0.00000000000E+00 0. -1.
</event>
<event>
 7    1  0.1683291E-008  0.4614232E+02  0.7816164E-02  0.1320468E+00
        -11   -1    0    0    0    0  0.00000000000E+00  0.00000000000E+00  0.45593999997E+02  0.45594000000E+02  0.51100000000E-03 0.  1.
         11   -1    0    0    0    0 -0.00000000000E+00 -0.00000000000E+00 -0.45593999997E+02  0.45594000000E+02  0.51100000000E-03 0. -1.
    9900012    2    1    2    0    0 -0.29412033306E+02 -0.24353159508E+02 -0.23894967924E+02  0.46142316818E+02  0.99999913999E+01 0.  0.
        -12    1    1    2    0    0  0.29412033306E+02  0.24353159508E+02  0.23894967924E+02  0.45045683182E+02  0.00000000000E+00 0.  1.
         11    1    3    3    0    0 -0.17487805450E+02 -0.18473531350E+02 -0.19520074834E+02  0.32064435466E+02  0.51100000000E-03 0. -1.
        -11    1    3    3    0    0 -0.75393660550E+01 -0.30792419802E+01 -0.31569573092E+01  0.87344233580E+01  0.51100000000E-03 0.  1.
         12    1    3    3    0    0 -0.43848618015E+01 -0.28003861779E+01 -0.12179357812E+01  0.53434579937E+01  0.00000000000E+00 0. -1.
</event>
<event>
 7    1  0.1683291E-008  0.4614232E+02  0.7816164E-02  0.1320468E+00
        -11   -1    0    0    0    0  0.00000000000E+00  0.00000000000E+00  0.45593999997E+02  0.45594000000E+02  0.51100000000E-03 0.  1.
         11   -1    0    0    0    0 -0.00000000000E+00 -0.00000000000E+00 -0.45593999997E+02  0.45594000000E+02  0.51100000000E-03 0. -1.
    9900012    2    1    2    0    0 -0.34169864172E+02  0.14402662421E+02 -0.25575324322E+02  0.46142317449E+02  0.99999971565E+01 0.  0.
        -12    1    1    2    0    0  0.34169864172E+02 -0.14402662421E+02  0.25575324322E+02  0.45045682551E+02  0.00000000000E+00 0.  1.
         11    1    3    3    0    0 -0.56846711916E+01  0.59717114705E+01 -0.61025475699E+01  0.10257578250E+02  0.51100000000E-03 0. -1.
        -11    1    3    3    0    0 -0.95591332295E+01  0.52242171191E+01 -0.60426405270E+01  0.12457245980E+02  0.51100000000E-03 0.  1.
         12    1    3    3    0    0 -0.18926059750E+02  0.32067338310E+01 -0.13430136225E+02  0.23427493220E+02  0.00000000000E+00 0. -1.
</event>
<event>
 7    1  0.1683291E-008  0.4614232E+02  0.7816164E-02  0.1320468E+00
        -11   -1    0    0    0    0  0.00000000000E+00  0.00000000000E+00  0.45593999997E+02  0.45594000000E+02  0.51100000000E-03 0.  1.
         11   -1    0    0    0    0 -0.00000000000E+00 -0.00000000000E+00 -0.45593999997E+02  0.45594000000E+02  0.51100000000E-03 0. -1.
    9900012    2    1    2    0    0 -0.11142882541E+02  0.32165266377E+02 -0.29501616446E+02  0.46142316907E+02  0.99999922126E+01 0.  0.
        -12    1    1    2    0    0  0.11142882541E+02 -0.32165266377E+02  0.29501616446E+02  0.45045683093E+02  0.00000000000E+00 0.  1.
         11    1    3    3    0    0 -0.78416527722E+01  0.11587871928E+02 -0.93028048111E+01  0.16802156756E+02  0.51100000000E-03 0. -1.
        -11    1    3    3    0    0 -0.17063134619E+01  0.18856963495E+02 -0.18024716712E+02  0.26141671536E+02  0.51100000000E-03 0.  1.
        -12    1    3    3    0    0 -0.15949163072E+01  0.17204309531E+01 -0.21740949226E+01  0.31984886155E+01  0.00000000000E+00 0.  1.
</event>
<event>
 7    1  0.1683291E-008  0.4614232E+02  0.7816164E-02  0.1320468E+00
        -11   -1    0    0    0    0  0.00000000000E+00  0.00000000000E+00  0.45593999997E+02  0.45594000000E+02  0.51100000000E-03 0.  1.
         11   -1    0    0    0    0 -0.00000000000E+00 -0.00000000000E+00 -0.45593999997E+02  0.45594000000E+02  0.51100000000E-03 0. -1.
    9900012    2    1    2    0    0 -0.21676499480E+02 -0.27732684693E+02 -0.28109448171E+02  0.46142317560E+02  0.99999981634E+01 0.  0.
        -12    1    1    2    0    0  0.21676499480E+02  0.27732684693E+02  0.28109448171E+02  0.45045682440E+02  0.00000000000E+00 0.  1.
         11    1    3    3    0    0 -0.13230437432E+02 -0.19697056494E+02 -0.16011841770E+02  0.28625121595E+02  0.51100000000E-03 0. -1.
        -11    1    3    3    0    0  0.39408257923E+00  0.17477782039E+00 -0.11411637426E+01  0.12198784014E+01  0.51100000000E-03 0.  1.
        -12    1    3    3    0    0 -0.88401446274E+01 -0.82104060199E+01 -0.10956442658E+02  0.16297317564E+02  0.00000000000E+00 0.  1.
</event>
<event>
 7    1  0.1683291E-008  0.4614232E+02  0.7816164E-02  0.1320468E+00
        -11   -1    0    0    0    0  0.00000000000E+00  0.00000000000E+00  0.45593999997E+02  0.45594000000E+02  0.51100000000E-03 0.  1.
         11   -1    0    0    0    0 -0.00000000000E+00 -0.00000000000E+00 -0.45593999997E+02  0.45594000000E+02  0.51100000000E-03 0. -1.
    9900012    2    1    2    0    0  0.15941086188E+02 -0.36244191444E+02 -0.21479149471E+02  0.46142317585E+02  0.99999983898E+01 0.  0.
        -12    1    1    2    0    0 -0.15941086188E+02  0.36244191444E+02  0.21479149471E+02  0.45045682415E+02  0.00000000000E+00 0.  1.
         11    1    3    3    0    0  0.63055810064E+01 -0.12106144667E+02 -0.11868174680E+02  0.18087914778E+02  0.51100000000E-03 0. -1.
        -11    1    3    3    0    0  0.11316780497E+01 -0.57078700720E+00 -0.16421636332E+00  0.12780689695E+01  0.51100000000E-03 0.  1.
         12    1    3    3    0    0  0.85038271322E+01 -0.23567259770E+02 -0.94467584276E+01  0.26776333837E+02  0.00000000000E+00 0. -1.
</event>
<event>
 7    1  0.1683291E-008  0.4614232E+02  0.7816164E-02  0.1320468E+00
        -11   -1    0    0    0    0  0.00000000000E+00  0.00000000000E+00  0.45593999997E+02  0.45594000000E+02  0.51100000000E-03 0.  1.
         11   -1    0    0    0    0 -0.00000000000E+00 -0.00000000000E+00 -0.45593999997E+02  0.45594000000E+02  0.51100000000E-03 0. -1.
    9900012    2    1    2    0    0 -0.14288068336E+02  0.33531510409E+02 -0.26468895455E+02  0.46142317480E+02  0.99999974398E+01 0.  0.
        -12    1    1    2    0    0  0.14288068336E+02 -0.33531510409E+02  0.26468895455E+02  0.45045682520E+02  0.00000000000E+00 0.  1.
         11    1    3    3    0    0 -0.35872172240E+01  0.10192164975E+02 -0.52924404997E+01  0.12031553557E+02  0.51100000000E-03 0. -1.
        -11    1    3    3    0    0 -0.72505312878E+01  0.93832170942E+01 -0.12900623934E+02  0.17522587284E+02  0.51100000000E-03 0.  1.
        -12    1    3    3    0    0 -0.34503198237E+01  0.13956128340E+02 -0.82758310217E+01  0.16588176640E+02  0.00000000000E+00 0.  1.
</event>
<event>
 7    1  0.1683291E-008  0.4614232E+02  0.7816164E-02  0.1320468E+00
        -11   -1    0    0    0    0  0.00000000000E+00  0.00000000000E+00  0.45593999997E+02  0.45594000000E+02  0.51100000000E-03 0.  1.
         11   -1    0    0    0    0 -0.00000000000E+00 -0.00000000000E+00 -0.45593999997E+02  0.45594000000E+02  0.51100000000E-03 0. -1.
    9900012    2    1    2    0    0 -0.63684596027E+01 -0.31070353968E+02 -0.31987330128E+02  0.46142318052E+02  0.10000002654E+02 0.  0.
        -12    1    1    2    0    0  0.63684596027E+01  0.31070353968E+02  0.31987330128E+02  0.45045681948E+02  0.00000000000E+00 0.  1.
         11    1    3    3    0    0  0.35529343037E+00 -0.17958199167E+02 -0.18859209836E+02  0.26044057799E+02  0.51100000000E-03 0. -1.
        -11    1    3    3    0    0 -0.35199936303E+01 -0.33084560141E+01 -0.51306583734E+01  0.70469775053E+01  0.51100000000E-03 0.  1.
         12    1    3    3    0    0 -0.32037594028E+01 -0.98036987873E+01 -0.79974619185E+01  0.13051282748E+02  0.00000000000E+00 0. -1.
</event>
<event>
 7    1  0.1683291E-008  0.4614232E+02  0.7816164E-02  0.1320468E+00
        -11   -1    0    0    0    0  0.00000000000E+00  0.00000000000E+00  0.45593999997E+02  0.45594000000E+02  0.51100000000E-03 0. -1.
         11   -1    0    0    0    0 -0.00000000000E+00 -0.00000000000E+00 -0.45593999997E+02  0.45594000000E+02  0.51100000000E-03 0.  1.
    9900012    2    1    2    0    0  0.43001292955E+02  0.57861330836E+01  0.12104671364E+02  0.46142316515E+02  0.99999886344E+01 0.  0.
        -12    1    1    2    0    0 -0.43001292955E+02 -0.57861330836E+01 -0.12104671364E+02  0.45045683485E+02  0.00000000000E+00 0.  1.
         11    1    3    3    0    0  0.30346028436E+02  0.72027880454E+01  0.96030147745E+01  0.32634023511E+02  0.51100000000E-03 0. -1.
        -11    1    3    3    0    0  0.90062132728E+01 -0.19944318620E+01  0.34602260883E+00  0.92308920411E+01  0.51100000000E-03 0.  1.
        -12    1    3    3    0    0  0.36490512457E+01  0.57777690022E+00  0.21556339805E+01  0.42774009630E+01  0.00000000000E+00 0.  1.
</event>
<event>
 7    1  0.1683291E-008  0.4614232E+02  0.7816164E-02  0.1320468E+00
        -11   -1    0    0    0    0  0.00000000000E+00  0.00000000000E+00  0.45593999997E+02  0.45594000000E+02  0.51100000000E-03 0. -1.
         11   -1    0    0    0    0 -0.00000000000E+00 -0.00000000000E+00 -0.45593999997E+02  0.45594000000E+02  0.51100000000E-03 0.  1.
    9900012    2    1    2    0    0 -0.56813510244E+01  0.44684116320E+02 -0.40658620850E+00  0.46142319706E+02  0.10000017739E+02 0.  0.
        -12    1    1    2    0    0  0.56813510244E+01 -0.44684116320E+02  0.40658620850E+00  0.45045680294E+02  0.00000000000E+00 0.  1.
         11    1    3    3    0    0 -0.22700758584E+01  0.15272876618E+02 -0.16484462582E+01  0.15528405582E+02  0.51100000000E-03 0. -1.
        -11    1    3    3    0    0 -0.58634047207E+01  0.22418963759E+02  0.11985135419E+01  0.23204005816E+02  0.51100000000E-03 0.  1.
        -12    1    3    3    0    0  0.24521295547E+01  0.69922759438E+01  0.43346507797E-01  0.74099083089E+01  0.00000000000E+00 0.  1.
</event>
<event>
 7    1  0.1683291E-008  0.4614232E+02  0.7816164E-02  0.1320468E+00
        -11   -1    0    0    0    0  0.00000000000E+00  0.00000000000E+00  0.45593999997E+02  0.45594000000E+02  0.51100000000E-03 0. -1.
         11   -1    0    0    0    0 -0.00000000000E+00 -0.00000000000E+00 -0.45593999997E+02  0.45594000000E+02  0.51100000000E-03 0.  1.
    9900012    2    1    2    0    0 -0.16360161807E+02  0.16503363412E+02  0.38588829058E+02  0.46142316230E+02  0.99999860350E+01 0.  0.
        -12    1    1    2    0    0  0.16360161807E+02 -0.16503363412E+02 -0.38588829058E+02  0.45045683770E+02  0.00000000000E+00 0.  1.
         11    1    3    3    0    0 -0.55390960171E+01  0.74462965551E+01  0.14941490994E+02  0.17589117956E+02  0.51100000000E-03 0. -1.
        -11    1    3    3    0    0 -0.33469183450E+01  0.75125214791E+01  0.14182345660E+02  0.16394473766E+02  0.51100000000E-03 0.  1.
        -12    1    3    3    0    0 -0.74741474448E+01  0.15445453779E+01  0.94649924037E+01  0.12158724508E+02  0.00000000000E+00 0.  1.
</event>
<event>
 7    1  0.1683291E-008  0.4614232E+02  0.7816164E-02  0.1320468E+00
        -11   -1    0    0    0    0  0.00000000000E+00  0.00000000000E+00  0.45593999997E+02  0.45594000000E+02  0.51100000000E-03 0. -1.
         11   -1    0    0    0    0 -0.00000000000E+00 -0.00000000000E+00 -0.45593999997E+02  0.45594000000E+02  0.51100000000E-03 0.  1.
    9900012    2    1    2    0    0  0.31933610097E+02 -0.31546971220E+02  0.37611954795E+01  0.46142318315E+02  0.10000005055E+02 0.  0.
        -12    1    1    2    0    0 -0.31933610097E+02  0.31546971220E+02 -0.37611954795E+01  0.45045681685E+02  0.00000000000E+00 0.  1.
         11    1    3    3    0    0  0.13902493423E+02 -0.13306835992E+02  0.28086082377E+01  0.19448380087E+02  0.51100000000E-03 0. -1.
        -11    1    3    3    0    0  0.17031786052E+02 -0.16055149448E+02  0.29212021904E+01  0.23587771883E+02  0.51100000000E-03 0.  1.
        -12    1    3    3    0    0  0.99933062217E+00 -0.21849857796E+01 -0.19686149486E+01  0.31061663454E+01  0.00000000000E+00 0.  1.
</event>
<event>
 7    1  0.1683291E-008  0.4614232E+02  0.7816164E-02  0.1320468E+00
        -11   -1    0    0    0    0  0.00000000000E+00  0.00000000000E+00  0.45593999997E+02  0.45594000000E+02  0.51100000000E-03 0. -1.
         11   -1    0    0    0    0 -0.00000000000E+00 -0.00000000000E+00 -0.45593999997E+02  0.45594000000E+02  0.51100000000E-03 0.  1.
    9900012    2    1    2    0    0  0.46333626985E+01 -0.42235135059E+02  0.14961242057E+02  0.46142318218E+02  0.10000004167E+02 0.  0.
        -12    1    1    2    0    0 -0.46333626985E+01  0.42235135059E+02 -0.14961242057E+02  0.45045681782E+02  0.00000000000E+00 0.  1.
         11    1    3    3    0    0  0.38033121199E+01 -0.20522148932E+02  0.10886153620E+02  0.23540011062E+02  0.51100000000E-03 0. -1.
        -11    1    3    3    0    0  0.80473905795E+00 -0.10281973126E+01  0.10947456402E+01  0.17038964003E+01  0.51100000000E-03 0.  1.
         12    1    3    3    0    0  0.25311520605E-01 -0.20684788814E+02  0.29803427961E+01  0.20898410756E+02  0.00000000000E+00 0. -1.
</event>
<event>
 7    1  0.1683291E-008  0.4614232E+02  0.7816164E-02  0.1320468E+00
        -11   -1    0    0    0    0  0.00000000000E+00  0.00000000000E+00  0.45593999997E+02  0.45594000000E+02  0.51100000000E-03 0.  1.
         11   -1    0    0    0    0 -0.00000000000E+00 -0.00000000000E+00 -0.45593999997E+02  0.45594000000E+02  0.51100000000E-03 0. -1.
    9900012    2    1    2    0    0 -0.68956278080E+01  0.35911134470E+02 -0.26305022511E+02  0.46142317953E+02  0.10000001748E+02 0.  0.
        -12    1    1    2    0    0  0.68956278080E+01 -0.35911134470E+02  0.26305022511E+02  0.45045682047E+02  0.00000000000E+00 0.  1.
         11    1    3    3    0    0 -0.43761433982E+01  0.20213754880E+02 -0.11372962938E+02  0.23602771101E+02  0.51100000000E-03 0. -1.
        -11    1    3    3    0    0 -0.28418550921E+00  0.87547016244E+01 -0.11560937385E+02  0.14504510865E+02  0.51100000000E-03 0.  1.
        -12    1    3    3    0    0 -0.22352989006E+01  0.69426779660E+01 -0.33711221878E+01  0.80350359875E+01  0.00000000000E+00 0.  1.
</event>
<event>
 7    1  0.1683291E-008  0.4614232E+02  0.7816164E-02  0.1320468E+00
        -11   -1    0    0    0    0  0.00000000000E+00  0.00000000000E+00  0.45593999997E+02  0.45594000000E+02  0.51100000000E-03 0.  1.
         11   -1    0    0    0    0 -0.00000000000E+00 -0.00000000000E+00 -0.45593999997E+02  0.45594000000E+02  0.51100000000E-03 0. -1.
    9900012    2    1    2    0    0 -0.11237045948E+02  0.20036544734E+02 -0.38747634095E+02  0.46142317915E+02  0.10000001404E+02 0.  0.
        -12    1    1    2    0    0  0.11237045948E+02 -0.20036544734E+02  0.38747634095E+02  0.45045682085E+02  0.00000000000E+00 0.  1.
         11    1    3    3    0    0 -0.39785660802E+01  0.43466637062E+01 -0.46262366007E+01  0.74916312493E+01  0.51100000000E-03 0. -1.
        -11    1    3    3    0    0  0.48440499171E+00  0.42327391042E+01 -0.95070998516E+01  0.10418045708E+02  0.51100000000E-03 0.  1.
        -12    1    3    3    0    0 -0.77428848593E+01  0.11457141924E+02 -0.24614297643E+02  0.28232640958E+02  0.00000000000E+00 0.  1.
</event>
<event>
 7    1  0.1683291E-008  0.4614232E+02  0.7816164E-02  0.1320468E+00
        -11   -1    0    0    0    0  0.00000000000E+00  0.00000000000E+00  0.45593999997E+02  0.45594000000E+02  0.51100000000E-03 0.  1.
         11   -1    0    0    0    0 -0.00000000000E+00 -0.00000000000E+00 -0.45593999997E+02  0.45594000000E+02  0.51100000000E-03 0. -1.
    9900012    2    1    2    0    0  0.22715424208E+02  0.16889210883E+02 -0.35041084154E+02  0.46142317411E+02  0.99999968080E+01 0.  0.
        -12    1    1    2    0    0 -0.22715424208E+02 -0.16889210883E+02  0.35041084154E+02  0.45045682589E+02  0.00000000000E+00 0.  1.
         11    1    3    3    0    0  0.44224159522E+01  0.11209121902E+01 -0.39982399132E+01  0.60663110419E+01  0.51100000000E-03 0. -1.
        -11    1    3    3    0    0  0.11111026597E+02  0.77233267634E+01 -0.11513973401E+02  0.17767280942E+02  0.51100000000E-03 0.  1.
         12    1    3    3    0    0  0.71819816586E+01  0.80449719298E+01 -0.19528870841E+02  0.22308725428E+02  0.00000000000E+00 0. -1.
</event>
<event>
 7    1  0.1683291E-008  0.4614232E+02  0.7816164E-02  0.1320468E+00
        -11   -1    0    0    0    0  0.00000000000E+00  0.00000000000E+00  0.45593999997E+02  0.45594000000E+02  0.51100000000E-03 0.  1.
         11   -1    0    0    0    0 -0.00000000000E+00 -0.00000000000E+00 -0.45593999997E+02  0.45594000000E+02  0.51100000000E-03 0. -1.
    9900012    2    1    2    0    0 -0.43952124470E+02 -0.82061037079E+01 -0.54757731797E+01  0.46142317905E+02  0.10000001314E+02 0.  0.
        -12    1    1    2    0    0  0.43952124470E+02  0.82061037079E+01  0.54757731797E+01  0.45045682095E+02  0.00000000000E+00 0.  1.
         11    1    3    3    0    0 -0.22604282576E+02 -0.11775047256E+01 -0.14688659840E+01  0.22682541209E+02  0.51100000000E-03 0. -1.
        -11    1    3    3    0    0 -0.17693630341E+02 -0.35389681738E+01 -0.27438931168E+01  0.18251515008E+02  0.51100000000E-03 0.  1.
        -12    1    3    3    0    0 -0.36542115520E+01 -0.34896308084E+01 -0.12630140789E+01  0.52082616879E+01  0.00000000000E+00 0.  1.
</event>
<event>
 7    1  0.1683291E-008  0.4614232E+02  0.7816164E-02  0.1320468E+00
        -11   -1    0    0    0    0  0.00000000000E+00  0.00000000000E+00  0.45593999997E+02  0.45594000000E+02  0.51100000000E-03 0.  1.
         11   -1    0    0    0    0 -0.00000000000E+00 -0.00000000000E+00 -0.45593999997E+02  0.45594000000E+02  0.51100000000E-03 0. -1.
    9900012    2    1    2    0    0  0.17410605638E+02  0.28876591975E+02 -0.29868490995E+02  0.46142317554E+02  0.99999981075E+01 0.  0.
        -12    1    1    2    0    0 -0.17410605638E+02 -0.28876591975E+02  0.29868490995E+02  0.45045682446E+02  0.00000000000E+00 0.  1.
         11    1    3    3    0    0  0.12918870131E+02  0.12266139726E+02 -0.17178309165E+02  0.24747721012E+02  0.51100000000E-03 0. -1.
        -11    1    3    3    0    0  0.35401448798E+01  0.13418953684E+02 -0.10593828316E+02  0.17459385510E+02  0.51100000000E-03 0.  1.
         12    1    3    3    0    0  0.95159062759E+00  0.31914985646E+01 -0.20963535137E+01  0.39352110318E+01  0.00000000000E+00 0. -1.
</event>
<event>
 7    1  0.1683291E-008  0.4614232E+02  0.7816164E-02  0.1320468E+00
        -11   -1    0    0    0    0  0.00000000000E+00  0.00000000000E+00  0.45593999997E+02  0.45594000000E+02  0.51100000000E-03 0.  1.
         11   -1    0    0    0    0 -0.00000000000E+00 -0.00000000000E+00 -0.45593999997E+02  0.45594000000E+02  0.51100000000E-03 0. -1.
    9900012    2    1    2    0    0  0.26423532154E+02  0.29412490574E+02 -0.21582765729E+02  0.46142318411E+02  0.10000005927E+02 0.  0.
        -12    1    1    2    0    0 -0.26423532154E+02 -0.29412490574E+02  0.21582765729E+02  0.45045681589E+02  0.00000000000E+00 0.  1.
         11    1    3    3    0    0  0.18513982882E+02  0.19273444535E+02 -0.15630692688E+02  0.30960487408E+02  0.51100000000E-03 0. -1.
        -11    1    3    3    0    0  0.89934817700E+00 -0.36848917779E+00  0.39058382117E+00  0.10474575887E+01  0.51100000000E-03 0.  1.
        -12    1    3    3    0    0  0.70102010952E+01  0.10507535218E+02 -0.63426568626E+01  0.14134373415E+02  0.00000000000E+00 0.  1.
</event>
<event>
 7    1  0.1683291E-008  0.4614231E+02  0.7816164E-02  0.1320468E+00
        -11   -1    0    0    0    0  0.00000000000E+00  0.00000000000E+00  0.45593999997E+02  0.45594000000E+02  0.51100000000E-03 0.  1.
         11   -1    0    0    0    0 -0.00000000000E+00 -0.00000000000E+00 -0.45593999997E+02  0.45594000000E+02  0.51100000000E-03 0. -1.
    9900012    2    1    2    0    0 -0.44352610281E+01 -0.62940839565E+01 -0.44382730680E+02  0.46142314126E+02  0.99999668524E+01 0.  0.
        -12    1    1    2    0    0  0.44352610281E+01  0.62940839565E+01  0.44382730680E+02  0.45045685874E+02  0.00000000000E+00 0.  1.
         11    1    3    3    0    0  0.17849533023E+01 -0.46373400427E+00 -0.10383050480E+02  0.10545560443E+02  0.51100000000E-03 0. -1.
        -11    1    3    3    0    0 -0.12171836410E+01 -0.48570873003E+01 -0.21942144336E+02  0.22506233167E+02  0.51100000000E-03 0.  1.
         12    1    3    3    0    0 -0.50030306894E+01 -0.97326265188E+00 -0.12057535864E+02  0.13090520516E+02  0.00000000000E+00 0. -1.
</event>
<event>
 7    1  0.1683291E-008  0.4614232E+02  0.7816164E-02  0.1320468E+00
        -11   -1    0    0    0    0  0.00000000000E+00  0.00000000000E+00  0.45593999997E+02  0.45594000000E+02  0.51100000000E-03 0. -1.
         11   -1    0    0    0    0 -0.00000000000E+00 -0.00000000000E+00 -0.45593999997E+02  0.45594000000E+02  0.51100000000E-03 0.  1.
    9900012    2    1    2    0    0  0.26912949114E+02 -0.33299878188E+02  0.13997312102E+02  0.46142318038E+02  0.10000002524E+02 0.  0.
        -12    1    1    2    0    0 -0.26912949114E+02  0.33299878188E+02 -0.13997312102E+02  0.45045681962E+02  0.00000000000E+00 0.  1.
         11    1    3    3    0    0  0.52882132007E+01 -0.82177816702E+01  0.50238984986E+01  0.10988024883E+02  0.51100000000E-03 0. -1.
        -11    1    3    3    0    0  0.13416649120E-01 -0.16143620990E+01  0.18697115108E+01  0.24702563405E+01  0.51100000000E-03 0.  1.
         12    1    3    3    0    0  0.21611319265E+02 -0.23467734418E+02  0.71037020926E+01  0.32684036815E+02  0.00000000000E+00 0. -1.
</event>
<event>
 7    1  0.1683291E-008  0.4614232E+02  0.7816164E-02  0.1320468E+00
        -11   -1    0    0    0    0  0.00000000000E+00  0.00000000000E+00  0.45593999997E+02  0.45594000000E+02  0.51100000000E-03 0.  1.
         11   -1    0    0    0    0 -0.00000000000E+00 -0.00000000000E+00 -0.45593999997E+02  0.45594000000E+02  0.51100000000E-03 0. -1.
    9900012    2    1    2    0    0  0.43523199181E+02 -0.78498353049E+01  0.85571356556E+01  0.46142319276E+02  0.10000013811E+02 0.  0.
        -12    1    1    2    0    0 -0.43523199181E+02  0.78498353049E+01 -0.85571356556E+01  0.45045680724E+02  0.00000000000E+00 0.  1.
         11    1    3    3    0    0  0.22828684896E+01 -0.23359492739E+01 -0.70243037595E+00  0.33408915346E+01  0.51100000000E-03 0.  1.
        -11    1    3    3    0    0  0.36708927495E+02 -0.60887765991E+01  0.85325138479E+01  0.38176201371E+02  0.51100000000E-03 0. -1.
         12    1    3    3    0    0  0.45314031971E+01  0.57489056816E+00  0.72705218362E+00  0.46252263704E+01  0.00000000000E+00 0. -1.
</event>
<event>
 7    1  0.1683291E-008  0.4614232E+02  0.7816164E-02  0.1320468E+00
        -11   -1    0    0    0    0  0.00000000000E+00  0.00000000000E+00  0.45593999997E+02  0.45594000000E+02  0.51100000000E-03 0.  1.
         11   -1    0    0    0    0 -0.00000000000E+00 -0.00000000000E+00 -0.45593999997E+02  0.45594000000E+02  0.51100000000E-03 0. -1.
    9900012    2    1    2    0    0 -0.17010833458E+02 -0.36171184750E+02 -0.20769938105E+02  0.46142318852E+02  0.10000009951E+02 0.  0.
        -12    1    1    2    0    0  0.17010833458E+02  0.36171184750E+02  0.20769938105E+02  0.45045681148E+02  0.00000000000E+00 0.  1.
         11    1    3    3    0    0 -0.14074732728E+02 -0.28394920089E+02 -0.16743550784E+02  0.35842936283E+02  0.51100000000E-03 0. -1.
        -11    1    3    3    0    0 -0.13067748916E+01 -0.76073073210E+01 -0.26535623829E+01  0.81621185285E+01  0.51100000000E-03 0.  1.
         12    1    3    3    0    0 -0.16293258387E+01 -0.16895733979E+00 -0.13728249375E+01  0.21372640408E+01  0.00000000000E+00 0. -1.
</event>
<event>
 7    1  0.1683291E-008  0.4614232E+02  0.7816164E-02  0.1320468E+00
        -11   -1    0    0    0    0  0.00000000000E+00  0.00000000000E+00  0.45593999997E+02  0.45594000000E+02  0.51100000000E-03 0. -1.
         11   -1    0    0    0    0 -0.00000000000E+00 -0.00000000000E+00 -0.45593999997E+02  0.45594000000E+02  0.51100000000E-03 0.  1.
    9900012    2    1    2    0    0 -0.12641906742E+02  0.41478613237E+02  0.12199198774E+02  0.46142316379E+02  0.99999874009E+01 0.  0.
        -12    1    1    2    0    0  0.12641906742E+02 -0.41478613237E+02 -0.12199198774E+02  0.45045683621E+02  0.00000000000E+00 0.  1.
         11    1    3    3    0    0  0.71431476043E+00  0.12185480762E+01 -0.67025448238E+00  0.15634405403E+01  0.51100000000E-03 0.  1.
        -11    1    3    3    0    0 -0.58517875760E+01  0.11549046932E+02  0.28446492512E+01  0.13255788641E+02  0.51100000000E-03 0. -1.
         12    1    3    3    0    0 -0.75044339264E+01  0.28711018229E+02  0.10024804005E+02  0.31323087198E+02  0.00000000000E+00 0. -1.
</event>
<event>
 7    1  0.1683291E-008  0.4614232E+02  0.7816164E-02  0.1320468E+00
        -11   -1    0    0    0    0  0.00000000000E+00  0.00000000000E+00  0.45593999997E+02  0.45594000000E+02  0.51100000000E-03 0. -1.
         11   -1    0    0    0    0 -0.00000000000E+00 -0.00000000000E+00 -0.45593999997E+02  0.45594000000E+02  0.51100000000E-03 0.  1.
    9900012    2    1    2    0    0 -0.43050416715E+01  0.40341847812E+02 -0.19573333602E+02  0.46142318109E+02  0.10000003176E+02 0.  0.
        -12    1    1    2    0    0  0.43050416715E+01 -0.40341847812E+02  0.19573333602E+02  0.45045681891E+02  0.00000000000E+00 0.  1.
         11    1    3    3    0    0 -0.42141901753E+00  0.64526305931E-01  0.32882659460E+00  0.53840953087E+00  0.51100000000E-03 0.  1.
        -11    1    3    3    0    0 -0.13588414836E+01  0.34521360796E+02 -0.15148185357E+02  0.37723180158E+02  0.51100000000E-03 0. -1.
        -12    1    3    3    0    0 -0.25247811704E+01  0.57559607103E+01 -0.47539748402E+01  0.78807284205E+01  0.00000000000E+00 0.  1.
</event>
<event>
 7    1  0.1683291E-008  0.4614232E+02  0.7816164E-02  0.1320468E+00
        -11   -1    0    0    0    0  0.00000000000E+00  0.00000000000E+00  0.45593999997E+02  0.45594000000E+02  0.51100000000E-03 0. -1.
         11   -1    0    0    0    0 -0.00000000000E+00 -0.00000000000E+00 -0.45593999997E+02  0.45594000000E+02  0.51100000000E-03 0.  1.
    9900012    2    1    2    0    0 -0.11718529787E+02  0.43136604080E+02  0.55698068358E+01  0.46142319851E+02  0.10000019054E+02 0.  0.
        -12    1    1    2    0    0  0.11718529787E+02 -0.43136604080E+02 -0.55698068358E+01  0.45045680149E+02  0.00000000000E+00 0.  1.
         11    1    3    3    0    0 -0.88373476112E+01  0.36542718053E+02  0.29097747383E+01  0.37708563282E+02  0.51100000000E-03 0. -1.
        -11    1    3    3    0    0 -0.71985059074E+00  0.32792283673E+01  0.29457090776E+01  0.44663996450E+01  0.51100000000E-03 0.  1.
        -12    1    3    3    0    0 -0.21613315852E+01  0.33146576602E+01 -0.28567698010E+00  0.39673569240E+01  0.00000000000E+00 0.  1.
</event>
<event>
 7    1  0.1683291E-008  0.4614232E+02  0.7816164E-02  0.1320468E+00
        -11   -1    0    0    0    0  0.00000000000E+00  0.00000000000E+00  0.45593999997E+02  0.45594000000E+02  0.51100000000E-03 0. -1.
         11   -1    0    0    0    0 -0.00000000000E+00 -0.00000000000E+00 -0.45593999997E+02  0.45594000000E+02  0.51100000000E-03 0.  1.
    9900012    2    1    2    0    0 -0.33825696396E+02  0.24791048957E+02 -0.16442007655E+02  0.46142318068E+02  0.10000002794E+02 0.  0.
        -12    1    1    2    0    0  0.33825696396E+02 -0.24791048957E+02  0.16442007655E+02  0.45045681932E+02  0.00000000000E+00 0.  1.
         11    1    3    3    0    0 -0.25866137885E+02  0.14326091951E+02 -0.11604301209E+02  0.31764033222E+02  0.51100000000E-03 0. -1.
        -11    1    3    3    0    0 -0.74342847017E+01  0.90617966151E+01 -0.31820937812E+01  0.12145388755E+02  0.51100000000E-03 0.  1.
         12    1    3    3    0    0 -0.52527380836E+00  0.14031603902E+01 -0.16556126648E+01  0.22328960904E+01  0.00000000000E+00 0. -1.
</event>
<event>
 7    1  0.1683291E-008  0.4614232E+02  0.7816164E-02  0.1320468E+00
        -11   -1    0    0    0    0  0.00000000000E+00  0.00000000000E+00  0.45593999997E+02  0.45594000000E+02  0.51100000000E-03 0.  1.
         11   -1    0    0    0    0 -0.00000000000E+00 -0.00000000000E+00 -0.45593999997E+02  0.45594000000E+02  0.51100000000E-03 0. -1.
    9900012    2    1    2    0    0  0.43242227782E+02  0.50423008394E+01 -0.11567124211E+02  0.46142318477E+02  0.10000006532E+02 0.  0.
        -12    1    1    2    0    0 -0.43242227782E+02 -0.50423008394E+01  0.11567124211E+02  0.45045681523E+02  0.00000000000E+00 0.  1.
         11    1    3    3    0    0  0.31922676467E+02  0.20279179188E+01 -0.80449089834E+01  0.32983181847E+02  0.51100000000E-03 0. -1.
        -11    1    3    3    0    0  0.77751717673E+01  0.40346186062E+01 -0.35986696294E+01  0.94700510384E+01  0.51100000000E-03 0.  1.
        -12    1    3    3    0    0  0.35443795474E+01 -0.10202356856E+01  0.76454401802E-01  0.36890855921E+01  0.00000000000E+00 0.  1.
</event>
<event>
 7    1  0.1683291E-008  0.4614232E+02  0.7816164E-02  0.1320468E+00
        -11   -1    0    0    0    0  0.00000000000E+00  0.00000000000E+00  0.45593999997E+02  0.45594000000E+02  0.51100000000E-03 0. -1.
         11   -1    0    0    0    0 -0.00000000000E+00 -0.00000000000E+00 -0.45593999997E+02  0.45594000000E+02  0.51100000000E-03 0.  1.
    9900012    2    1    2    0    0  0.19664200016E+02  0.39851441625E+02  0.73685375019E+01  0.46142317556E+02  0.99999981337E+01 0.  0.
        -12    1    1    2    0    0 -0.19664200016E+02 -0.39851441625E+02 -0.73685375019E+01  0.45045682444E+02  0.00000000000E+00 0.  1.
         11    1    3    3    0    0  0.93425892250E+01  0.18805387602E+02 -0.10788768690E+01  0.21025949488E+02  0.51100000000E-03 0.  1.
        -11    1    3    3    0    0  0.17463527207E+01  0.15106044569E+01  0.10386533982E+01  0.25318915445E+01  0.51100000000E-03 0. -1.
        -12    1    3    3    0    0  0.85752580706E+01  0.19535449566E+02  0.74087609728E+01  0.22584476524E+02  0.00000000000E+00 0.  1.
</event>
<event>
 7    1  0.1683291E-008  0.4614232E+02  0.7816164E-02  0.1320468E+00
        -11   -1    0    0    0    0  0.00000000000E+00  0.00000000000E+00  0.45593999997E+02  0.45594000000E+02  0.51100000000E-03 0.  1.
         11   -1    0    0    0    0 -0.00000000000E+00 -0.00000000000E+00 -0.45593999997E+02  0.45594000000E+02  0.51100000000E-03 0. -1.
    9900012    2    1    2    0    0  0.58744474775E+01 -0.53710696695E+01 -0.44336845403E+02  0.46142318933E+02  0.10000010683E+02 0.  0.
        -12    1    1    2    0    0 -0.58744474775E+01  0.53710696695E+01  0.44336845403E+02  0.45045681067E+02  0.00000000000E+00 0.  1.
         11    1    3    3    0    0  0.17171783326E+01 -0.42343783239E+01 -0.32858611184E+02  0.33174794505E+02  0.51100000000E-03 0. -1.
        -11    1    3    3    0    0  0.61117120408E+00  0.12929901817E+01 -0.49393798265E+01  0.51422589571E+01  0.51100000000E-03 0.  1.
         12    1    3    3    0    0  0.35460979408E+01 -0.24296815274E+01 -0.65388543921E+01  0.78252654710E+01  0.00000000000E+00 0. -1.
</event>
<event>
 7    1  0.1683291E-008  0.4614232E+02  0.7816164E-02  0.1320468E+00
        -11   -1    0    0    0    0  0.00000000000E+00  0.00000000000E+00  0.45593999997E+02  0.45594000000E+02  0.51100000000E-03 0.  1.
         11   -1    0    0    0    0 -0.00000000000E+00 -0.00000000000E+00 -0.45593999997E+02  0.45594000000E+02  0.51100000000E-03 0. -1.
    9900012    2    1    2    0    0 -0.43663035409E+02 -0.10916375860E+02  0.18669574099E+01  0.46142318154E+02  0.10000003580E+02 0.  0.
        -12    1    1    2    0    0  0.43663035409E+02  0.10916375860E+02 -0.18669574099E+01  0.45045681846E+02  0.00000000000E+00 0.  1.
         11    1    3    3    0    0 -0.36573805546E+02 -0.54339279288E+01  0.70489843368E-01  0.36975340349E+02  0.51100000000E-03 0.  1.
        -11    1    3    3    0    0 -0.64019256328E+01 -0.51452082884E+01  0.15183140948E+01  0.83524306696E+01  0.51100000000E-03 0. -1.
        -12    1    3    3    0    0 -0.68730423003E+00 -0.33723964313E+00  0.27815347170E+00  0.81454713512E+00  0.00000000000E+00 0.  1.
</event>
<event>
 7    1  0.1683291E-008  0.4614232E+02  0.7816164E-02  0.1320468E+00
        -11   -1    0    0    0    0  0.00000000000E+00  0.00000000000E+00  0.45593999997E+02  0.45594000000E+02  0.51100000000E-03 0.  1.
         11   -1    0    0    0    0 -0.00000000000E+00 -0.00000000000E+00 -0.45593999997E+02  0.45594000000E+02  0.51100000000E-03 0. -1.
    9900012    2    1    2    0    0  0.36025245915E+02 -0.13400336309E+02 -0.23488853165E+02  0.46142316750E+02  0.99999907802E+01 0.  0.
        -12    1    1    2    0    0 -0.36025245915E+02  0.13400336309E+02  0.23488853165E+02  0.45045683250E+02  0.00000000000E+00 0.  1.
         11    1    3    3    0    0  0.19083010608E+02 -0.62732285979E+01 -0.14686577591E+02  0.24883935632E+02  0.51100000000E-03 0. -1.
        -11    1    3    3    0    0  0.81901180214E+00 -0.16615118517E+01 -0.24854560683E+01  0.30998216229E+01  0.51100000000E-03 0.  1.
         12    1    3    3    0    0  0.16123223505E+02 -0.54655958590E+01 -0.63168195057E+01  0.18158559496E+02  0.00000000000E+00 0. -1.
</event>
<event>
 7    1  0.1683291E-008  0.4614232E+02  0.7816164E-02  0.1320468E+00
        -11   -1    0    0    0    0  0.00000000000E+00  0.00000000000E+00  0.45593999997E+02  0.45594000000E+02  0.51100000000E-03 0.  1.
         11   -1    0    0    0    0 -0.00000000000E+00 -0.00000000000E+00 -0.45593999997E+02  0.45594000000E+02  0.51100000000E-03 0. -1.
    9900012    2    1    2    0    0  0.12832473230E+02  0.21807199562E+02 -0.37267775933E+02  0.46142318243E+02  0.10000004395E+02 0.  0.
        -12    1    1    2    0    0 -0.12832473230E+02 -0.21807199562E+02  0.37267775933E+02  0.45045681757E+02  0.00000000000E+00 0.  1.
         11    1    3    3    0    0  0.93351286683E+01  0.11946684402E+02 -0.29152865825E+02  0.32859663442E+02  0.51100000000E-03 0. -1.
        -11    1    3    3    0    0  0.25687739115E+01  0.61869160375E+01 -0.47166067191E+01  0.81928571736E+01  0.51100000000E-03 0.  1.
         12    1    3    3    0    0  0.92857064982E+00  0.36735991219E+01 -0.33983033892E+01  0.50897976271E+01  0.00000000000E+00 0. -1.
</event>
<event>
 7    1  0.1683291E-008  0.4614232E+02  0.7816164E-02  0.1320468E+00
        -11   -1    0    0    0    0  0.00000000000E+00  0.00000000000E+00  0.45593999997E+02  0.45594000000E+02  0.51100000000E-03 0.  1.
         11   -1    0    0    0    0 -0.00000000000E+00 -0.00000000000E+00 -0.45593999997E+02  0.45594000000E+02  0.51100000000E-03 0. -1.
    9900012    2    1    2    0    0 -0.15894652652E+02  0.41874033958E+02 -0.47998750670E+01  0.46142317593E+02  0.99999984670E+01 0.  0.
        -12    1    1    2    0    0  0.15894652652E+02 -0.41874033958E+02  0.47998750670E+01  0.45045682407E+02  0.00000000000E+00 0.  1.
         11    1    3    3    0    0 -0.39645428385E+01  0.15222869310E+02 -0.13207985883E+01  0.15786001999E+02  0.51100000000E-03 0. -1.
        -11    1    3    3    0    0 -0.12331954359E+02  0.26577900788E+02 -0.41286589461E+01  0.29588979934E+02  0.51100000000E-03 0.  1.
        -12    1    3    3    0    0  0.40184454566E+00  0.73263860310E-01  0.64958246748E+00  0.76733565938E+00  0.00000000000E+00 0.  1.
</event>
<event>
 7    1  0.1683291E-008  0.4614232E+02  0.7816164E-02  0.1320468E+00
        -11   -1    0    0    0    0  0.00000000000E+00  0.00000000000E+00  0.45593999997E+02  0.45594000000E+02  0.51100000000E-03 0. -1.
         11   -1    0    0    0    0 -0.00000000000E+00 -0.00000000000E+00 -0.45593999997E+02  0.45594000000E+02  0.51100000000E-03 0.  1.
    9900012    2    1    2    0    0 -0.25624611920E+02  0.15721748978E+02  0.33545779674E+02  0.46142318066E+02  0.10000002779E+02 0.  0.
        -12    1    1    2    0    0  0.25624611920E+02 -0.15721748978E+02 -0.33545779674E+02  0.45045681934E+02  0.00000000000E+00 0.  1.
         11    1    3    3    0    0 -0.27659781071E+01  0.47619701465E-01  0.69295949087E+01  0.74613797910E+01  0.51100000000E-03 0. -1.
        -11    1    3    3    0    0 -0.62349882399E+01  0.31189558989E+01  0.44970412414E+01  0.82961644414E+01  0.51100000000E-03 0.  1.
         12    1    3    3    0    0 -0.16623645573E+02  0.12555173378E+02  0.22119143524E+02  0.30384773833E+02  0.00000000000E+00 0. -1.
</event>
<event>
 7    1  0.1683291E-008  0.4614232E+02  0.7816164E-02  0.1320468E+00
        -11   -1    0    0    0    0  0.00000000000E+00  0.00000000000E+00  0.45593999997E+02  0.45594000000E+02  0.51100000000E-03 0.  1.
         11   -1    0    0    0    0 -0.00000000000E+00 -0.00000000000E+00 -0.45593999997E+02  0.45594000000E+02  0.51100000000E-03 0. -1.
    9900012    2    1    2    0    0  0.24336860309E+02 -0.29854422791E+02 -0.23356883597E+02  0.46142319394E+02  0.10000014888E+02 0.  0.
        -12    1    1    2    0    0 -0.24336860309E+02  0.29854422791E+02  0.23356883597E+02  0.45045680606E+02  0.00000000000E+00 0.  1.
         11    1    3    3    0    0  0.13237473883E+02 -0.16204993700E+02 -0.97842630174E+01  0.23099011639E+02  0.51100000000E-03 0. -1.
        -11    1    3    3    0    0  0.58646960992E+01 -0.11274537388E+02 -0.10720237913E+02  0.16626285058E+02  0.51100000000E-03 0.  1.
        -12    1    3    3    0    0  0.52346903273E+01 -0.23748917030E+01 -0.28523826663E+01  0.64170226974E+01  0.00000000000E+00 0.  1.
</event>
<event>
 7    1  0.1683291E-008  0.4614232E+02  0.7816164E-02  0.1320468E+00
        -11   -1    0    0    0    0  0.00000000000E+00  0.00000000000E+00  0.45593999997E+02  0.45594000000E+02  0.51100000000E-03 0. -1.
         11   -1    0    0    0    0 -0.00000000000E+00 -0.00000000000E+00 -0.45593999997E+02  0.45594000000E+02  0.51100000000E-03 0.  1.
    9900012    2    1    2    0    0 -0.23233380574E+02  0.35457153163E+02  0.15235281350E+02  0.46142317841E+02  0.10000000729E+02 0.  0.
        -12    1    1    2    0    0  0.23233380574E+02 -0.35457153163E+02 -0.15235281350E+02  0.45045682159E+02  0.00000000000E+00 0.  1.
         11    1    3    3    0    0 -0.55322179037E+01  0.87998913151E+01  0.18285500806E+01  0.10554009558E+02  0.51100000000E-03 0. -1.
        -11    1    3    3    0    0 -0.14893085270E+02  0.19368438391E+02  0.68082063492E+01  0.25363203041E+02  0.51100000000E-03 0.  1.
        -12    1    3    3    0    0 -0.28080774001E+01  0.72888234576E+01  0.65985249203E+01  0.10225105242E+02  0.00000000000E+00 0.  1.
</event>
<event>
 7    1  0.1683291E-008  0.4614232E+02  0.7816164E-02  0.1320468E+00
        -11   -1    0    0    0    0  0.00000000000E+00  0.00000000000E+00  0.45593999997E+02  0.45594000000E+02  0.51100000000E-03 0.  1.
         11   -1    0    0    0    0 -0.00000000000E+00 -0.00000000000E+00 -0.45593999997E+02  0.45594000000E+02  0.51100000000E-03 0. -1.
    9900012    2    1    2    0    0 -0.17357828564E+02  0.13833426720E+02 -0.39197648291E+02  0.46142317201E+02  0.99999948968E+01 0.  0.
        -12    1    1    2    0    0  0.17357828564E+02 -0.13833426720E+02  0.39197648291E+02  0.45045682799E+02  0.00000000000E+00 0.  1.
         11    1    3    3    0    0 -0.93060563668E+01  0.54603727740E+01 -0.20449199897E+02  0.23121162008E+02  0.51100000000E-03 0. -1.
        -11    1    3    3    0    0  0.11451669405E+01  0.49262009299E+00 -0.16593013059E+01  0.20754187439E+01  0.51100000000E-03 0.  1.
        -12    1    3    3    0    0 -0.91969391375E+01  0.78804338527E+01 -0.17089147088E+02  0.20945736449E+02  0.00000000000E+00 0.  1.
</event>
<event>
 7    1  0.1683291E-008  0.4614232E+02  0.7816164E-02  0.1320468E+00
        -11   -1    0    0    0    0  0.00000000000E+00  0.00000000000E+00  0.45593999997E+02  0.45594000000E+02  0.51100000000E-03 0. -1.
         11   -1    0    0    0    0 -0.00000000000E+00 -0.00000000000E+00 -0.45593999997E+02  0.45594000000E+02  0.51100000000E-03 0.  1.
    9900012    2    1    2    0    0  0.39559229790E+02 -0.19369349347E+02  0.94344769594E+01  0.46142315288E+02  0.99999774443E+01 0.  0.
        -12    1    1    2    0    0 -0.39559229790E+02  0.19369349347E+02 -0.94344769594E+01  0.45045684712E+02  0.00000000000E+00 0.  1.
         11    1    3    3    0    0  0.24331129547E+02 -0.73425418466E+01  0.65901482066E+01  0.26255415431E+02  0.51100000000E-03 0. -1.
        -11    1    3    3    0    0  0.91337463736E+01 -0.91094341527E+01  0.23500495954E+01  0.13112202209E+02  0.51100000000E-03 0.  1.
        -12    1    3    3    0    0  0.60943538695E+01 -0.29173733482E+01  0.49427915750E+00  0.67746976482E+01  0.00000000000E+00 0.  1.
</event>
<event>
 7    1  0.1683291E-008  0.4614232E+02  0.7816164E-02  0.1320468E+00
        -11   -1    0    0    0    0  0.00000000000E+00  0.00000000000E+00  0.45593999997E+02  0.45594000000E+02  0.51100000000E-03 0.  1.
         11   -1    0    0    0    0 -0.00000000000E+00 -0.00000000000E+00 -0.45593999997E+02  0.45594000000E+02  0.51100000000E-03 0. -1.
    9900012    2    1    2    0    0  0.35614488534E+02  0.21672569105E+02 -0.17059351187E+02  0.46142317543E+02  0.99999980098E+01 0.  0.
        -12    1    1    2    0    0 -0.35614488534E+02 -0.21672569105E+02  0.17059351187E+02  0.45045682457E+02  0.00000000000E+00 0.  1.
         11    1    3    3    0    0  0.17409249755E+02  0.10797969830E+02 -0.59188408259E+01  0.21323949129E+02  0.51100000000E-03 0. -1.
        -11    1    3    3    0    0  0.68593186767E+01  0.69849734381E+00 -0.27719720263E+01  0.74311493340E+01  0.51100000000E-03 0.  1.
        -12    1    3    3    0    0  0.11345920102E+02  0.10176101931E+02 -0.83685383345E+01  0.17387219080E+02  0.00000000000E+00 0.  1.
</event>
<event>
 7    1  0.1683291E-008  0.4614232E+02  0.7816164E-02  0.1320468E+00
        -11   -1    0    0    0    0  0.00000000000E+00  0.00000000000E+00  0.45593999997E+02  0.45594000000E+02  0.51100000000E-03 0.  1.
         11   -1    0    0    0    0 -0.00000000000E+00 -0.00000000000E+00 -0.45593999997E+02  0.45594000000E+02  0.51100000000E-03 0. -1.
    9900012    2    1    2    0    0  0.28437803455E+02  0.21411101738E+02 -0.27603795073E+02  0.46142318238E+02  0.10000004348E+02 0.  0.
        -12    1    1    2    0    0 -0.28437803455E+02 -0.21411101738E+02  0.27603795073E+02  0.45045681762E+02  0.00000000000E+00 0.  1.
         11    1    3    3    0    0  0.11438697903E+01 -0.63860117760E+00 -0.47709143453E+00  0.13942259713E+01  0.51100000000E-03 0. -1.
        -11    1    3    3    0    0  0.66121099623E+01  0.27945400340E+01 -0.38982453115E+01  0.81685842668E+01  0.51100000000E-03 0.  1.
         12    1    3    3    0    0  0.20681823702E+02  0.19255162882E+02 -0.23228458327E+02  0.36579508000E+02  0.00000000000E+00 0. -1.
</event>
<event>
 7    1  0.1683291E-008  0.4614232E+02  0.7816164E-02  0.1320468E+00
        -11   -1    0    0    0    0  0.00000000000E+00  0.00000000000E+00  0.45593999997E+02  0.45594000000E+02  0.51100000000E-03 0.  1.
         11   -1    0    0    0    0 -0.00000000000E+00 -0.00000000000E+00 -0.45593999997E+02  0.45594000000E+02  0.51100000000E-03 0. -1.
    9900012    2    1    2    0    0 -0.38823301509E+02 -0.22843722074E+02 -0.17052369741E+00  0.46142318114E+02  0.10000003216E+02 0.  0.
        -12    1    1    2    0    0  0.38823301509E+02  0.22843722074E+02  0.17052369741E+00  0.45045681886E+02  0.00000000000E+00 0.  1.
         11    1    3    3    0    0 -0.13091437338E+02 -0.84530838277E+01 -0.33423164775E+01  0.15937736272E+02  0.51100000000E-03 0. -1.
        -11    1    3    3    0    0 -0.13350688712E+02 -0.85008869639E+01  0.44317592487E+01  0.16436132713E+02  0.51100000000E-03 0.  1.
        -12    1    3    3    0    0 -0.12381175459E+02 -0.58897512825E+01 -0.12599664686E+01  0.13768449129E+02  0.00000000000E+00 0.  1.
</event>
<event>
 7    1  0.1683291E-008  0.4614232E+02  0.7816164E-02  0.1320468E+00
        -11   -1    0    0    0    0  0.00000000000E+00  0.00000000000E+00  0.45593999997E+02  0.45594000000E+02  0.51100000000E-03 0. -1.
         11   -1    0    0    0    0 -0.00000000000E+00 -0.00000000000E+00 -0.45593999997E+02  0.45594000000E+02  0.51100000000E-03 0.  1.
    9900012    2    1    2    0    0 -0.34884459913E+02 -0.28479920562E+02 -0.10402035757E+01  0.46142318275E+02  0.10000004682E+02 0.  0.
        -12    1    1    2    0    0  0.34884459913E+02  0.28479920562E+02  0.10402035757E+01  0.45045681725E+02  0.00000000000E+00 0.  1.
         11    1    3    3    0    0 -0.20446923544E+02 -0.20136130329E+02 -0.28176852773E+01  0.28835391061E+02  0.51100000000E-03 0. -1.
        -11    1    3    3    0    0 -0.58803458185E+01 -0.15017518596E+01  0.18688959548E+01  0.63503147909E+01  0.51100000000E-03 0.  1.
         12    1    3    3    0    0 -0.85571905504E+01 -0.68420383736E+01 -0.91414253291E-01  0.10956612423E+02  0.00000000000E+00 0. -1.
</event>
<event>
 7    1  0.1683291E-008  0.4614232E+02  0.7816164E-02  0.1320468E+00
        -11   -1    0    0    0    0  0.00000000000E+00  0.00000000000E+00  0.45593999997E+02  0.45594000000E+02  0.51100000000E-03 0.  1.
         11   -1    0    0    0    0 -0.00000000000E+00 -0.00000000000E+00 -0.45593999997E+02  0.45594000000E+02  0.51100000000E-03 0. -1.
    9900012    2    1    2    0    0 -0.32977103550E+02 -0.30487753814E+02  0.34815358814E+01  0.46142316708E+02  0.99999903934E+01 0.  0.
        -12    1    1    2    0    0  0.32977103550E+02  0.30487753814E+02 -0.34815358814E+01  0.45045683292E+02  0.00000000000E+00 0.  1.
         11    1    3    3    0    0 -0.19809183652E+02 -0.13365700914E+02  0.13168948553E+01  0.23932821192E+02  0.51100000000E-03 0. -1.
        -11    1    3    3    0    0  0.25192789180E+00 -0.11582525990E+01 -0.26123361517E+00  0.12137792256E+01  0.51100000000E-03 0.  1.
        -12    1    3    3    0    0 -0.13419847790E+02 -0.15963800302E+02  0.24258746412E+01  0.20995716290E+02  0.00000000000E+00 0.  1.
</event>
<event>
 7    1  0.1683291E-008  0.4614232E+02  0.7816164E-02  0.1320468E+00
        -11   -1    0    0    0    0  0.00000000000E+00  0.00000000000E+00  0.45593999997E+02  0.45594000000E+02  0.51100000000E-03 0.  1.
         11   -1    0    0    0    0 -0.00000000000E+00 -0.00000000000E+00 -0.45593999997E+02  0.45594000000E+02  0.51100000000E-03 0. -1.
    9900012    2    1    2    0    0 -0.20724821108E+02  0.10425514507E+02 -0.38612225428E+02  0.46142317463E+02  0.99999972840E+01 0.  0.
        -12    1    1    2    0    0  0.20724821108E+02 -0.10425514507E+02  0.38612225428E+02  0.45045682537E+02  0.00000000000E+00 0.  1.
         11    1    3    3    0    0 -0.38892562465E+01  0.41016294719E+01 -0.70775819917E+01  0.90576953794E+01  0.51100000000E-03 0. -1.
        -11    1    3    3    0    0 -0.34882729720E+01  0.46658488503E+01 -0.12348628306E+02  0.13653820532E+02  0.51100000000E-03 0.  1.
         12    1    3    3    0    0 -0.13347291890E+02  0.16580361844E+01 -0.19186015130E+02  0.23430801552E+02  0.00000000000E+00 0. -1.
</event>
<event>
 7    1  0.1683291E-008  0.4614232E+02  0.7816164E-02  0.1320468E+00
        -11   -1    0    0    0    0  0.00000000000E+00  0.00000000000E+00  0.45593999997E+02  0.45594000000E+02  0.51100000000E-03 0.  1.
         11   -1    0    0    0    0 -0.00000000000E+00 -0.00000000000E+00 -0.45593999997E+02  0.45594000000E+02  0.51100000000E-03 0. -1.
    9900012    2    1    2    0    0  0.36151811506E+02 -0.21259006573E+02 -0.16438199650E+02  0.46142320480E+02  0.10000024795E+02 0.  0.
        -12    1    1    2    0    0 -0.36151811506E+02  0.21259006573E+02  0.16438199650E+02  0.45045679520E+02  0.00000000000E+00 0.  1.
         11    1    3    3    0    0  0.34412185728E+02 -0.20428071401E+02 -0.17350951275E+02  0.43618346348E+02  0.51100000000E-03 0. -1.
        -11    1    3    3    0    0  0.95114871133E+00 -0.84342792775E+00  0.11355151459E+01  0.17045378987E+01  0.51100000000E-03 0.  1.
         12    1    3    3    0    0  0.78847706728E+00  0.12492755689E-01 -0.22276352043E+00  0.81943623340E+00  0.00000000000E+00 0. -1.
</event>
<event>
 7    1  0.1683291E-008  0.4614232E+02  0.7816164E-02  0.1320468E+00
        -11   -1    0    0    0    0  0.00000000000E+00  0.00000000000E+00  0.45593999997E+02  0.45594000000E+02  0.51100000000E-03 0. -1.
         11   -1    0    0    0    0 -0.00000000000E+00 -0.00000000000E+00 -0.45593999997E+02  0.45594000000E+02  0.51100000000E-03 0.  1.
    9900012    2    1    2    0    0 -0.14445600366E+02 -0.20382745834E+02  0.37483085609E+02  0.46142318693E+02  0.10000008497E+02 0.  0.
        -12    1    1    2    0    0  0.14445600366E+02  0.20382745834E+02 -0.37483085609E+02  0.45045681307E+02  0.00000000000E+00 0.  1.
         11    1    3    3    0    0 -0.96937096825E+01 -0.15928019528E+02  0.31160033688E+02  0.36312773417E+02  0.51100000000E-03 0. -1.
        -11    1    3    3    0    0 -0.16753894606E+01 -0.85515625159E-01  0.32699788759E+01  0.36751877336E+01  0.51100000000E-03 0.  1.
         12    1    3    3    0    0 -0.30765012228E+01 -0.43692106808E+01  0.30530730447E+01  0.61543575427E+01  0.00000000000E+00 0. -1.
</event>
<event>
 7    1  0.1683291E-008  0.4614232E+02  0.7816164E-02  0.1320468E+00
        -11   -1    0    0    0    0  0.00000000000E+00  0.00000000000E+00  0.45593999997E+02  0.45594000000E+02  0.51100000000E-03 0.  1.
         11   -1    0    0    0    0 -0.00000000000E+00 -0.00000000000E+00 -0.45593999997E+02  0.45594000000E+02  0.51100000000E-03 0. -1.
    9900012    2    1    2    0    0 -0.23404919815E+02 -0.10884286285E+02 -0.36916873986E+02  0.46142317139E+02  0.99999943310E+01 0.  0.
        -12    1    1    2    0    0  0.23404919815E+02  0.10884286285E+02  0.36916873986E+02  0.45045682861E+02  0.00000000000E+00 0.  1.
         11    1    3    3    0    0 -0.99998980623E+01 -0.63248707535E+01 -0.14847741397E+02  0.18985715055E+02  0.51100000000E-03 0. -1.
        -11    1    3    3    0    0 -0.13153583927E+02 -0.56067301267E+01 -0.18226475120E+02  0.23165849615E+02  0.51100000000E-03 0.  1.
        -12    1    3    3    0    0 -0.25143782536E+00  0.10473145954E+01 -0.38426574695E+01  0.39907524691E+01  0.00000000000E+00 0.  1.
</event>
<event>
 7    1  0.1683291E-008  0.4614232E+02  0.7816164E-02  0.1320468E+00
        -11   -1    0    0    0    0  0.00000000000E+00  0.00000000000E+00  0.45593999997E+02  0.45594000000E+02  0.51100000000E-03 0.  1.
         11   -1    0    0    0    0 -0.00000000000E+00 -0.00000000000E+00 -0.45593999997E+02  0.45594000000E+02  0.51100000000E-03 0. -1.
    9900012    2    1    2    0    0 -0.23167522541E+02 -0.19062234073E+02 -0.33600753547E+02  0.46142317549E+02  0.99999980637E+01 0.  0.
        -12    1    1    2    0    0  0.23167522541E+02  0.19062234073E+02  0.33600753547E+02  0.45045682451E+02  0.00000000000E+00 0.  1.
         11    1    3    3    0    0 -0.17740192227E+02 -0.18747988510E+02 -0.28839584269E+02  0.38703011698E+02  0.51100000000E-03 0. -1.
        -11    1    3    3    0    0 -0.53495622615E+01 -0.60531104678E+00 -0.43081011458E+01  0.68952123678E+01  0.51100000000E-03 0.  1.
        -12    1    3    3    0    0 -0.77768052733E-01  0.29106548354E+00 -0.45306813263E+00  0.54409348328E+00  0.00000000000E+00 0.  1.
</event>
<event>
 7    1  0.1683291E-008  0.4614232E+02  0.7816164E-02  0.1320468E+00
        -11   -1    0    0    0    0  0.00000000000E+00  0.00000000000E+00  0.45593999997E+02  0.45594000000E+02  0.51100000000E-03 0.  1.
         11   -1    0    0    0    0 -0.00000000000E+00 -0.00000000000E+00 -0.45593999997E+02  0.45594000000E+02  0.51100000000E-03 0. -1.
    9900012    2    1    2    0    0  0.34799192742E+02  0.16551909749E+02 -0.23327320521E+02  0.46142318581E+02  0.10000007474E+02 0.  0.
        -12    1    1    2    0    0 -0.34799192742E+02 -0.16551909749E+02  0.23327320521E+02  0.45045681419E+02  0.00000000000E+00 0.  1.
         11    1    3    3    0    0  0.20511799690E+02  0.10562674415E+02 -0.11417651147E+02  0.25742314878E+02  0.51100000000E-03 0. -1.
        -11    1    3    3    0    0  0.23304588438E+01  0.31204118537E+01 -0.11500806936E+01  0.40608736034E+01  0.51100000000E-03 0.  1.
        -12    1    3    3    0    0  0.11956934208E+02  0.28688234811E+01 -0.10759588681E+02  0.16339130099E+02  0.00000000000E+00 0.  1.
</event>
<event>
 7    1  0.1683291E-008  0.4614232E+02  0.7816164E-02  0.1320468E+00
        -11   -1    0    0    0    0  0.00000000000E+00  0.00000000000E+00  0.45593999997E+02  0.45594000000E+02  0.51100000000E-03 0.  1.
         11   -1    0    0    0    0 -0.00000000000E+00 -0.00000000000E+00 -0.45593999997E+02  0.45594000000E+02  0.51100000000E-03 0. -1.
    9900012    2    1    2    0    0 -0.22421746329E+02  0.38693156025E+02 -0.54054162935E+01  0.46142317000E+02  0.99999930579E+01 0.  0.
        -12    1    1    2    0    0  0.22421746329E+02 -0.38693156025E+02  0.54054162935E+01  0.45045683000E+02  0.00000000000E+00 0.  1.
         11    1    3    3    0    0 -0.20624845203E+01  0.35044801151E+01 -0.16109413796E+01  0.43738262041E+01  0.51100000000E-03 0. -1.
        -11    1    3    3    0    0 -0.19406930166E+02  0.33339927348E+02 -0.56412671263E+01  0.38987223409E+02  0.51100000000E-03 0.  1.
        -12    1    3    3    0    0 -0.95233164260E+00  0.18487485620E+01  0.18467922124E+01  0.27812673872E+01  0.00000000000E+00 0.  1.
</event>
<event>
 7    1  0.1683291E-008  0.4614232E+02  0.7816164E-02  0.1320468E+00
        -11   -1    0    0    0    0  0.00000000000E+00  0.00000000000E+00  0.45593999997E+02  0.45594000000E+02  0.51100000000E-03 0. -1.
         11   -1    0    0    0    0 -0.00000000000E+00 -0.00000000000E+00 -0.45593999997E+02  0.45594000000E+02  0.51100000000E-03 0.  1.
    9900012    2    1    2    0    0 -0.63790118106E+01 -0.11637039251E+02  0.43046498301E+02  0.46142317741E+02  0.99999998181E+01 0.  0.
        -12    1    1    2    0    0  0.63790118106E+01  0.11637039251E+02 -0.43046498301E+02  0.45045682259E+02  0.00000000000E+00 0.  1.
         11    1    3    3    0    0  0.50387235996E+00 -0.60295303179E+01  0.28071392440E+02  0.28716061656E+02  0.51100000000E-03 0. -1.
        -11    1    3    3    0    0 -0.59445381526E+01 -0.46429369446E+01  0.13133089286E+02  0.15145046444E+02  0.51100000000E-03 0.  1.
         12    1    3    3    0    0 -0.93834601797E+00 -0.96457198862E+00  0.18420165739E+01  0.22812096417E+01  0.00000000000E+00 0. -1.
</event>
<event>
 7    1  0.1683291E-008  0.4614231E+02  0.7816164E-02  0.1320468E+00
        -11   -1    0    0    0    0  0.00000000000E+00  0.00000000000E+00  0.45593999997E+02  0.45594000000E+02  0.51100000000E-03 0. -1.
         11   -1    0    0    0    0 -0.00000000000E+00 -0.00000000000E+00 -0.45593999997E+02  0.45594000000E+02  0.51100000000E-03 0.  1.
    9900012    2    1    2    0    0  0.28422545050E+02  0.33262136193E+02  0.10719302559E+02  0.46142309656E+02  0.99999260921E+01 0.  0.
        -12    1    1    2    0    0 -0.28422545050E+02 -0.33262136193E+02 -0.10719302559E+02  0.45045690344E+02  0.00000000000E+00 0.  1.
         11    1    3    3    0    0  0.65332792365E+01  0.54217989619E+01  0.36979751158E+01  0.92603812980E+01  0.51100000000E-03 0. -1.
        -11    1    3    3    0    0 -0.20936892263E+00  0.19027225862E+01 -0.51740818193E+00  0.19829019324E+01  0.51100000000E-03 0.  1.
        -12    1    3    3    0    0  0.22098634736E+02  0.25937614644E+02  0.75387356255E+01  0.34899026426E+02  0.00000000000E+00 0.  1.
</event>
<event>
 7    1  0.1683291E-008  0.4614232E+02  0.7816164E-02  0.1320468E+00
        -11   -1    0    0    0    0  0.00000000000E+00  0.00000000000E+00  0.45593999997E+02  0.45594000000E+02  0.51100000000E-03 0.  1.
         11   -1    0    0    0    0 -0.00000000000E+00 -0.00000000000E+00 -0.45593999997E+02  0.45594000000E+02  0.51100000000E-03 0. -1.
    9900012    2    1    2    0    0  0.28320509852E+02 -0.19516323506E+02 -0.29089092588E+02  0.46142317975E+02  0.10000001951E+02 0.  0.
        -12    1    1    2    0    0 -0.28320509852E+02  0.19516323506E+02  0.29089092588E+02  0.45045682025E+02  0.00000000000E+00 0.  1.
         11    1    3    3    0    0 -0.22437109398E+00 -0.31399920449E+00  0.20102647355E+00  0.43514341593E+00  0.51100000000E-03 0. -1.
        -11    1    3    3    0    0  0.15640273540E+02 -0.68495717359E+01 -0.12202028697E+02  0.20986288237E+02  0.51100000000E-03 0.  1.
         12    1    3    3    0    0  0.12904607406E+02 -0.12352752566E+02 -0.17088090365E+02  0.24720886323E+02  0.00000000000E+00 0. -1.
</event>
<event>
 7    1  0.1683291E-008  0.4614232E+02  0.7816164E-02  0.1320468E+00
        -11   -1    0    0    0    0  0.00000000000E+00  0.00000000000E+00  0.45593999997E+02  0.45594000000E+02  0.51100000000E-03 0.  1.
         11   -1    0    0    0    0 -0.00000000000E+00 -0.00000000000E+00 -0.45593999997E+02  0.45594000000E+02  0.51100000000E-03 0. -1.
    9900012    2    1    2    0    0  0.32851769761E+02 -0.19987861283E+02 -0.23459752929E+02  0.46142318935E+02  0.10000010705E+02 0.  0.
        -12    1    1    2    0    0 -0.32851769761E+02  0.19987861283E+02  0.23459752929E+02  0.45045681065E+02  0.00000000000E+00 0.  1.
         11    1    3    3    0    0  0.23480027622E+02 -0.17309050004E+02 -0.15379613266E+02  0.32976467574E+02  0.51100000000E-03 0. -1.
        -11    1    3    3    0    0  0.15102433251E+01  0.88669453245E+00 -0.11396832792E+01  0.20894832694E+01  0.51100000000E-03 0.  1.
         12    1    3    3    0    0  0.78614988143E+01 -0.35655058124E+01 -0.69404563832E+01  0.11076368092E+02  0.00000000000E+00 0. -1.
</event>
<event>
 7    1  0.1683291E-008  0.4614232E+02  0.7816164E-02  0.1320468E+00
        -11   -1    0    0    0    0  0.00000000000E+00  0.00000000000E+00  0.45593999997E+02  0.45594000000E+02  0.51100000000E-03 0.  1.
         11   -1    0    0    0    0 -0.00000000000E+00 -0.00000000000E+00 -0.45593999997E+02  0.45594000000E+02  0.51100000000E-03 0. -1.
    9900012    2    1    2    0    0  0.33045723414E+02  0.93722455113E+01 -0.29141974957E+02  0.46142317341E+02  0.99999961658E+01 0.  0.
        -12    1    1    2    0    0 -0.33045723414E+02 -0.93722455113E+01  0.29141974957E+02  0.45045682659E+02  0.00000000000E+00 0.  1.
         11    1    3    3    0    0  0.32974339380E+02  0.86654553017E+01 -0.26721846312E+02  0.43318059095E+02  0.51100000000E-03 0. -1.
        -11    1    3    3    0    0  0.48746790240E+00  0.54026056644E+00 -0.22148269328E+01  0.23313011472E+01  0.51100000000E-03 0.  1.
         12    1    3    3    0    0 -0.41608386898E+00  0.16652964320E+00 -0.20530171165E+00  0.49295709844E+00  0.00000000000E+00 0. -1.
</event>
<event>
 7    1  0.1683291E-008  0.4614232E+02  0.7816164E-02  0.1320468E+00
        -11   -1    0    0    0    0  0.00000000000E+00  0.00000000000E+00  0.45593999997E+02  0.45594000000E+02  0.51100000000E-03 0.  1.
         11   -1    0    0    0    0 -0.00000000000E+00 -0.00000000000E+00 -0.45593999997E+02  0.45594000000E+02  0.51100000000E-03 0. -1.
    9900012    2    1    2    0    0 -0.56249994075E+00 -0.30184383153E+02 -0.33432021306E+02  0.46142318286E+02  0.10000004786E+02 0.  0.
        -12    1    1    2    0    0  0.56249994075E+00  0.30184383153E+02  0.33432021306E+02  0.45045681714E+02  0.00000000000E+00 0.  1.
         11    1    3    3    0    0 -0.10419965189E+01 -0.15488545234E+02 -0.11915243610E+02  0.19569205930E+02  0.51100000000E-03 0. -1.
        -11    1    3    3    0    0  0.10060671540E+01 -0.52701587983E+00 -0.54907482335E+00  0.12615071457E+01  0.51100000000E-03 0.  1.
         12    1    3    3    0    0 -0.52657057586E+00 -0.14168822039E+02 -0.20967702873E+02  0.25311605210E+02  0.00000000000E+00 0. -1.
</event>
<event>
 7    1  0.1683291E-008  0.4614232E+02  0.7816164E-02  0.1320468E+00
        -11   -1    0    0    0    0  0.00000000000E+00  0.00000000000E+00  0.45593999997E+02  0.45594000000E+02  0.51100000000E-03 0. -1.
         11   -1    0    0    0    0 -0.00000000000E+00 -0.00000000000E+00 -0.45593999997E+02  0.45594000000E+02  0.51100000000E-03 0.  1.
    9900012    2    1    2    0    0  0.51104848932E+01  0.36943121587E+02  0.25262666698E+02  0.46142316332E+02  0.99999869657E+01 0.  0.
        -12    1    1    2    0    0 -0.51104848932E+01 -0.36943121587E+02 -0.25262666698E+02  0.45045683668E+02  0.00000000000E+00 0.  1.
         11    1    3    3    0    0 -0.14660494374E+01  0.14336749341E+01  0.54039901077E+00  0.21205556162E+01  0.51100000000E-03 0. -1.
        -11    1    3    3    0    0  0.55496093522E+01  0.18073521407E+02  0.11677367601E+02  0.22221864331E+02  0.51100000000E-03 0.  1.
         12    1    3    3    0    0  0.10269249784E+01  0.17435925246E+02  0.13044900086E+02  0.21799896384E+02  0.00000000000E+00 0. -1.
</event>
<event>
 7    1  0.1936568E-008  0.4614232E+02  0.7816164E-02  0.1320468E+00
        -11   -1    0    0    0    0  0.00000000000E+00  0.00000000000E+00  0.45593999997E+02  0.45594000000E+02  0.51100000000E-03 0. -1.
         11   -1    0    0    0    0 -0.00000000000E+00 -0.00000000000E+00 -0.45593999997E+02  0.45594000000E+02  0.51100000000E-03 0.  1.
    9900012    2    1    2    0    0 -0.41467233197E+02  0.72716164590E+01  0.16022036014E+02  0.46142317932E+02  0.10000001557E+02 0.  0.
        -12    1    1    2    0    0  0.41467233197E+02 -0.72716164590E+01 -0.16022036014E+02  0.45045682068E+02  0.00000000000E+00 0.  1.
         11    1    3    3    0    0 -0.39807534106E+02  0.71330312938E+01  0.14198709627E+02  0.42861675916E+02  0.51100000000E-03 0. -1.
        -11    1    3    3    0    0 -0.38664854655E+00  0.43352239159E+00  0.18849418382E+01  0.19724210395E+01  0.51100000000E-03 0.  1.
         12    1    3    3    0    0 -0.12730505451E+01 -0.29493722645E+00 -0.61615452017E-01  0.13082209760E+01  0.00000000000E+00 0. -1.
</event>
<event>
 7    1  0.1683291E-008  0.4614233E+02  0.7816164E-02  0.1320468E+00
        -11   -1    0    0    0    0  0.00000000000E+00  0.00000000000E+00  0.45593999997E+02  0.45594000000E+02  0.51100000000E-03 0. -1.
         11   -1    0    0    0    0 -0.00000000000E+00 -0.00000000000E+00 -0.45593999997E+02  0.45594000000E+02  0.51100000000E-03 0.  1.
    9900012    2    1    2    0    0 -0.39390463201E+02  0.49564923550E+01  0.21282325477E+02  0.46142325564E+02  0.10000071156E+02 0.  0.
        -12    1    1    2    0    0  0.39390463201E+02 -0.49564923550E+01 -0.21282325477E+02  0.45045674436E+02  0.00000000000E+00 0.  1.
         11    1    3    3    0    0 -0.20910010926E+02  0.23367322006E+00  0.13894946755E+02  0.25106825879E+02  0.51100000000E-03 0. -1.
        -11    1    3    3    0    0 -0.71230518007E+01  0.25809871905E+01  0.52560722919E+00  0.75944469880E+01  0.51100000000E-03 0.  1.
        -12    1    3    3    0    0 -0.11357400474E+02  0.21418319444E+01  0.68617714933E+01  0.13441052698E+02  0.00000000000E+00 0.  1.
</event>
<event>
 7    1  0.1683291E-008  0.4614232E+02  0.7816164E-02  0.1320468E+00
        -11   -1    0    0    0    0  0.00000000000E+00  0.00000000000E+00  0.45593999997E+02  0.45594000000E+02  0.51100000000E-03 0. -1.
         11   -1    0    0    0    0 -0.00000000000E+00 -0.00000000000E+00 -0.45593999997E+02  0.45594000000E+02  0.51100000000E-03 0.  1.
    9900012    2    1    2    0    0  0.39646657699E+02  0.36520072147E+01  0.21069381442E+02  0.46142318101E+02  0.10000003099E+02 0.  0.
        -12    1    1    2    0    0 -0.39646657699E+02 -0.36520072147E+01 -0.21069381442E+02  0.45045681899E+02  0.00000000000E+00 0.  1.
         11    1    3    3    0    0  0.22301416496E+02  0.27584090844E+01  0.11151402168E+02  0.25086166885E+02  0.51100000000E-03 0. -1.
        -11    1    3    3    0    0  0.80000813376E+01 -0.27762562364E+01  0.36571216627E+01  0.92240684742E+01  0.51100000000E-03 0.  1.
        -12    1    3    3    0    0  0.93451598650E+01  0.36698543667E+01  0.62608576112E+01  0.11832082742E+02  0.00000000000E+00 0.  1.
</event>
<event>
 7    1  0.1683291E-008  0.4614232E+02  0.7816164E-02  0.1320468E+00
        -11   -1    0    0    0    0  0.00000000000E+00  0.00000000000E+00  0.45593999997E+02  0.45594000000E+02  0.51100000000E-03 0. -1.
         11   -1    0    0    0    0 -0.00000000000E+00 -0.00000000000E+00 -0.45593999997E+02  0.45594000000E+02  0.51100000000E-03 0.  1.
    9900012    2    1    2    0    0  0.37198867234E+02  0.20198683193E+02 -0.15406850648E+02  0.46142316820E+02  0.99999914205E+01 0.  0.
        -12    1    1    2    0    0 -0.37198867234E+02 -0.20198683193E+02  0.15406850648E+02  0.45045683180E+02  0.00000000000E+00 0.  1.
         11    1    3    3    0    0  0.24757978046E+02  0.16921818685E+02 -0.77694541202E+01  0.30978538412E+02  0.51100000000E-03 0. -1.
        -11    1    3    3    0    0  0.56002732492E+01  0.26841992610E+01 -0.40808026413E+01  0.74310791004E+01  0.51100000000E-03 0.  1.
         12    1    3    3    0    0  0.68406159384E+01  0.59266524741E+00 -0.35565938866E+01  0.77326993079E+01  0.00000000000E+00 0. -1.
</event>
<event>
 7    1  0.1683291E-008  0.4614232E+02  0.7816164E-02  0.1320468E+00
        -11   -1    0    0    0    0  0.00000000000E+00  0.00000000000E+00  0.45593999997E+02  0.45594000000E+02  0.51100000000E-03 0. -1.
         11   -1    0    0    0    0 -0.00000000000E+00 -0.00000000000E+00 -0.45593999997E+02  0.45594000000E+02  0.51100000000E-03 0.  1.
    9900012    2    1    2    0    0 -0.44514298831E+02  0.25026416516E+01  0.64286426098E+01  0.46142318060E+02  0.10000002725E+02 0.  0.
        -12    1    1    2    0    0  0.44514298831E+02 -0.25026416516E+01 -0.64286426098E+01  0.45045681940E+02  0.00000000000E+00 0.  1.
         11    1    3    3    0    0 -0.16591733991E+02  0.11951730350E+01 -0.33336228935E+00  0.16638064975E+02  0.51100000000E-03 0. -1.
        -11    1    3    3    0    0 -0.26379205356E+01 -0.18341804087E+01  0.35876141922E+00  0.32328861008E+01  0.51100000000E-03 0.  1.
        -12    1    3    3    0    0 -0.25284644304E+02  0.31416490253E+01  0.64032434799E+01  0.26271366984E+02  0.00000000000E+00 0.  1.
</event>
<event>
 7    1  0.1683291E-008  0.4614232E+02  0.7816164E-02  0.1320468E+00
        -11   -1    0    0    0    0  0.00000000000E+00  0.00000000000E+00  0.45593999997E+02  0.45594000000E+02  0.51100000000E-03 0.  1.
         11   -1    0    0    0    0 -0.00000000000E+00 -0.00000000000E+00 -0.45593999997E+02  0.45594000000E+02  0.51100000000E-03 0. -1.
    9900012    2    1    2    0    0 -0.31810549481E+02 -0.28633300799E+02 -0.14047655411E+02  0.46142316572E+02  0.99999891555E+01 0.  0.
        -12    1    1    2    0    0  0.31810549481E+02  0.28633300799E+02  0.14047655411E+02  0.45045683428E+02  0.00000000000E+00 0.  1.
         11    1    3    3    0    0 -0.17767464865E+02 -0.15431602181E+02 -0.11749981622E+02  0.26303597130E+02  0.51100000000E-03 0. -1.
        -11    1    3    3    0    0 -0.11092544750E+02 -0.78574612941E+01 -0.18305887607E+01  0.13716242288E+02  0.51100000000E-03 0.  1.
         12    1    3    3    0    0 -0.29505398662E+01 -0.53442373244E+01 -0.46708502844E+00  0.61224771543E+01  0.00000000000E+00 0. -1.
</event>
<event>
 7    1  0.1683291E-008  0.4614232E+02  0.7816164E-02  0.1320468E+00
        -11   -1    0    0    0    0  0.00000000000E+00  0.00000000000E+00  0.45593999997E+02  0.45594000000E+02  0.51100000000E-03 0. -1.
         11   -1    0    0    0    0 -0.00000000000E+00 -0.00000000000E+00 -0.45593999997E+02  0.45594000000E+02  0.51100000000E-03 0.  1.
    9900012    2    1    2    0    0 -0.43200472070E+02  0.11985955621E+02  0.43782945272E+01  0.46142318939E+02  0.10000010743E+02 0.  0.
        -12    1    1    2    0    0  0.43200472070E+02 -0.11985955621E+02 -0.43782945272E+01  0.45045681061E+02  0.00000000000E+00 0.  1.
         11    1    3    3    0    0 -0.23307237547E+02  0.28205850963E+01  0.19544907938E+01  0.23558502858E+02  0.51100000000E-03 0. -1.
        -11    1    3    3    0    0 -0.15097273648E+02  0.87929527245E+01  0.30412673972E+01  0.17733950402E+02  0.51100000000E-03 0.  1.
         12    1    3    3    0    0 -0.47959608750E+01  0.37241780061E+00 -0.61746366382E+00  0.48498656795E+01  0.00000000000E+00 0. -1.
</event>
<event>
 7    1  0.1683291E-008  0.4614232E+02  0.7816164E-02  0.1320468E+00
        -11   -1    0    0    0    0  0.00000000000E+00  0.00000000000E+00  0.45593999997E+02  0.45594000000E+02  0.51100000000E-03 0.  1.
         11   -1    0    0    0    0 -0.00000000000E+00 -0.00000000000E+00 -0.45593999997E+02  0.45594000000E+02  0.51100000000E-03 0. -1.
    9900012    2    1    2    0    0  0.43557480926E+02  0.81421106306E+01 -0.80972502673E+01  0.46142316833E+02  0.99999915346E+01 0.  0.
        -12    1    1    2    0    0 -0.43557480926E+02 -0.81421106306E+01  0.80972502673E+01  0.45045683167E+02  0.00000000000E+00 0.  1.
         11    1    3    3    0    0  0.79555090206E+01  0.26380994809E+01  0.12979663154E+01  0.84814155342E+01  0.51100000000E-03 0. -1.
        -11    1    3    3    0    0  0.86540562336E+01 -0.70172367397E+00 -0.88323574048E+00  0.87272682463E+01  0.51100000000E-03 0.  1.
        -12    1    3    3    0    0  0.26947915672E+02  0.62057348237E+01 -0.85119808422E+01  0.28933633052E+02  0.00000000000E+00 0.  1.
</event>
<event>
 7    1  0.1683291E-008  0.4614232E+02  0.7816164E-02  0.1320468E+00
        -11   -1    0    0    0    0  0.00000000000E+00  0.00000000000E+00  0.45593999997E+02  0.45594000000E+02  0.51100000000E-03 0.  1.
         11   -1    0    0    0    0 -0.00000000000E+00 -0.00000000000E+00 -0.45593999997E+02  0.45594000000E+02  0.51100000000E-03 0. -1.
    9900012    2    1    2    0    0  0.23143490452E+02  0.21230026415E+02 -0.32292076746E+02  0.46142318825E+02  0.10000009706E+02 0.  0.
        -12    1    1    2    0    0 -0.23143490452E+02 -0.21230026415E+02  0.32292076746E+02  0.45045681175E+02  0.00000000000E+00 0.  1.
         11    1    3    3    0    0  0.55623860364E+01  0.10587654753E+02 -0.14230462021E+02  0.18588830549E+02  0.51100000000E-03 0. -1.
        -11    1    3    3    0    0  0.15905096301E+01  0.12098235839E+01 -0.31986247448E+01  0.37715506767E+01  0.51100000000E-03 0.  1.
         12    1    3    3    0    0  0.15990594786E+02  0.94325480785E+01 -0.14862989980E+02  0.23781937600E+02  0.00000000000E+00 0. -1.
</event>
<event>
 7    1  0.1683291E-008  0.4614232E+02  0.7816164E-02  0.1320468E+00
        -11   -1    0    0    0    0  0.00000000000E+00  0.00000000000E+00  0.45593999997E+02  0.45594000000E+02  0.51100000000E-03 0.  1.
         11   -1    0    0    0    0 -0.00000000000E+00 -0.00000000000E+00 -0.45593999997E+02  0.45594000000E+02  0.51100000000E-03 0. -1.
    9900012    2    1    2    0    0 -0.40124446826E+02 -0.35516472548E+01 -0.20162541841E+02  0.46142317356E+02  0.99999963102E+01 0.  0.
        -12    1    1    2    0    0  0.40124446826E+02  0.35516472548E+01  0.20162541841E+02  0.45045682644E+02  0.00000000000E+00 0.  1.
         11    1    3    3    0    0 -0.29097839179E+02 -0.58414519189E+01 -0.14639680881E+02  0.33092704060E+02  0.51100000000E-03 0. -1.
        -11    1    3    3    0    0  0.25172179158E+00  0.14608995325E+00  0.37907778621E-01  0.29350195161E+00  0.51100000000E-03 0.  1.
         12    1    3    3    0    0 -0.11278329439E+02  0.21437147109E+01 -0.55607687386E+01  0.12756111345E+02  0.00000000000E+00 0. -1.
</event>
<event>
 7    1  0.1683291E-008  0.4614232E+02  0.7816164E-02  0.1320468E+00
        -11   -1    0    0    0    0  0.00000000000E+00  0.00000000000E+00  0.45593999997E+02  0.45594000000E+02  0.51100000000E-03 0.  1.
         11   -1    0    0    0    0 -0.00000000000E+00 -0.00000000000E+00 -0.45593999997E+02  0.45594000000E+02  0.51100000000E-03 0. -1.
    9900012    2    1    2    0    0 -0.16059983318E+02  0.29020020569E+02 -0.30479974066E+02  0.46142317887E+02  0.10000001145E+02 0.  0.
        -12    1    1    2    0    0  0.16059983318E+02 -0.29020020569E+02  0.30479974066E+02  0.45045682113E+02  0.00000000000E+00 0.  1.
         11    1    3    3    0    0 -0.66966328971E+01  0.19361498701E+02 -0.16022286460E+02  0.26008194627E+02  0.51100000000E-03 0. -1.
        -11    1    3    3    0    0 -0.47799302262E+00  0.23717830172E-01 -0.19832779630E+01  0.20402038145E+01  0.51100000000E-03 0.  1.
         12    1    3    3    0    0 -0.88853573981E+01  0.96348040380E+01 -0.12474409644E+02  0.18093919445E+02  0.00000000000E+00 0. -1.
</event>
<event>
 7    1  0.1683291E-008  0.4614232E+02  0.7816164E-02  0.1320468E+00
        -11   -1    0    0    0    0  0.00000000000E+00  0.00000000000E+00  0.45593999997E+02  0.45594000000E+02  0.51100000000E-03 0.  1.
         11   -1    0    0    0    0 -0.00000000000E+00 -0.00000000000E+00 -0.45593999997E+02  0.45594000000E+02  0.51100000000E-03 0. -1.
    9900012    2    1    2    0    0 -0.61335629935E+00 -0.14044573364E+02 -0.42795879175E+02  0.46142317395E+02  0.99999966655E+01 0.  0.
        -12    1    1    2    0    0  0.61335629935E+00  0.14044573364E+02  0.42795879175E+02  0.45045682605E+02  0.00000000000E+00 0.  1.
         11    1    3    3    0    0  0.33112789935E+01 -0.41905876770E+01 -0.85036962629E+01  0.10041834695E+02  0.51100000000E-03 0. -1.
        -11    1    3    3    0    0 -0.29428223287E+01 -0.67672617833E+01 -0.17393644930E+02  0.18894309183E+02  0.51100000000E-03 0.  1.
        -12    1    3    3    0    0 -0.98181296416E+00 -0.30867239035E+01 -0.16898537983E+02  0.17206173517E+02  0.00000000000E+00 0.  1.
</event>
<event>
 7    1  0.1683291E-008  0.4614232E+02  0.7816164E-02  0.1320468E+00
        -11   -1    0    0    0    0  0.00000000000E+00  0.00000000000E+00  0.45593999997E+02  0.45594000000E+02  0.51100000000E-03 0.  1.
         11   -1    0    0    0    0 -0.00000000000E+00 -0.00000000000E+00 -0.45593999997E+02  0.45594000000E+02  0.51100000000E-03 0. -1.
    9900012    2    1    2    0    0 -0.29622706998E+02 -0.29832465304E+02 -0.16175065497E+02  0.46142317634E+02  0.99999988396E+01 0.  0.
        -12    1    1    2    0    0  0.29622706998E+02  0.29832465304E+02  0.16175065497E+02  0.45045682366E+02  0.00000000000E+00 0.  1.
         11    1    3    3    0    0 -0.13285863784E+02 -0.16848302096E+02 -0.64957281960E+01  0.22418161054E+02  0.51100000000E-03 0. -1.
        -11    1    3    3    0    0 -0.52803181640E+01 -0.16092781125E+01 -0.89764055335E+00  0.55926107303E+01  0.51100000000E-03 0.  1.
        -12    1    3    3    0    0 -0.11056525049E+02 -0.11374885096E+02 -0.87816967473E+01  0.18131545849E+02  0.00000000000E+00 0.  1.
</event>
<event>
 7    1  0.1683291E-008  0.4614232E+02  0.7816164E-02  0.1320468E+00
        -11   -1    0    0    0    0  0.00000000000E+00  0.00000000000E+00  0.45593999997E+02  0.45594000000E+02  0.51100000000E-03 0.  1.
         11   -1    0    0    0    0 -0.00000000000E+00 -0.00000000000E+00 -0.45593999997E+02  0.45594000000E+02  0.51100000000E-03 0. -1.
    9900012    2    1    2    0    0  0.23145379716E+02 -0.83623896945E+01 -0.37728972948E+02  0.46142316930E+02  0.99999924177E+01 0.  0.
        -12    1    1    2    0    0 -0.23145379716E+02  0.83623896945E+01  0.37728972948E+02  0.45045683070E+02  0.00000000000E+00 0.  1.
         11    1    3    3    0    0  0.13933949994E+02 -0.76364960754E+01 -0.17505579113E+02  0.23641411444E+02  0.51100000000E-03 0. -1.
        -11    1    3    3    0    0 -0.70524066742E-01 -0.56983516567E+00 -0.99309005440E+00  0.11471328944E+01  0.51100000000E-03 0.  1.
         12    1    3    3    0    0  0.92819537883E+01 -0.15605845341E+00 -0.19230303781E+02  0.21353772591E+02  0.00000000000E+00 0. -1.
</event>
<event>
 7    1  0.1683291E-008  0.4614232E+02  0.7816164E-02  0.1320468E+00
        -11   -1    0    0    0    0  0.00000000000E+00  0.00000000000E+00  0.45593999997E+02  0.45594000000E+02  0.51100000000E-03 0.  1.
         11   -1    0    0    0    0 -0.00000000000E+00 -0.00000000000E+00 -0.45593999997E+02  0.45594000000E+02  0.51100000000E-03 0. -1.
    9900012    2    1    2    0    0  0.31666256843E+02  0.59006559444E+01 -0.31488792804E+02  0.46142316130E+02  0.99999851299E+01 0.  0.
        -12    1    1    2    0    0 -0.31666256843E+02 -0.59006559444E+01  0.31488792804E+02  0.45045683870E+02  0.00000000000E+00 0.  1.
         11    1    3    3    0    0  0.24206364051E+02  0.64749485954E+01 -0.21286539988E+02  0.32878409402E+02  0.51100000000E-03 0. -1.
        -11    1    3    3    0    0  0.21782689635E+01 -0.17330488283E+01 -0.19528262246E+01  0.34002712308E+01  0.51100000000E-03 0.  1.
         12    1    3    3    0    0  0.52816238289E+01  0.11587561773E+01 -0.82494265908E+01  0.98636354974E+01  0.00000000000E+00 0. -1.
</event>
<event>
 7    1  0.1683291E-008  0.4614232E+02  0.7816164E-02  0.1320468E+00
        -11   -1    0    0    0    0  0.00000000000E+00  0.00000000000E+00  0.45593999997E+02  0.45594000000E+02  0.51100000000E-03 0. -1.
         11   -1    0    0    0    0 -0.00000000000E+00 -0.00000000000E+00 -0.45593999997E+02  0.45594000000E+02  0.51100000000E-03 0.  1.
    9900012    2    1    2    0    0 -0.53833894129E+01  0.44390691646E+02 -0.54405059750E+01  0.46142317725E+02  0.99999996708E+01 0.  0.
        -12    1    1    2    0    0  0.53833894129E+01 -0.44390691646E+02  0.54405059750E+01  0.45045682275E+02  0.00000000000E+00 0.  1.
         11    1    3    3    0    0 -0.40946407221E+01  0.26168795636E+02 -0.32050920316E+01  0.26680415343E+02  0.51100000000E-03 0. -1.
        -11    1    3    3    0    0  0.24366800240E+01  0.61929415957E+01  0.93454358857E-01  0.66557245380E+01  0.51100000000E-03 0.  1.
        -12    1    3    3    0    0 -0.37254287148E+01  0.12028954414E+02 -0.23288683023E+01  0.12806177844E+02  0.00000000000E+00 0.  1.
</event>
<event>
 7    1  0.1683291E-008  0.4614232E+02  0.7816164E-02  0.1320468E+00
        -11   -1    0    0    0    0  0.00000000000E+00  0.00000000000E+00  0.45593999997E+02  0.45594000000E+02  0.51100000000E-03 0.  1.
         11   -1    0    0    0    0 -0.00000000000E+00 -0.00000000000E+00 -0.45593999997E+02  0.45594000000E+02  0.51100000000E-03 0. -1.
    9900012    2    1    2    0    0 -0.17662298420E+02  0.33835852208E+02 -0.23922620434E+02  0.46142318203E+02  0.10000004027E+02 0.  0.
        -12    1    1    2    0    0  0.17662298420E+02 -0.33835852208E+02  0.23922620434E+02  0.45045681797E+02  0.00000000000E+00 0.  1.
         11    1    3    3    0    0 -0.59804732172E+01  0.16707690271E+02 -0.12182045468E+02  0.21524757981E+02  0.51100000000E-03 0. -1.
        -11    1    3    3    0    0 -0.11442042011E+02  0.12545350020E+02 -0.10025666823E+02  0.19718522460E+02  0.51100000000E-03 0.  1.
         12    1    3    3    0    0 -0.23978319141E+00  0.45828119175E+01 -0.17149081441E+01  0.48990377619E+01  0.00000000000E+00 0. -1.
</event>
<event>
 7    1  0.1683291E-008  0.4614230E+02  0.7816164E-02  0.1320468E+00
        -11   -1    0    0    0    0  0.00000000000E+00  0.00000000000E+00  0.45593999997E+02  0.45594000000E+02  0.51100000000E-03 0. -1.
         11   -1    0    0    0    0 -0.00000000000E+00 -0.00000000000E+00 -0.45593999997E+02  0.45594000000E+02  0.51100000000E-03 0.  1.
    9900012    2    1    2    0    0  0.76861407618E+01  0.27493077632E+02  0.34844924428E+02  0.46142302804E+02  0.99998636102E+01 0.  0.
        -12    1    1    2    0    0 -0.76861407618E+01 -0.27493077632E+02 -0.34844924428E+02  0.45045697196E+02  0.00000000000E+00 0.  1.
         11    1    3    3    0    0  0.20291404350E+01  0.78452889434E+01  0.11266124373E+02  0.13877734980E+02  0.51100000000E-03 0. -1.
        -11    1    3    3    0    0  0.27476931939E+01  0.76558956959E+01  0.15531896142E+02  0.17532893510E+02  0.51100000000E-03 0.  1.
        -12    1    3    3    0    0  0.29093071329E+01  0.11991892993E+02  0.80469039118E+01  0.14731674314E+02  0.00000000000E+00 0.  1.
</event>
<event>
 7    1  0.1683291E-008  0.4614232E+02  0.7816164E-02  0.1320468E+00
        -11   -1    0    0    0    0  0.00000000000E+00  0.00000000000E+00  0.45593999997E+02  0.45594000000E+02  0.51100000000E-03 0.  1.
         11   -1    0    0    0    0 -0.00000000000E+00 -0.00000000000E+00 -0.45593999997E+02  0.45594000000E+02  0.51100000000E-03 0. -1.
    9900012    2    1    2    0    0 -0.30303415084E+02  0.31203626666E+02 -0.11711114515E+02  0.46142317787E+02  0.10000000236E+02 0.  0.
        -12    1    1    2    0    0  0.30303415084E+02 -0.31203626666E+02  0.11711114515E+02  0.45045682213E+02  0.00000000000E+00 0.  1.
         11    1    3    3    0    0 -0.13524892430E+02  0.73097704338E+01 -0.44391926725E+01  0.16001933973E+02  0.51100000000E-03 0.  1.
        -11    1    3    3    0    0 -0.74770025275E+01  0.11850862584E+02 -0.40529611511E+01  0.14586809286E+02  0.51100000000E-03 0. -1.
        -12    1    3    3    0    0 -0.93015201264E+01  0.12042993648E+02 -0.32189606915E+01  0.15553574528E+02  0.00000000000E+00 0.  1.
</event>
<event>
 7    1  0.1683291E-008  0.4614232E+02  0.7816164E-02  0.1320468E+00
        -11   -1    0    0    0    0  0.00000000000E+00  0.00000000000E+00  0.45593999997E+02  0.45594000000E+02  0.51100000000E-03 0.  1.
         11   -1    0    0    0    0 -0.00000000000E+00 -0.00000000000E+00 -0.45593999997E+02  0.45594000000E+02  0.51100000000E-03 0. -1.
    9900012    2    1    2    0    0  0.88779299846E+01 -0.24949042960E+02 -0.36439554258E+02  0.46142317633E+02  0.99999988294E+01 0.  0.
        -12    1    1    2    0    0 -0.88779299846E+01  0.24949042960E+02  0.36439554258E+02  0.45045682367E+02  0.00000000000E+00 0.  1.
         11    1    3    3    0    0  0.71467863098E+01 -0.10665088708E+02 -0.11536584206E+02  0.17260169382E+02  0.51100000000E-03 0. -1.
        -11    1    3    3    0    0  0.75473200308E+00 -0.16403537896E+01 -0.46302290461E+01  0.49698493168E+01  0.51100000000E-03 0.  1.
         12    1    3    3    0    0  0.97641167171E+00 -0.12643600463E+02 -0.20272741005E+02  0.23912298934E+02  0.00000000000E+00 0. -1.
</event>
<event>
 7    1  0.1812107E-008  0.4614232E+02  0.7816164E-02  0.1320468E+00
        -11   -1    0    0    0    0  0.00000000000E+00  0.00000000000E+00  0.45593999997E+02  0.45594000000E+02  0.51100000000E-03 0. -1.
         11   -1    0    0    0    0 -0.00000000000E+00 -0.00000000000E+00 -0.45593999997E+02  0.45594000000E+02  0.51100000000E-03 0.  1.
    9900012    2    1    2    0    0 -0.50215042219E+01 -0.27367055691E+02  0.35425164258E+02  0.46142317581E+02  0.99999983599E+01 0.  0.
        -12    1    1    2    0    0  0.50215042219E+01  0.27367055691E+02 -0.35425164258E+02  0.45045682419E+02  0.00000000000E+00 0.  1.
         11    1    3    3    0    0 -0.36430525474E+01 -0.17517538567E+02  0.26130821072E+02  0.31669477411E+02  0.51100000000E-03 0. -1.
        -11    1    3    3    0    0 -0.10526613046E+01  0.11423012623E+00  0.46692969585E+00  0.11572242418E+01  0.51100000000E-03 0.  1.
         12    1    3    3    0    0 -0.32579037002E+00 -0.99637472501E+01  0.88274134906E+01  0.13315615929E+02  0.00000000000E+00 0. -1.
</event>
<event>
 7    1  0.1683291E-008  0.4614232E+02  0.7816164E-02  0.1320468E+00
        -11   -1    0    0    0    0  0.00000000000E+00  0.00000000000E+00  0.45593999997E+02  0.45594000000E+02  0.51100000000E-03 0.  1.
         11   -1    0    0    0    0 -0.00000000000E+00 -0.00000000000E+00 -0.45593999997E+02  0.45594000000E+02  0.51100000000E-03 0. -1.
    9900012    2    1    2    0    0  0.44802195472E+02 -0.29219235734E+01  0.36522871432E+01  0.46142316989E+02  0.99999929626E+01 0.  0.
        -12    1    1    2    0    0 -0.44802195472E+02  0.29219235734E+01 -0.36522871432E+01  0.45045683011E+02  0.00000000000E+00 0.  1.
         11    1    3    3    0    0  0.10701073947E+02 -0.23044385594E+01 -0.19207398893E+01  0.11113625092E+02  0.51100000000E-03 0. -1.
        -11    1    3    3    0    0  0.53231793028E+01 -0.23310687390E+00  0.30459323757E+01  0.61374490631E+01  0.51100000000E-03 0.  1.
        -12    1    3    3    0    0  0.28777942222E+02 -0.38437814004E+00  0.25270946569E+01  0.28891242834E+02  0.00000000000E+00 0.  1.
</event>
<event>
 7    1  0.1683291E-008  0.4614232E+02  0.7816164E-02  0.1320468E+00
        -11   -1    0    0    0    0  0.00000000000E+00  0.00000000000E+00  0.45593999997E+02  0.45594000000E+02  0.51100000000E-03 0.  1.
         11   -1    0    0    0    0 -0.00000000000E+00 -0.00000000000E+00 -0.45593999997E+02  0.45594000000E+02  0.51100000000E-03 0. -1.
    9900012    2    1    2    0    0 -0.24879170802E+02 -0.31766041641E+02 -0.20026456894E+02  0.46142317443E+02  0.99999970960E+01 0.  0.
        -12    1    1    2    0    0  0.24879170802E+02  0.31766041641E+02  0.20026456894E+02  0.45045682557E+02  0.00000000000E+00 0.  1.
         11    1    3    3    0    0 -0.18510117006E+02 -0.21927869204E+02 -0.16449069969E+02  0.33076090799E+02  0.51100000000E-03 0. -1.
        -11    1    3    3    0    0 -0.24449744510E+01 -0.72722939850E+01 -0.10616204167E+01  0.77453985075E+01  0.51100000000E-03 0.  1.
        -12    1    3    3    0    0 -0.39240793445E+01 -0.25658784519E+01 -0.25157665080E+01  0.53208281362E+01  0.00000000000E+00 0.  1.
</event>
<event>
 7    1  0.1683291E-008  0.4614232E+02  0.7816164E-02  0.1320468E+00
        -11   -1    0    0    0    0  0.00000000000E+00  0.00000000000E+00  0.45593999997E+02  0.45594000000E+02  0.51100000000E-03 0. -1.
         11   -1    0    0    0    0 -0.00000000000E+00 -0.00000000000E+00 -0.45593999997E+02  0.45594000000E+02  0.51100000000E-03 0.  1.
    9900012    2    1    2    0    0  0.53772810947E+01  0.25544905374E+02  0.36710436020E+02  0.46142318128E+02  0.10000003346E+02 0.  0.
        -12    1    1    2    0    0 -0.53772810947E+01 -0.25544905374E+02 -0.36710436020E+02  0.45045681872E+02  0.00000000000E+00 0.  1.
         11    1    3    3    0    0  0.42070259548E+01  0.91602465151E+01  0.12122192583E+02  0.15765682252E+02  0.51100000000E-03 0. -1.
        -11    1    3    3    0    0  0.46848340648E+00  0.56850836325E+01  0.34291043807E+01  0.66557050510E+01  0.51100000000E-03 0.  1.
         12    1    3    3    0    0  0.70177173335E+00  0.10699575226E+02  0.21159139057E+02  0.23720930825E+02  0.00000000000E+00 0. -1.
</event>
<event>
 7    1  0.1683291E-008  0.4614232E+02  0.7816164E-02  0.1320468E+00
        -11   -1    0    0    0    0  0.00000000000E+00  0.00000000000E+00  0.45593999997E+02  0.45594000000E+02  0.51100000000E-03 0. -1.
         11   -1    0    0    0    0 -0.00000000000E+00 -0.00000000000E+00 -0.45593999997E+02  0.45594000000E+02  0.51100000000E-03 0.  1.
    9900012    2    1    2    0    0  0.18364740248E+02  0.40769298348E+02 -0.54510646758E+01  0.46142317873E+02  0.10000001021E+02 0.  0.
        -12    1    1    2    0    0 -0.18364740248E+02 -0.40769298348E+02  0.54510646758E+01  0.45045682127E+02  0.00000000000E+00 0.  1.
         11    1    3    3    0    0  0.15887111654E+02  0.26487317197E+02 -0.43732823680E+01  0.31194613123E+02  0.51100000000E-03 0. -1.
        -11    1    3    3    0    0  0.17168260275E+01  0.11338854983E+02 -0.22552845693E+01  0.11687747117E+02  0.51100000000E-03 0.  1.
        -12    1    3    3    0    0  0.76080256692E+00  0.29431261686E+01  0.11775022614E+01  0.32599576325E+01  0.00000000000E+00 0.  1.
</event>
<event>
 7    1  0.1683291E-008  0.4614232E+02  0.7816164E-02  0.1320468E+00
        -11   -1    0    0    0    0  0.00000000000E+00  0.00000000000E+00  0.45593999997E+02  0.45594000000E+02  0.51100000000E-03 0. -1.
         11   -1    0    0    0    0 -0.00000000000E+00 -0.00000000000E+00 -0.45593999997E+02  0.45594000000E+02  0.51100000000E-03 0.  1.
    9900012    2    1    2    0    0  0.24165911503E+02  0.15350095196E+02  0.34777820502E+02  0.46142317630E+02  0.99999988084E+01 0.  0.
        -12    1    1    2    0    0 -0.24165911503E+02 -0.15350095196E+02 -0.34777820502E+02  0.45045682370E+02  0.00000000000E+00 0.  1.
         11    1    3    3    0    0  0.18721881668E+02  0.97241205051E+01  0.24073871874E+02  0.32009665416E+02  0.51100000000E-03 0. -1.
        -11    1    3    3    0    0  0.49531109368E+01  0.38430123940E+01  0.46579737828E+01  0.78101710759E+01  0.51100000000E-03 0.  1.
         12    1    3    3    0    0  0.49091889779E+00  0.17829622967E+01  0.60459748451E+01  0.63224811382E+01  0.00000000000E+00 0. -1.
</event>
<event>
 7    1  0.1683291E-008  0.4614232E+02  0.7816164E-02  0.1320468E+00
        -11   -1    0    0    0    0  0.00000000000E+00  0.00000000000E+00  0.45593999997E+02  0.45594000000E+02  0.51100000000E-03 0.  1.
         11   -1    0    0    0    0 -0.00000000000E+00 -0.00000000000E+00 -0.45593999997E+02  0.45594000000E+02  0.51100000000E-03 0. -1.
    9900012    2    1    2    0    0  0.26325635422E+02 -0.64668112152E+01 -0.35975751829E+02  0.46142318217E+02  0.10000004156E+02 0.  0.
        -12    1    1    2    0    0 -0.26325635422E+02  0.64668112152E+01  0.35975751829E+02  0.45045681783E+02  0.00000000000E+00 0.  1.
         11    1    3    3    0    0  0.16530095316E+02 -0.38429952532E+01 -0.29289765213E+02  0.33851189199E+02  0.51100000000E-03 0. -1.
        -11    1    3    3    0    0  0.49002737926E+01 -0.34211700382E+00 -0.31273582546E+01  0.58232376905E+01  0.51100000000E-03 0.  1.
         12    1    3    3    0    0  0.48952663134E+01 -0.22816989582E+01 -0.35586283613E+01  0.64678913279E+01  0.00000000000E+00 0. -1.
</event>
<event>
 7    1  0.1683291E-008  0.4614232E+02  0.7816164E-02  0.1320468E+00
        -11   -1    0    0    0    0  0.00000000000E+00  0.00000000000E+00  0.45593999997E+02  0.45594000000E+02  0.51100000000E-03 0. -1.
         11   -1    0    0    0    0 -0.00000000000E+00 -0.00000000000E+00 -0.45593999997E+02  0.45594000000E+02  0.51100000000E-03 0.  1.
    9900012    2    1    2    0    0 -0.46672897585E+01 -0.40506394244E+02  0.19145806906E+02  0.46142317738E+02  0.99999997877E+01 0.  0.
        -12    1    1    2    0    0  0.46672897585E+01  0.40506394244E+02 -0.19145806906E+02  0.45045682262E+02  0.00000000000E+00 0.  1.
         11    1    3    3    0    0 -0.40145975328E+00 -0.12762580841E+02  0.76372346906E+01  0.14878574987E+02  0.51100000000E-03 0. -1.
        -11    1    3    3    0    0 -0.22025506913E+01 -0.14924078272E+02  0.21056599573E+01  0.15231977742E+02  0.51100000000E-03 0.  1.
        -12    1    3    3    0    0 -0.20632793139E+01 -0.12819735131E+02  0.94029122583E+01  0.16031765009E+02  0.00000000000E+00 0.  1.
</event>
<event>
 7    1  0.1683291E-008  0.4614232E+02  0.7816164E-02  0.1320468E+00
        -11   -1    0    0    0    0  0.00000000000E+00  0.00000000000E+00  0.45593999997E+02  0.45594000000E+02  0.51100000000E-03 0.  1.
         11   -1    0    0    0    0 -0.00000000000E+00 -0.00000000000E+00 -0.45593999997E+02  0.45594000000E+02  0.51100000000E-03 0. -1.
    9900012    2    1    2    0    0 -0.89844140099E+01 -0.74596930085E+01 -0.43505710884E+02  0.46142316584E+02  0.99999892692E+01 0.  0.
        -12    1    1    2    0    0  0.89844140099E+01  0.74596930085E+01  0.43505710884E+02  0.45045683416E+02  0.00000000000E+00 0.  1.
         11    1    3    3    0    0 -0.32236552186E+01  0.11355570014E+01 -0.71470861581E+01  0.79222650476E+01  0.51100000000E-03 0.  1.
        -11    1    3    3    0    0 -0.53058331830E+01 -0.58330779439E+01 -0.32560937876E+02  0.33502109481E+02  0.51100000000E-03 0. -1.
        -12    1    3    3    0    0 -0.45492560824E+00 -0.27621720660E+01 -0.37976868497E+01  0.47179420556E+01  0.00000000000E+00 0.  1.
</event>
<event>
 7    1  0.1683291E-008  0.4614232E+02  0.7816164E-02  0.1320468E+00
        -11   -1    0    0    0    0  0.00000000000E+00  0.00000000000E+00  0.45593999997E+02  0.45594000000E+02  0.51100000000E-03 0. -1.
         11   -1    0    0    0    0 -0.00000000000E+00 -0.00000000000E+00 -0.45593999997E+02  0.45594000000E+02  0.51100000000E-03 0.  1.
    9900012    2    1    2    0    0  0.21443449645E+02  0.38283826626E+02  0.10180403275E+02  0.46142317358E+02  0.99999963260E+01 0.  0.
        -12    1    1    2    0    0 -0.21443449645E+02 -0.38283826626E+02 -0.10180403275E+02  0.45045682642E+02  0.00000000000E+00 0.  1.
         11    1    3    3    0    0  0.50738114528E+01  0.12712115711E+02  0.33430066015E+01  0.14089611134E+02  0.51100000000E-03 0. -1.
        -11    1    3    3    0    0  0.10616781631E+02  0.17858014965E+02  0.10037798005E+01  0.20799815500E+02  0.51100000000E-03 0.  1.
        -12    1    3    3    0    0  0.57528565617E+01  0.77136959503E+01  0.58336168733E+01  0.11252890725E+02  0.00000000000E+00 0.  1.
</event>
<event>
 7    1  0.1683291E-008  0.4614232E+02  0.7816164E-02  0.1320468E+00
        -11   -1    0    0    0    0  0.00000000000E+00  0.00000000000E+00  0.45593999997E+02  0.45594000000E+02  0.51100000000E-03 0.  1.
         11   -1    0    0    0    0 -0.00000000000E+00 -0.00000000000E+00 -0.45593999997E+02  0.45594000000E+02  0.51100000000E-03 0. -1.
    9900012    2    1    2    0    0  0.23294722739E+02  0.19530516415E+02 -0.33241964873E+02  0.46142318659E+02  0.10000008184E+02 0.  0.
        -12    1    1    2    0    0 -0.23294722739E+02 -0.19530516415E+02  0.33241964873E+02  0.45045681341E+02  0.00000000000E+00 0.  1.
         11    1    3    3    0    0  0.40640319971E+01  0.60043811774E+01 -0.93415771653E+01  0.11825143280E+02  0.51100000000E-03 0. -1.
        -11    1    3    3    0    0  0.83438622843E+01  0.16539524275E+01 -0.87652789630E+01  0.12214160307E+02  0.51100000000E-03 0.  1.
        -12    1    3    3    0    0  0.10886828457E+02  0.11872182810E+02 -0.15135108745E+02  0.22103015071E+02  0.00000000000E+00 0.  1.
</event>
<event>
 7    1  0.1683291E-008  0.4614232E+02  0.7816164E-02  0.1320468E+00
        -11   -1    0    0    0    0  0.00000000000E+00  0.00000000000E+00  0.45593999997E+02  0.45594000000E+02  0.51100000000E-03 0.  1.
         11   -1    0    0    0    0 -0.00000000000E+00 -0.00000000000E+00 -0.45593999997E+02  0.45594000000E+02  0.51100000000E-03 0. -1.
    9900012    2    1    2    0    0  0.18379627191E+02 -0.25608922911E+02 -0.32178968178E+02  0.46142316286E+02  0.99999865470E+01 0.  0.
        -12    1    1    2    0    0 -0.18379627191E+02  0.25608922911E+02  0.32178968178E+02  0.45045683714E+02  0.00000000000E+00 0.  1.
         11    1    3    3    0    0  0.70231251181E+01 -0.11832520126E+02 -0.13768829007E+02  0.19465699871E+02  0.51100000000E-03 0. -1.
        -11    1    3    3    0    0  0.11221725210E+02 -0.10399235011E+02 -0.12052839936E+02  0.19476708046E+02  0.51100000000E-03 0.  1.
        -12    1    3    3    0    0  0.13477686206E+00 -0.33771677729E+01 -0.63572992347E+01  0.71999083695E+01  0.00000000000E+00 0.  1.
</event>
<event>
 7    1  0.1683291E-008  0.4614232E+02  0.7816164E-02  0.1320468E+00
        -11   -1    0    0    0    0  0.00000000000E+00  0.00000000000E+00  0.45593999997E+02  0.45594000000E+02  0.51100000000E-03 0.  1.
         11   -1    0    0    0    0 -0.00000000000E+00 -0.00000000000E+00 -0.45593999997E+02  0.45594000000E+02  0.51100000000E-03 0. -1.
    9900012    2    1    2    0    0  0.14470507096E+02  0.22292084888E+02 -0.36370054890E+02  0.46142317444E+02  0.99999971094E+01 0.  0.
        -12    1    1    2    0    0 -0.14470507096E+02 -0.22292084888E+02  0.36370054890E+02  0.45045682556E+02  0.00000000000E+00 0.  1.
         11    1    3    3    0    0 -0.85424900609E+00  0.94659022208E+00 -0.12322608046E+01  0.17732008811E+01  0.51100000000E-03 0. -1.
        -11    1    3    3    0    0  0.92087143447E+01  0.74940174176E+01 -0.13793107323E+02  0.18199190279E+02  0.51100000000E-03 0.  1.
         12    1    3    3    0    0  0.61160417573E+01  0.13851477248E+02 -0.21344686762E+02  0.26169926284E+02  0.00000000000E+00 0. -1.
</event>
<event>
 7    1  0.2749320E-008  0.4614232E+02  0.7816164E-02  0.1320468E+00
        -11   -1    0    0    0    0  0.00000000000E+00  0.00000000000E+00  0.45593999997E+02  0.45594000000E+02  0.51100000000E-03 0. -1.
         11   -1    0    0    0    0 -0.00000000000E+00 -0.00000000000E+00 -0.45593999997E+02  0.45594000000E+02  0.51100000000E-03 0.  1.
    9900012    2    1    2    0    0  0.17406385990E+02  0.58760754879E+01  0.41129101502E+02  0.46142317335E+02  0.99999961172E+01 0.  0.
        -12    1    1    2    0    0 -0.17406385990E+02 -0.58760754879E+01 -0.41129101502E+02  0.45045682665E+02  0.00000000000E+00 0.  1.
         11    1    3    3    0    0  0.50803452254E+01 -0.19344285666E+01  0.12556346302E+02  0.13682607727E+02  0.51100000000E-03 0. -1.
        -11    1    3    3    0    0  0.67171536001E+00 -0.33271512112E+00  0.28849807445E+00  0.80320126792E+00  0.51100000000E-03 0.  1.
         12    1    3    3    0    0  0.11654325405E+02  0.81432191756E+01  0.28284257125E+02  0.31656508340E+02  0.00000000000E+00 0. -1.
</event>
<event>
 7    1  0.1683291E-008  0.4614232E+02  0.7816164E-02  0.1320468E+00
        -11   -1    0    0    0    0  0.00000000000E+00  0.00000000000E+00  0.45593999997E+02  0.45594000000E+02  0.51100000000E-03 0.  1.
         11   -1    0    0    0    0 -0.00000000000E+00 -0.00000000000E+00 -0.45593999997E+02  0.45594000000E+02  0.51100000000E-03 0. -1.
    9900012    2    1    2    0    0  0.18310402256E+02  0.40779083793E+02 -0.55595856759E+01  0.46142317647E+02  0.99999989606E+01 0.  0.
        -12    1    1    2    0    0 -0.18310402256E+02 -0.40779083793E+02  0.55595856759E+01  0.45045682353E+02  0.00000000000E+00 0.  1.
         11    1    3    3    0    0  0.13022320254E+02  0.30291839457E+02 -0.70378627706E+01  0.33715098622E+02  0.51100000000E-03 0. -1.
        -11    1    3    3    0    0 -0.53417891016E+00  0.33393386734E+00 -0.47272289312E-03  0.62996779315E+00  0.51100000000E-03 0.  1.
         12    1    3    3    0    0  0.58222609120E+01  0.10153310469E+02  0.14787498176E+01  0.11797251232E+02  0.00000000000E+00 0. -1.
</event>
<event>
 7    1  0.3295188E-008  0.4614231E+02  0.7816164E-02  0.1320468E+00
        -11   -1    0    0    0    0  0.00000000000E+00  0.00000000000E+00  0.45593999997E+02  0.45594000000E+02  0.51100000000E-03 0.  1.
         11   -1    0    0    0    0 -0.00000000000E+00 -0.00000000000E+00 -0.45593999997E+02  0.45594000000E+02  0.51100000000E-03 0. -1.
    9900012    2    1    2    0    0 -0.42662469900E+02  0.53953097192E+01 -0.13413354278E+02  0.46142314548E+02  0.99999706964E+01 0.  0.
        -12    1    1    2    0    0  0.42662469900E+02 -0.53953097192E+01  0.13413354278E+02  0.45045685452E+02  0.00000000000E+00 0.  1.
         11    1    3    3    0    0 -0.19083745223E+02 -0.61751846048E+00 -0.29032386947E+01  0.19313193831E+02  0.51100000000E-03 0. -1.
        -11    1    3    3    0    0 -0.47737567075E+01  0.12554572426E+01 -0.40478583939E+01  0.63835792334E+01  0.51100000000E-03 0.  1.
         12    1    3    3    0    0 -0.18804967969E+02  0.47573709371E+01 -0.64622571889E+01  0.20445541483E+02  0.00000000000E+00 0. -1.
</event>
<event>
 7    1  0.1683291E-008  0.4614232E+02  0.7816164E-02  0.1320468E+00
        -11   -1    0    0    0    0  0.00000000000E+00  0.00000000000E+00  0.45593999997E+02  0.45594000000E+02  0.51100000000E-03 0.  1.
         11   -1    0    0    0    0 -0.00000000000E+00 -0.00000000000E+00 -0.45593999997E+02  0.45594000000E+02  0.51100000000E-03 0. -1.
    9900012    2    1    2    0    0 -0.16965765954E+02  0.23308910292E+02 -0.34611717883E+02  0.46142317319E+02  0.99999959666E+01 0.  0.
        -12    1    1    2    0    0  0.16965765954E+02 -0.23308910292E+02  0.34611717883E+02  0.45045682681E+02  0.00000000000E+00 0.  1.
         11    1    3    3    0    0 -0.94309184057E+01  0.12579645589E+02 -0.18515173468E+02  0.24289943473E+02  0.51100000000E-03 0. -1.
        -11    1    3    3    0    0 -0.47700731377E+00  0.77906637772E+00  0.65897315301E+00  0.11263775015E+01  0.51100000000E-03 0.  1.
        -12    1    3    3    0    0 -0.70578402349E+01  0.99501983253E+01 -0.16755517568E+02  0.20725996344E+02  0.00000000000E+00 0.  1.
</event>
<event>
 7    1  0.1683291E-008  0.4614232E+02  0.7816164E-02  0.1320468E+00
        -11   -1    0    0    0    0  0.00000000000E+00  0.00000000000E+00  0.45593999997E+02  0.45594000000E+02  0.51100000000E-03 0.  1.
         11   -1    0    0    0    0 -0.00000000000E+00 -0.00000000000E+00 -0.45593999997E+02  0.45594000000E+02  0.51100000000E-03 0. -1.
    9900012    2    1    2    0    0 -0.28182138984E+02 -0.18931971212E+02 -0.29605084720E+02  0.46142317266E+02  0.99999954845E+01 0.  0.
        -12    1    1    2    0    0  0.28182138984E+02  0.18931971212E+02  0.29605084720E+02  0.45045682734E+02  0.00000000000E+00 0.  1.
         11    1    3    3    0    0 -0.10022944396E+02 -0.38019959416E+01 -0.44678432219E+01  0.11613621779E+02  0.51100000000E-03 0. -1.
        -11    1    3    3    0    0 -0.16676097774E+02 -0.13975286046E+02 -0.22603002221E+02  0.31373501027E+02  0.51100000000E-03 0.  1.
         12    1    3    3    0    0 -0.14830968134E+01 -0.11546892244E+01 -0.25342392776E+01  0.31551944598E+01  0.00000000000E+00 0. -1.
</event>
<event>
 7    1  0.1683291E-008  0.4614232E+02  0.7816164E-02  0.1320468E+00
        -11   -1    0    0    0    0  0.00000000000E+00  0.00000000000E+00  0.45593999997E+02  0.45594000000E+02  0.51100000000E-03 0.  1.
         11   -1    0    0    0    0 -0.00000000000E+00 -0.00000000000E+00 -0.45593999997E+02  0.45594000000E+02  0.51100000000E-03 0. -1.
    9900012    2    1    2    0    0 -0.17511160452E+01 -0.41461220774E+02 -0.17521822162E+02  0.46142317772E+02  0.10000000098E+02 0.  0.
        -12    1    1    2    0    0  0.17511160452E+01  0.41461220774E+02  0.17521822162E+02  0.45045682228E+02  0.00000000000E+00 0.  1.
         11    1    3    3    0    0  0.11355524354E+01 -0.19674626331E+01 -0.32336370829E+01  0.39518094072E+01  0.51100000000E-03 0. -1.
        -11    1    3    3    0    0 -0.25485101569E+01 -0.17858656625E+02 -0.58281957956E+01  0.18957699939E+02  0.51100000000E-03 0.  1.
         12    1    3    3    0    0 -0.33815832371E+00 -0.21635101516E+02 -0.84599892840E+01  0.23232808426E+02  0.00000000000E+00 0. -1.
</event>
<event>
 7    1  0.1683291E-008  0.4614232E+02  0.7816164E-02  0.1320468E+00
        -11   -1    0    0    0    0  0.00000000000E+00  0.00000000000E+00  0.45593999997E+02  0.45594000000E+02  0.51100000000E-03 0.  1.
         11   -1    0    0    0    0 -0.00000000000E+00 -0.00000000000E+00 -0.45593999997E+02  0.45594000000E+02  0.51100000000E-03 0. -1.
    9900012    2    1    2    0    0 -0.42399990529E+02 -0.73923598903E+01 -0.13293127380E+02  0.46142318552E+02  0.10000007213E+02 0.  0.
        -12    1    1    2    0    0  0.42399990529E+02  0.73923598903E+01  0.13293127380E+02  0.45045681448E+02  0.00000000000E+00 0.  1.
         11    1    3    3    0    0 -0.21175496999E+01 -0.31780835275E+00 -0.22891240498E+00  0.21534669793E+01  0.51100000000E-03 0. -1.
        -11    1    3    3    0    0 -0.28469498045E+02 -0.51982246887E+01 -0.45234892497E+01  0.29291565580E+02  0.51100000000E-03 0.  1.
        -12    1    3    3    0    0 -0.11812942783E+02 -0.18763268488E+01 -0.85407257249E+01  0.14697285993E+02  0.00000000000E+00 0.  1.
</event>
<event>
 7    1  0.1683291E-008  0.4614232E+02  0.7816164E-02  0.1320468E+00
        -11   -1    0    0    0    0  0.00000000000E+00  0.00000000000E+00  0.45593999997E+02  0.45594000000E+02  0.51100000000E-03 0.  1.
         11   -1    0    0    0    0 -0.00000000000E+00 -0.00000000000E+00 -0.45593999997E+02  0.45594000000E+02  0.51100000000E-03 0. -1.
    9900012    2    1    2    0    0 -0.22319450190E+02  0.15631659276E+02 -0.35869301194E+02  0.46142318779E+02  0.10000009281E+02 0.  0.
        -12    1    1    2    0    0  0.22319450190E+02 -0.15631659276E+02  0.35869301194E+02  0.45045681221E+02  0.00000000000E+00 0.  1.
         11    1    3    3    0    0 -0.45907771331E+01  0.10126560612E+01 -0.60285698267E+01  0.76448911962E+01  0.51100000000E-03 0. -1.
        -11    1    3    3    0    0 -0.72034992728E+01  0.42107844506E+01 -0.54490179741E+01  0.99655860142E+01  0.51100000000E-03 0.  1.
        -12    1    3    3    0    0 -0.10525173784E+02  0.10408218764E+02 -0.24391713393E+02  0.28531841569E+02  0.00000000000E+00 0.  1.
</event>
<event>
 7    1  0.1683291E-008  0.4614232E+02  0.7816164E-02  0.1320468E+00
        -11   -1    0    0    0    0  0.00000000000E+00  0.00000000000E+00  0.45593999997E+02  0.45594000000E+02  0.51100000000E-03 0.  1.
         11   -1    0    0    0    0 -0.00000000000E+00 -0.00000000000E+00 -0.45593999997E+02  0.45594000000E+02  0.51100000000E-03 0. -1.
    9900012    2    1    2    0    0 -0.21815275860E+02  0.37629844937E+02 -0.11713324834E+02  0.46142317971E+02  0.10000001913E+02 0.  0.
        -12    1    1    2    0    0  0.21815275860E+02 -0.37629844937E+02  0.11713324834E+02  0.45045682029E+02  0.00000000000E+00 0.  1.
         11    1    3    3    0    0 -0.31115397054E+01  0.35173261609E+01 -0.75659546701E+00  0.47566479397E+01  0.51100000000E-03 0. -1.
        -11    1    3    3    0    0 -0.30121878301E+01  0.11626148877E+02 -0.44040731458E+00  0.12018093530E+02  0.51100000000E-03 0.  1.
        -12    1    3    3    0    0 -0.15691548324E+02  0.22486369899E+02 -0.10516322052E+02  0.29367576501E+02  0.00000000000E+00 0.  1.
</event>
<event>
 7    1  0.1683291E-008  0.4614232E+02  0.7816164E-02  0.1320468E+00
        -11   -1    0    0    0    0  0.00000000000E+00  0.00000000000E+00  0.45593999997E+02  0.45594000000E+02  0.51100000000E-03 0. -1.
         11   -1    0    0    0    0 -0.00000000000E+00 -0.00000000000E+00 -0.45593999997E+02  0.45594000000E+02  0.51100000000E-03 0.  1.
    9900012    2    1    2    0    0 -0.43178659223E+02 -0.10848443119E+02  0.68576913444E+01  0.46142320285E+02  0.10000023019E+02 0.  0.
        -12    1    1    2    0    0  0.43178659223E+02  0.10848443119E+02 -0.68576913444E+01  0.45045679715E+02  0.00000000000E+00 0.  1.
         11    1    3    3    0    0 -0.34293986420E+02 -0.66247893183E+01  0.54722637838E+01  0.35354080518E+02  0.51100000000E-03 0. -1.
        -11    1    3    3    0    0 -0.11428271860E+01 -0.25264272613E+01  0.32225333801E+00  0.27915472697E+01  0.51100000000E-03 0.  1.
        -12    1    3    3    0    0 -0.77418456163E+01 -0.16972265395E+01  0.10631742225E+01  0.79966924975E+01  0.00000000000E+00 0.  1.
</event>
<event>
 7    1  0.1683291E-008  0.4614232E+02  0.7816164E-02  0.1320468E+00
        -11   -1    0    0    0    0  0.00000000000E+00  0.00000000000E+00  0.45593999997E+02  0.45594000000E+02  0.51100000000E-03 0.  1.
         11   -1    0    0    0    0 -0.00000000000E+00 -0.00000000000E+00 -0.45593999997E+02  0.45594000000E+02  0.51100000000E-03 0. -1.
    9900012    2    1    2    0    0 -0.22147852436E+02 -0.17389096607E+02 -0.35159713307E+02  0.46142317764E+02  0.10000000026E+02 0.  0.
        -12    1    1    2    0    0  0.22147852436E+02  0.17389096607E+02  0.35159713307E+02  0.45045682236E+02  0.00000000000E+00 0.  1.
         11    1    3    3    0    0 -0.15524746463E+02 -0.97596321345E+01 -0.22029139009E+02  0.28662713373E+02  0.51100000000E-03 0. -1.
        -11    1    3    3    0    0  0.59425898112E+00 -0.35993608527E-03 -0.23706369154E+01  0.24439851701E+01  0.51100000000E-03 0.  1.
         12    1    3    3    0    0 -0.72173649536E+01 -0.76291045360E+01 -0.10759937382E+02  0.15035619221E+02  0.00000000000E+00 0. -1.
</event>
<event>
 7    1  0.1683291E-008  0.4614232E+02  0.7816164E-02  0.1320468E+00
        -11   -1    0    0    0    0  0.00000000000E+00  0.00000000000E+00  0.45593999997E+02  0.45594000000E+02  0.51100000000E-03 0.  1.
         11   -1    0    0    0    0 -0.00000000000E+00 -0.00000000000E+00 -0.45593999997E+02  0.45594000000E+02  0.51100000000E-03 0. -1.
    9900012    2    1    2    0    0  0.32267124426E+02  0.28280866757E+02 -0.13716366774E+02  0.46142318068E+02  0.10000002795E+02 0.  0.
        -12    1    1    2    0    0 -0.32267124426E+02 -0.28280866757E+02  0.13716366774E+02  0.45045681932E+02  0.00000000000E+00 0.  1.
         11    1    3    3    0    0  0.15896190019E+02  0.12807876934E+02 -0.11151095010E+02  0.23261072393E+02  0.51100000000E-03 0.  1.
        -11    1    3    3    0    0  0.50782719410E+01  0.38409911655E+01  0.48161881659E+00  0.63854534675E+01  0.51100000000E-03 0. -1.
         12    1    3    3    0    0  0.11292662466E+02  0.11631998657E+02 -0.30468905814E+01  0.16495792208E+02  0.00000000000E+00 0. -1.
</event>
<event>
 7    1  0.1683291E-008  0.4614232E+02  0.7816164E-02  0.1320468E+00
        -11   -1    0    0    0    0  0.00000000000E+00  0.00000000000E+00  0.45593999997E+02  0.45594000000E+02  0.51100000000E-03 0.  1.
         11   -1    0    0    0    0 -0.00000000000E+00 -0.00000000000E+00 -0.45593999997E+02  0.45594000000E+02  0.51100000000E-03 0. -1.
    9900012    2    1    2    0    0 -0.12815375680E+02  0.11690769849E+02 -0.41571689390E+02  0.46142319716E+02  0.10000017826E+02 0.  0.
        -12    1    1    2    0    0  0.12815375680E+02 -0.11690769849E+02  0.41571689390E+02  0.45045680284E+02  0.00000000000E+00 0.  1.
         11    1    3    3    0    0 -0.94799873662E+01  0.24030850952E+01 -0.19161807143E+02  0.21513247818E+02  0.51100000000E-03 0. -1.
        -11    1    3    3    0    0 -0.11530188557E+01  0.32557071566E+01 -0.50162850507E+01  0.60903364064E+01  0.51100000000E-03 0.  1.
         12    1    3    3    0    0 -0.21823694582E+01  0.60319775969E+01 -0.17393597196E+02  0.18538735491E+02  0.00000000000E+00 0. -1.
</event>
<event>
 7    1  0.1683291E-008  0.4614232E+02  0.7816164E-02  0.1320468E+00
        -11   -1    0    0    0    0  0.00000000000E+00  0.00000000000E+00  0.45593999997E+02  0.45594000000E+02  0.51100000000E-03 0.  1.
         11   -1    0    0    0    0 -0.00000000000E+00 -0.00000000000E+00 -0.45593999997E+02  0.45594000000E+02  0.51100000000E-03 0. -1.
    9900012    2    1    2    0    0 -0.30713368867E+02  0.83104604138E+01 -0.31886339871E+02  0.46142318190E+02  0.10000003907E+02 0.  0.
        -12    1    1    2    0    0  0.30713368867E+02 -0.83104604138E+01  0.31886339871E+02  0.45045681810E+02  0.00000000000E+00 0.  1.
         11    1    3    3    0    0 -0.85793991697E+01  0.23819341498E+01 -0.10581537933E+02  0.13829267721E+02  0.51100000000E-03 0. -1.
        -11    1    3    3    0    0 -0.12262987643E+02  0.36859119236E+01 -0.17073438192E+02  0.21341722157E+02  0.51100000000E-03 0.  1.
        -12    1    3    3    0    0 -0.98709820535E+01  0.22426143404E+01 -0.42313637453E+01  0.10971328312E+02  0.00000000000E+00 0.  1.
</event>
<event>
 7    1  0.1683291E-008  0.4614232E+02  0.7816164E-02  0.1320468E+00
        -11   -1    0    0    0    0  0.00000000000E+00  0.00000000000E+00  0.45593999997E+02  0.45594000000E+02  0.51100000000E-03 0. -1.
         11   -1    0    0    0    0 -0.00000000000E+00 -0.00000000000E+00 -0.45593999997E+02  0.45594000000E+02  0.51100000000E-03 0.  1.
    9900012    2    1    2    0    0  0.20926163986E+02  0.28317955113E+02  0.28094527848E+02  0.46142318564E+02  0.10000007325E+02 0.  0.
        -12    1    1    2    0    0 -0.20926163986E+02 -0.28317955113E+02 -0.28094527848E+02  0.45045681436E+02  0.00000000000E+00 0.  1.
         11    1    3    3    0    0 -0.45156412664E+00  0.14312801045E+00 -0.25725806638E+00  0.53905265205E+00  0.51100000000E-03 0. -1.
        -11    1    3    3    0    0  0.12671083573E+01  0.43985935761E+01  0.37224712957E+01  0.58999984615E+01  0.51100000000E-03 0.  1.
         12    1    3    3    0    0  0.20110619756E+02  0.23776233527E+02  0.24629314619E+02  0.39703267451E+02  0.00000000000E+00 0. -1.
</event>
<event>
 7    1  0.1683291E-008  0.4614232E+02  0.7816164E-02  0.1320468E+00
        -11   -1    0    0    0    0  0.00000000000E+00  0.00000000000E+00  0.45593999997E+02  0.45594000000E+02  0.51100000000E-03 0.  1.
         11   -1    0    0    0    0 -0.00000000000E+00 -0.00000000000E+00 -0.45593999997E+02  0.45594000000E+02  0.51100000000E-03 0. -1.
    9900012    2    1    2    0    0  0.29645110509E+02 -0.23584943590E+02 -0.24372757857E+02  0.46142318000E+02  0.10000002182E+02 0.  0.
        -12    1    1    2    0    0 -0.29645110509E+02  0.23584943590E+02  0.24372757857E+02  0.45045682000E+02  0.00000000000E+00 0.  1.
         11    1    3    3    0    0  0.42313426914E+01 -0.67738442188E+01 -0.48561022038E+01  0.93472431950E+01  0.51100000000E-03 0. -1.
        -11    1    3    3    0    0  0.14600951283E+00  0.16561014806E+00  0.37203681817E+00  0.43261663649E+00  0.51100000000E-03 0.  1.
         12    1    3    3    0    0  0.25267758305E+02 -0.16976709520E+02 -0.19888692471E+02  0.36362458169E+02  0.00000000000E+00 0. -1.
</event>
<event>
 7    1  0.1683291E-008  0.4614232E+02  0.7816164E-02  0.1320468E+00
        -11   -1    0    0    0    0  0.00000000000E+00  0.00000000000E+00  0.45593999997E+02  0.45594000000E+02  0.51100000000E-03 0. -1.
         11   -1    0    0    0    0 -0.00000000000E+00 -0.00000000000E+00 -0.45593999997E+02  0.45594000000E+02  0.51100000000E-03 0.  1.
    9900012    2    1    2    0    0 -0.29330772122E+01  0.36075033947E+02  0.26816084565E+02  0.46142318658E+02  0.10000008175E+02 0.  0.
        -12    1    1    2    0    0  0.29330772122E+01 -0.36075033947E+02 -0.26816084565E+02  0.45045681342E+02  0.00000000000E+00 0.  1.
         11    1    3    3    0    0  0.16076283384E+01  0.13615843794E+02  0.74914154163E+01  0.15623603179E+02  0.51100000000E-03 0. -1.
        -11    1    3    3    0    0 -0.57167963446E+01  0.14857206641E+02  0.12622533409E+02  0.20316168427E+02  0.51100000000E-03 0.  1.
        -12    1    3    3    0    0  0.11760907940E+01  0.76019835121E+01  0.67021357398E+01  0.10202547052E+02  0.00000000000E+00 0.  1.
</event>
<event>
 7    1  0.1683291E-008  0.4614232E+02  0.7816164E-02  0.1320468E+00
        -11   -1    0    0    0    0  0.00000000000E+00  0.00000000000E+00  0.45593999997E+02  0.45594000000E+02  0.51100000000E-03 0.  1.
         11   -1    0    0    0    0 -0.00000000000E+00 -0.00000000000E+00 -0.45593999997E+02  0.45594000000E+02  0.51100000000E-03 0. -1.
    9900012    2    1    2    0    0 -0.24067160922E+01  0.16827595564E+02 -0.41715144665E+02  0.46142317086E+02  0.99999938393E+01 0.  0.
        -12    1    1    2    0    0  0.24067160922E+01 -0.16827595564E+02  0.41715144665E+02  0.45045682914E+02  0.00000000000E+00 0.  1.
         11    1    3    3    0    0  0.16500114049E+00  0.92276308325E+01 -0.26317520454E+02  0.27888855826E+02  0.51100000000E-03 0. -1.
        -11    1    3    3    0    0  0.10838245711E+01  0.15666196241E+01 -0.85071649153E+00  0.20863105133E+01  0.51100000000E-03 0.  1.
         12    1    3    3    0    0 -0.36555418039E+01  0.60333451075E+01 -0.14546907719E+02  0.16167150746E+02  0.00000000000E+00 0. -1.
</event>
<event>
 7    1  0.1683291E-008  0.4614232E+02  0.7816164E-02  0.1320468E+00
        -11   -1    0    0    0    0  0.00000000000E+00  0.00000000000E+00  0.45593999997E+02  0.45594000000E+02  0.51100000000E-03 0.  1.
         11   -1    0    0    0    0 -0.00000000000E+00 -0.00000000000E+00 -0.45593999997E+02  0.45594000000E+02  0.51100000000E-03 0. -1.
    9900012    2    1    2    0    0 -0.94933217064E+01  0.25392509715E+02 -0.35975140719E+02  0.46142318116E+02  0.10000003236E+02 0.  0.
        -12    1    1    2    0    0  0.94933217064E+01 -0.25392509715E+02  0.35975140719E+02  0.45045681884E+02  0.00000000000E+00 0.  1.
         11    1    3    3    0    0 -0.78281139954E+01  0.19638262178E+02 -0.29041296234E+02  0.35921269428E+02  0.51100000000E-03 0. -1.
        -11    1    3    3    0    0 -0.20330114085E+01  0.11886838056E+01 -0.64638098558E+00  0.24421124496E+01  0.51100000000E-03 0.  1.
         12    1    3    3    0    0  0.36780369756E+00  0.45655637318E+01 -0.62874634992E+01  0.77789362385E+01  0.00000000000E+00 0. -1.
</event>
<event>
 7    1  0.1683291E-008  0.4614231E+02  0.7816164E-02  0.1320468E+00
        -11   -1    0    0    0    0  0.00000000000E+00  0.00000000000E+00  0.45593999997E+02  0.45594000000E+02  0.51100000000E-03 0.  1.
         11   -1    0    0    0    0 -0.00000000000E+00 -0.00000000000E+00 -0.45593999997E+02  0.45594000000E+02  0.51100000000E-03 0. -1.
    9900012    2    1    2    0    0 -0.43088200285E+02 -0.54185587117E+01 -0.11964951209E+02  0.46142313861E+02  0.99999644363E+01 0.  0.
        -12    1    1    2    0    0  0.43088200285E+02  0.54185587117E+01  0.11964951209E+02  0.45045686139E+02  0.00000000000E+00 0.  1.
         11    1    3    3    0    0 -0.12781053463E+02 -0.66892218630E+00 -0.53156750714E+01  0.13858541996E+02  0.51100000000E-03 0. -1.
        -11    1    3    3    0    0 -0.12820678852E+02 -0.56931122833E+01 -0.20400601638E+01  0.14175442830E+02  0.51100000000E-03 0.  1.
        -12    1    3    3    0    0 -0.17486467969E+02  0.94347575793E+00 -0.46092159741E+01  0.18108329035E+02  0.00000000000E+00 0.  1.
</event>
<event>
 7    1  0.1683291E-008  0.4614232E+02  0.7816164E-02  0.1320468E+00
        -11   -1    0    0    0    0  0.00000000000E+00  0.00000000000E+00  0.45593999997E+02  0.45594000000E+02  0.51100000000E-03 0. -1.
         11   -1    0    0    0    0 -0.00000000000E+00 -0.00000000000E+00 -0.45593999997E+02  0.45594000000E+02  0.51100000000E-03 0.  1.
    9900012    2    1    2    0    0  0.32161093905E+02  0.31347424994E+02  0.34808862057E+01  0.46142316703E+02  0.99999903531E+01 0.  0.
        -12    1    1    2    0    0 -0.32161093905E+02 -0.31347424994E+02 -0.34808862057E+01  0.45045683297E+02  0.00000000000E+00 0.  1.
         11    1    3    3    0    0  0.10885622335E+02  0.12831563565E+02 -0.21943256784E+01  0.16969409612E+02  0.51100000000E-03 0. -1.
        -11    1    3    3    0    0  0.76902833000E+01  0.64294126485E+01  0.43930727557E+01  0.10944263006E+02  0.51100000000E-03 0.  1.
         12    1    3    3    0    0  0.13585188270E+02  0.12086448780E+02  0.12821391284E+01  0.18228644085E+02  0.00000000000E+00 0. -1.
</event>
<event>
 7    1  0.1683291E-008  0.4614232E+02  0.7816164E-02  0.1320468E+00
        -11   -1    0    0    0    0  0.00000000000E+00  0.00000000000E+00  0.45593999997E+02  0.45594000000E+02  0.51100000000E-03 0.  1.
         11   -1    0    0    0    0 -0.00000000000E+00 -0.00000000000E+00 -0.45593999997E+02  0.45594000000E+02  0.51100000000E-03 0. -1.
    9900012    2    1    2    0    0  0.16950988832E+02 -0.36056693343E+02 -0.21016476442E+02  0.46142318306E+02  0.10000004972E+02 0.  0.
        -12    1    1    2    0    0 -0.16950988832E+02  0.36056693343E+02  0.21016476442E+02  0.45045681694E+02  0.00000000000E+00 0.  1.
         11    1    3    3    0    0  0.82091166038E+01 -0.17987930711E+02 -0.13132222806E+02  0.23736270194E+02  0.51100000000E-03 0. -1.
        -11    1    3    3    0    0 -0.19450796515E+00 -0.57491151228E+01 -0.20566844957E+01  0.61090186953E+01  0.51100000000E-03 0.  1.
         12    1    3    3    0    0  0.89363801932E+01 -0.12319647510E+02 -0.58275691402E+01  0.16297029417E+02  0.00000000000E+00 0. -1.
</event>
<event>
 7    1  0.1683291E-008  0.4614232E+02  0.7816164E-02  0.1320468E+00
        -11   -1    0    0    0    0  0.00000000000E+00  0.00000000000E+00  0.45593999997E+02  0.45594000000E+02  0.51100000000E-03 0.  1.
         11   -1    0    0    0    0 -0.00000000000E+00 -0.00000000000E+00 -0.45593999997E+02  0.45594000000E+02  0.51100000000E-03 0. -1.
    9900012    2    1    2    0    0 -0.16900747250E+02  0.83972803874E+01 -0.40901880479E+02  0.46142318717E+02  0.10000008717E+02 0.  0.
        -12    1    1    2    0    0  0.16900747250E+02 -0.83972803874E+01  0.40901880479E+02  0.45045681283E+02  0.00000000000E+00 0.  1.
         11    1    3    3    0    0 -0.78347124338E+01  0.20734844633E+01 -0.15794792698E+02  0.17752676795E+02  0.51100000000E-03 0. -1.
        -11    1    3    3    0    0 -0.62125446104E+01  0.58379945934E+01 -0.10631157285E+02  0.13627156596E+02  0.51100000000E-03 0.  1.
         12    1    3    3    0    0 -0.28534902058E+01  0.48580133067E+00 -0.14475930496E+02  0.14762485326E+02  0.00000000000E+00 0. -1.
</event>
<event>
 7    1  0.1683291E-008  0.4614232E+02  0.7816164E-02  0.1320468E+00
        -11   -1    0    0    0    0  0.00000000000E+00  0.00000000000E+00  0.45593999997E+02  0.45594000000E+02  0.51100000000E-03 0.  1.
         11   -1    0    0    0    0 -0.00000000000E+00 -0.00000000000E+00 -0.45593999997E+02  0.45594000000E+02  0.51100000000E-03 0. -1.
    9900012    2    1    2    0    0 -0.11825598331E+02 -0.15479374550E+02 -0.40615976338E+02  0.46142319338E+02  0.10000014383E+02 0.  0.
        -12    1    1    2    0    0  0.11825598331E+02  0.15479374550E+02  0.40615976338E+02  0.45045680662E+02  0.00000000000E+00 0.  1.
         11    1    3    3    0    0 -0.59157956958E+01 -0.55586934745E+01 -0.16883528936E+02  0.18733639834E+02  0.51100000000E-03 0. -1.
        -11    1    3    3    0    0 -0.72450180182E+01 -0.55344015093E+01 -0.16267936086E+02  0.18648475297E+02  0.51100000000E-03 0.  1.
        -12    1    3    3    0    0  0.13352153825E+01 -0.43862795662E+01 -0.74645113167E+01  0.87602042069E+01  0.00000000000E+00 0.  1.
</event>
<event>
 7    1  0.1683291E-008  0.4614232E+02  0.7816164E-02  0.1320468E+00
        -11   -1    0    0    0    0  0.00000000000E+00  0.00000000000E+00  0.45593999997E+02  0.45594000000E+02  0.51100000000E-03 0.  1.
         11   -1    0    0    0    0 -0.00000000000E+00 -0.00000000000E+00 -0.45593999997E+02  0.45594000000E+02  0.51100000000E-03 0. -1.
    9900012    2    1    2    0    0 -0.26534505685E+02  0.35501232667E+02 -0.80433853258E+01  0.46142316963E+02  0.99999927194E+01 0.  0.
        -12    1    1    2    0    0  0.26534505685E+02 -0.35501232667E+02  0.80433853258E+01  0.45045683037E+02  0.00000000000E+00 0.  1.
         11    1    3    3    0    0 -0.85923453260E+01  0.18137918146E+02 -0.57663900853E+01  0.20882138965E+02  0.51100000000E-03 0. -1.
        -11    1    3    3    0    0 -0.58971181230E-02 -0.65149336972E-01 -0.14642379806E+00  0.16037269677E+00  0.51100000000E-03 0.  1.
         12    1    3    3    0    0 -0.17936263241E+02  0.17428463858E+02 -0.21305714424E+01  0.25099805301E+02  0.00000000000E+00 0. -1.
</event>
<event>
 7    1  0.2052897E-008  0.4614232E+02  0.7816164E-02  0.1320468E+00
        -11   -1    0    0    0    0  0.00000000000E+00  0.00000000000E+00  0.45593999997E+02  0.45594000000E+02  0.51100000000E-03 0.  1.
         11   -1    0    0    0    0 -0.00000000000E+00 -0.00000000000E+00 -0.45593999997E+02  0.45594000000E+02  0.51100000000E-03 0. -1.
    9900012    2    1    2    0    0 -0.26832673603E+02  0.36073978672E+02 -0.27909168254E+01  0.46142317337E+02  0.99999961293E+01 0.  0.
        -12    1    1    2    0    0  0.26832673603E+02 -0.36073978672E+02  0.27909168254E+01  0.45045682663E+02  0.00000000000E+00 0.  1.
         11    1    3    3    0    0 -0.16193178419E+02  0.28938143474E+02 -0.22712966198E+01  0.33238441053E+02  0.51100000000E-03 0. -1.
        -11    1    3    3    0    0 -0.26860863912E+01  0.10724570986E+01 -0.97979396404E-01  0.28939289129E+01  0.51100000000E-03 0.  1.
         12    1    3    3    0    0 -0.79534087924E+01  0.60633780990E+01 -0.42164080926E+00  0.10009947371E+02  0.00000000000E+00 0. -1.
</event>
<event>
 7    1  0.1683291E-008  0.4614233E+02  0.7816164E-02  0.1320468E+00
        -11   -1    0    0    0    0  0.00000000000E+00  0.00000000000E+00  0.45593999997E+02  0.45594000000E+02  0.51100000000E-03 0.  1.
         11   -1    0    0    0    0 -0.00000000000E+00 -0.00000000000E+00 -0.45593999997E+02  0.45594000000E+02  0.51100000000E-03 0. -1.
    9900012    2    1    2    0    0 -0.55474307172E+01  0.27711736950E+02 -0.35077035373E+02  0.46142325814E+02  0.10000073429E+02 0.  0.
        -12    1    1    2    0    0  0.55474307172E+01 -0.27711736950E+02  0.35077035373E+02  0.45045674186E+02  0.00000000000E+00 0.  1.
         11    1    3    3    0    0 -0.32518563979E+01  0.19735414297E+02 -0.24685820273E+02  0.31771856576E+02  0.51100000000E-03 0. -1.
        -11    1    3    3    0    0 -0.26797901870E+01  0.18087832561E+01 -0.15543952832E+01  0.35873551917E+01  0.51100000000E-03 0.  1.
         12    1    3    3    0    0  0.38421586764E+00  0.61675393969E+01 -0.88368198167E+01  0.10783114046E+02  0.00000000000E+00 0. -1.
</event>
<event>
 7    1  0.1683291E-008  0.4614232E+02  0.7816164E-02  0.1320468E+00
        -11   -1    0    0    0    0  0.00000000000E+00  0.00000000000E+00  0.45593999997E+02  0.45594000000E+02  0.51100000000E-03 0.  1.
         11   -1    0    0    0    0 -0.00000000000E+00 -0.00000000000E+00 -0.45593999997E+02  0.45594000000E+02  0.51100000000E-03 0. -1.
    9900012    2    1    2    0    0 -0.42256899031E+02  0.84887755212E+01 -0.13092315386E+02  0.46142317102E+02  0.99999939884E+01 0.  0.
        -12    1    1    2    0    0  0.42256899031E+02 -0.84887755212E+01  0.13092315386E+02  0.45045682898E+02  0.00000000000E+00 0.  1.
         11    1    3    3    0    0 -0.70940012806E+01  0.42493428739E+01 -0.12904466894E+01  0.83694098925E+01  0.51100000000E-03 0. -1.
        -11    1    3    3    0    0 -0.17668053988E+02  0.16947553518E+01 -0.29182036060E+01  0.17987446733E+02  0.51100000000E-03 0.  1.
         12    1    3    3    0    0 -0.17494843763E+02  0.25446772955E+01 -0.88836650906E+01  0.19785460477E+02  0.00000000000E+00 0. -1.
</event>
<event>
 7    1  0.1683291E-008  0.4614232E+02  0.7816164E-02  0.1320468E+00
        -11   -1    0    0    0    0  0.00000000000E+00  0.00000000000E+00  0.45593999997E+02  0.45594000000E+02  0.51100000000E-03 0.  1.
         11   -1    0    0    0    0 -0.00000000000E+00 -0.00000000000E+00 -0.45593999997E+02  0.45594000000E+02  0.51100000000E-03 0. -1.
    9900012    2    1    2    0    0  0.42393114738E+02  0.88584422060E+01 -0.12388116196E+02  0.46142316540E+02  0.99999888672E+01 0.  0.
        -12    1    1    2    0    0 -0.42393114738E+02 -0.88584422060E+01  0.12388116196E+02  0.45045683460E+02  0.00000000000E+00 0.  1.
         11    1    3    3    0    0  0.14166808613E+02  0.33330707637E+01 -0.18073651363E+01  0.14665414962E+02  0.51100000000E-03 0. -1.
        -11    1    3    3    0    0  0.11544094878E+02  0.24825259618E+01 -0.81466976226E+01  0.14345652446E+02  0.51100000000E-03 0.  1.
        -12    1    3    3    0    0  0.16682211247E+02  0.30428454805E+01 -0.24340534369E+01  0.17131249132E+02  0.00000000000E+00 0.  1.
</event>
<event>
 7    1  0.1683291E-008  0.4614232E+02  0.7816164E-02  0.1320468E+00
        -11   -1    0    0    0    0  0.00000000000E+00  0.00000000000E+00  0.45593999997E+02  0.45594000000E+02  0.51100000000E-03 0. -1.
         11   -1    0    0    0    0 -0.00000000000E+00 -0.00000000000E+00 -0.45593999997E+02  0.45594000000E+02  0.51100000000E-03 0.  1.
    9900012    2    1    2    0    0  0.22022556024E-01 -0.49163494124E+01  0.44776584603E+02  0.46142317573E+02  0.99999982890E+01 0.  0.
        -12    1    1    2    0    0 -0.22022556024E-01  0.49163494124E+01 -0.44776584603E+02  0.45045682427E+02  0.00000000000E+00 0.  1.
         11    1    3    3    0    0 -0.60609726541E+00 -0.25367024622E+01  0.14144566390E+02  0.14383009834E+02  0.51100000000E-03 0. -1.
        -11    1    3    3    0    0 -0.10677598942E+01 -0.16667625012E+01  0.12966803771E+01  0.23663450062E+01  0.51100000000E-03 0.  1.
        -12    1    3    3    0    0  0.16958797156E+01 -0.71288444905E+00  0.29335337836E+02  0.29392962733E+02  0.00000000000E+00 0.  1.
</event>
<event>
 7    1  0.1683291E-008  0.4614232E+02  0.7816164E-02  0.1320468E+00
        -11   -1    0    0    0    0  0.00000000000E+00  0.00000000000E+00  0.45593999997E+02  0.45594000000E+02  0.51100000000E-03 0.  1.
         11   -1    0    0    0    0 -0.00000000000E+00 -0.00000000000E+00 -0.45593999997E+02  0.45594000000E+02  0.51100000000E-03 0. -1.
    9900012    2    1    2    0    0  0.13939367005E+01 -0.42199939360E+02 -0.15695079647E+02  0.46142318002E+02  0.10000002199E+02 0.  0.
        -12    1    1    2    0    0 -0.13939367005E+01  0.42199939360E+02  0.15695079647E+02  0.45045681998E+02  0.00000000000E+00 0.  1.
         11    1    3    3    0    0  0.21213206377E+01 -0.29868214235E+02 -0.11184170075E+02  0.31963977903E+02  0.51100000000E-03 0. -1.
        -11    1    3    3    0    0 -0.12289213522E+01 -0.18533663848E+01 -0.27574972253E+01  0.35424576010E+01  0.51100000000E-03 0.  1.
        -12    1    3    3    0    0  0.50153741501E+00 -0.10478358740E+02 -0.17534123471E+01  0.10635882498E+02  0.00000000000E+00 0.  1.
</event>
<event>
 7    1  0.1683291E-008  0.4614232E+02  0.7816164E-02  0.1320468E+00
        -11   -1    0    0    0    0  0.00000000000E+00  0.00000000000E+00  0.45593999997E+02  0.45594000000E+02  0.51100000000E-03 0. -1.
         11   -1    0    0    0    0 -0.00000000000E+00 -0.00000000000E+00 -0.45593999997E+02  0.45594000000E+02  0.51100000000E-03 0.  1.
    9900012    2    1    2    0    0  0.19681186752E+02  0.37706571243E+02 -0.14831678616E+02  0.46142319658E+02  0.10000017298E+02 0.  0.
        -12    1    1    2    0    0 -0.19681186752E+02 -0.37706571243E+02  0.14831678616E+02  0.45045680342E+02  0.00000000000E+00 0.  1.
         11    1    3    3    0    0  0.12525831753E+02  0.25971119384E+02 -0.11095770204E+02  0.30895171465E+02  0.51100000000E-03 0. -1.
        -11    1    3    3    0    0  0.50595641429E+01  0.80939758597E+01  0.11776131205E+00  0.95459678671E+01  0.51100000000E-03 0.  1.
        -12    1    3    3    0    0  0.20957908558E+01  0.36414760001E+01 -0.38536697241E+01  0.57011803263E+01  0.00000000000E+00 0.  1.
</event>
<event>
 7    1  0.1683291E-008  0.4614232E+02  0.7816164E-02  0.1320468E+00
        -11   -1    0    0    0    0  0.00000000000E+00  0.00000000000E+00  0.45593999997E+02  0.45594000000E+02  0.51100000000E-03 0. -1.
         11   -1    0    0    0    0 -0.00000000000E+00 -0.00000000000E+00 -0.45593999997E+02  0.45594000000E+02  0.51100000000E-03 0.  1.
    9900012    2    1    2    0    0  0.37285038702E+02 -0.12479967615E+02  0.21981574471E+02  0.46142319642E+02  0.10000017155E+02 0.  0.
        -12    1    1    2    0    0 -0.37285038702E+02  0.12479967615E+02 -0.21981574471E+02  0.45045680358E+02  0.00000000000E+00 0.  1.
         11    1    3    3    0    0  0.20490792727E+02 -0.54387460844E+01  0.91013895297E+01  0.23071364008E+02  0.51100000000E-03 0. -1.
        -11    1    3    3    0    0  0.16692928332E+02 -0.74317564566E+01  0.11400664533E+02  0.21537409602E+02  0.51100000000E-03 0.  1.
        -12    1    3    3    0    0  0.10131764250E+00  0.39053492574E+00  0.14795204088E+01  0.15335460322E+01  0.00000000000E+00 0.  1.
</event>
<event>
 7    1  0.1683291E-008  0.4614232E+02  0.7816164E-02  0.1320468E+00
        -11   -1    0    0    0    0  0.00000000000E+00  0.00000000000E+00  0.45593999997E+02  0.45594000000E+02  0.51100000000E-03 0.  1.
         11   -1    0    0    0    0 -0.00000000000E+00 -0.00000000000E+00 -0.45593999997E+02  0.45594000000E+02  0.51100000000E-03 0. -1.
    9900012    2    1    2    0    0  0.11549054285E+02 -0.40859117735E+02 -0.15042120571E+02  0.46142317096E+02  0.99999939386E+01 0.  0.
        -12    1    1    2    0    0 -0.11549054285E+02  0.40859117735E+02  0.15042120571E+02  0.45045682904E+02  0.00000000000E+00 0.  1.
         11    1    3    3    0    0  0.59830660292E+01 -0.14355613692E+02 -0.80598266576E+01  0.17516892693E+02  0.51100000000E-03 0. -1.
        -11    1    3    3    0    0  0.36745907976E+01 -0.12467259849E+02 -0.39023480647E+00  0.13003363762E+02  0.51100000000E-03 0.  1.
        -12    1    3    3    0    0  0.18913974587E+01 -0.14036244194E+02 -0.65920591067E+01  0.15622060642E+02  0.00000000000E+00 0.  1.
</event>
<event>
 7    1  0.1683291E-008  0.4614232E+02  0.7816164E-02  0.1320468E+00
        -11   -1    0    0    0    0  0.00000000000E+00  0.00000000000E+00  0.45593999997E+02  0.45594000000E+02  0.51100000000E-03 0. -1.
         11   -1    0    0    0    0 -0.00000000000E+00 -0.00000000000E+00 -0.45593999997E+02  0.45594000000E+02  0.51100000000E-03 0.  1.
    9900012    2    1    2    0    0 -0.24012049219E+02  0.35625005324E+02  0.13542299870E+02  0.46142318766E+02  0.10000009165E+02 0.  0.
        -12    1    1    2    0    0  0.24012049219E+02 -0.35625005324E+02 -0.13542299870E+02  0.45045681234E+02  0.00000000000E+00 0.  1.
         11    1    3    3    0    0 -0.88876634064E+01  0.17936993767E+02  0.58741512956E+01  0.20862213687E+02  0.51100000000E-03 0. -1.
        -11    1    3    3    0    0 -0.96419422921E+01  0.77009310526E+01  0.18182596327E+01  0.12473069333E+02  0.51100000000E-03 0.  1.
        -12    1    3    3    0    0 -0.54824435201E+01  0.99870805048E+01  0.58498889417E+01  0.12807035746E+02  0.00000000000E+00 0.  1.
</event>
<event>
 7    1  0.1683291E-008  0.4614232E+02  0.7816164E-02  0.1320468E+00
        -11   -1    0    0    0    0  0.00000000000E+00  0.00000000000E+00  0.45593999997E+02  0.45594000000E+02  0.51100000000E-03 0.  1.
         11   -1    0    0    0    0 -0.00000000000E+00 -0.00000000000E+00 -0.45593999997E+02  0.45594000000E+02  0.51100000000E-03 0. -1.
    9900012    2    1    2    0    0  0.32435540061E+02 -0.46159878577E+01 -0.30915073255E+02  0.46142319216E+02  0.10000013266E+02 0.  0.
        -12    1    1    2    0    0 -0.32435540061E+02  0.46159878577E+01  0.30915073255E+02  0.45045680784E+02  0.00000000000E+00 0.  1.
         11    1    3    3    0    0  0.73547780934E+01 -0.18373096656E+01 -0.88528972600E+01  0.11655138685E+02  0.51100000000E-03 0. -1.
        -11    1    3    3    0    0  0.48960928033E+01  0.27005366932E+01 -0.47393589501E+01  0.73298121865E+01  0.51100000000E-03 0.  1.
         12    1    3    3    0    0  0.20184669164E+02 -0.54792148853E+01 -0.17322817045E+02  0.27157368344E+02  0.00000000000E+00 0. -1.
</event>
<event>
 7    1  0.1683291E-008  0.4614232E+02  0.7816164E-02  0.1320468E+00
        -11   -1    0    0    0    0  0.00000000000E+00  0.00000000000E+00  0.45593999997E+02  0.45594000000E+02  0.51100000000E-03 0.  1.
         11   -1    0    0    0    0 -0.00000000000E+00 -0.00000000000E+00 -0.45593999997E+02  0.45594000000E+02  0.51100000000E-03 0. -1.
    9900012    2    1    2    0    0 -0.39321259826E+02 -0.19480163125E+02 -0.10172279230E+02  0.46142317694E+02  0.99999993836E+01 0.  0.
        -12    1    1    2    0    0  0.39321259826E+02  0.19480163125E+02  0.10172279230E+02  0.45045682306E+02  0.00000000000E+00 0.  1.
         11    1    3    3    0    0 -0.88960847275E+01 -0.46480604885E+01 -0.17498129653E+01  0.10188554140E+02  0.51100000000E-03 0. -1.
        -11    1    3    3    0    0 -0.19824946927E+02 -0.50116299916E+01 -0.39433294814E+01  0.20825340417E+02  0.51100000000E-03 0.  1.
        -12    1    3    3    0    0 -0.10600228171E+02 -0.98204726453E+01 -0.44791367838E+01  0.15128423136E+02  0.00000000000E+00 0.  1.
</event>
<event>
 7    1  0.1683291E-008  0.4614232E+02  0.7816164E-02  0.1320468E+00
        -11   -1    0    0    0    0  0.00000000000E+00  0.00000000000E+00  0.45593999997E+02  0.45594000000E+02  0.51100000000E-03 0.  1.
         11   -1    0    0    0    0 -0.00000000000E+00 -0.00000000000E+00 -0.45593999997E+02  0.45594000000E+02  0.51100000000E-03 0. -1.
    9900012    2    1    2    0    0 -0.32046194882E+02 -0.22775013197E+02 -0.21987580914E+02  0.46142317110E+02  0.99999940662E+01 0.  0.
        -12    1    1    2    0    0  0.32046194882E+02  0.22775013197E+02  0.21987580914E+02  0.45045682890E+02  0.00000000000E+00 0.  1.
         11    1    3    3    0    0 -0.16978188206E+02 -0.13479398328E+02 -0.13101976592E+02  0.25330117349E+02  0.51100000000E-03 0. -1.
        -11    1    3    3    0    0 -0.96011679586E+01 -0.21892428477E+01 -0.43763682572E+01  0.10776261402E+02  0.51100000000E-03 0.  1.
        -12    1    3    3    0    0 -0.54668387178E+01 -0.71063720212E+01 -0.45092360646E+01  0.10035938360E+02  0.00000000000E+00 0.  1.
</event>
<event>
 7    1  0.1683291E-008  0.4614232E+02  0.7816164E-02  0.1320468E+00
        -11   -1    0    0    0    0  0.00000000000E+00  0.00000000000E+00  0.45593999997E+02  0.45594000000E+02  0.51100000000E-03 0.  1.
         11   -1    0    0    0    0 -0.00000000000E+00 -0.00000000000E+00 -0.45593999997E+02  0.45594000000E+02  0.51100000000E-03 0. -1.
    9900012    2    1    2    0    0 -0.89269976388E+01 -0.43648307377E+01 -0.43935982636E+02  0.46142316473E+02  0.99999882579E+01 0.  0.
        -12    1    1    2    0    0  0.89269976388E+01  0.43648307377E+01  0.43935982636E+02  0.45045683527E+02  0.00000000000E+00 0.  1.
         11    1    3    3    0    0 -0.54296588927E+01 -0.72217473502E+01 -0.26714134384E+02  0.28200705782E+02  0.51100000000E-03 0. -1.
        -11    1    3    3    0    0 -0.29382202897E+01  0.31386459542E+01 -0.13518124047E+02  0.14185341550E+02  0.51100000000E-03 0.  1.
         12    1    3    3    0    0 -0.55911845638E+00 -0.28172934158E+00 -0.37037242053E+01  0.37562691409E+01  0.00000000000E+00 0. -1.
</event>
<event>
 7    1  0.1683291E-008  0.4614232E+02  0.7816164E-02  0.1320468E+00
        -11   -1    0    0    0    0  0.00000000000E+00  0.00000000000E+00  0.45593999997E+02  0.45594000000E+02  0.51100000000E-03 0. -1.
         11   -1    0    0    0    0 -0.00000000000E+00 -0.00000000000E+00 -0.45593999997E+02  0.45594000000E+02  0.51100000000E-03 0.  1.
    9900012    2    1    2    0    0  0.29935723122E+02  0.44684533308E+01  0.33361639303E+02  0.46142316845E+02  0.99999916417E+01 0.  0.
        -12    1    1    2    0    0 -0.29935723122E+02 -0.44684533308E+01 -0.33361639303E+02  0.45045683155E+02  0.00000000000E+00 0.  1.
         11    1    3    3    0    0  0.17072500472E+02  0.65604539908E+01  0.22437240478E+02  0.28947186210E+02  0.51100000000E-03 0. -1.
        -11    1    3    3    0    0  0.83650368330E+01 -0.24495703625E+01  0.64762053141E+01  0.10858889064E+02  0.51100000000E-03 0.  1.
         12    1    3    3    0    0  0.44981858165E+01  0.35756970258E+00  0.44481935104E+01  0.63362415703E+01  0.00000000000E+00 0. -1.
</event>
<event>
 7    1  0.2295484E-008  0.4614232E+02  0.7816164E-02  0.1320468E+00
        -11   -1    0    0    0    0  0.00000000000E+00  0.00000000000E+00  0.45593999997E+02  0.45594000000E+02  0.51100000000E-03 0. -1.
         11   -1    0    0    0    0 -0.00000000000E+00 -0.00000000000E+00 -0.45593999997E+02  0.45594000000E+02  0.51100000000E-03 0.  1.
    9900012    2    1    2    0    0  0.29055271103E+02  0.14086887885E+02  0.31408030150E+02  0.46142317110E+02  0.99999940621E+01 0.  0.
        -12    1    1    2    0    0 -0.29055271103E+02 -0.14086887885E+02 -0.31408030150E+02  0.45045682890E+02  0.00000000000E+00 0.  1.
         11    1    3    3    0    0  0.29298940350E+02  0.13577452070E+02  0.31547422813E+02  0.45144379459E+02  0.51100000000E-03 0. -1.
        -11    1    3    3    0    0 -0.80426824730E-01  0.45083007864E+00 -0.45009183452E+00  0.64210525193E+00  0.51100000000E-03 0.  1.
         12    1    3    3    0    0 -0.16324242262E+00  0.58605736245E-01  0.31069917195E+00  0.35583239919E+00  0.00000000000E+00 0. -1.
</event>
<event>
 7    1  0.1683291E-008  0.4614232E+02  0.7816164E-02  0.1320468E+00
        -11   -1    0    0    0    0  0.00000000000E+00  0.00000000000E+00  0.45593999997E+02  0.45594000000E+02  0.51100000000E-03 0.  1.
         11   -1    0    0    0    0 -0.00000000000E+00 -0.00000000000E+00 -0.45593999997E+02  0.45594000000E+02  0.51100000000E-03 0. -1.
    9900012    2    1    2    0    0 -0.37802631649E+02 -0.23912339564E+02  0.53173767800E+01  0.46142318311E+02  0.10000005011E+02 0.  0.
        -12    1    1    2    0    0  0.37802631649E+02  0.23912339564E+02 -0.53173767800E+01  0.45045681689E+02  0.00000000000E+00 0.  1.
         11    1    3    3    0    0 -0.15714384709E+02 -0.13218943288E+02  0.48393645488E+01  0.21097435814E+02  0.51100000000E-03 0.  1.
        -11    1    3    3    0    0 -0.11698303981E+02 -0.71424437945E+01  0.23502383243E+01  0.13906417218E+02  0.51100000000E-03 0. -1.
         12    1    3    3    0    0 -0.10389942959E+02 -0.35509524816E+01 -0.18722260932E+01  0.11138465279E+02  0.00000000000E+00 0. -1.
</event>
<event>
 7    1  0.1683291E-008  0.4614232E+02  0.7816164E-02  0.1320468E+00
        -11   -1    0    0    0    0  0.00000000000E+00  0.00000000000E+00  0.45593999997E+02  0.45594000000E+02  0.51100000000E-03 0.  1.
         11   -1    0    0    0    0 -0.00000000000E+00 -0.00000000000E+00 -0.45593999997E+02  0.45594000000E+02  0.51100000000E-03 0. -1.
    9900012    2    1    2    0    0  0.20869431591E+02  0.29095582634E+02  0.27331799750E+02  0.46142318950E+02  0.10000010838E+02 0.  0.
        -12    1    1    2    0    0 -0.20869431591E+02 -0.29095582634E+02 -0.27331799750E+02  0.45045681050E+02  0.00000000000E+00 0.  1.
         11    1    3    3    0    0  0.18595860473E+02  0.27794953105E+02  0.25171786730E+02  0.41856711437E+02  0.51100000000E-03 0. -1.
        -11    1    3    3    0    0  0.15252832697E+01 -0.36236864763E+00  0.18681440077E+01  0.24388034739E+01  0.51100000000E-03 0.  1.
        -12    1    3    3    0    0  0.74828784809E+00  0.16629981767E+01  0.29186901191E+00  0.18468040393E+01  0.00000000000E+00 0.  1.
</event>
<event>
 7    1  0.1683291E-008  0.4614232E+02  0.7816164E-02  0.1320468E+00
        -11   -1    0    0    0    0  0.00000000000E+00  0.00000000000E+00  0.45593999997E+02  0.45594000000E+02  0.51100000000E-03 0.  1.
         11   -1    0    0    0    0 -0.00000000000E+00 -0.00000000000E+00 -0.45593999997E+02  0.45594000000E+02  0.51100000000E-03 0. -1.
    9900012    2    1    2    0    0  0.45605997460E+01 -0.28088370084E+01 -0.44726110225E+02  0.46142316841E+02  0.99999916080E+01 0.  0.
        -12    1    1    2    0    0 -0.45605997460E+01  0.28088370084E+01  0.44726110225E+02  0.45045683159E+02  0.00000000000E+00 0.  1.
         11    1    3    3    0    0  0.12441776310E+01 -0.20329410257E+01 -0.30853191899E+01  0.38987205538E+01  0.51100000000E-03 0.  1.
        -11    1    3    3    0    0  0.16366831114E+01  0.25691290991E+01 -0.25123224842E+02  0.25307223922E+02  0.51100000000E-03 0. -1.
         12    1    3    3    0    0  0.16797390036E+01 -0.33450250818E+01 -0.16517566194E+02  0.16936372365E+02  0.00000000000E+00 0. -1.
</event>
<event>
 7    1  0.1683291E-008  0.4614232E+02  0.7816164E-02  0.1320468E+00
        -11   -1    0    0    0    0  0.00000000000E+00  0.00000000000E+00  0.45593999997E+02  0.45594000000E+02  0.51100000000E-03 0. -1.
         11   -1    0    0    0    0 -0.00000000000E+00 -0.00000000000E+00 -0.45593999997E+02  0.45594000000E+02  0.51100000000E-03 0.  1.
    9900012    2    1    2    0    0  0.40612167067E+02 -0.79408824674E+00 -0.19471384252E+02  0.46142317691E+02  0.99999993564E+01 0.  0.
        -12    1    1    2    0    0 -0.40612167067E+02  0.79408824674E+00  0.19471384252E+02  0.45045682309E+02  0.00000000000E+00 0.  1.
         11    1    3    3    0    0  0.36850727465E+01  0.46913560513E+00 -0.49751136859E+00  0.37479817484E+01  0.51100000000E-03 0. -1.
        -11    1    3    3    0    0  0.69223170488E+01  0.29705470386E+01 -0.48774783604E+01  0.89739856502E+01  0.51100000000E-03 0.  1.
        -12    1    3    3    0    0  0.30004777272E+02 -0.42337708905E+01 -0.14096394523E+02  0.33420350292E+02  0.00000000000E+00 0.  1.
</event>
<event>
 7    1  0.1683291E-008  0.4614232E+02  0.7816164E-02  0.1320468E+00
        -11   -1    0    0    0    0  0.00000000000E+00  0.00000000000E+00  0.45593999997E+02  0.45594000000E+02  0.51100000000E-03 0.  1.
         11   -1    0    0    0    0 -0.00000000000E+00 -0.00000000000E+00 -0.45593999997E+02  0.45594000000E+02  0.51100000000E-03 0. -1.
    9900012    2    1    2    0    0  0.36254683935E+02 -0.14749486974E+02 -0.22297176631E+02  0.46142316978E+02  0.99999928566E+01 0.  0.
        -12    1    1    2    0    0 -0.36254683935E+02  0.14749486974E+02  0.22297176631E+02  0.45045683022E+02  0.00000000000E+00 0.  1.
         11    1    3    3    0    0  0.99157746570E+01 -0.22790238533E+01 -0.18083853307E+01  0.10333769619E+02  0.51100000000E-03 0.  1.
        -11    1    3    3    0    0  0.70360923552E+01 -0.40984419267E+01 -0.75752794320E+01  0.11121541287E+02  0.51100000000E-03 0. -1.
         12    1    3    3    0    0  0.19302816923E+02 -0.83720211944E+01 -0.12913511868E+02  0.24687006072E+02  0.00000000000E+00 0. -1.
</event>
<event>
 7    1  0.1683291E-008  0.4614232E+02  0.7816164E-02  0.1320468E+00
        -11   -1    0    0    0    0  0.00000000000E+00  0.00000000000E+00  0.45593999997E+02  0.45594000000E+02  0.51100000000E-03 0. -1.
         11   -1    0    0    0    0 -0.00000000000E+00 -0.00000000000E+00 -0.45593999997E+02  0.45594000000E+02  0.51100000000E-03 0.  1.
    9900012    2    1    2    0    0 -0.32460889698E+02 -0.30703794169E+02 -0.57167479669E+01  0.46142317147E+02  0.99999943970E+01 0.  0.
        -12    1    1    2    0    0  0.32460889698E+02  0.30703794169E+02  0.57167479669E+01  0.45045682853E+02  0.00000000000E+00 0.  1.
         11    1    3    3    0    0  0.32869637905E+00 -0.76122586132E+00  0.20556407105E+00  0.85426165194E+00  0.51100000000E-03 0.  1.
        -11    1    3    3    0    0 -0.71637241159E+01 -0.33319803300E+01 -0.19247918706E+00  0.79030427448E+01  0.51100000000E-03 0. -1.
         12    1    3    3    0    0 -0.25625861962E+02 -0.26610587978E+02 -0.57298328509E+01  0.37385012750E+02  0.00000000000E+00 0. -1.
</event>
<event>
 7    1  0.1683291E-008  0.4614232E+02  0.7816164E-02  0.1320468E+00
        -11   -1    0    0    0    0  0.00000000000E+00  0.00000000000E+00  0.45593999997E+02  0.45594000000E+02  0.51100000000E-03 0. -1.
         11   -1    0    0    0    0 -0.00000000000E+00 -0.00000000000E+00 -0.45593999997E+02  0.45594000000E+02  0.51100000000E-03 0.  1.
    9900012    2    1    2    0    0  0.30964477798E+02  0.62160362398E+01  0.32119699574E+02  0.46142322154E+02  0.10000040060E+02 0.  0.
        -12    1    1    2    0    0 -0.30964477798E+02 -0.62160362398E+01 -0.32119699574E+02  0.45045677846E+02  0.00000000000E+00 0.  1.
         11    1    3    3    0    0  0.10812321088E+02  0.68740143758E+00  0.98822679605E+01  0.14664174997E+02  0.51100000000E-03 0. -1.
        -11    1    3    3    0    0  0.48297614201E+01  0.35631003096E+01  0.10433607422E+02  0.12036712313E+02  0.51100000000E-03 0.  1.
        -12    1    3    3    0    0  0.15322395290E+02  0.19655344926E+01  0.11803824191E+02  0.19441434844E+02  0.00000000000E+00 0.  1.
</event>
<event>
 7    1  0.1683291E-008  0.4614232E+02  0.7816164E-02  0.1320468E+00
        -11   -1    0    0    0    0  0.00000000000E+00  0.00000000000E+00  0.45593999997E+02  0.45594000000E+02  0.51100000000E-03 0. -1.
         11   -1    0    0    0    0 -0.00000000000E+00 -0.00000000000E+00 -0.45593999997E+02  0.45594000000E+02  0.51100000000E-03 0.  1.
    9900012    2    1    2    0    0  0.33828327760E+02 -0.28407119348E+02 -0.88200542062E+01  0.46142317133E+02  0.99999942753E+01 0.  0.
        -12    1    1    2    0    0 -0.33828327760E+02  0.28407119348E+02  0.88200542062E+01  0.45045682867E+02  0.00000000000E+00 0.  1.
         11    1    3    3    0    0  0.30579598879E+02 -0.22052086165E+02 -0.74528931118E+01  0.38431133054E+02  0.51100000000E-03 0. -1.
        -11    1    3    3    0    0  0.15253502019E+01 -0.44689914154E+01  0.17789589831E+00  0.47254867179E+01  0.51100000000E-03 0.  1.
         12    1    3    3    0    0  0.17233786799E+01 -0.18860417678E+01 -0.15450569928E+01  0.29856973616E+01  0.00000000000E+00 0. -1.
</event>
<event>
 7    1  0.1683291E-008  0.4614232E+02  0.7816164E-02  0.1320468E+00
        -11   -1    0    0    0    0  0.00000000000E+00  0.00000000000E+00  0.45593999997E+02  0.45594000000E+02  0.51100000000E-03 0. -1.
         11   -1    0    0    0    0 -0.00000000000E+00 -0.00000000000E+00 -0.45593999997E+02  0.45594000000E+02  0.51100000000E-03 0.  1.
    9900012    2    1    2    0    0  0.11290397409E+02 -0.40318619123E+02  0.16614731067E+02  0.46142318630E+02  0.10000007927E+02 0.  0.
        -12    1    1    2    0    0 -0.11290397409E+02  0.40318619123E+02 -0.16614731067E+02  0.45045681370E+02  0.00000000000E+00 0.  1.
         11    1    3    3    0    0  0.35604774668E+01 -0.27405479266E+02  0.10484487758E+02  0.29557770170E+02  0.51100000000E-03 0. -1.
        -11    1    3    3    0    0  0.68379952946E+01 -0.86458869100E+01  0.39427765857E+01  0.11707050336E+02  0.51100000000E-03 0.  1.
        -12    1    3    3    0    0  0.89192464752E+00 -0.42672529468E+01  0.21874667228E+01  0.48774981243E+01  0.00000000000E+00 0.  1.
</event>
<event>
 7    1  0.1683291E-008  0.4614232E+02  0.7816164E-02  0.1320468E+00
        -11   -1    0    0    0    0  0.00000000000E+00  0.00000000000E+00  0.45593999997E+02  0.45594000000E+02  0.51100000000E-03 0.  1.
         11   -1    0    0    0    0 -0.00000000000E+00 -0.00000000000E+00 -0.45593999997E+02  0.45594000000E+02  0.51100000000E-03 0. -1.
    9900012    2    1    2    0    0  0.10872088782E+01  0.88827881777E+01 -0.44147792690E+02  0.46142317095E+02  0.99999939278E+01 0.  0.
        -12    1    1    2    0    0 -0.10872088782E+01 -0.88827881777E+01  0.44147792690E+02  0.45045682905E+02  0.00000000000E+00 0.  1.
         11    1    3    3    0    0  0.15824669773E+01  0.25482313023E+01 -0.17487788074E+02  0.17743179436E+02  0.51100000000E-03 0.  1.
        -11    1    3    3    0    0  0.20462323560E+01  0.48665407299E+01 -0.23502855177E+02  0.24088472082E+02  0.51100000000E-03 0. -1.
        -12    1    3    3    0    0 -0.25414904552E+01  0.14680161454E+01 -0.31571494388E+01  0.43106655769E+01  0.00000000000E+00 0.  1.
</event>
<event>
 7    1  0.1683291E-008  0.4614232E+02  0.7816164E-02  0.1320468E+00
        -11   -1    0    0    0    0  0.00000000000E+00  0.00000000000E+00  0.45593999997E+02  0.45594000000E+02  0.51100000000E-03 0. -1.
         11   -1    0    0    0    0 -0.00000000000E+00 -0.00000000000E+00 -0.45593999997E+02  0.45594000000E+02  0.51100000000E-03 0.  1.
    9900012    2    1    2    0    0 -0.15873633210E+02  0.41379325928E+02 -0.80555964955E+01  0.46142317849E+02  0.10000000804E+02 0.  0.
        -12    1    1    2    0    0  0.15873633210E+02 -0.41379325928E+02  0.80555964955E+01  0.45045682151E+02  0.00000000000E+00 0.  1.
         11    1    3    3    0    0 -0.94727441268E+01  0.18755680921E+02 -0.35354128578E+01  0.21307453918E+02  0.51100000000E-03 0. -1.
        -11    1    3    3    0    0 -0.29267288902E+01  0.16800162437E+02 -0.56406664423E+01  0.17961857312E+02  0.51100000000E-03 0.  1.
        -12    1    3    3    0    0 -0.34741601927E+01  0.58234825693E+01  0.11204828047E+01  0.68730066197E+01  0.00000000000E+00 0.  1.
</event>
<event>
 7    1  0.1683291E-008  0.4614232E+02  0.7816164E-02  0.1320468E+00
        -11   -1    0    0    0    0  0.00000000000E+00  0.00000000000E+00  0.45593999997E+02  0.45594000000E+02  0.51100000000E-03 0.  1.
         11   -1    0    0    0    0 -0.00000000000E+00 -0.00000000000E+00 -0.45593999997E+02  0.45594000000E+02  0.51100000000E-03 0. -1.
    9900012    2    1    2    0    0 -0.35141410029E+02  0.26928609240E+02  0.83093241238E+01  0.46142316946E+02  0.99999925628E+01 0.  0.
        -12    1    1    2    0    0  0.35141410029E+02 -0.26928609240E+02 -0.83093241238E+01  0.45045683054E+02  0.00000000000E+00 0.  1.
         11    1    3    3    0    0 -0.17428513573E+02  0.11919470300E+02  0.53125430506E+01  0.21772688661E+02  0.51100000000E-03 0. -1.
        -11    1    3    3    0    0 -0.11435318679E+02  0.12931378142E+02  0.38953802683E+01  0.17696356734E+02  0.51100000000E-03 0.  1.
        -12    1    3    3    0    0 -0.62775777770E+01  0.20777607979E+01 -0.89859919511E+00  0.66732715510E+01  0.00000000000E+00 0.  1.
</event>
<event>
 7    1  0.1867955E-008  0.4614232E+02  0.7816164E-02  0.1320468E+00
        -11   -1    0    0    0    0  0.00000000000E+00  0.00000000000E+00  0.45593999997E+02  0.45594000000E+02  0.51100000000E-03 0.  1.
         11   -1    0    0    0    0 -0.00000000000E+00 -0.00000000000E+00 -0.45593999997E+02  0.45594000000E+02  0.51100000000E-03 0. -1.
    9900012    2    1    2    0    0 -0.12817032676E+02 -0.41053859603E+02 -0.13394691580E+02  0.46142317882E+02  0.10000001107E+02 0.  0.
        -12    1    1    2    0    0  0.12817032676E+02  0.41053859603E+02  0.13394691580E+02  0.45045682118E+02  0.00000000000E+00 0.  1.
         11    1    3    3    0    0 -0.12564117493E+01 -0.51790569067E+01  0.84428311773E+00  0.53957404655E+01  0.51100000000E-03 0. -1.
        -11    1    3    3    0    0 -0.18999532758E+01 -0.11110376138E+02 -0.67147959422E+01  0.13120166355E+02  0.51100000000E-03 0.  1.
         12    1    3    3    0    0 -0.96606676512E+01 -0.24764426558E+02 -0.75241787556E+01  0.27626411062E+02  0.00000000000E+00 0. -1.
</event>
<event>
 7    1  0.1683291E-008  0.4614232E+02  0.7816164E-02  0.1320468E+00
        -11   -1    0    0    0    0  0.00000000000E+00  0.00000000000E+00  0.45593999997E+02  0.45594000000E+02  0.51100000000E-03 0. -1.
         11   -1    0    0    0    0 -0.00000000000E+00 -0.00000000000E+00 -0.45593999997E+02  0.45594000000E+02  0.51100000000E-03 0.  1.
    9900012    2    1    2    0    0 -0.10215651170E+02 -0.40109089672E+02  0.17776807919E+02  0.46142317599E+02  0.99999985234E+01 0.  0.
        -12    1    1    2    0    0  0.10215651170E+02  0.40109089672E+02 -0.17776807919E+02  0.45045682401E+02  0.00000000000E+00 0.  1.
         11    1    3    3    0    0 -0.53207307039E+01 -0.13688657255E+02  0.89918693392E+01  0.17220430516E+02  0.51100000000E-03 0. -1.
        -11    1    3    3    0    0 -0.57181104105E+01 -0.17419540889E+02  0.74303024224E+01  0.19782481790E+02  0.51100000000E-03 0.  1.
         12    1    3    3    0    0  0.82318994430E+00 -0.90008915284E+01  0.13546361573E+01  0.91394052930E+01  0.00000000000E+00 0. -1.
</event>
<event>
 7    1  0.1683291E-008  0.4614232E+02  0.7816164E-02  0.1320468E+00
        -11   -1    0    0    0    0  0.00000000000E+00  0.00000000000E+00  0.45593999997E+02  0.45594000000E+02  0.51100000000E-03 0.  1.
         11   -1    0    0    0    0 -0.00000000000E+00 -0.00000000000E+00 -0.45593999997E+02  0.45594000000E+02  0.51100000000E-03 0. -1.
    9900012    2    1    2    0    0  0.35518002925E+02  0.18461200401E+02 -0.20658387925E+02  0.46142318257E+02  0.10000004519E+02 0.  0.
        -12    1    1    2    0    0 -0.35518002925E+02 -0.18461200401E+02  0.20658387925E+02  0.45045681743E+02  0.00000000000E+00 0.  1.
         11    1    3    3    0    0  0.23101201028E+02  0.83919347322E+01 -0.13732659968E+02  0.28154502438E+02  0.51100000000E-03 0. -1.
        -11    1    3    3    0    0  0.70421138834E+01  0.61072711046E+01 -0.63646423068E+01  0.11287107701E+02  0.51100000000E-03 0.  1.
         12    1    3    3    0    0  0.53746880138E+01  0.39619945642E+01 -0.56108565049E+00  0.67007081178E+01  0.00000000000E+00 0. -1.
</event>
<event>
 7    1  0.1683291E-008  0.4614231E+02  0.7816164E-02  0.1320468E+00
        -11   -1    0    0    0    0  0.00000000000E+00  0.00000000000E+00  0.45593999997E+02  0.45594000000E+02  0.51100000000E-03 0.  1.
         11   -1    0    0    0    0 -0.00000000000E+00 -0.00000000000E+00 -0.45593999997E+02  0.45594000000E+02  0.51100000000E-03 0. -1.
    9900012    2    1    2    0    0  0.16895732895E+02  0.37233938495E+02 -0.18901910974E+02  0.46142309814E+02  0.99999275311E+01 0.  0.
        -12    1    1    2    0    0 -0.16895732895E+02 -0.37233938495E+02  0.18901910974E+02  0.45045690186E+02  0.00000000000E+00 0.  1.
         11    1    3    3    0    0  0.10756253467E+02  0.25172217656E+02 -0.16764256790E+02  0.32099499004E+02  0.51100000000E-03 0. -1.
        -11    1    3    3    0    0  0.46512844979E+01  0.11203453983E+02 -0.21769948968E+01  0.12324412184E+02  0.51100000000E-03 0.  1.
         12    1    3    3    0    0  0.14881949303E+01  0.85826685541E+00  0.39340712460E-01  0.17183986259E+01  0.00000000000E+00 0. -1.
</event>
<event>
 7    1  0.1683291E-008  0.4614232E+02  0.7816164E-02  0.1320468E+00
        -11   -1    0    0    0    0  0.00000000000E+00  0.00000000000E+00  0.45593999997E+02  0.45594000000E+02  0.51100000000E-03 0. -1.
         11   -1    0    0    0    0 -0.00000000000E+00 -0.00000000000E+00 -0.45593999997E+02  0.45594000000E+02  0.51100000000E-03 0.  1.
    9900012    2    1    2    0    0  0.15865028616E+02  0.42158531529E+02 -0.26983209611E+00  0.46142315156E+02  0.99999762488E+01 0.  0.
        -12    1    1    2    0    0 -0.15865028616E+02 -0.42158531529E+02  0.26983209611E+00  0.45045684844E+02  0.00000000000E+00 0.  1.
         11    1    3    3    0    0  0.10968642741E+02  0.20627990603E+02 -0.78444535308E+00  0.23376066279E+02  0.51100000000E-03 0. -1.
        -11    1    3    3    0    0 -0.59027991246E+00  0.13145812861E+01 -0.10159089604E+01  0.17631294932E+01  0.51100000000E-03 0.  1.
        -12    1    3    3    0    0  0.54866657875E+01  0.20215959639E+02  0.15305222173E+01  0.21003119384E+02  0.00000000000E+00 0.  1.
</event>
<event>
 7    1  0.1683291E-008  0.4614232E+02  0.7816164E-02  0.1320468E+00
        -11   -1    0    0    0    0  0.00000000000E+00  0.00000000000E+00  0.45593999997E+02  0.45594000000E+02  0.51100000000E-03 0.  1.
         11   -1    0    0    0    0 -0.00000000000E+00 -0.00000000000E+00 -0.45593999997E+02  0.45594000000E+02  0.51100000000E-03 0. -1.
    9900012    2    1    2    0    0 -0.34004508977E+01  0.84279549404E+01 -0.44119383476E+02  0.46142317753E+02  0.99999999299E+01 0.  0.
        -12    1    1    2    0    0  0.34004508977E+01 -0.84279549404E+01  0.44119383476E+02  0.45045682247E+02  0.00000000000E+00 0.  1.
         11    1    3    3    0    0  0.25160539179E+01  0.38939016853E+01 -0.18244686574E+02  0.18824494312E+02  0.51100000000E-03 0. -1.
        -11    1    3    3    0    0 -0.17440738803E+01 -0.24708695046E+00 -0.22600890930E+01  0.28654578396E+01  0.51100000000E-03 0.  1.
         12    1    3    3    0    0 -0.41724309353E+01  0.47811402056E+01 -0.23614607809E+02  0.24452365602E+02  0.00000000000E+00 0. -1.
</event>
<event>
 7    1  0.1683291E-008  0.4614232E+02  0.7816164E-02  0.1320468E+00
        -11   -1    0    0    0    0  0.00000000000E+00  0.00000000000E+00  0.45593999997E+02  0.45594000000E+02  0.51100000000E-03 0.  1.
         11   -1    0    0    0    0 -0.00000000000E+00 -0.00000000000E+00 -0.45593999997E+02  0.45594000000E+02  0.51100000000E-03 0. -1.
    9900012    2    1    2    0    0  0.33597861626E+02 -0.29696324989E+02 -0.42924872759E+01  0.46142317957E+02  0.10000001787E+02 0.  0.
        -12    1    1    2    0    0 -0.33597861626E+02  0.29696324989E+02  0.42924872759E+01  0.45045682043E+02  0.00000000000E+00 0.  1.
         11    1    3    3    0    0  0.95487331542E+01 -0.12302065430E+02  0.13392713028E+01  0.15630507560E+02  0.51100000000E-03 0.  1.
        -11    1    3    3    0    0  0.16688425048E+02 -0.96816724204E+01 -0.29428973271E+01  0.19516632813E+02  0.51100000000E-03 0. -1.
        -12    1    3    3    0    0  0.73607034239E+01 -0.77125871387E+01 -0.26888612516E+01  0.10995177584E+02  0.00000000000E+00 0.  1.
</event>
<event>
 7    1  0.1683291E-008  0.4614232E+02  0.7816164E-02  0.1320468E+00
        -11   -1    0    0    0    0  0.00000000000E+00  0.00000000000E+00  0.45593999997E+02  0.45594000000E+02  0.51100000000E-03 0. -1.
         11   -1    0    0    0    0 -0.00000000000E+00 -0.00000000000E+00 -0.45593999997E+02  0.45594000000E+02  0.51100000000E-03 0.  1.
    9900012    2    1    2    0    0  0.43133864417E+02  0.53189456441E+01  0.11844495497E+02  0.46142317456E+02  0.99999972147E+01 0.  0.
        -12    1    1    2    0    0 -0.43133864417E+02 -0.53189456441E+01 -0.11844495497E+02  0.45045682544E+02  0.00000000000E+00 0.  1.
         11    1    3    3    0    0  0.53829212154E+01  0.25438868650E+00  0.46915159243E+01  0.71449895972E+01  0.51100000000E-03 0. -1.
        -11    1    3    3    0    0  0.33122824869E+02  0.48964390727E+01  0.76316007147E+01  0.34341490542E+02  0.51100000000E-03 0.  1.
        -12    1    3    3    0    0  0.46281183325E+01  0.16811788485E+00 -0.47862114171E+00  0.46558373167E+01  0.00000000000E+00 0.  1.
</event>
<event>
 7    1  0.1683291E-008  0.4614232E+02  0.7816164E-02  0.1320468E+00
        -11   -1    0    0    0    0  0.00000000000E+00  0.00000000000E+00  0.45593999997E+02  0.45594000000E+02  0.51100000000E-03 0.  1.
         11   -1    0    0    0    0 -0.00000000000E+00 -0.00000000000E+00 -0.45593999997E+02  0.45594000000E+02  0.51100000000E-03 0. -1.
    9900012    2    1    2    0    0 -0.40383134222E+02 -0.59800450833E+01 -0.19040879222E+02  0.46142317073E+02  0.99999937258E+01 0.  0.
        -12    1    1    2    0    0  0.40383134222E+02  0.59800450833E+01  0.19040879222E+02  0.45045682927E+02  0.00000000000E+00 0.  1.
         11    1    3    3    0    0 -0.10993732023E+02 -0.46833514659E+01 -0.87612864340E+01  0.14817424371E+02  0.51100000000E-03 0. -1.
        -11    1    3    3    0    0 -0.23107691946E+02  0.29092592165E+00 -0.81556423702E+01  0.24506418908E+02  0.51100000000E-03 0.  1.
         12    1    3    3    0    0 -0.62817102525E+01 -0.15876195391E+01 -0.21239504182E+01  0.68184737937E+01  0.00000000000E+00 0. -1.
</event>
<event>
 7    1  0.1683291E-008  0.4614232E+02  0.7816164E-02  0.1320468E+00
        -11   -1    0    0    0    0  0.00000000000E+00  0.00000000000E+00  0.45593999997E+02  0.45594000000E+02  0.51100000000E-03 0.  1.
         11   -1    0    0    0    0 -0.00000000000E+00 -0.00000000000E+00 -0.45593999997E+02  0.45594000000E+02  0.51100000000E-03 0. -1.
    9900012    2    1    2    0    0 -0.33392069223E+02  0.15896824623E+02 -0.25717197297E+02  0.46142317000E+02  0.99999930628E+01 0.  0.
        -12    1    1    2    0    0  0.33392069223E+02 -0.15896824623E+02  0.25717197297E+02  0.45045683000E+02  0.00000000000E+00 0.  1.
         11    1    3    3    0    0 -0.54482301166E+01 -0.63764536452E+00 -0.48780539432E+01  0.73406548447E+01  0.51100000000E-03 0. -1.
        -11    1    3    3    0    0 -0.40012349696E+01  0.31669318645E+01 -0.17685394437E+01  0.54006546586E+01  0.51100000000E-03 0.  1.
         12    1    3    3    0    0 -0.23942604136E+02  0.13367538123E+02 -0.19070603910E+02  0.33401007497E+02  0.00000000000E+00 0. -1.
</event>
<event>
 7    1  0.1683291E-008  0.4614232E+02  0.7816164E-02  0.1320468E+00
        -11   -1    0    0    0    0  0.00000000000E+00  0.00000000000E+00  0.45593999997E+02  0.45594000000E+02  0.51100000000E-03 0.  1.
         11   -1    0    0    0    0 -0.00000000000E+00 -0.00000000000E+00 -0.45593999997E+02  0.45594000000E+02  0.51100000000E-03 0. -1.
    9900012    2    1    2    0    0 -0.36516026770E+02  0.65557956007E+01 -0.25548283084E+02  0.46142318348E+02  0.10000005348E+02 0.  0.
        -12    1    1    2    0    0  0.36516026770E+02 -0.65557956007E+01  0.25548283084E+02  0.45045681652E+02  0.00000000000E+00 0.  1.
         11    1    3    3    0    0 -0.10553431433E+00  0.54642680790E+00  0.26059010185E+00  0.61451379984E+00  0.51100000000E-03 0.  1.
        -11    1    3    3    0    0 -0.30284504974E+02  0.62121253139E+01 -0.18655960214E+02  0.36107985186E+02  0.51100000000E-03 0. -1.
        -12    1    3    3    0    0 -0.61259874814E+01 -0.20275652105E+00 -0.71529129715E+01  0.94198193616E+01  0.00000000000E+00 0.  1.
</event>
<event>
 7    1  0.1683291E-008  0.4614232E+02  0.7816164E-02  0.1320468E+00
        -11   -1    0    0    0    0  0.00000000000E+00  0.00000000000E+00  0.45593999997E+02  0.45594000000E+02  0.51100000000E-03 0.  1.
         11   -1    0    0    0    0 -0.00000000000E+00 -0.00000000000E+00 -0.45593999997E+02  0.45594000000E+02  0.51100000000E-03 0. -1.
    9900012    2    1    2    0    0  0.42323758307E+02 -0.14969088742E+02 -0.37066722671E+01  0.46142317029E+02  0.99999933279E+01 0.  0.
        -12    1    1    2    0    0 -0.42323758307E+02  0.14969088742E+02  0.37066722671E+01  0.45045682971E+02  0.00000000000E+00 0.  1.
         11    1    3    3    0    0  0.34794109927E+02 -0.13039685533E+02 -0.45985603073E+01  0.37440756423E+02  0.51100000000E-03 0. -1.
        -11    1    3    3    0    0  0.23184603541E+01  0.23195847017E+00  0.18550566533E+01  0.29783046509E+01  0.51100000000E-03 0.  1.
        -12    1    3    3    0    0  0.52111880261E+01 -0.21613616789E+01 -0.96316861308E+00  0.57232559551E+01  0.00000000000E+00 0.  1.
</event>
<event>
 7    1  0.1683291E-008  0.4614232E+02  0.7816164E-02  0.1320468E+00
        -11   -1    0    0    0    0  0.00000000000E+00  0.00000000000E+00  0.45593999997E+02  0.45594000000E+02  0.51100000000E-03 0.  1.
         11   -1    0    0    0    0 -0.00000000000E+00 -0.00000000000E+00 -0.45593999997E+02  0.45594000000E+02  0.51100000000E-03 0. -1.
    9900012    2    1    2    0    0 -0.23362921528E+02  0.55599762293E+01 -0.38110025411E+02  0.46142317912E+02  0.10000001373E+02 0.  0.
        -12    1    1    2    0    0  0.23362921528E+02 -0.55599762293E+01  0.38110025411E+02  0.45045682088E+02  0.00000000000E+00 0.  1.
         11    1    3    3    0    0 -0.10787799290E+02  0.96646510666E+00 -0.16539277104E+02  0.19770137979E+02  0.51100000000E-03 0. -1.
        -11    1    3    3    0    0 -0.23571746933E+01  0.43522938246E+01 -0.72267363195E+01  0.87592495205E+01  0.51100000000E-03 0.  1.
        -12    1    3    3    0    0 -0.10217947545E+02  0.24121729807E+00 -0.14344011987E+02  0.17612930412E+02  0.00000000000E+00 0.  1.
</event>
<event>
 7    1  0.1683291E-008  0.4614232E+02  0.7816164E-02  0.1320468E+00
        -11   -1    0    0    0    0  0.00000000000E+00  0.00000000000E+00  0.45593999997E+02  0.45594000000E+02  0.51100000000E-03 0.  1.
         11   -1    0    0    0    0 -0.00000000000E+00 -0.00000000000E+00 -0.45593999997E+02  0.45594000000E+02  0.51100000000E-03 0. -1.
    9900012    2    1    2    0    0  0.20326607375E+02 -0.13383543181E+02 -0.37905451718E+02  0.46142318017E+02  0.10000002330E+02 0.  0.
        -12    1    1    2    0    0 -0.20326607375E+02  0.13383543181E+02  0.37905451718E+02  0.45045681983E+02  0.00000000000E+00 0.  1.
         11    1    3    3    0    0  0.13004007790E+02 -0.28494035599E+01 -0.20607131022E+02  0.24533185045E+02  0.51100000000E-03 0. -1.
        -11    1    3    3    0    0  0.86206194776E+00 -0.18905310621E+01 -0.19699030674E+01  0.28631760083E+01  0.51100000000E-03 0.  1.
         12    1    3    3    0    0  0.64605376367E+01 -0.86436085587E+01 -0.15328417628E+02  0.18745956963E+02  0.00000000000E+00 0. -1.
</event>
<event>
 7    1  0.1683291E-008  0.4614232E+02  0.7816164E-02  0.1320468E+00
        -11   -1    0    0    0    0  0.00000000000E+00  0.00000000000E+00  0.45593999997E+02  0.45594000000E+02  0.51100000000E-03 0.  1.
         11   -1    0    0    0    0 -0.00000000000E+00 -0.00000000000E+00 -0.45593999997E+02  0.45594000000E+02  0.51100000000E-03 0. -1.
    9900012    2    1    2    0    0  0.37390259053E+02  0.57798769638E+01 -0.24447388104E+02  0.46142320575E+02  0.10000025657E+02 0.  0.
        -12    1    1    2    0    0 -0.37390259053E+02 -0.57798769638E+01  0.24447388104E+02  0.45045679425E+02  0.00000000000E+00 0.  1.
         11    1    3    3    0    0  0.74779635045E+01  0.21723412552E+00 -0.70534258742E+01  0.10281923247E+02  0.51100000000E-03 0. -1.
        -11    1    3    3    0    0  0.49261942121E+01  0.13324375836E+01  0.35804975362E-01  0.51033382787E+01  0.51100000000E-03 0.  1.
        -12    1    3    3    0    0  0.24986101336E+02  0.42302052546E+01 -0.17429767206E+02  0.30757059049E+02  0.00000000000E+00 0.  1.
</event>
<event>
 7    1  0.1683291E-008  0.4614232E+02  0.7816164E-02  0.1320468E+00
        -11   -1    0    0    0    0  0.00000000000E+00  0.00000000000E+00  0.45593999997E+02  0.45594000000E+02  0.51100000000E-03 0.  1.
         11   -1    0    0    0    0 -0.00000000000E+00 -0.00000000000E+00 -0.45593999997E+02  0.45594000000E+02  0.51100000000E-03 0. -1.
    9900012    2    1    2    0    0 -0.94015313190E+00 -0.44978167560E+02  0.22790459959E+01  0.46142317680E+02  0.99999992632E+01 0.  0.
        -12    1    1    2    0    0  0.94015313190E+00  0.44978167560E+02 -0.22790459959E+01  0.45045682320E+02  0.00000000000E+00 0.  1.
         11    1    3    3    0    0 -0.33505227845E+01 -0.32481032723E+02  0.96556595308E+00  0.32667656903E+02  0.51100000000E-03 0.  1.
        -11    1    3    3    0    0  0.47206958057E+00 -0.10594172726E+02  0.41202196266E+00  0.10612686173E+02  0.51100000000E-03 0. -1.
         12    1    3    3    0    0  0.19383000720E+01 -0.19029621112E+01  0.90145808014E+00  0.28619746043E+01  0.00000000000E+00 0. -1.
</event>
<event>
 7    1  0.1683291E-008  0.4614232E+02  0.7816164E-02  0.1320468E+00
        -11   -1    0    0    0    0  0.00000000000E+00  0.00000000000E+00  0.45593999997E+02  0.45594000000E+02  0.51100000000E-03 0.  1.
         11   -1    0    0    0    0 -0.00000000000E+00 -0.00000000000E+00 -0.45593999997E+02  0.45594000000E+02  0.51100000000E-03 0. -1.
    9900012    2    1    2    0    0 -0.27192202765E+02 -0.35893140958E+02  0.11747054531E+01  0.46142318831E+02  0.10000009760E+02 0.  0.
        -12    1    1    2    0    0  0.27192202765E+02  0.35893140958E+02 -0.11747054531E+01  0.45045681169E+02  0.00000000000E+00 0.  1.
         11    1    3    3    0    0 -0.11976245254E+02 -0.20898758833E+02  0.25577747962E+01  0.24222526361E+02  0.51100000000E-03 0. -1.
        -11    1    3    3    0    0 -0.59892645620E+01 -0.51374215601E+01  0.16974398793E+01  0.80712881676E+01  0.51100000000E-03 0.  1.
        -12    1    3    3    0    0 -0.92266929488E+01 -0.98569605646E+01 -0.30805092224E+01  0.13848504302E+02  0.00000000000E+00 0.  1.
</event>
<event>
 7    1  0.1683291E-008  0.4614232E+02  0.7816164E-02  0.1320468E+00
        -11   -1    0    0    0    0  0.00000000000E+00  0.00000000000E+00  0.45593999997E+02  0.45594000000E+02  0.51100000000E-03 0.  1.
         11   -1    0    0    0    0 -0.00000000000E+00 -0.00000000000E+00 -0.45593999997E+02  0.45594000000E+02  0.51100000000E-03 0. -1.
    9900012    2    1    2    0    0 -0.36928132914E+02 -0.12416790866E+02 -0.22610833307E+02  0.46142317867E+02  0.10000000969E+02 0.  0.
        -12    1    1    2    0    0  0.36928132914E+02  0.12416790866E+02  0.22610833307E+02  0.45045682133E+02  0.00000000000E+00 0.  1.
         11    1    3    3    0    0 -0.17993402370E+02 -0.71110376829E+01 -0.68491099281E+01  0.20524124655E+02  0.51100000000E-03 0. -1.
        -11    1    3    3    0    0 -0.18975674509E+01 -0.18494617268E+01 -0.32828925970E+01  0.42188452181E+01  0.51100000000E-03 0.  1.
         12    1    3    3    0    0 -0.17037163094E+02 -0.34562914562E+01 -0.12478830782E+02  0.21399347994E+02  0.00000000000E+00 0. -1.
</event>
<event>
 7    1  0.1683291E-008  0.4614232E+02  0.7816164E-02  0.1320468E+00
        -11   -1    0    0    0    0  0.00000000000E+00  0.00000000000E+00  0.45593999997E+02  0.45594000000E+02  0.51100000000E-03 0.  1.
         11   -1    0    0    0    0 -0.00000000000E+00 -0.00000000000E+00 -0.45593999997E+02  0.45594000000E+02  0.51100000000E-03 0. -1.
    9900012    2    1    2    0    0  0.41213803010E+02  0.13440641667E+02 -0.12242754278E+02  0.46142318306E+02  0.10000004966E+02 0.  0.
        -12    1    1    2    0    0 -0.41213803010E+02 -0.13440641667E+02  0.12242754278E+02  0.45045681694E+02  0.00000000000E+00 0.  1.
         11    1    3    3    0    0  0.29427727520E+01  0.31006299696E+01 -0.96049250938E+00  0.43813655177E+01  0.51100000000E-03 0.  1.
        -11    1    3    3    0    0  0.16772993791E+01  0.19715541193E+01 -0.14031317115E+01  0.29443399453E+01  0.51100000000E-03 0. -1.
         12    1    3    3    0    0  0.36593730879E+02  0.83684575777E+01 -0.98791300571E+01  0.38816612843E+02  0.00000000000E+00 0. -1.
</event>
<event>
 7    1  0.1683291E-008  0.4614232E+02  0.7816164E-02  0.1320468E+00
        -11   -1    0    0    0    0  0.00000000000E+00  0.00000000000E+00  0.45593999997E+02  0.45594000000E+02  0.51100000000E-03 0.  1.
         11   -1    0    0    0    0 -0.00000000000E+00 -0.00000000000E+00 -0.45593999997E+02  0.45594000000E+02  0.51100000000E-03 0. -1.
    9900012    2    1    2    0    0 -0.59241442767E+01  0.34609570009E+02 -0.28216938189E+02  0.46142318494E+02  0.10000006682E+02 0.  0.
        -12    1    1    2    0    0  0.59241442767E+01 -0.34609570009E+02  0.28216938189E+02  0.45045681506E+02  0.00000000000E+00 0.  1.
         11    1    3    3    0    0 -0.28795922734E+01  0.54462787958E+01 -0.85613030194E+01  0.10547507480E+02  0.51100000000E-03 0. -1.
        -11    1    3    3    0    0 -0.37365593414E+00  0.19104393859E+02 -0.10928114922E+02  0.22012296097E+02  0.51100000000E-03 0.  1.
         12    1    3    3    0    0 -0.26708960691E+01  0.10058897354E+02 -0.87275202479E+01  0.13582514917E+02  0.00000000000E+00 0. -1.
</event>
<event>
 7    1  0.1683291E-008  0.4614232E+02  0.7816164E-02  0.1320468E+00
        -11   -1    0    0    0    0  0.00000000000E+00  0.00000000000E+00  0.45593999997E+02  0.45594000000E+02  0.51100000000E-03 0.  1.
         11   -1    0    0    0    0 -0.00000000000E+00 -0.00000000000E+00 -0.45593999997E+02  0.45594000000E+02  0.51100000000E-03 0. -1.
    9900012    2    1    2    0    0 -0.35256025177E+02  0.15158764146E+02 -0.23586815285E+02  0.46142319885E+02  0.10000019369E+02 0.  0.
        -12    1    1    2    0    0  0.35256025177E+02 -0.15158764146E+02  0.23586815285E+02  0.45045680115E+02  0.00000000000E+00 0.  1.
         11    1    3    3    0    0 -0.11268040146E+02  0.62334563356E+01 -0.58098461723E+01  0.14127243872E+02  0.51100000000E-03 0. -1.
        -11    1    3    3    0    0 -0.18504568848E+02  0.97728404270E+01 -0.15381735811E+02  0.25971624421E+02  0.51100000000E-03 0.  1.
        -12    1    3    3    0    0 -0.54834161828E+01 -0.84753261668E+00 -0.23952333024E+01  0.60434515918E+01  0.00000000000E+00 0.  1.
</event>
<event>
 7    1  0.1683291E-008  0.4614232E+02  0.7816164E-02  0.1320468E+00
        -11   -1    0    0    0    0  0.00000000000E+00  0.00000000000E+00  0.45593999997E+02  0.45594000000E+02  0.51100000000E-03 0.  1.
         11   -1    0    0    0    0 -0.00000000000E+00 -0.00000000000E+00 -0.45593999997E+02  0.45594000000E+02  0.51100000000E-03 0. -1.
    9900012    2    1    2    0    0 -0.36974572052E+01  0.14319580745E+02 -0.42548700330E+02  0.46142317829E+02  0.10000000623E+02 0.  0.
        -12    1    1    2    0    0  0.36974572052E+01 -0.14319580745E+02  0.42548700330E+02  0.45045682171E+02  0.00000000000E+00 0.  1.
         11    1    3    3    0    0 -0.29336509717E+00  0.98131850932E+01 -0.18590063686E+02  0.21023204629E+02  0.51100000000E-03 0. -1.
        -11    1    3    3    0    0 -0.19622064422E+00  0.14173233724E+01 -0.15444247294E+02  0.15510386289E+02  0.51100000000E-03 0.  1.
        -12    1    3    3    0    0 -0.32078714638E+01  0.30890722788E+01 -0.85143893497E+01  0.96087269120E+01  0.00000000000E+00 0.  1.
</event>
<event>
 7    1  0.1852753E-008  0.4614232E+02  0.7816164E-02  0.1320468E+00
        -11   -1    0    0    0    0  0.00000000000E+00  0.00000000000E+00  0.45593999997E+02  0.45594000000E+02  0.51100000000E-03 0.  1.
         11   -1    0    0    0    0 -0.00000000000E+00 -0.00000000000E+00 -0.45593999997E+02  0.45594000000E+02  0.51100000000E-03 0. -1.
    9900012    2    1    2    0    0 -0.17723286370E+00  0.30483652291E+02  0.33163669831E+02  0.46142318019E+02  0.10000002351E+02 0.  0.
        -12    1    1    2    0    0  0.17723286370E+00 -0.30483652291E+02 -0.33163669831E+02  0.45045681981E+02  0.00000000000E+00 0.  1.
         11    1    3    3    0    0 -0.15030681414E+01  0.13745363508E+02  0.18670222670E+02  0.23232981871E+02  0.51100000000E-03 0. -1.
        -11    1    3    3    0    0 -0.14590502341E+01  0.13142935453E+01  0.89075885265E+00  0.21563039451E+01  0.51100000000E-03 0.  1.
         12    1    3    3    0    0  0.27848855119E+01  0.15423995238E+02  0.13602688308E+02  0.20753032203E+02  0.00000000000E+00 0. -1.
</event>
<event>
 7    1  0.1683291E-008  0.4614232E+02  0.7816164E-02  0.1320468E+00
        -11   -1    0    0    0    0  0.00000000000E+00  0.00000000000E+00  0.45593999997E+02  0.45594000000E+02  0.51100000000E-03 0.  1.
         11   -1    0    0    0    0 -0.00000000000E+00 -0.00000000000E+00 -0.45593999997E+02  0.45594000000E+02  0.51100000000E-03 0. -1.
    9900012    2    1    2    0    0 -0.30508746474E+02  0.32373996998E+02 -0.70890080562E+01  0.46142319539E+02  0.10000016208E+02 0.  0.
        -12    1    1    2    0    0  0.30508746474E+02 -0.32373996998E+02  0.70890080562E+01  0.45045680461E+02  0.00000000000E+00 0.  1.
         11    1    3    3    0    0 -0.12551566618E+02  0.12849600543E+02 -0.11275458550E+01  0.17997928176E+02  0.51100000000E-03 0. -1.
        -11    1    3    3    0    0 -0.14666753745E+02  0.16184588463E+02 -0.18695381462E+01  0.21921444804E+02  0.51100000000E-03 0.  1.
        -12    1    3    3    0    0 -0.32904261099E+01  0.33398079916E+01 -0.40919240550E+01  0.62229465591E+01  0.00000000000E+00 0.  1.
</event>
<event>
 7    1  0.1683291E-008  0.4614232E+02  0.7816164E-02  0.1320468E+00
        -11   -1    0    0    0    0  0.00000000000E+00  0.00000000000E+00  0.45593999997E+02  0.45594000000E+02  0.51100000000E-03 0.  1.
         11   -1    0    0    0    0 -0.00000000000E+00 -0.00000000000E+00 -0.45593999997E+02  0.45594000000E+02  0.51100000000E-03 0. -1.
    9900012    2    1    2    0    0  0.39274811823E+02  0.15476976040E+02 -0.15718332942E+02  0.46142316283E+02  0.99999865182E+01 0.  0.
        -12    1    1    2    0    0 -0.39274811823E+02 -0.15476976040E+02  0.15718332942E+02  0.45045683717E+02  0.00000000000E+00 0.  1.
         11    1    3    3    0    0  0.41611948057E+01  0.27405896735E+01 -0.37353873902E+01  0.62273182981E+01  0.51100000000E-03 0. -1.
        -11    1    3    3    0    0  0.15376131709E+02  0.82234859892E+01 -0.27126859404E+01  0.17646807457E+02  0.51100000000E-03 0.  1.
         12    1    3    3    0    0  0.19737485308E+02  0.45129003773E+01 -0.92702596112E+01  0.22268190528E+02  0.00000000000E+00 0. -1.
</event>
<event>
 7    1  0.1683291E-008  0.4614232E+02  0.7816164E-02  0.1320468E+00
        -11   -1    0    0    0    0  0.00000000000E+00  0.00000000000E+00  0.45593999997E+02  0.45594000000E+02  0.51100000000E-03 0.  1.
         11   -1    0    0    0    0 -0.00000000000E+00 -0.00000000000E+00 -0.45593999997E+02  0.45594000000E+02  0.51100000000E-03 0. -1.
    9900012    2    1    2    0    0 -0.28505364041E+01  0.16263114080E+02 -0.41910606875E+02  0.46142318675E+02  0.10000008334E+02 0.  0.
        -12    1    1    2    0    0  0.28505364041E+01 -0.16263114080E+02  0.41910606875E+02  0.45045681325E+02  0.00000000000E+00 0.  1.
         11    1    3    3    0    0 -0.12441225404E+01  0.69566664944E+00 -0.53915335058E+01  0.55767756623E+01  0.51100000000E-03 0. -1.
        -11    1    3    3    0    0  0.23711721657E+01  0.31662178473E+01 -0.14037008773E+02  0.14583724094E+02  0.51100000000E-03 0.  1.
        -12    1    3    3    0    0 -0.39775860294E+01  0.12401229583E+02 -0.22482064596E+02  0.25981818918E+02  0.00000000000E+00 0.  1.
</event>
<event>
 7    1  0.1683291E-008  0.4614232E+02  0.7816164E-02  0.1320468E+00
        -11   -1    0    0    0    0  0.00000000000E+00  0.00000000000E+00  0.45593999997E+02  0.45594000000E+02  0.51100000000E-03 0. -1.
         11   -1    0    0    0    0 -0.00000000000E+00 -0.00000000000E+00 -0.45593999997E+02  0.45594000000E+02  0.51100000000E-03 0.  1.
    9900012    2    1    2    0    0 -0.28029131514E+02  0.25554472086E+02  0.24299173072E+02  0.46142322416E+02  0.10000042449E+02 0.  0.
        -12    1    1    2    0    0  0.28029131514E+02 -0.25554472086E+02 -0.24299173072E+02  0.45045677584E+02  0.00000000000E+00 0.  1.
         11    1    3    3    0    0 -0.12349565803E+02  0.73525820175E+01  0.78390335898E+01  0.16371398404E+02  0.51100000000E-03 0. -1.
        -11    1    3    3    0    0 -0.45358669794E+00  0.38112540498E+01  0.29684886226E+01  0.48521462559E+01  0.51100000000E-03 0.  1.
         12    1    3    3    0    0 -0.15225979013E+02  0.14390636018E+02  0.13491650860E+02  0.24918777756E+02  0.00000000000E+00 0. -1.
</event>
<event>
 7    1  0.1683291E-008  0.4614232E+02  0.7816164E-02  0.1320468E+00
        -11   -1    0    0    0    0  0.00000000000E+00  0.00000000000E+00  0.45593999997E+02  0.45594000000E+02  0.51100000000E-03 0.  1.
         11   -1    0    0    0    0 -0.00000000000E+00 -0.00000000000E+00 -0.45593999997E+02  0.45594000000E+02  0.51100000000E-03 0. -1.
    9900012    2    1    2    0    0  0.38171553926E+02  0.14508140776E+02 -0.19014727254E+02  0.46142317294E+02  0.99999957448E+01 0.  0.
        -12    1    1    2    0    0 -0.38171553926E+02 -0.14508140776E+02  0.19014727254E+02  0.45045682706E+02  0.00000000000E+00 0.  1.
         11    1    3    3    0    0  0.13451037451E+01  0.20230978488E+01 -0.22116870166E+01  0.32853901917E+01  0.51100000000E-03 0. -1.
        -11    1    3    3    0    0  0.25520662334E+02  0.74824292616E+01 -0.83300915795E+01  0.27869003922E+02  0.51100000000E-03 0.  1.
        -12    1    3    3    0    0  0.11305787846E+02  0.50026136659E+01 -0.84729486577E+01  0.14987923181E+02  0.00000000000E+00 0.  1.
</event>
<event>
 7    1  0.1683291E-008  0.4614232E+02  0.7816164E-02  0.1320468E+00
        -11   -1    0    0    0    0  0.00000000000E+00  0.00000000000E+00  0.45593999997E+02  0.45594000000E+02  0.51100000000E-03 0.  1.
         11   -1    0    0    0    0 -0.00000000000E+00 -0.00000000000E+00 -0.45593999997E+02  0.45594000000E+02  0.51100000000E-03 0. -1.
    9900012    2    1    2    0    0 -0.20134777882E+02  0.27129408431E+02 -0.29794284350E+02  0.46142318053E+02  0.10000002658E+02 0.  0.
        -12    1    1    2    0    0  0.20134777882E+02 -0.27129408431E+02  0.29794284350E+02  0.45045681947E+02  0.00000000000E+00 0.  1.
         11    1    3    3    0    0 -0.15554440316E+02  0.13536224606E+02 -0.18127492236E+02  0.27454980699E+02  0.51100000000E-03 0. -1.
        -11    1    3    3    0    0 -0.24018714633E+01  0.99006837785E+01 -0.92783041523E+01  0.13779675396E+02  0.51100000000E-03 0.  1.
         12    1    3    3    0    0 -0.21784661022E+01  0.36925000462E+01 -0.23884879622E+01  0.49076619581E+01  0.00000000000E+00 0. -1.
</event>
<event>
 7    1  0.1683291E-008  0.4614232E+02  0.7816164E-02  0.1320468E+00
        -11   -1    0    0    0    0  0.00000000000E+00  0.00000000000E+00  0.45593999997E+02  0.45594000000E+02  0.51100000000E-03 0. -1.
         11   -1    0    0    0    0 -0.00000000000E+00 -0.00000000000E+00 -0.45593999997E+02  0.45594000000E+02  0.51100000000E-03 0.  1.
    9900012    2    1    2    0    0 -0.23611441146E+02  0.13676774092E+02  0.35840748288E+02  0.46142317184E+02  0.99999947349E+01 0.  0.
        -12    1    1    2    0    0  0.23611441146E+02 -0.13676774092E+02 -0.35840748288E+02  0.45045682816E+02  0.00000000000E+00 0.  1.
         11    1    3    3    0    0 -0.35697753823E+01 -0.39213608369E+00  0.37707109779E+01  0.52072380902E+01  0.51100000000E-03 0. -1.
        -11    1    3    3    0    0 -0.24764087161E+01  0.15358191344E+01  0.84702618143E+01  0.89574927299E+01  0.51100000000E-03 0.  1.
         12    1    3    3    0    0 -0.17565257047E+02  0.12533091041E+02  0.23599775496E+02  0.31977586364E+02  0.00000000000E+00 0. -1.
</event>
<event>
 7    1  0.1683291E-008  0.4614232E+02  0.7816164E-02  0.1320468E+00
        -11   -1    0    0    0    0  0.00000000000E+00  0.00000000000E+00  0.45593999997E+02  0.45594000000E+02  0.51100000000E-03 0.  1.
         11   -1    0    0    0    0 -0.00000000000E+00 -0.00000000000E+00 -0.45593999997E+02  0.45594000000E+02  0.51100000000E-03 0. -1.
    9900012    2    1    2    0    0 -0.32906780667E+02 -0.25489342132E+02  0.17220648191E+02  0.46142317628E+02  0.99999987903E+01 0.  0.
        -12    1    1    2    0    0  0.32906780667E+02  0.25489342132E+02 -0.17220648191E+02  0.45045682372E+02  0.00000000000E+00 0.  1.
         11    1    3    3    0    0 -0.10917310156E+02 -0.10338863238E+02  0.81035726555E+01  0.17080621889E+02  0.51100000000E-03 0. -1.
        -11    1    3    3    0    0 -0.19098699020E+02 -0.15418158721E+02  0.71888329212E+01  0.25576536936E+02  0.51100000000E-03 0.  1.
        -12    1    3    3    0    0 -0.28907714916E+01  0.26767982635E+00  0.19282426140E+01  0.34851588034E+01  0.00000000000E+00 0.  1.
</event>
<event>
 7    1  0.1683291E-008  0.4614232E+02  0.7816164E-02  0.1320468E+00
        -11   -1    0    0    0    0  0.00000000000E+00  0.00000000000E+00  0.45593999997E+02  0.45594000000E+02  0.51100000000E-03 0. -1.
         11   -1    0    0    0    0 -0.00000000000E+00 -0.00000000000E+00 -0.45593999997E+02  0.45594000000E+02  0.51100000000E-03 0.  1.
    9900012    2    1    2    0    0 -0.63881187911E+01  0.33334367246E+02  0.29616301048E+02  0.46142318863E+02  0.10000010044E+02 0.  0.
        -12    1    1    2    0    0  0.63881187911E+01 -0.33334367246E+02 -0.29616301048E+02  0.45045681137E+02  0.00000000000E+00 0.  1.
         11    1    3    3    0    0 -0.33755589056E+00  0.11846948830E+02  0.12640367717E+02  0.17327522525E+02  0.51100000000E-03 0. -1.
        -11    1    3    3    0    0 -0.38560003327E+01  0.40167082632E+01  0.53012238392E+01  0.76880204404E+01  0.51100000000E-03 0.  1.
        -12    1    3    3    0    0 -0.21945625679E+01  0.17470710153E+02  0.11674709492E+02  0.21126775897E+02  0.00000000000E+00 0.  1.
</event>
<event>
 7    1  0.1683291E-008  0.4614231E+02  0.7816164E-02  0.1320468E+00
        -11   -1    0    0    0    0  0.00000000000E+00  0.00000000000E+00  0.45593999997E+02  0.45594000000E+02  0.51100000000E-03 0. -1.
         11   -1    0    0    0    0 -0.00000000000E+00 -0.00000000000E+00 -0.45593999997E+02  0.45594000000E+02  0.51100000000E-03 0.  1.
    9900012    2    1    2    0    0  0.16530545199E+02  0.36145085925E+02  0.21198763994E+02  0.46142314791E+02  0.99999729149E+01 0.  0.
        -12    1    1    2    0    0 -0.16530545199E+02 -0.36145085925E+02 -0.21198763994E+02  0.45045685209E+02  0.00000000000E+00 0.  1.
         11    1    3    3    0    0  0.54721479183E+01  0.11178506151E+02  0.54450141988E+01  0.13584976352E+02  0.51100000000E-03 0. -1.
        -11    1    3    3    0    0  0.47971513777E+01  0.35433718816E+01  0.49990096137E+01  0.77819176949E+01  0.51100000000E-03 0.  1.
        -12    1    3    3    0    0  0.62612459029E+01  0.21423207892E+02  0.10754740182E+02  0.24775420743E+02  0.00000000000E+00 0.  1.
</event>
<event>
 7    1  0.1683291E-008  0.4614232E+02  0.7816164E-02  0.1320468E+00
        -11   -1    0    0    0    0  0.00000000000E+00  0.00000000000E+00  0.45593999997E+02  0.45594000000E+02  0.51100000000E-03 0. -1.
         11   -1    0    0    0    0 -0.00000000000E+00 -0.00000000000E+00 -0.45593999997E+02  0.45594000000E+02  0.51100000000E-03 0.  1.
    9900012    2    1    2    0    0 -0.15524713986E+02  0.31208424659E+02  0.28532982951E+02  0.46142316188E+02  0.99999856507E+01 0.  0.
        -12    1    1    2    0    0  0.15524713986E+02 -0.31208424659E+02 -0.28532982951E+02  0.45045683812E+02  0.00000000000E+00 0.  1.
         11    1    3    3    0    0 -0.72745900495E+01  0.95643708651E+01  0.51656612436E+01  0.13079790013E+02  0.51100000000E-03 0. -1.
        -11    1    3    3    0    0 -0.25528272021E+01  0.73544512199E+01  0.57763617522E+01  0.96938761506E+01  0.51100000000E-03 0.  1.
         12    1    3    3    0    0 -0.56972967346E+01  0.14289602574E+02  0.17590959955E+02  0.23368650024E+02  0.00000000000E+00 0. -1.
</event>
<event>
 7    1  0.1683291E-008  0.4614232E+02  0.7816164E-02  0.1320468E+00
        -11   -1    0    0    0    0  0.00000000000E+00  0.00000000000E+00  0.45593999997E+02  0.45594000000E+02  0.51100000000E-03 0.  1.
         11   -1    0    0    0    0 -0.00000000000E+00 -0.00000000000E+00 -0.45593999997E+02  0.45594000000E+02  0.51100000000E-03 0. -1.
    9900012    2    1    2    0    0  0.33570713690E+02  0.19363200771E+02 -0.22960558979E+02  0.46142316185E+02  0.99999856259E+01 0.  0.
        -12    1    1    2    0    0 -0.33570713690E+02 -0.19363200771E+02  0.22960558979E+02  0.45045683815E+02  0.00000000000E+00 0.  1.
         11    1    3    3    0    0  0.61800762775E+01  0.44393024919E+01 -0.43619085323E+01  0.87708035958E+01  0.51100000000E-03 0. -1.
        -11    1    3    3    0    0  0.10972115985E+02  0.29069611836E+01 -0.30188582415E+01  0.11745265338E+02  0.51100000000E-03 0.  1.
        -12    1    3    3    0    0  0.16418521427E+02  0.12016937096E+02 -0.15579792206E+02  0.25626247251E+02  0.00000000000E+00 0.  1.
</event>
<event>
 7    1  0.1683291E-008  0.4614232E+02  0.7816164E-02  0.1320468E+00
        -11   -1    0    0    0    0  0.00000000000E+00  0.00000000000E+00  0.45593999997E+02  0.45594000000E+02  0.51100000000E-03 0. -1.
         11   -1    0    0    0    0 -0.00000000000E+00 -0.00000000000E+00 -0.45593999997E+02  0.45594000000E+02  0.51100000000E-03 0.  1.
    9900012    2    1    2    0    0  0.73761626447E+01 -0.37362616828E+02  0.24057027241E+02  0.46142317951E+02  0.10000001730E+02 0.  0.
        -12    1    1    2    0    0 -0.73761626447E+01  0.37362616828E+02 -0.24057027241E+02  0.45045682049E+02  0.00000000000E+00 0.  1.
         11    1    3    3    0    0  0.26773697819E+01 -0.26621422860E+02  0.13348975097E+02  0.29900896315E+02  0.51100000000E-03 0.  1.
        -11    1    3    3    0    0  0.36938230744E+01 -0.51659923997E+01  0.42039598286E+01  0.76161069373E+01  0.51100000000E-03 0. -1.
        -12    1    3    3    0    0  0.10049697883E+01 -0.55752015688E+01  0.65040923151E+01  0.86253146987E+01  0.00000000000E+00 0.  1.
</event>
<event>
 7    1  0.1683291E-008  0.4614232E+02  0.7816164E-02  0.1320468E+00
        -11   -1    0    0    0    0  0.00000000000E+00  0.00000000000E+00  0.45593999997E+02  0.45594000000E+02  0.51100000000E-03 0.  1.
         11   -1    0    0    0    0 -0.00000000000E+00 -0.00000000000E+00 -0.45593999997E+02  0.45594000000E+02  0.51100000000E-03 0. -1.
    9900012    2    1    2    0    0  0.26339639865E+02  0.12047133626E+02 -0.34499323740E+02  0.46142318794E+02  0.10000009418E+02 0.  0.
        -12    1    1    2    0    0 -0.26339639865E+02 -0.12047133626E+02  0.34499323740E+02  0.45045681206E+02  0.00000000000E+00 0.  1.
         11    1    3    3    0    0  0.11187110490E+02  0.56944936874E+01 -0.16842081285E+02  0.21005580252E+02  0.51100000000E-03 0. -1.
        -11    1    3    3    0    0  0.13267865728E+02  0.67744837953E+01 -0.11907796474E+02  0.19071589047E+02  0.51100000000E-03 0.  1.
        -12    1    3    3    0    0  0.18846636473E+01 -0.42184385686E+00 -0.57494459805E+01  0.60651494941E+01  0.00000000000E+00 0.  1.
</event>
<event>
 7    1  0.1683291E-008  0.4614232E+02  0.7816164E-02  0.1320468E+00
        -11   -1    0    0    0    0  0.00000000000E+00  0.00000000000E+00  0.45593999997E+02  0.45594000000E+02  0.51100000000E-03 0. -1.
         11   -1    0    0    0    0 -0.00000000000E+00 -0.00000000000E+00 -0.45593999997E+02  0.45594000000E+02  0.51100000000E-03 0.  1.
    9900012    2    1    2    0    0 -0.25734186486E+02  0.11629827685E+02  0.35094333394E+02  0.46142317827E+02  0.10000000600E+02 0.  0.
        -12    1    1    2    0    0  0.25734186486E+02 -0.11629827685E+02 -0.35094333394E+02  0.45045682173E+02  0.00000000000E+00 0.  1.
         11    1    3    3    0    0 -0.15931913890E+02  0.52932186856E+01  0.19643631102E+02  0.25840206799E+02  0.51100000000E-03 0. -1.
        -11    1    3    3    0    0 -0.38243443552E+01  0.59774237845E+01  0.95197804519E+01  0.11873559911E+02  0.51100000000E-03 0.  1.
        -12    1    3    3    0    0 -0.59779282400E+01  0.35918521480E+00  0.59309218405E+01  0.84285511174E+01  0.00000000000E+00 0.  1.
</event>
<event>
 7    1  0.1683291E-008  0.4614232E+02  0.7816164E-02  0.1320468E+00
        -11   -1    0    0    0    0  0.00000000000E+00  0.00000000000E+00  0.45593999997E+02  0.45594000000E+02  0.51100000000E-03 0. -1.
         11   -1    0    0    0    0 -0.00000000000E+00 -0.00000000000E+00 -0.45593999997E+02  0.45594000000E+02  0.51100000000E-03 0.  1.
    9900012    2    1    2    0    0 -0.16304730927E+02  0.40836476184E+02  0.97801586153E+01  0.46142317185E+02  0.99999947465E+01 0.  0.
        -12    1    1    2    0    0  0.16304730927E+02 -0.40836476184E+02 -0.97801586153E+01  0.45045682815E+02  0.00000000000E+00 0.  1.
         11    1    3    3    0    0 -0.12352711191E+02  0.33978682959E+02  0.89787601137E+01  0.37252630818E+02  0.51100000000E-03 0. -1.
        -11    1    3    3    0    0 -0.69187426077E-01  0.33924793079E+01 -0.71759869899E+00  0.34682345521E+01  0.51100000000E-03 0.  1.
         12    1    3    3    0    0 -0.38828323097E+01  0.34653139173E+01  0.15189972006E+01  0.54214518154E+01  0.00000000000E+00 0. -1.
</event>
<event>
 7    1  0.1683291E-008  0.4614232E+02  0.7816164E-02  0.1320468E+00
        -11   -1    0    0    0    0  0.00000000000E+00  0.00000000000E+00  0.45593999997E+02  0.45594000000E+02  0.51100000000E-03 0.  1.
         11   -1    0    0    0    0 -0.00000000000E+00 -0.00000000000E+00 -0.45593999997E+02  0.45594000000E+02  0.51100000000E-03 0. -1.
    9900012    2    1    2    0    0  0.24812844146E+02  0.18649597287E+01 -0.37549409839E+02  0.46142317758E+02  0.99999999705E+01 0.  0.
        -12    1    1    2    0    0 -0.24812844146E+02 -0.18649597287E+01  0.37549409839E+02  0.45045682242E+02  0.00000000000E+00 0.  1.
         11    1    3    3    0    0  0.18242905504E+02  0.36721273955E+01 -0.28413872453E+02  0.33965221460E+02  0.51100000000E-03 0. -1.
        -11    1    3    3    0    0  0.69696981600E+01 -0.22490546451E+01 -0.77193047450E+01  0.10640611131E+02  0.51100000000E-03 0.  1.
         12    1    3    3    0    0 -0.39975951718E+00  0.44188697844E+00 -0.14162326410E+01  0.15364851665E+01  0.00000000000E+00 0. -1.
</event>
<event>
 7    1  0.1683291E-008  0.4614231E+02  0.7816164E-02  0.1320468E+00
        -11   -1    0    0    0    0  0.00000000000E+00  0.00000000000E+00  0.45593999997E+02  0.45594000000E+02  0.51100000000E-03 0. -1.
         11   -1    0    0    0    0 -0.00000000000E+00 -0.00000000000E+00 -0.45593999997E+02  0.45594000000E+02  0.51100000000E-03 0.  1.
    9900012    2    1    2    0    0 -0.17012617268E+02  0.37976256958E+02  0.17247859789E+02  0.46142313124E+02  0.99999577116E+01 0.  0.
        -12    1    1    2    0    0  0.17012617268E+02 -0.37976256958E+02 -0.17247859789E+02  0.45045686876E+02  0.00000000000E+00 0.  1.
         11    1    3    3    0    0 -0.39832157296E+00  0.46425883690E+01 -0.68850950591E-01  0.46601531685E+01  0.51100000000E-03 0.  1.
        -11    1    3    3    0    0 -0.10152824239E+02  0.25582618097E+02  0.11455385892E+02  0.29812347357E+02  0.51100000000E-03 0. -1.
         12    1    3    3    0    0 -0.64614714563E+01  0.77510504920E+01  0.58613248472E+01  0.11669812598E+02  0.00000000000E+00 0. -1.
</event>
<event>
 7    1  0.1683291E-008  0.4614232E+02  0.7816164E-02  0.1320468E+00
        -11   -1    0    0    0    0  0.00000000000E+00  0.00000000000E+00  0.45593999997E+02  0.45594000000E+02  0.51100000000E-03 0. -1.
         11   -1    0    0    0    0 -0.00000000000E+00 -0.00000000000E+00 -0.45593999997E+02  0.45594000000E+02  0.51100000000E-03 0.  1.
    9900012    2    1    2    0    0 -0.22205437834E+02 -0.35059363595E+02  0.17517793427E+02  0.46142317281E+02  0.99999956195E+01 0.  0.
        -12    1    1    2    0    0  0.22205437834E+02  0.35059363595E+02 -0.17517793427E+02  0.45045682719E+02  0.00000000000E+00 0.  1.
         11    1    3    3    0    0 -0.17455662563E+02 -0.27709771967E+02  0.11496030694E+02  0.34708649353E+02  0.51100000000E-03 0. -1.
        -11    1    3    3    0    0  0.14744999274E+00 -0.72018223623E+00 -0.52877485429E+00  0.90554241281E+00  0.51100000000E-03 0.  1.
         12    1    3    3    0    0 -0.48972252635E+01 -0.66294093927E+01  0.65505375864E+01  0.10528125514E+02  0.00000000000E+00 0. -1.
</event>
<event>
 7    1  0.1683291E-008  0.4614232E+02  0.7816164E-02  0.1320468E+00
        -11   -1    0    0    0    0  0.00000000000E+00  0.00000000000E+00  0.45593999997E+02  0.45594000000E+02  0.51100000000E-03 0. -1.
         11   -1    0    0    0    0 -0.00000000000E+00 -0.00000000000E+00 -0.45593999997E+02  0.45594000000E+02  0.51100000000E-03 0.  1.
    9900012    2    1    2    0    0  0.36979992115E+02  0.23176591655E+02 -0.11155234476E+02  0.46142317924E+02  0.10000001482E+02 0.  0.
        -12    1    1    2    0    0 -0.36979992115E+02 -0.23176591655E+02  0.11155234476E+02  0.45045682076E+02  0.00000000000E+00 0.  1.
         11    1    3    3    0    0  0.15517312537E+02  0.93823014192E+01 -0.25411283321E+01  0.18310431501E+02  0.51100000000E-03 0. -1.
        -11    1    3    3    0    0  0.89000974772E+01  0.70795253228E+01 -0.73291575022E+01  0.13529521937E+02  0.51100000000E-03 0.  1.
        -12    1    3    3    0    0  0.12562582100E+02  0.67147649126E+01 -0.12849486415E+01  0.14302364485E+02  0.00000000000E+00 0.  1.
</event>
<event>
 7    1  0.1683291E-008  0.4614232E+02  0.7816164E-02  0.1320468E+00
        -11   -1    0    0    0    0  0.00000000000E+00  0.00000000000E+00  0.45593999997E+02  0.45594000000E+02  0.51100000000E-03 0. -1.
         11   -1    0    0    0    0 -0.00000000000E+00 -0.00000000000E+00 -0.45593999997E+02  0.45594000000E+02  0.51100000000E-03 0.  1.
    9900012    2    1    2    0    0  0.12346754039E+02  0.39858909416E+02  0.16968754204E+02  0.46142316362E+02  0.99999872454E+01 0.  0.
        -12    1    1    2    0    0 -0.12346754039E+02 -0.39858909416E+02 -0.16968754204E+02  0.45045683638E+02  0.00000000000E+00 0.  1.
         11    1    3    3    0    0  0.42424403575E+00  0.14643242485E+02  0.38429575083E+01  0.15145060454E+02  0.51100000000E-03 0. -1.
        -11    1    3    3    0    0  0.70238389333E+01  0.14385547580E+02  0.57591055699E+01  0.17013100534E+02  0.51100000000E-03 0.  1.
         12    1    3    3    0    0  0.48986710704E+01  0.10830119351E+02  0.73666911254E+01  0.13984155375E+02  0.00000000000E+00 0. -1.
</event>
<event>
 7    1  0.1683291E-008  0.4614232E+02  0.7816164E-02  0.1320468E+00
        -11   -1    0    0    0    0  0.00000000000E+00  0.00000000000E+00  0.45593999997E+02  0.45594000000E+02  0.51100000000E-03 0.  1.
         11   -1    0    0    0    0 -0.00000000000E+00 -0.00000000000E+00 -0.45593999997E+02  0.45594000000E+02  0.51100000000E-03 0. -1.
    9900012    2    1    2    0    0  0.24662267073E+01  0.27239566002E+02 -0.35791581658E+02  0.46142317102E+02  0.99999939934E+01 0.  0.
        -12    1    1    2    0    0 -0.24662267073E+01 -0.27239566002E+02  0.35791581658E+02  0.45045682898E+02  0.00000000000E+00 0.  1.
         11    1    3    3    0    0  0.14427298116E+01  0.11678371564E+02 -0.19086358084E+02  0.22422196522E+02  0.51100000000E-03 0. -1.
        -11    1    3    3    0    0 -0.14872976781E+01  0.90617931579E+01 -0.60772924994E+01  0.11011886033E+02  0.51100000000E-03 0.  1.
        -12    1    3    3    0    0  0.25107945738E+01  0.64994012798E+01 -0.10627931075E+02  0.12708234547E+02  0.00000000000E+00 0.  1.
</event>
<event>
 7    1  0.1683291E-008  0.4614232E+02  0.7816164E-02  0.1320468E+00
        -11   -1    0    0    0    0  0.00000000000E+00  0.00000000000E+00  0.45593999997E+02  0.45594000000E+02  0.51100000000E-03 0. -1.
         11   -1    0    0    0    0 -0.00000000000E+00 -0.00000000000E+00 -0.45593999997E+02  0.45594000000E+02  0.51100000000E-03 0.  1.
    9900012    2    1    2    0    0 -0.10912375616E+02  0.38073840406E+02  0.21457310798E+02  0.46142318170E+02  0.10000003724E+02 0.  0.
        -12    1    1    2    0    0  0.10912375616E+02 -0.38073840406E+02 -0.21457310798E+02  0.45045681830E+02  0.00000000000E+00 0.  1.
         11    1    3    3    0    0 -0.23655281540E+01  0.13339313988E+02  0.25754970842E+01  0.13790076382E+02  0.51100000000E-03 0. -1.
        -11    1    3    3    0    0 -0.64288908117E+01  0.15850071488E+02  0.11530202076E+02  0.20627674697E+02  0.51100000000E-03 0.  1.
         12    1    3    3    0    0 -0.21179566500E+01  0.88844549301E+01  0.73516116384E+01  0.11724567090E+02  0.00000000000E+00 0. -1.
</event>
<event>
 7    1  0.1683291E-008  0.4614231E+02  0.7816164E-02  0.1320468E+00
        -11   -1    0    0    0    0  0.00000000000E+00  0.00000000000E+00  0.45593999997E+02  0.45594000000E+02  0.51100000000E-03 0. -1.
         11   -1    0    0    0    0 -0.00000000000E+00 -0.00000000000E+00 -0.45593999997E+02  0.45594000000E+02  0.51100000000E-03 0.  1.
    9900012    2    1    2    0    0  0.25100888362E+02  0.11020600024E+02  0.35743617902E+02  0.46142307174E+02  0.99999034536E+01 0.  0.
        -12    1    1    2    0    0 -0.25100888362E+02 -0.11020600024E+02 -0.35743617902E+02  0.45045692826E+02  0.00000000000E+00 0.  1.
         11    1    3    3    0    0  0.82471984049E+01  0.43902162232E+01  0.15086752349E+02  0.17745432559E+02  0.51100000000E-03 0. -1.
        -11    1    3    3    0    0  0.17342859125E+02  0.58867546189E+01  0.18357262056E+02  0.25931018357E+02  0.51100000000E-03 0.  1.
        -12    1    3    3    0    0 -0.48916916793E+00  0.74362918236E+00  0.22996034978E+01  0.24658562575E+01  0.00000000000E+00 0.  1.
</event>
<event>
 7    1  0.1683291E-008  0.4614232E+02  0.7816164E-02  0.1320468E+00
        -11   -1    0    0    0    0  0.00000000000E+00  0.00000000000E+00  0.45593999997E+02  0.45594000000E+02  0.51100000000E-03 0. -1.
         11   -1    0    0    0    0 -0.00000000000E+00 -0.00000000000E+00 -0.45593999997E+02  0.45594000000E+02  0.51100000000E-03 0.  1.
    9900012    2    1    2    0    0  0.30673129641E+02 -0.22157984171E+02  0.24439646808E+02  0.46142317847E+02  0.10000000787E+02 0.  0.
        -12    1    1    2    0    0 -0.30673129641E+02  0.22157984171E+02 -0.24439646808E+02  0.45045682153E+02  0.00000000000E+00 0.  1.
         11    1    3    3    0    0  0.93869403253E+01 -0.84801634458E+01  0.90661790252E+01  0.15563528620E+02  0.51100000000E-03 0. -1.
        -11    1    3    3    0    0  0.33066965810E+01 -0.32088469920E+00  0.47310003100E+01  0.57809664818E+01  0.51100000000E-03 0.  1.
        -12    1    3    3    0    0  0.17979492734E+02 -0.13356936026E+02  0.10642467473E+02  0.24797822745E+02  0.00000000000E+00 0.  1.
</event>
<event>
 7    1  0.1683291E-008  0.4614232E+02  0.7816164E-02  0.1320468E+00
        -11   -1    0    0    0    0  0.00000000000E+00  0.00000000000E+00  0.45593999997E+02  0.45594000000E+02  0.51100000000E-03 0. -1.
         11   -1    0    0    0    0 -0.00000000000E+00 -0.00000000000E+00 -0.45593999997E+02  0.45594000000E+02  0.51100000000E-03 0.  1.
    9900012    2    1    2    0    0 -0.24428576851E+02 -0.37476573272E+02  0.52787118043E+01  0.46142315306E+02  0.99999776154E+01 0.  0.
        -12    1    1    2    0    0  0.24428576851E+02  0.37476573272E+02 -0.52787118043E+01  0.45045684694E+02  0.00000000000E+00 0.  1.
         11    1    3    3    0    0 -0.13022566598E+02 -0.12775516427E+02  0.12679955517E+01  0.18286849749E+02  0.51100000000E-03 0. -1.
        -11    1    3    3    0    0 -0.93373371603E+01 -0.17085549629E+02  0.13096466554E+01  0.19514534224E+02  0.51100000000E-03 0.  1.
         12    1    3    3    0    0 -0.20686730928E+01 -0.76155072165E+01  0.27010695972E+01  0.83409313328E+01  0.00000000000E+00 0. -1.
</event>
<event>
 7    1  0.1683291E-008  0.4614232E+02  0.7816164E-02  0.1320468E+00
        -11   -1    0    0    0    0  0.00000000000E+00  0.00000000000E+00  0.45593999997E+02  0.45594000000E+02  0.51100000000E-03 0. -1.
         11   -1    0    0    0    0 -0.00000000000E+00 -0.00000000000E+00 -0.45593999997E+02  0.45594000000E+02  0.51100000000E-03 0.  1.
    9900012    2    1    2    0    0 -0.20474199532E+02  0.14046094045E+01  0.40099222056E+02  0.46142318924E+02  0.10000010608E+02 0.  0.
        -12    1    1    2    0    0  0.20474199532E+02 -0.14046094045E+01 -0.40099222056E+02  0.45045681076E+02  0.00000000000E+00 0.  1.
         11    1    3    3    0    0 -0.97265436523E+01  0.43884457884E+01  0.15550061591E+02  0.18859176112E+02  0.51100000000E-03 0. -1.
        -11    1    3    3    0    0 -0.10668660874E+01 -0.17516009198E+01  0.56957405665E+01  0.60537401574E+01  0.51100000000E-03 0.  1.
         12    1    3    3    0    0 -0.96807897923E+01 -0.12322354640E+01  0.18853419898E+02  0.21229402655E+02  0.00000000000E+00 0. -1.
</event>
<event>
 7    1  0.1683291E-008  0.4614232E+02  0.7816164E-02  0.1320468E+00
        -11   -1    0    0    0    0  0.00000000000E+00  0.00000000000E+00  0.45593999997E+02  0.45594000000E+02  0.51100000000E-03 0. -1.
         11   -1    0    0    0    0 -0.00000000000E+00 -0.00000000000E+00 -0.45593999997E+02  0.45594000000E+02  0.51100000000E-03 0.  1.
    9900012    2    1    2    0    0 -0.33973204595E+02  0.25994920853E+02  0.14113786376E+02  0.46142317560E+02  0.99999981644E+01 0.  0.
        -12    1    1    2    0    0  0.33973204595E+02 -0.25994920853E+02 -0.14113786376E+02  0.45045682440E+02  0.00000000000E+00 0.  1.
         11    1    3    3    0    0 -0.18405682340E+02  0.10956581830E+02  0.96064022548E+01  0.23475493442E+02  0.51100000000E-03 0. -1.
        -11    1    3    3    0    0 -0.71908950902E+01  0.74981251201E+01 -0.34847530985E+00  0.10394820240E+02  0.51100000000E-03 0.  1.
         12    1    3    3    0    0 -0.83766271646E+01  0.75402139038E+01  0.48558594313E+01  0.12272003878E+02  0.00000000000E+00 0. -1.
</event>
<event>
 7    1  0.1683291E-008  0.4614232E+02  0.7816164E-02  0.1320468E+00
        -11   -1    0    0    0    0  0.00000000000E+00  0.00000000000E+00  0.45593999997E+02  0.45594000000E+02  0.51100000000E-03 0. -1.
         11   -1    0    0    0    0 -0.00000000000E+00 -0.00000000000E+00 -0.45593999997E+02  0.45594000000E+02  0.51100000000E-03 0.  1.
    9900012    2    1    2    0    0 -0.70477272043E+00 -0.27711071660E+02  0.35506524005E+02  0.46142318253E+02  0.10000004487E+02 0.  0.
        -12    1    1    2    0    0  0.70477272043E+00  0.27711071660E+02 -0.35506524005E+02  0.45045681747E+02  0.00000000000E+00 0.  1.
         11    1    3    3    0    0  0.58442762542E+00 -0.45070493315E+01  0.62572229574E+01  0.77335560208E+01  0.51100000000E-03 0. -1.
        -11    1    3    3    0    0  0.17739881853E+01 -0.15645023756E+02  0.13791940555E+02  0.20931589212E+02  0.51100000000E-03 0.  1.
        -12    1    3    3    0    0 -0.30631885312E+01 -0.75589985724E+01  0.15457360492E+02  0.17477173020E+02  0.00000000000E+00 0.  1.
</event>
<event>
 7    1  0.1683291E-008  0.4614232E+02  0.7816164E-02  0.1320468E+00
        -11   -1    0    0    0    0  0.00000000000E+00  0.00000000000E+00  0.45593999997E+02  0.45594000000E+02  0.51100000000E-03 0.  1.
         11   -1    0    0    0    0 -0.00000000000E+00 -0.00000000000E+00 -0.45593999997E+02  0.45594000000E+02  0.51100000000E-03 0. -1.
    9900012    2    1    2    0    0 -0.31041424126E+02 -0.32569859031E+02 -0.21789408761E+01  0.46142317494E+02  0.99999975662E+01 0.  0.
        -12    1    1    2    0    0  0.31041424126E+02  0.32569859031E+02  0.21789408761E+01  0.45045682506E+02  0.00000000000E+00 0.  1.
         11    1    3    3    0    0 -0.20478484040E+02 -0.18001974704E+02 -0.38667656865E+01  0.27538904825E+02  0.51100000000E-03 0. -1.
        -11    1    3    3    0    0 -0.10544742836E+02 -0.13730424395E+02  0.24327932790E+01  0.17482409415E+02  0.51100000000E-03 0.  1.
         12    1    3    3    0    0 -0.18197250176E-01 -0.83745993194E+00 -0.74496846864E+00  0.11210032546E+01  0.00000000000E+00 0. -1.
</event>
<event>
 7    1  0.1683291E-008  0.4614232E+02  0.7816164E-02  0.1320468E+00
        -11   -1    0    0    0    0  0.00000000000E+00  0.00000000000E+00  0.45593999997E+02  0.45594000000E+02  0.51100000000E-03 0.  1.
         11   -1    0    0    0    0 -0.00000000000E+00 -0.00000000000E+00 -0.45593999997E+02  0.45594000000E+02  0.51100000000E-03 0. -1.
    9900012    2    1    2    0    0  0.21203820468E+02 -0.38344653640E+02 -0.10449829966E+02  0.46142318614E+02  0.10000007779E+02 0.  0.
        -12    1    1    2    0    0 -0.21203820468E+02  0.38344653640E+02  0.10449829966E+02  0.45045681386E+02  0.00000000000E+00 0.  1.
         11    1    3    3    0    0  0.91514104021E+01 -0.17272392438E+02 -0.97325891916E+01  0.21835914121E+02  0.51100000000E-03 0. -1.
        -11    1    3    3    0    0  0.28210860660E+01 -0.56180535590E+01  0.85000485210E-01  0.62871517977E+01  0.51100000000E-03 0.  1.
         12    1    3    3    0    0  0.92313239996E+01 -0.15454207643E+02 -0.80224125986E+00  0.18019252695E+02  0.00000000000E+00 0. -1.
</event>
<event>
 7    1  0.1683291E-008  0.4614232E+02  0.7816164E-02  0.1320468E+00
        -11   -1    0    0    0    0  0.00000000000E+00  0.00000000000E+00  0.45593999997E+02  0.45594000000E+02  0.51100000000E-03 0.  1.
         11   -1    0    0    0    0 -0.00000000000E+00 -0.00000000000E+00 -0.45593999997E+02  0.45594000000E+02  0.51100000000E-03 0. -1.
    9900012    2    1    2    0    0 -0.28807851938E+00 -0.43112955232E+02 -0.13050039256E+02  0.46142318491E+02  0.10000006653E+02 0.  0.
        -12    1    1    2    0    0  0.28807851938E+00  0.43112955232E+02  0.13050039256E+02  0.45045681509E+02  0.00000000000E+00 0.  1.
         11    1    3    3    0    0  0.20092308016E+01 -0.50437518594E+01 -0.39636848970E+01  0.67221454504E+01  0.51100000000E-03 0. -1.
        -11    1    3    3    0    0 -0.28018763005E+00 -0.29949470742E+02 -0.78533411801E+01  0.30963272934E+02  0.51100000000E-03 0.  1.
        -12    1    3    3    0    0 -0.20171216910E+01 -0.81197326303E+01 -0.12330131787E+01  0.84569001060E+01  0.00000000000E+00 0.  1.
</event>
<event>
 7    1  0.1683291E-008  0.4614232E+02  0.7816164E-02  0.1320468E+00
        -11   -1    0    0    0    0  0.00000000000E+00  0.00000000000E+00  0.45593999997E+02  0.45594000000E+02  0.51100000000E-03 0.  1.
         11   -1    0    0    0    0 -0.00000000000E+00 -0.00000000000E+00 -0.45593999997E+02  0.45594000000E+02  0.51100000000E-03 0. -1.
    9900012    2    1    2    0    0 -0.28502991695E+02  0.15226339562E+01 -0.34847874283E+02  0.46142319943E+02  0.10000019896E+02 0.  0.
        -12    1    1    2    0    0  0.28502991695E+02 -0.15226339562E+01  0.34847874283E+02  0.45045680057E+02  0.00000000000E+00 0.  1.
         11    1    3    3    0    0 -0.20542106599E+02  0.20645452970E+01 -0.22793741047E+02  0.30753782238E+02  0.51100000000E-03 0. -1.
        -11    1    3    3    0    0 -0.51967007429E+01  0.11280537716E+01 -0.10574353157E+02  0.11836179657E+02  0.51100000000E-03 0.  1.
         12    1    3    3    0    0 -0.27641843534E+01 -0.16699651123E+01 -0.14797800803E+01  0.35523580481E+01  0.00000000000E+00 0. -1.
</event>
<event>
 7    1  0.1683291E-008  0.4614232E+02  0.7816164E-02  0.1320468E+00
        -11   -1    0    0    0    0  0.00000000000E+00  0.00000000000E+00  0.45593999997E+02  0.45594000000E+02  0.51100000000E-03 0. -1.
         11   -1    0    0    0    0 -0.00000000000E+00 -0.00000000000E+00 -0.45593999997E+02  0.45594000000E+02  0.51100000000E-03 0.  1.
    9900012    2    1    2    0    0 -0.12465154055E+02  0.16512620703E+02  0.40013335495E+02  0.46142315129E+02  0.99999759976E+01 0.  0.
        -12    1    1    2    0    0  0.12465154055E+02 -0.16512620703E+02 -0.40013335495E+02  0.45045684871E+02  0.00000000000E+00 0.  1.
         11    1    3    3    0    0 -0.77710219427E+00 -0.52139490406E+00  0.81464258264E-01  0.93934932417E+00  0.51100000000E-03 0. -1.
        -11    1    3    3    0    0 -0.72273554300E+01  0.68785089822E+01  0.16578407897E+02  0.19349216031E+02  0.51100000000E-03 0.  1.
         12    1    3    3    0    0 -0.44606964311E+01  0.10155506625E+02  0.23353463339E+02  0.25853749774E+02  0.00000000000E+00 0. -1.
</event>
<event>
 7    1  0.1683291E-008  0.4614232E+02  0.7816164E-02  0.1320468E+00
        -11   -1    0    0    0    0  0.00000000000E+00  0.00000000000E+00  0.45593999997E+02  0.45594000000E+02  0.51100000000E-03 0.  1.
         11   -1    0    0    0    0 -0.00000000000E+00 -0.00000000000E+00 -0.45593999997E+02  0.45594000000E+02  0.51100000000E-03 0. -1.
    9900012    2    1    2    0    0 -0.37873760010E+02 -0.24335351051E+02 -0.15755929222E+01  0.46142317619E+02  0.99999987075E+01 0.  0.
        -12    1    1    2    0    0  0.37873760010E+02  0.24335351051E+02  0.15755929222E+01  0.45045682381E+02  0.00000000000E+00 0.  1.
         11    1    3    3    0    0 -0.14970424720E+02 -0.90137635832E+01 -0.24695949470E+01  0.17648242113E+02  0.51100000000E-03 0. -1.
        -11    1    3    3    0    0 -0.37554544379E+00  0.71455933628E+00  0.20572059544E+00  0.83303700393E+00  0.51100000000E-03 0.  1.
        -12    1    3    3    0    0 -0.22527789847E+02 -0.16036146804E+02  0.68828142938E+00  0.27661038502E+02  0.00000000000E+00 0.  1.
</event>
<event>
 7    1  0.1683291E-008  0.4614232E+02  0.7816164E-02  0.1320468E+00
        -11   -1    0    0    0    0  0.00000000000E+00  0.00000000000E+00  0.45593999997E+02  0.45594000000E+02  0.51100000000E-03 0.  1.
         11   -1    0    0    0    0 -0.00000000000E+00 -0.00000000000E+00 -0.45593999997E+02  0.45594000000E+02  0.51100000000E-03 0. -1.
    9900012    2    1    2    0    0  0.15399711911E+02 -0.80661374932E+01 -0.41555984305E+02  0.46142317270E+02  0.99999955246E+01 0.  0.
        -12    1    1    2    0    0 -0.15399711911E+02  0.80661374932E+01  0.41555984305E+02  0.45045682730E+02  0.00000000000E+00 0.  1.
         11    1    3    3    0    0  0.80193845840E+01 -0.13923622513E+01 -0.23497928799E+02  0.24867687063E+02  0.51100000000E-03 0. -1.
        -11    1    3    3    0    0  0.64539004161E+00 -0.39139235710E+01 -0.61483058533E+01  0.73168976454E+01  0.51100000000E-03 0.  1.
        -12    1    3    3    0    0  0.67349372853E+01 -0.27598516709E+01 -0.11909749653E+02  0.13957732562E+02  0.00000000000E+00 0.  1.
</event>
<event>
 7    1  0.1683291E-008  0.4614232E+02  0.7816164E-02  0.1320468E+00
        -11   -1    0    0    0    0  0.00000000000E+00  0.00000000000E+00  0.45593999997E+02  0.45594000000E+02  0.51100000000E-03 0.  1.
         11   -1    0    0    0    0 -0.00000000000E+00 -0.00000000000E+00 -0.45593999997E+02  0.45594000000E+02  0.51100000000E-03 0. -1.
    9900012    2    1    2    0    0  0.66373634803E+01 -0.39568258785E+02 -0.20479548854E+02  0.46142316316E+02  0.99999868234E+01 0.  0.
        -12    1    1    2    0    0 -0.66373634803E+01  0.39568258785E+02  0.20479548854E+02  0.45045683684E+02  0.00000000000E+00 0.  1.
         11    1    3    3    0    0 -0.34830723893E-01 -0.30958744315E+01 -0.25511064716E+01  0.40117073878E+01  0.51100000000E-03 0. -1.
        -11    1    3    3    0    0 -0.29974612090E+00 -0.22560684868E+02 -0.10819271131E+02  0.25022609327E+02  0.51100000000E-03 0.  1.
        -12    1    3    3    0    0  0.69719403251E+01 -0.13911699486E+02 -0.71091712511E+01  0.17107999601E+02  0.00000000000E+00 0.  1.
</event>
<event>
 7    1  0.1683291E-008  0.4614232E+02  0.7816164E-02  0.1320468E+00
        -11   -1    0    0    0    0  0.00000000000E+00  0.00000000000E+00  0.45593999997E+02  0.45594000000E+02  0.51100000000E-03 0.  1.
         11   -1    0    0    0    0 -0.00000000000E+00 -0.00000000000E+00 -0.45593999997E+02  0.45594000000E+02  0.51100000000E-03 0. -1.
    9900012    2    1    2    0    0  0.14796652940E+02 -0.15588785343E+02 -0.39587402194E+02  0.46142316753E+02  0.99999908050E+01 0.  0.
        -12    1    1    2    0    0 -0.14796652940E+02  0.15588785343E+02  0.39587402194E+02  0.45045683247E+02  0.00000000000E+00 0.  1.
         11    1    3    3    0    0  0.39371434680E+01 -0.40192188841E+01 -0.76098272579E+01  0.94638623343E+01  0.51100000000E-03 0. -1.
        -11    1    3    3    0    0  0.62541305758E+01 -0.10843221043E+01 -0.91058653910E+01  0.11099850831E+02  0.51100000000E-03 0.  1.
        -12    1    3    3    0    0  0.46053788961E+01 -0.10485244355E+02 -0.22871709546E+02  0.25578603588E+02  0.00000000000E+00 0.  1.
</event>
<event>
 7    1  0.1683291E-008  0.4614232E+02  0.7816164E-02  0.1320468E+00
        -11   -1    0    0    0    0  0.00000000000E+00  0.00000000000E+00  0.45593999997E+02  0.45594000000E+02  0.51100000000E-03 0.  1.
         11   -1    0    0    0    0 -0.00000000000E+00 -0.00000000000E+00 -0.45593999997E+02  0.45594000000E+02  0.51100000000E-03 0. -1.
    9900012    2    1    2    0    0  0.36267507518E+02  0.25373321866E+02 -0.83651585561E+01  0.46142318279E+02  0.10000004718E+02 0.  0.
        -12    1    1    2    0    0 -0.36267507518E+02 -0.25373321866E+02  0.83651585561E+01  0.45045681721E+02  0.00000000000E+00 0.  1.
         11    1    3    3    0    0  0.12362547834E+02  0.87567915459E+01 -0.38047032469E+01  0.15620171388E+02  0.51100000000E-03 0. -1.
        -11    1    3    3    0    0  0.36167985988E+01  0.37164248385E+01  0.20681072926E+01  0.55830201253E+01  0.51100000000E-03 0.  1.
        -12    1    3    3    0    0  0.20288161085E+02  0.12900105482E+02 -0.66285626018E+01  0.24939126765E+02  0.00000000000E+00 0.  1.
</event>
<event>
 7    1  0.1683291E-008  0.4614232E+02  0.7816164E-02  0.1320468E+00
        -11   -1    0    0    0    0  0.00000000000E+00  0.00000000000E+00  0.45593999997E+02  0.45594000000E+02  0.51100000000E-03 0.  1.
         11   -1    0    0    0    0 -0.00000000000E+00 -0.00000000000E+00 -0.45593999997E+02  0.45594000000E+02  0.51100000000E-03 0. -1.
    9900012    2    1    2    0    0  0.33436057048E+02  0.28365258134E+02 -0.10322585896E+02  0.46142316972E+02  0.99999928032E+01 0.  0.
        -12    1    1    2    0    0 -0.33436057048E+02 -0.28365258134E+02  0.10322585896E+02  0.45045683028E+02  0.00000000000E+00 0.  1.
         11    1    3    3    0    0  0.16035887850E+02  0.10763635173E+02 -0.27431102207E+01  0.19507183169E+02  0.51100000000E-03 0. -1.
        -11    1    3    3    0    0  0.78023620530E+01  0.55225681994E+01 -0.56055717023E+01  0.11081428044E+02  0.51100000000E-03 0.  1.
         12    1    3    3    0    0  0.95978071451E+01  0.12079054762E+02 -0.19739039727E+01  0.15553705759E+02  0.00000000000E+00 0. -1.
</event>
<event>
 7    1  0.1683291E-008  0.4614232E+02  0.7816164E-02  0.1320468E+00
        -11   -1    0    0    0    0  0.00000000000E+00  0.00000000000E+00  0.45593999997E+02  0.45594000000E+02  0.51100000000E-03 0.  1.
         11   -1    0    0    0    0 -0.00000000000E+00 -0.00000000000E+00 -0.45593999997E+02  0.45594000000E+02  0.51100000000E-03 0. -1.
    9900012    2    1    2    0    0  0.31719539178E+02 -0.28903300363E+02 -0.13696115836E+02  0.46142317338E+02  0.99999961391E+01 0.  0.
        -12    1    1    2    0    0 -0.31719539178E+02  0.28903300363E+02  0.13696115836E+02  0.45045682662E+02  0.00000000000E+00 0.  1.
         11    1    3    3    0    0  0.19720303165E+02 -0.18720576756E+02 -0.67968432117E+01  0.28027619037E+02  0.51100000000E-03 0. -1.
        -11    1    3    3    0    0  0.45785963928E+00 -0.26142437622E+01 -0.24544058302E+01  0.36149708350E+01  0.51100000000E-03 0.  1.
        -12    1    3    3    0    0  0.11541376373E+02 -0.75684798450E+01 -0.44448667937E+01  0.14499727465E+02  0.00000000000E+00 0.  1.
</event>
<event>
 7    1  0.1683291E-008  0.4614230E+02  0.7816164E-02  0.1320468E+00
        -11   -1    0    0    0    0  0.00000000000E+00  0.00000000000E+00  0.45593999997E+02  0.45594000000E+02  0.51100000000E-03 0.  1.
         11   -1    0    0    0    0 -0.00000000000E+00 -0.00000000000E+00 -0.45593999997E+02  0.45594000000E+02  0.51100000000E-03 0. -1.
    9900012    2    1    2    0    0  0.20562876614E+02 -0.26097044475E+02 -0.30417546959E+02  0.46142303336E+02  0.99998684566E+01 0.  0.
        -12    1    1    2    0    0 -0.20562876614E+02  0.26097044475E+02  0.30417546959E+02  0.45045696664E+02  0.00000000000E+00 0.  1.
         11    1    3    3    0    0  0.50606625158E+01 -0.10864466639E+02 -0.77278036517E+01  0.14260641290E+02  0.51100000000E-03 0. -1.
        -11    1    3    3    0    0  0.50882545446E+01 -0.21667952220E+01 -0.73614836809E+01  0.92074305911E+01  0.51100000000E-03 0.  1.
         12    1    3    3    0    0  0.10413959554E+02 -0.13065782614E+02 -0.15328259626E+02  0.22674231455E+02  0.00000000000E+00 0. -1.
</event>
