<event>
 7    1  0.5910662E-013  0.5052886E+02  0.7816164E-02  0.1300439E+00
        -11   -1    0    0    0    0  0.00000000000E+00  0.00000000000E+00  0.45593999997E+02  0.45594000000E+02  0.51100000000E-03 0. -1.
         11   -1    0    0    0    0 -0.00000000000E+00 -0.00000000000E+00 -0.45593999997E+02  0.45594000000E+02  0.51100000000E-03 0.  1.
    9900012    2    1    2    0    0  0.18321999428E+02  0.36295453400E+02  0.33190385942E+00  0.50528858830E+02  0.29999996898E+02 0.  0.
         12    1    1    2    0    0 -0.18321999428E+02 -0.36295453400E+02 -0.33190385942E+00  0.40659141170E+02  0.00000000000E+00 0. -1.
         11    1    3    3    0    0  0.17289874340E+02  0.17545681113E+02 -0.76952690568E+01  0.25807127824E+02  0.51100000000E-03 0. -1.
        -11    1    3    3    0    0  0.22871701235E+01  0.84577953226E+01  0.10878992247E+02  0.13968461671E+02  0.51100000000E-03 0.  1.
        -12    1    3    3    0    0 -0.12550450355E+01  0.10291976964E+02 -0.28518193307E+01  0.10753269334E+02  0.00000000000E+00 0.  1.
</event>
<event>
 7    1  0.5910662E-013  0.5052885E+02  0.7816164E-02  0.1300439E+00
        -11   -1    0    0    0    0  0.00000000000E+00  0.00000000000E+00  0.45593999997E+02  0.45594000000E+02  0.51100000000E-03 0. -1.
         11   -1    0    0    0    0 -0.00000000000E+00 -0.00000000000E+00 -0.45593999997E+02  0.45594000000E+02  0.51100000000E-03 0.  1.
    9900012    2    1    2    0    0  0.13390799847E+02  0.25453011254E+02  0.28740160583E+02  0.50528854254E+02  0.29999982991E+02 0.  0.
         12    1    1    2    0    0 -0.13390799847E+02 -0.25453011254E+02 -0.28740160583E+02  0.40659145746E+02  0.00000000000E+00 0. -1.
         11    1    3    3    0    0 -0.13325578200E+01 -0.25411892458E+01  0.68940579180E+01  0.74673548171E+01  0.51100000000E-03 0. -1.
        -11    1    3    3    0    0  0.18235936968E+02  0.28159486738E+02  0.19140824166E+02  0.38624826737E+02  0.51100000000E-03 0.  1.
        -12    1    3    3    0    0 -0.35125793017E+01 -0.16528623775E+00  0.27052784991E+01  0.44366727002E+01  0.00000000000E+00 0.  1.
</event>
<event>
 7    1  0.5910662E-013  0.5052887E+02  0.7816164E-02  0.1300439E+00
        -11   -1    0    0    0    0  0.00000000000E+00  0.00000000000E+00  0.45593999997E+02  0.45594000000E+02  0.51100000000E-03 0.  1.
         11   -1    0    0    0    0 -0.00000000000E+00 -0.00000000000E+00 -0.45593999997E+02  0.45594000000E+02  0.51100000000E-03 0. -1.
    9900012    2    1    2    0    0  0.22928375164E+02  0.44240716234E+01  0.33284857547E+02  0.50528873849E+02  0.30000042552E+02 0.  0.
         12    1    1    2    0    0 -0.22928375164E+02 -0.44240716234E+01 -0.33284857547E+02  0.40659126151E+02  0.00000000000E+00 0. -1.
         11    1    3    3    0    0  0.11739814307E+02  0.98182118132E+01  0.86717545390E+01  0.17590334000E+02  0.51100000000E-03 0. -1.
        -11    1    3    3    0    0  0.15653404116E+02 -0.69948370881E+01  0.19411831300E+02  0.25899343640E+02  0.51100000000E-03 0.  1.
         12    1    3    3    0    0 -0.44648432593E+01  0.16006968983E+01  0.52012717088E+01  0.70391962097E+01  0.00000000000E+00 0. -1.
</event>
<event>
 7    1  0.5910662E-013  0.5052886E+02  0.7816164E-02  0.1300439E+00
        -11   -1    0    0    0    0  0.00000000000E+00  0.00000000000E+00  0.45593999997E+02  0.45594000000E+02  0.51100000000E-03 0. -1.
         11   -1    0    0    0    0 -0.00000000000E+00 -0.00000000000E+00 -0.45593999997E+02  0.45594000000E+02  0.51100000000E-03 0.  1.
    9900012    2    1    2    0    0 -0.38562879226E+02 -0.84032250539E+01 -0.97701474954E+01  0.50528860467E+02  0.30000001875E+02 0.  0.
         12    1    1    2    0    0  0.38562879226E+02  0.84032250539E+01  0.97701474954E+01  0.40659139533E+02  0.00000000000E+00 0. -1.
         11    1    3    3    0    0 -0.14478660999E+02  0.35460856424E+01  0.92790907324E+01  0.17558697924E+02  0.51100000000E-03 0. -1.
        -11    1    3    3    0    0 -0.11293375061E+02 -0.61608584248E+01 -0.87613282941E+01  0.15564619191E+02  0.51100000000E-03 0.  1.
         12    1    3    3    0    0 -0.12790843165E+02 -0.57884522715E+01 -0.10287909934E+02  0.17405543352E+02  0.00000000000E+00 0. -1.
</event>
<event>
 7    1  0.5910662E-013  0.5052886E+02  0.7816164E-02  0.1300439E+00
        -11   -1    0    0    0    0  0.00000000000E+00  0.00000000000E+00  0.45593999997E+02  0.45594000000E+02  0.51100000000E-03 0.  1.
         11   -1    0    0    0    0 -0.00000000000E+00 -0.00000000000E+00 -0.45593999997E+02  0.45594000000E+02  0.51100000000E-03 0. -1.
    9900012    2    1    2    0    0 -0.20874745712E+02  0.29999366177E+02  0.17817098303E+02  0.50528856238E+02  0.29999989022E+02 0.  0.
         12    1    1    2    0    0  0.20874745712E+02 -0.29999366177E+02 -0.17817098303E+02  0.40659143762E+02  0.00000000000E+00 0. -1.
         11    1    3    3    0    0 -0.66178729372E+01  0.21654445704E+02  0.57647266709E+01  0.23365430337E+02  0.51100000000E-03 0. -1.
        -11    1    3    3    0    0 -0.18182385479E+02  0.90070414613E+01  0.92812564514E+01  0.22312948240E+02  0.51100000000E-03 0.  1.
        -12    1    3    3    0    0  0.39255127048E+01 -0.66212098873E+00  0.27711151803E+01  0.48504776612E+01  0.00000000000E+00 0.  1.
</event>
<event>
 7    1  0.5910662E-013  0.5052887E+02  0.7816164E-02  0.1300439E+00
        -11   -1    0    0    0    0  0.00000000000E+00  0.00000000000E+00  0.45593999997E+02  0.45594000000E+02  0.51100000000E-03 0.  1.
         11   -1    0    0    0    0 -0.00000000000E+00 -0.00000000000E+00 -0.45593999997E+02  0.45594000000E+02  0.51100000000E-03 0. -1.
    9900012    2    1    2    0    0  0.17237248182E+02  0.14415378050E+02  0.33885678942E+02  0.50528867120E+02  0.30000022098E+02 0.  0.
         12    1    1    2    0    0 -0.17237248182E+02 -0.14415378050E+02 -0.33885678942E+02  0.40659132880E+02  0.00000000000E+00 0. -1.
         11    1    3    3    0    0  0.18264041003E+02  0.11882834050E+02  0.27119159612E+02  0.34788299141E+02  0.51100000000E-03 0.  1.
        -11    1    3    3    0    0 -0.61828834235E+01  0.91883855667E+00 -0.94807312893E+00  0.63222744832E+01  0.51100000000E-03 0. -1.
         12    1    3    3    0    0  0.51560906025E+01  0.16137054425E+01  0.77145924590E+01  0.94182934953E+01  0.00000000000E+00 0. -1.
</event>
<event>
 7    1  0.5910662E-013  0.5052888E+02  0.7816164E-02  0.1300439E+00
        -11   -1    0    0    0    0  0.00000000000E+00  0.00000000000E+00  0.45593999997E+02  0.45594000000E+02  0.51100000000E-03 0.  1.
         11   -1    0    0    0    0 -0.00000000000E+00 -0.00000000000E+00 -0.45593999997E+02  0.45594000000E+02  0.51100000000E-03 0. -1.
    9900012    2    1    2    0    0  0.73814787679E+01  0.36627698553E+02  0.16034019588E+02  0.50528876618E+02  0.30000050967E+02 0.  0.
         12    1    1    2    0    0 -0.73814787679E+01 -0.36627698553E+02 -0.16034019588E+02  0.40659123382E+02  0.00000000000E+00 0. -1.
         11    1    3    3    0    0 -0.45684361804E+01  0.11504660527E+01  0.89590920772E+01  0.10122228627E+02  0.51100000000E-03 0. -1.
        -11    1    3    3    0    0  0.11819429703E+02  0.36019206404E+02  0.49749225271E+01  0.38233911687E+02  0.51100000000E-03 0.  1.
        -12    1    3    3    0    0  0.13048524496E+00 -0.54197390396E+00  0.21000049835E+01  0.21727363030E+01  0.00000000000E+00 0.  1.
</event>
<event>
 7    1  0.5910662E-013  0.5052886E+02  0.7816164E-02  0.1300439E+00
        -11   -1    0    0    0    0  0.00000000000E+00  0.00000000000E+00  0.45593999997E+02  0.45594000000E+02  0.51100000000E-03 0.  1.
         11   -1    0    0    0    0 -0.00000000000E+00 -0.00000000000E+00 -0.45593999997E+02  0.45594000000E+02  0.51100000000E-03 0. -1.
    9900012    2    1    2    0    0  0.12716185514E+02  0.27863506446E+02  0.26741150646E+02  0.50528861995E+02  0.30000006519E+02 0.  0.
         12    1    1    2    0    0 -0.12716185514E+02 -0.27863506446E+02 -0.26741150646E+02  0.40659138005E+02  0.00000000000E+00 0. -1.
         11    1    3    3    0    0  0.15374796059E+02  0.35378633659E+01  0.18333032902E+02  0.24186792402E+02  0.51100000000E-03 0. -1.
        -11    1    3    3    0    0 -0.17740809114E+01  0.23915296485E+02  0.82069595195E+01  0.25346458409E+02  0.51100000000E-03 0.  1.
         12    1    3    3    0    0 -0.88452963272E+00  0.41034659490E+00  0.20115822452E+00  0.99561118435E+00  0.00000000000E+00 0. -1.
</event>
<event>
 7    1  0.5910662E-013  0.5052886E+02  0.7816164E-02  0.1300439E+00
        -11   -1    0    0    0    0  0.00000000000E+00  0.00000000000E+00  0.45593999997E+02  0.45594000000E+02  0.51100000000E-03 0.  1.
         11   -1    0    0    0    0 -0.00000000000E+00 -0.00000000000E+00 -0.45593999997E+02  0.45594000000E+02  0.51100000000E-03 0. -1.
    9900012    2    1    2    0    0  0.35846113210E+02 -0.82320452760E+01  0.17333640727E+02  0.50528862005E+02  0.30000006549E+02 0.  0.
         12    1    1    2    0    0 -0.35846113210E+02  0.82320452760E+01 -0.17333640727E+02  0.40659137995E+02  0.00000000000E+00 0. -1.
         11    1    3    3    0    0  0.25235784876E+02  0.63111690549E+01  0.76743777216E+01  0.27121426342E+02  0.51100000000E-03 0. -1.
        -11    1    3    3    0    0  0.11732703413E+02 -0.13218091649E+02  0.11333058052E+02  0.20995534794E+02  0.51100000000E-03 0.  1.
         12    1    3    3    0    0 -0.11223750794E+01 -0.13251226817E+01 -0.16737950466E+01  0.24119008683E+01  0.00000000000E+00 0. -1.
</event>
<event>
 7    1  0.5910662E-013  0.5052886E+02  0.7816164E-02  0.1300439E+00
        -11   -1    0    0    0    0  0.00000000000E+00  0.00000000000E+00  0.45593999997E+02  0.45594000000E+02  0.51100000000E-03 0.  1.
         11   -1    0    0    0    0 -0.00000000000E+00 -0.00000000000E+00 -0.45593999997E+02  0.45594000000E+02  0.51100000000E-03 0. -1.
    9900012    2    1    2    0    0  0.35385459780E+02  0.17277183820E+02  0.10125915547E+02  0.50528855761E+02  0.29999987570E+02 0.  0.
         12    1    1    2    0    0 -0.35385459780E+02 -0.17277183820E+02 -0.10125915547E+02  0.40659144239E+02  0.00000000000E+00 0. -1.
         11    1    3    3    0    0  0.17332634170E+02  0.10259206017E+02  0.16113413728E+02  0.25793673984E+02  0.51100000000E-03 0.  1.
        -11    1    3    3    0    0 -0.33079885038E+00  0.33338465881E+01 -0.49243252368E+01  0.59559164073E+01  0.51100000000E-03 0. -1.
         12    1    3    3    0    0  0.18383624460E+02  0.36841312155E+01 -0.10631729436E+01  0.18779265369E+02  0.00000000000E+00 0. -1.
</event>
<event>
 7    1  0.5910662E-013  0.5052882E+02  0.7816164E-02  0.1300439E+00
        -11   -1    0    0    0    0  0.00000000000E+00  0.00000000000E+00  0.45593999997E+02  0.45594000000E+02  0.51100000000E-03 0.  1.
         11   -1    0    0    0    0 -0.00000000000E+00 -0.00000000000E+00 -0.45593999997E+02  0.45594000000E+02  0.51100000000E-03 0. -1.
    9900012    2    1    2    0    0 -0.14096007849E+02  0.42884101497E+01  0.37895657383E+02  0.50528822102E+02  0.29999885260E+02 0.  0.
         12    1    1    2    0    0  0.14096007849E+02 -0.42884101497E+01 -0.37895657383E+02  0.40659177898E+02  0.00000000000E+00 0. -1.
         11    1    3    3    0    0  0.39088574978E+01  0.30843943003E-01 -0.26577427543E+01  0.47269139083E+01  0.51100000000E-03 0. -1.
        -11    1    3    3    0    0 -0.12411511111E+02 -0.17370020317E+01  0.19195922988E+02  0.22924795392E+02  0.51100000000E-03 0.  1.
         12    1    3    3    0    0 -0.55933542362E+01  0.59945682384E+01  0.21357477149E+02  0.22877112802E+02  0.00000000000E+00 0. -1.
</event>
<event>
 7    1  0.5910662E-013  0.5052886E+02  0.7816164E-02  0.1300439E+00
        -11   -1    0    0    0    0  0.00000000000E+00  0.00000000000E+00  0.45593999997E+02  0.45594000000E+02  0.51100000000E-03 0.  1.
         11   -1    0    0    0    0 -0.00000000000E+00 -0.00000000000E+00 -0.45593999997E+02  0.45594000000E+02  0.51100000000E-03 0. -1.
    9900012    2    1    2    0    0 -0.54505026841E+01  0.23068405140E+02  0.33034923349E+02  0.50528862578E+02  0.30000008291E+02 0.  0.
         12    1    1    2    0    0  0.54505026841E+01 -0.23068405140E+02 -0.33034923349E+02  0.40659137422E+02  0.00000000000E+00 0. -1.
         11    1    3    3    0    0  0.46639457393E+01  0.25099963277E+02  0.20552010583E+02  0.32774161860E+02  0.51100000000E-03 0. -1.
        -11    1    3    3    0    0 -0.59485795851E+01 -0.34093730953E+01  0.11287947297E+02  0.13207088189E+02  0.51100000000E-03 0.  1.
         12    1    3    3    0    0 -0.41658688382E+01  0.13778149583E+01  0.11949654694E+01  0.45476125286E+01  0.00000000000E+00 0. -1.
</event>
<event>
 7    1  0.5910662E-013  0.5052886E+02  0.7816164E-02  0.1300439E+00
        -11   -1    0    0    0    0  0.00000000000E+00  0.00000000000E+00  0.45593999997E+02  0.45594000000E+02  0.51100000000E-03 0.  1.
         11   -1    0    0    0    0 -0.00000000000E+00 -0.00000000000E+00 -0.45593999997E+02  0.45594000000E+02  0.51100000000E-03 0. -1.
    9900012    2    1    2    0    0 -0.25955908152E+01 -0.40240235774E+02 -0.52107622685E+01  0.50528859450E+02  0.29999998785E+02 0.  0.
         12    1    1    2    0    0  0.25955908152E+01  0.40240235774E+02  0.52107622685E+01  0.40659140550E+02  0.00000000000E+00 0. -1.
         11    1    3    3    0    0 -0.10426104065E+02 -0.28486534113E+02 -0.95418507918E+01  0.31799892902E+02  0.51100000000E-03 0. -1.
        -11    1    3    3    0    0  0.10438235502E+02 -0.65263974298E+01  0.36929092775E+01  0.12852556283E+02  0.51100000000E-03 0.  1.
        -12    1    3    3    0    0 -0.26077222526E+01 -0.52273042305E+01  0.63817924577E+00  0.58764102660E+01  0.00000000000E+00 0.  1.
</event>
<event>
 7    1  0.5910662E-013  0.5052887E+02  0.7816164E-02  0.1300439E+00
        -11   -1    0    0    0    0  0.00000000000E+00  0.00000000000E+00  0.45593999997E+02  0.45594000000E+02  0.51100000000E-03 0.  1.
         11   -1    0    0    0    0 -0.00000000000E+00 -0.00000000000E+00 -0.45593999997E+02  0.45594000000E+02  0.51100000000E-03 0. -1.
    9900012    2    1    2    0    0  0.35686006160E+01  0.14980087837E+02  0.37630131551E+02  0.50528871351E+02  0.30000034959E+02 0.  0.
         12    1    1    2    0    0 -0.35686006160E+01 -0.14980087837E+02 -0.37630131551E+02  0.40659128649E+02  0.00000000000E+00 0. -1.
         11    1    3    3    0    0 -0.47882701863E+01 -0.16827017333E+01 -0.22456039878E+01  0.55499327953E+01  0.51100000000E-03 0. -1.
        -11    1    3    3    0    0  0.73489329074E+01  0.13791084219E+02  0.38664972036E+02  0.41703487643E+02  0.51100000000E-03 0.  1.
         12    1    3    3    0    0  0.10079378949E+01  0.28717053510E+01  0.12107635026E+01  0.32754509128E+01  0.00000000000E+00 0. -1.
</event>
<event>
 7    1  0.5910662E-013  0.5052886E+02  0.7816164E-02  0.1300439E+00
        -11   -1    0    0    0    0  0.00000000000E+00  0.00000000000E+00  0.45593999997E+02  0.45594000000E+02  0.51100000000E-03 0.  1.
         11   -1    0    0    0    0 -0.00000000000E+00 -0.00000000000E+00 -0.45593999997E+02  0.45594000000E+02  0.51100000000E-03 0. -1.
    9900012    2    1    2    0    0  0.30821456349E+02 -0.26512706929E+02  0.52893104663E+00  0.50528861197E+02  0.30000004094E+02 0.  0.
         12    1    1    2    0    0 -0.30821456349E+02  0.26512706929E+02 -0.52893104663E+00  0.40659138803E+02  0.00000000000E+00 0. -1.
         11    1    3    3    0    0  0.15256785322E+02 -0.35631850035E+01 -0.79326949446E+01  0.17561134219E+02  0.51100000000E-03 0. -1.
        -11    1    3    3    0    0 -0.23186453373E+01 -0.71155823048E+01  0.45651111508E+01  0.87662915658E+01  0.51100000000E-03 0.  1.
        -12    1    3    3    0    0  0.17883316364E+02 -0.15833939620E+02  0.38965148404E+01  0.24201435412E+02  0.00000000000E+00 0.  1.
</event>
<event>
 7    1  0.5910662E-013  0.5052886E+02  0.7816164E-02  0.1300439E+00
        -11   -1    0    0    0    0  0.00000000000E+00  0.00000000000E+00  0.45593999997E+02  0.45594000000E+02  0.51100000000E-03 0. -1.
         11   -1    0    0    0    0 -0.00000000000E+00 -0.00000000000E+00 -0.45593999997E+02  0.45594000000E+02  0.51100000000E-03 0.  1.
    9900012    2    1    2    0    0  0.39512015700E+02  0.76629590638E+01 -0.57658461853E+01  0.50528864391E+02  0.30000013802E+02 0.  0.
         12    1    1    2    0    0 -0.39512015700E+02 -0.76629590638E+01  0.57658461853E+01  0.40659135609E+02  0.00000000000E+00 0. -1.
         11    1    3    3    0    0  0.20347482287E+02 -0.91535049068E+01  0.18358882701E+01  0.22386986700E+02  0.51100000000E-03 0. -1.
        -11    1    3    3    0    0  0.10445025524E+02  0.44969560652E+01 -0.62808004709E+01  0.12991136473E+02  0.51100000000E-03 0.  1.
         12    1    3    3    0    0  0.87195078888E+01  0.12319507905E+02 -0.13209339845E+01  0.15150741218E+02  0.00000000000E+00 0. -1.
</event>
<event>
 7    1  0.5910662E-013  0.5052888E+02  0.7816164E-02  0.1300439E+00
        -11   -1    0    0    0    0  0.00000000000E+00  0.00000000000E+00  0.45593999997E+02  0.45594000000E+02  0.51100000000E-03 0.  1.
         11   -1    0    0    0    0 -0.00000000000E+00 -0.00000000000E+00 -0.45593999997E+02  0.45594000000E+02  0.51100000000E-03 0. -1.
    9900012    2    1    2    0    0 -0.33432966262E+02 -0.78660146357E+01  0.21760673730E+02  0.50528876295E+02  0.30000049985E+02 0.  0.
         12    1    1    2    0    0  0.33432966262E+02  0.78660146357E+01 -0.21760673730E+02  0.40659123705E+02  0.00000000000E+00 0. -1.
         11    1    3    3    0    0 -0.14477242802E+02 -0.84826023298E+01  0.47520877307E+01  0.17439249969E+02  0.51100000000E-03 0. -1.
        -11    1    3    3    0    0 -0.87085437326E+01 -0.20158121648E+01  0.20157922318E+02  0.22050942498E+02  0.51100000000E-03 0.  1.
        -12    1    3    3    0    0 -0.10247179728E+02  0.26323998589E+01 -0.31493363189E+01  0.11038683827E+02  0.00000000000E+00 0.  1.
</event>
<event>
 7    1  0.5910662E-013  0.5052887E+02  0.7816164E-02  0.1300439E+00
        -11   -1    0    0    0    0  0.00000000000E+00  0.00000000000E+00  0.45593999997E+02  0.45594000000E+02  0.51100000000E-03 0.  1.
         11   -1    0    0    0    0 -0.00000000000E+00 -0.00000000000E+00 -0.45593999997E+02  0.45594000000E+02  0.51100000000E-03 0. -1.
    9900012    2    1    2    0    0 -0.20923226982E+01 -0.39399491335E+02  0.98217831239E+01  0.50528866272E+02  0.30000019521E+02 0.  0.
         12    1    1    2    0    0  0.20923226982E+01  0.39399491335E+02 -0.98217831239E+01  0.40659133728E+02  0.00000000000E+00 0. -1.
         11    1    3    3    0    0  0.89834930170E+00 -0.10047929202E+02 -0.94284027112E+01  0.13808066145E+02  0.51100000000E-03 0. -1.
        -11    1    3    3    0    0 -0.55471024878E+01 -0.27407430852E+02  0.16343050229E+02  0.32388777423E+02  0.51100000000E-03 0.  1.
        -12    1    3    3    0    0  0.25564304879E+01 -0.19441312814E+01  0.29071356065E+01  0.43320227047E+01  0.00000000000E+00 0.  1.
</event>
<event>
 7    1  0.5910662E-013  0.5052886E+02  0.7816164E-02  0.1300439E+00
        -11   -1    0    0    0    0  0.00000000000E+00  0.00000000000E+00  0.45593999997E+02  0.45594000000E+02  0.51100000000E-03 0.  1.
         11   -1    0    0    0    0 -0.00000000000E+00 -0.00000000000E+00 -0.45593999997E+02  0.45594000000E+02  0.51100000000E-03 0. -1.
    9900012    2    1    2    0    0  0.79155637275E+01  0.36739173296E+02  0.15515894625E+02  0.50528856014E+02  0.29999988341E+02 0.  0.
         12    1    1    2    0    0 -0.79155637275E+01 -0.36739173296E+02 -0.15515894625E+02  0.40659143986E+02  0.00000000000E+00 0. -1.
         11    1    3    3    0    0 -0.76580260902E+01  0.24830235115E+02  0.85028827185E+01  0.27340171072E+02  0.51100000000E-03 0. -1.
        -11    1    3    3    0    0  0.55972585116E+01  0.53735213807E+01  0.80952912509E+01  0.11213285672E+02  0.51100000000E-03 0.  1.
         12    1    3    3    0    0  0.99763313062E+01  0.65354168003E+01 -0.10822793440E+01  0.11975399269E+02  0.00000000000E+00 0. -1.
</event>
<event>
 7    1  0.5910662E-013  0.5052886E+02  0.7816164E-02  0.1300439E+00
        -11   -1    0    0    0    0  0.00000000000E+00  0.00000000000E+00  0.45593999997E+02  0.45594000000E+02  0.51100000000E-03 0.  1.
         11   -1    0    0    0    0 -0.00000000000E+00 -0.00000000000E+00 -0.45593999997E+02  0.45594000000E+02  0.51100000000E-03 0. -1.
    9900012    2    1    2    0    0 -0.18751635401E+02  0.32649755737E+02  0.15347159630E+02  0.50528859716E+02  0.29999999593E+02 0.  0.
         12    1    1    2    0    0  0.18751635401E+02 -0.32649755737E+02 -0.15347159630E+02  0.40659140284E+02  0.00000000000E+00 0. -1.
         11    1    3    3    0    0 -0.10251037442E+02  0.10621744020E+02 -0.54620264593E+01  0.15739725156E+02  0.51100000000E-03 0. -1.
        -11    1    3    3    0    0 -0.12276490185E+02  0.20020911752E+02  0.16383613224E+02  0.28635151495E+02  0.51100000000E-03 0.  1.
         12    1    3    3    0    0  0.37758922262E+01  0.20070999654E+01  0.44255728654E+01  0.61539830648E+01  0.00000000000E+00 0. -1.
</event>
<event>
 7    1  0.5910662E-013  0.5052888E+02  0.7816164E-02  0.1300439E+00
        -11   -1    0    0    0    0  0.00000000000E+00  0.00000000000E+00  0.45593999997E+02  0.45594000000E+02  0.51100000000E-03 0. -1.
         11   -1    0    0    0    0 -0.00000000000E+00 -0.00000000000E+00 -0.45593999997E+02  0.45594000000E+02  0.51100000000E-03 0.  1.
    9900012    2    1    2    0    0 -0.19480325913E+02  0.31983462589E+02 -0.15834747025E+02  0.50528878143E+02  0.30000055603E+02 0.  0.
         12    1    1    2    0    0  0.19480325913E+02 -0.31983462589E+02  0.15834747025E+02  0.40659121857E+02  0.00000000000E+00 0. -1.
         11    1    3    3    0    0 -0.31456457255E+01  0.95626076582E+01  0.78935354479E+01  0.12792437390E+02  0.51100000000E-03 0. -1.
        -11    1    3    3    0    0 -0.51405128926E+01  0.12325403063E+01 -0.54947723760E+01  0.76247329219E+01  0.51100000000E-03 0.  1.
         12    1    3    3    0    0 -0.11194167295E+02  0.21188314624E+02 -0.18233510097E+02  0.30111707831E+02  0.00000000000E+00 0. -1.
</event>
<event>
 7    1  0.5910662E-013  0.5052887E+02  0.7816164E-02  0.1300439E+00
        -11   -1    0    0    0    0  0.00000000000E+00  0.00000000000E+00  0.45593999997E+02  0.45594000000E+02  0.51100000000E-03 0.  1.
         11   -1    0    0    0    0 -0.00000000000E+00 -0.00000000000E+00 -0.45593999997E+02  0.45594000000E+02  0.51100000000E-03 0. -1.
    9900012    2    1    2    0    0  0.26691993607E+02 -0.21998394730E+02 -0.21372250875E+02  0.50528868174E+02  0.30000025301E+02 0.  0.
         12    1    1    2    0    0 -0.26691993607E+02  0.21998394730E+02  0.21372250875E+02  0.40659131826E+02  0.00000000000E+00 0. -1.
         11    1    3    3    0    0 -0.18239125224E+01 -0.10492864916E+02 -0.13849736292E+01  0.10739880039E+02  0.51100000000E-03 0. -1.
        -11    1    3    3    0    0  0.65628398614E+01 -0.65530059412E+01 -0.13480113060E+02  0.16362340978E+02  0.51100000000E-03 0.  1.
         12    1    3    3    0    0  0.21953066268E+02 -0.49525238730E+01 -0.65071641856E+01  0.23426647157E+02  0.00000000000E+00 0. -1.
</event>
<event>
 7    1  0.5910662E-013  0.5052886E+02  0.7816164E-02  0.1300439E+00
        -11   -1    0    0    0    0  0.00000000000E+00  0.00000000000E+00  0.45593999997E+02  0.45594000000E+02  0.51100000000E-03 0.  1.
         11   -1    0    0    0    0 -0.00000000000E+00 -0.00000000000E+00 -0.45593999997E+02  0.45594000000E+02  0.51100000000E-03 0. -1.
    9900012    2    1    2    0    0 -0.18978139024E+02  0.26347627680E+02  0.24470358932E+02  0.50528859435E+02  0.29999998739E+02 0.  0.
         12    1    1    2    0    0  0.18978139024E+02 -0.26347627680E+02 -0.24470358932E+02  0.40659140565E+02  0.00000000000E+00 0. -1.
         11    1    3    3    0    0 -0.11190358202E+02  0.56194649880E+01 -0.39186104117E+01  0.13120899788E+02  0.51100000000E-03 0. -1.
        -11    1    3    3    0    0 -0.75863076928E+01  0.11935161352E+02  0.10983049501E+02  0.17906074878E+02  0.51100000000E-03 0.  1.
         12    1    3    3    0    0 -0.20147312964E+00  0.87930013399E+01  0.17405919843E+02  0.19501884769E+02  0.00000000000E+00 0. -1.
</event>
<event>
 7    1  0.5910662E-013  0.5052888E+02  0.7816164E-02  0.1300439E+00
        -11   -1    0    0    0    0  0.00000000000E+00  0.00000000000E+00  0.45593999997E+02  0.45594000000E+02  0.51100000000E-03 0. -1.
         11   -1    0    0    0    0 -0.00000000000E+00 -0.00000000000E+00 -0.45593999997E+02  0.45594000000E+02  0.51100000000E-03 0.  1.
    9900012    2    1    2    0    0  0.12280935438E+02 -0.15023642047E+02 -0.35730001700E+02  0.50528877813E+02  0.30000054599E+02 0.  0.
         12    1    1    2    0    0 -0.12280935438E+02  0.15023642047E+02  0.35730001700E+02  0.40659122187E+02  0.00000000000E+00 0. -1.
         11    1    3    3    0    0  0.44586460894E+01 -0.54811329131E+00  0.47122073863E+01  0.65103649547E+01  0.51100000000E-03 0. -1.
        -11    1    3    3    0    0  0.81046634808E+01 -0.99547202007E+01 -0.29119012795E+02  0.31822930896E+02  0.51100000000E-03 0.  1.
         12    1    3    3    0    0 -0.28237413209E+00 -0.45208085548E+01 -0.11323196291E+02  0.12195581962E+02  0.00000000000E+00 0. -1.
</event>
<event>
 7    1  0.5910662E-013  0.5052887E+02  0.7816164E-02  0.1300439E+00
        -11   -1    0    0    0    0  0.00000000000E+00  0.00000000000E+00  0.45593999997E+02  0.45594000000E+02  0.51100000000E-03 0. -1.
         11   -1    0    0    0    0 -0.00000000000E+00 -0.00000000000E+00 -0.45593999997E+02  0.45594000000E+02  0.51100000000E-03 0.  1.
    9900012    2    1    2    0    0  0.42258176751E+01  0.26749520251E+02 -0.30327715758E+02  0.50528871729E+02  0.30000036108E+02 0.  0.
         12    1    1    2    0    0 -0.42258176751E+01 -0.26749520251E+02  0.30327715758E+02  0.40659128271E+02  0.00000000000E+00 0. -1.
         11    1    3    3    0    0  0.12547773086E+02  0.14568678873E+02 -0.25170816983E+02  0.31674327797E+02  0.51100000000E-03 0. -1.
        -11    1    3    3    0    0 -0.48236838936E+01 -0.60489987374E+00 -0.10092403342E+01  0.49651179720E+01  0.51100000000E-03 0.  1.
         12    1    3    3    0    0 -0.34982715177E+01  0.12785741252E+02 -0.41476584408E+01  0.13889425960E+02  0.00000000000E+00 0. -1.
</event>
<event>
 7    1  0.5910662E-013  0.5052885E+02  0.7816164E-02  0.1300439E+00
        -11   -1    0    0    0    0  0.00000000000E+00  0.00000000000E+00  0.45593999997E+02  0.45594000000E+02  0.51100000000E-03 0. -1.
         11   -1    0    0    0    0 -0.00000000000E+00 -0.00000000000E+00 -0.45593999997E+02  0.45594000000E+02  0.51100000000E-03 0.  1.
    9900012    2    1    2    0    0  0.38496049933E+02  0.20757958740E+00 -0.13083472765E+02  0.50528853313E+02  0.29999980130E+02 0.  0.
         12    1    1    2    0    0 -0.38496049933E+02 -0.20757958740E+00  0.13083472765E+02  0.40659146687E+02  0.00000000000E+00 0. -1.
         11    1    3    3    0    0 -0.23125585523E+01 -0.58518040500E+00  0.35750634702E+00  0.24120891803E+01  0.51100000000E-03 0. -1.
        -11    1    3    3    0    0  0.34258106981E+02  0.90571648455E+01 -0.12301948495E+02  0.37509839589E+02  0.51100000000E-03 0.  1.
         12    1    3    3    0    0  0.65505015045E+01 -0.82644048531E+01 -0.11390306175E+01  0.10606924544E+02  0.00000000000E+00 0. -1.
</event>
<event>
 7    1  0.5910662E-013  0.5052889E+02  0.7816164E-02  0.1300439E+00
        -11   -1    0    0    0    0  0.00000000000E+00  0.00000000000E+00  0.45593999997E+02  0.45594000000E+02  0.51100000000E-03 0. -1.
         11   -1    0    0    0    0 -0.00000000000E+00 -0.00000000000E+00 -0.45593999997E+02  0.45594000000E+02  0.51100000000E-03 0.  1.
    9900012    2    1    2    0    0 -0.23558694594E+02  0.15922059985E+02 -0.29062676852E+02  0.50528889447E+02  0.30000089964E+02 0.  0.
         12    1    1    2    0    0  0.23558694594E+02 -0.15922059985E+02  0.29062676852E+02  0.40659110553E+02  0.00000000000E+00 0. -1.
         11    1    3    3    0    0  0.25678297323E+01  0.13006488401E+02 -0.95876759433E+01  0.16361113053E+02  0.51100000000E-03 0. -1.
        -11    1    3    3    0    0 -0.26119899129E+02  0.44707979605E+01 -0.18673496794E+02  0.32418153058E+02  0.51100000000E-03 0.  1.
         12    1    3    3    0    0 -0.66251973957E-02 -0.15552263766E+01 -0.80150411408E+00  0.17496233368E+01  0.00000000000E+00 0. -1.
</event>
<event>
 7    1  0.5910662E-013  0.5052885E+02  0.7816164E-02  0.1300439E+00
        -11   -1    0    0    0    0  0.00000000000E+00  0.00000000000E+00  0.45593999997E+02  0.45594000000E+02  0.51100000000E-03 0.  1.
         11   -1    0    0    0    0 -0.00000000000E+00 -0.00000000000E+00 -0.45593999997E+02  0.45594000000E+02  0.51100000000E-03 0. -1.
    9900012    2    1    2    0    0  0.15381796639E+02 -0.13699542349E+02  0.35055515465E+02  0.50528852285E+02  0.29999977005E+02 0.  0.
         12    1    1    2    0    0 -0.15381796639E+02  0.13699542349E+02 -0.35055515465E+02  0.40659147715E+02  0.00000000000E+00 0. -1.
         11    1    3    3    0    0 -0.30756873942E+01 -0.54752245529E+01  0.18023730177E+02  0.19086455580E+02  0.51100000000E-03 0. -1.
        -11    1    3    3    0    0  0.14196361702E+02 -0.99129072256E+01  0.19628816575E+02  0.26174278512E+02  0.51100000000E-03 0.  1.
         12    1    3    3    0    0  0.42611223306E+01  0.16885894295E+01 -0.25970312874E+01  0.52681181920E+01  0.00000000000E+00 0. -1.
</event>
<event>
 7    1  0.5910662E-013  0.5052875E+02  0.7816164E-02  0.1300439E+00
        -11   -1    0    0    0    0  0.00000000000E+00  0.00000000000E+00  0.45593999997E+02  0.45594000000E+02  0.51100000000E-03 0.  1.
         11   -1    0    0    0    0 -0.00000000000E+00 -0.00000000000E+00 -0.45593999997E+02  0.45594000000E+02  0.51100000000E-03 0. -1.
    9900012    2    1    2    0    0  0.51410787643E+01 -0.16568608130E+02  0.36772619356E+02  0.50528745205E+02  0.29999651522E+02 0.  0.
         12    1    1    2    0    0 -0.51410787643E+01  0.16568608130E+02 -0.36772619356E+02  0.40659254795E+02  0.00000000000E+00 0. -1.
         11    1    3    3    0    0  0.20545415901E+01 -0.86334184159E+00 -0.41095396849E+01  0.46749135783E+01  0.51100000000E-03 0. -1.
        -11    1    3    3    0    0  0.43492864817E+01 -0.27251077307E+01  0.23883555896E+02  0.24428809786E+02  0.51100000000E-03 0.  1.
         12    1    3    3    0    0 -0.12627493075E+01 -0.12980158558E+02  0.16998603145E+02  0.21425021840E+02  0.00000000000E+00 0. -1.
</event>
<event>
 7    1  0.5910662E-013  0.5052888E+02  0.7816164E-02  0.1300439E+00
        -11   -1    0    0    0    0  0.00000000000E+00  0.00000000000E+00  0.45593999997E+02  0.45594000000E+02  0.51100000000E-03 0. -1.
         11   -1    0    0    0    0 -0.00000000000E+00 -0.00000000000E+00 -0.45593999997E+02  0.45594000000E+02  0.51100000000E-03 0.  1.
    9900012    2    1    2    0    0  0.24867574277E+02 -0.31407136811E+02  0.69541308507E+01  0.50528875207E+02  0.30000046679E+02 0.  0.
         12    1    1    2    0    0 -0.24867574277E+02  0.31407136811E+02 -0.69541308507E+01  0.40659124793E+02  0.00000000000E+00 0. -1.
         11    1    3    3    0    0 -0.40826287855E+01 -0.14031646917E+02 -0.26778205681E-01  0.14613544756E+02  0.51100000000E-03 0. -1.
        -11    1    3    3    0    0  0.26872942927E+02 -0.18637363834E+02  0.71610683357E+01  0.33478161422E+02  0.51100000000E-03 0.  1.
         12    1    3    3    0    0  0.20772601347E+01  0.12618739399E+01 -0.18015927932E+00  0.24371690285E+01  0.00000000000E+00 0. -1.
</event>
<event>
 7    1  0.5910662E-013  0.5052885E+02  0.7816164E-02  0.1300439E+00
        -11   -1    0    0    0    0  0.00000000000E+00  0.00000000000E+00  0.45593999997E+02  0.45594000000E+02  0.51100000000E-03 0.  1.
         11   -1    0    0    0    0 -0.00000000000E+00 -0.00000000000E+00 -0.45593999997E+02  0.45594000000E+02  0.51100000000E-03 0. -1.
    9900012    2    1    2    0    0  0.20571009721E+02  0.56651177379E+01  0.34610781192E+02  0.50528853740E+02  0.29999981427E+02 0.  0.
         12    1    1    2    0    0 -0.20571009721E+02 -0.56651177379E+01 -0.34610781192E+02  0.40659146260E+02  0.00000000000E+00 0. -1.
         11    1    3    3    0    0  0.34037984592E+01  0.56574934959E+01 -0.39699136173E+01  0.77041087088E+01  0.51100000000E-03 0. -1.
        -11    1    3    3    0    0  0.99771969714E+01  0.20091383073E+01  0.28636935756E+02  0.30391696002E+02  0.51100000000E-03 0.  1.
         12    1    3    3    0    0  0.71900142900E+01 -0.20015140653E+01  0.99437590535E+01  0.12433049029E+02  0.00000000000E+00 0. -1.
</event>
<event>
 7    1  0.5910662E-013  0.5052885E+02  0.7816164E-02  0.1300439E+00
        -11   -1    0    0    0    0  0.00000000000E+00  0.00000000000E+00  0.45593999997E+02  0.45594000000E+02  0.51100000000E-03 0. -1.
         11   -1    0    0    0    0 -0.00000000000E+00 -0.00000000000E+00 -0.45593999997E+02  0.45594000000E+02  0.51100000000E-03 0.  1.
    9900012    2    1    2    0    0  0.32146975343E+02 -0.68579146467E+01 -0.23931309865E+02  0.50528848399E+02  0.29999965195E+02 0.  0.
         12    1    1    2    0    0 -0.32146975343E+02  0.68579146467E+01  0.23931309865E+02  0.40659151601E+02  0.00000000000E+00 0. -1.
         11    1    3    3    0    0  0.93123218676E+01 -0.13245017275E+02 -0.18362455387E+01  0.16294834124E+02  0.51100000000E-03 0. -1.
        -11    1    3    3    0    0  0.18909488182E+02  0.56611137204E+01 -0.11345025345E+02  0.22766786163E+02  0.51100000000E-03 0.  1.
         12    1    3    3    0    0  0.39251652933E+01  0.72598890819E+00 -0.10750038981E+02  0.11467228112E+02  0.00000000000E+00 0. -1.
</event>
<event>
 7    1  0.5910662E-013  0.5052886E+02  0.7816164E-02  0.1300439E+00
        -11   -1    0    0    0    0  0.00000000000E+00  0.00000000000E+00  0.45593999997E+02  0.45594000000E+02  0.51100000000E-03 0.  1.
         11   -1    0    0    0    0 -0.00000000000E+00 -0.00000000000E+00 -0.45593999997E+02  0.45594000000E+02  0.51100000000E-03 0. -1.
    9900012    2    1    2    0    0  0.14681214756E+01  0.40551652168E+02  0.25639620017E+01  0.50528858650E+02  0.29999996352E+02 0.  0.
         12    1    1    2    0    0 -0.14681214756E+01 -0.40551652168E+02 -0.25639620017E+01  0.40659141350E+02  0.00000000000E+00 0. -1.
         11    1    3    3    0    0 -0.11131133810E+02  0.77612329125E+01 -0.24141969879E+01  0.13782859775E+02  0.51100000000E-03 0. -1.
        -11    1    3    3    0    0  0.67515161909E+01  0.74810463260E+01  0.37117374871E+01  0.10738995318E+02  0.51100000000E-03 0.  1.
         12    1    3    3    0    0  0.58477390946E+01  0.25309372929E+02  0.12664215024E+01  0.26007003557E+02  0.00000000000E+00 0. -1.
</event>
<event>
 7    1  0.5910662E-013  0.5052886E+02  0.7816164E-02  0.1300439E+00
        -11   -1    0    0    0    0  0.00000000000E+00  0.00000000000E+00  0.45593999997E+02  0.45594000000E+02  0.51100000000E-03 0.  1.
         11   -1    0    0    0    0 -0.00000000000E+00 -0.00000000000E+00 -0.45593999997E+02  0.45594000000E+02  0.51100000000E-03 0. -1.
    9900012    2    1    2    0    0 -0.38829160670E+02 -0.10344201632E+02  0.62015599483E+01  0.50528861156E+02  0.30000003971E+02 0.  0.
         12    1    1    2    0    0  0.38829160670E+02  0.10344201632E+02 -0.62015599483E+01  0.40659138844E+02  0.00000000000E+00 0. -1.
         11    1    3    3    0    0 -0.32644497513E+02 -0.10135908934E+02 -0.51048225446E+01  0.34560947343E+02  0.51100000000E-03 0. -1.
        -11    1    3    3    0    0 -0.20610428381E+01  0.41591300563E+01  0.76135781467E+01  0.89169968522E+01  0.51100000000E-03 0.  1.
         12    1    3    3    0    0 -0.41236203191E+01 -0.43674227547E+01  0.36928043461E+01  0.70509169611E+01  0.00000000000E+00 0. -1.
</event>
<event>
 7    1  0.5910662E-013  0.5052888E+02  0.7816164E-02  0.1300439E+00
        -11   -1    0    0    0    0  0.00000000000E+00  0.00000000000E+00  0.45593999997E+02  0.45594000000E+02  0.51100000000E-03 0.  1.
         11   -1    0    0    0    0 -0.00000000000E+00 -0.00000000000E+00 -0.45593999997E+02  0.45594000000E+02  0.51100000000E-03 0. -1.
    9900012    2    1    2    0    0  0.82667842878E+01 -0.35944776736E+02  0.17111323197E+02  0.50528879515E+02  0.30000059775E+02 0.  0.
         12    1    1    2    0    0 -0.82667842878E+01  0.35944776736E+02 -0.17111323197E+02  0.40659120485E+02  0.00000000000E+00 0. -1.
         11    1    3    3    0    0  0.22790301849E+01 -0.13563225211E+01 -0.68932482401E+01  0.73858283846E+01  0.51100000000E-03 0. -1.
        -11    1    3    3    0    0  0.71626653013E+01 -0.25640433593E+02  0.15871404351E+02  0.30994145986E+02  0.51100000000E-03 0.  1.
        -12    1    3    3    0    0 -0.11749111984E+01 -0.89480206215E+01  0.81331670864E+01  0.12148905145E+02  0.00000000000E+00 0.  1.
</event>
<event>
 7    1  0.5910662E-013  0.5052887E+02  0.7816164E-02  0.1300439E+00
        -11   -1    0    0    0    0  0.00000000000E+00  0.00000000000E+00  0.45593999997E+02  0.45594000000E+02  0.51100000000E-03 0.  1.
         11   -1    0    0    0    0 -0.00000000000E+00 -0.00000000000E+00 -0.45593999997E+02  0.45594000000E+02  0.51100000000E-03 0. -1.
    9900012    2    1    2    0    0 -0.76115609295E+01  0.85540378173E+01  0.39013556791E+02  0.50528867739E+02  0.30000023979E+02 0.  0.
         12    1    1    2    0    0  0.76115609295E+01 -0.85540378173E+01 -0.39013556791E+02  0.40659132261E+02  0.00000000000E+00 0. -1.
         11    1    3    3    0    0  0.27780757020E+01 -0.17474342088E+00  0.55321637896E+01  0.61929860589E+01  0.51100000000E-03 0.  1.
        -11    1    3    3    0    0 -0.14218661423E+02 -0.28542513861E+01  0.26684534229E+02  0.30370733461E+02  0.51100000000E-03 0. -1.
        -12    1    3    3    0    0  0.38290247916E+01  0.11583032624E+02  0.67968587717E+01  0.13965148219E+02  0.00000000000E+00 0.  1.
</event>
<event>
 7    1  0.5910662E-013  0.5052884E+02  0.7816164E-02  0.1300439E+00
        -11   -1    0    0    0    0  0.00000000000E+00  0.00000000000E+00  0.45593999997E+02  0.45594000000E+02  0.51100000000E-03 0. -1.
         11   -1    0    0    0    0 -0.00000000000E+00 -0.00000000000E+00 -0.45593999997E+02  0.45594000000E+02  0.51100000000E-03 0.  1.
    9900012    2    1    2    0    0 -0.72165886339E+01  0.39656909598E+02 -0.53308206321E+01  0.50528840159E+02  0.29999940146E+02 0.  0.
         12    1    1    2    0    0  0.72165886339E+01 -0.39656909598E+02  0.53308206321E+01  0.40659159841E+02  0.00000000000E+00 0. -1.
         11    1    3    3    0    0  0.35016848921E+01  0.72030463617E+01 -0.95434100772E+01  0.12458826194E+02  0.51100000000E-03 0. -1.
        -11    1    3    3    0    0  0.28940310537E+01  0.37953515657E+01 -0.28601023705E+01  0.55641976131E+01  0.51100000000E-03 0.  1.
         12    1    3    3    0    0 -0.13612304580E+02  0.28658511671E+02  0.70726918156E+01  0.32505816351E+02  0.00000000000E+00 0. -1.
</event>
<event>
 7    1  0.5910662E-013  0.5052886E+02  0.7816164E-02  0.1300439E+00
        -11   -1    0    0    0    0  0.00000000000E+00  0.00000000000E+00  0.45593999997E+02  0.45594000000E+02  0.51100000000E-03 0. -1.
         11   -1    0    0    0    0 -0.00000000000E+00 -0.00000000000E+00 -0.45593999997E+02  0.45594000000E+02  0.51100000000E-03 0.  1.
    9900012    2    1    2    0    0  0.39811651053E+01 -0.63399492778E+01 -0.39963997703E+02  0.50528859025E+02  0.29999997492E+02 0.  0.
         12    1    1    2    0    0 -0.39811651053E+01  0.63399492778E+01  0.39963997703E+02  0.40659140975E+02  0.00000000000E+00 0. -1.
         11    1    3    3    0    0 -0.28409843245E+01 -0.13976539592E+01 -0.49741410565E+00  0.32050038339E+01  0.51100000000E-03 0. -1.
        -11    1    3    3    0    0  0.58444386064E+01 -0.14537195406E+02 -0.29805005270E+02  0.33672330664E+02  0.51100000000E-03 0.  1.
        -12    1    3    3    0    0  0.97771082342E+00  0.95949000876E+01 -0.96615783269E+01  0.13651524527E+02  0.00000000000E+00 0.  1.
</event>
<event>
 7    1  0.5910662E-013  0.5052886E+02  0.7816164E-02  0.1300439E+00
        -11   -1    0    0    0    0  0.00000000000E+00  0.00000000000E+00  0.45593999997E+02  0.45594000000E+02  0.51100000000E-03 0. -1.
         11   -1    0    0    0    0 -0.00000000000E+00 -0.00000000000E+00 -0.45593999997E+02  0.45594000000E+02  0.51100000000E-03 0.  1.
    9900012    2    1    2    0    0  0.37819628460E+02 -0.84531146819E+01 -0.12303906570E+02  0.50528861279E+02  0.30000004343E+02 0.  0.
         12    1    1    2    0    0 -0.37819628460E+02  0.84531146819E+01  0.12303906570E+02  0.40659138721E+02  0.00000000000E+00 0. -1.
         11    1    3    3    0    0  0.35575536004E+02 -0.13563496701E+02 -0.10309211042E+02  0.39444480441E+02  0.51100000000E-03 0. -1.
        -11    1    3    3    0    0  0.50915209490E+01  0.22628312998E+01  0.14806898031E+01  0.57651048229E+01  0.51100000000E-03 0.  1.
         12    1    3    3    0    0 -0.28474284930E+01  0.28475507191E+01 -0.34753853307E+01  0.53192760144E+01  0.00000000000E+00 0. -1.
</event>
<event>
 7    1  0.5910662E-013  0.5052886E+02  0.7816164E-02  0.1300439E+00
        -11   -1    0    0    0    0  0.00000000000E+00  0.00000000000E+00  0.45593999997E+02  0.45594000000E+02  0.51100000000E-03 0.  1.
         11   -1    0    0    0    0 -0.00000000000E+00 -0.00000000000E+00 -0.45593999997E+02  0.45594000000E+02  0.51100000000E-03 0. -1.
    9900012    2    1    2    0    0  0.11007484097E+02  0.13347400020E+02  0.36794671176E+02  0.50528860556E+02  0.30000002145E+02 0.  0.
         12    1    1    2    0    0 -0.11007484097E+02 -0.13347400020E+02 -0.36794671176E+02  0.40659139444E+02  0.00000000000E+00 0. -1.
         11    1    3    3    0    0  0.11096314761E+02 -0.70700353031E+01  0.97912870024E+01  0.16400698214E+02  0.51100000000E-03 0. -1.
        -11    1    3    3    0    0 -0.75497838047E+00  0.14459363134E+02  0.21907270008E+02  0.26259696382E+02  0.51100000000E-03 0.  1.
         12    1    3    3    0    0  0.66614771610E+00  0.59580721885E+01  0.50961141653E+01  0.78684659603E+01  0.00000000000E+00 0. -1.
</event>
<event>
 7    1  0.5910662E-013  0.5052887E+02  0.7816164E-02  0.1300439E+00
        -11   -1    0    0    0    0  0.00000000000E+00  0.00000000000E+00  0.45593999997E+02  0.45594000000E+02  0.51100000000E-03 0.  1.
         11   -1    0    0    0    0 -0.00000000000E+00 -0.00000000000E+00 -0.45593999997E+02  0.45594000000E+02  0.51100000000E-03 0. -1.
    9900012    2    1    2    0    0 -0.17289866445E+02 -0.35775917146E+02  0.86202964932E+01  0.50528865221E+02  0.30000016326E+02 0.  0.
         12    1    1    2    0    0  0.17289866445E+02  0.35775917146E+02 -0.86202964932E+01  0.40659134779E+02  0.00000000000E+00 0. -1.
         11    1    3    3    0    0 -0.91664544222E+01 -0.17827332263E+02 -0.46908012571E+01  0.20587405835E+02  0.51100000000E-03 0. -1.
        -11    1    3    3    0    0 -0.13361191896E+02 -0.14607664958E+02  0.13074433599E+02  0.23724378571E+02  0.51100000000E-03 0.  1.
        -12    1    3    3    0    0  0.52377798731E+01 -0.33409199251E+01  0.23666415129E+00  0.62170808154E+01  0.00000000000E+00 0.  1.
</event>
<event>
 7    1  0.5910662E-013  0.5052886E+02  0.7816164E-02  0.1300439E+00
        -11   -1    0    0    0    0  0.00000000000E+00  0.00000000000E+00  0.45593999997E+02  0.45594000000E+02  0.51100000000E-03 0. -1.
         11   -1    0    0    0    0 -0.00000000000E+00 -0.00000000000E+00 -0.45593999997E+02  0.45594000000E+02  0.51100000000E-03 0.  1.
    9900012    2    1    2    0    0 -0.78530231978E+01 -0.32529459289E+02  0.23093941324E+02  0.50528858090E+02  0.29999994649E+02 0.  0.
         12    1    1    2    0    0  0.78530231978E+01  0.32529459289E+02 -0.23093941324E+02  0.40659141910E+02  0.00000000000E+00 0. -1.
         11    1    3    3    0    0  0.34865317975E+01  0.20199153157E+01  0.82979416393E+01  0.92245215360E+01  0.51100000000E-03 0. -1.
        -11    1    3    3    0    0 -0.49148629549E+01 -0.28727022510E+02  0.78182988072E+01  0.30174881883E+02  0.51100000000E-03 0.  1.
         12    1    3    3    0    0 -0.64246920404E+01 -0.58223520954E+01  0.69777008778E+01  0.11129454671E+02  0.00000000000E+00 0. -1.
</event>
<event>
 7    1  0.5910662E-013  0.5052886E+02  0.7816164E-02  0.1300439E+00
        -11   -1    0    0    0    0  0.00000000000E+00  0.00000000000E+00  0.45593999997E+02  0.45594000000E+02  0.51100000000E-03 0.  1.
         11   -1    0    0    0    0 -0.00000000000E+00 -0.00000000000E+00 -0.45593999997E+02  0.45594000000E+02  0.51100000000E-03 0. -1.
    9900012    2    1    2    0    0  0.79453896292E+00  0.64590300350E+01  0.40134965671E+02  0.50528857970E+02  0.29999994287E+02 0.  0.
         12    1    1    2    0    0 -0.79453896292E+00 -0.64590300350E+01 -0.40134965671E+02  0.40659142030E+02  0.00000000000E+00 0. -1.
         11    1    3    3    0    0 -0.23310008422E+01 -0.73422543638E+01  0.56711919494E+01  0.95658079877E+01  0.51100000000E-03 0. -1.
        -11    1    3    3    0    0 -0.53214408193E+00  0.59597398716E+01  0.31114808385E+02  0.31684901417E+02  0.51100000000E-03 0.  1.
         12    1    3    3    0    0  0.36576838870E+01  0.78415445272E+01  0.33489653362E+01  0.92781485660E+01  0.00000000000E+00 0. -1.
</event>
<event>
 7    1  0.5910662E-013  0.5052885E+02  0.7816164E-02  0.1300439E+00
        -11   -1    0    0    0    0  0.00000000000E+00  0.00000000000E+00  0.45593999997E+02  0.45594000000E+02  0.51100000000E-03 0.  1.
         11   -1    0    0    0    0 -0.00000000000E+00 -0.00000000000E+00 -0.45593999997E+02  0.45594000000E+02  0.51100000000E-03 0. -1.
    9900012    2    1    2    0    0  0.11324633422E+02 -0.25300630464E+02  0.29745540229E+02  0.50528851121E+02  0.29999973468E+02 0.  0.
         12    1    1    2    0    0 -0.11324633422E+02  0.25300630464E+02 -0.29745540229E+02  0.40659148879E+02  0.00000000000E+00 0. -1.
         11    1    3    3    0    0  0.56039152441E+01 -0.25975457293E+01 -0.16217514967E+01  0.63860150373E+01  0.51100000000E-03 0. -1.
        -11    1    3    3    0    0  0.81132356989E+01 -0.24600738454E+02  0.31846826212E+02  0.41051690172E+02  0.51100000000E-03 0.  1.
        -12    1    3    3    0    0 -0.23925175206E+01  0.18976537193E+01 -0.47953448564E+00  0.30911459117E+01  0.00000000000E+00 0.  1.
</event>
<event>
 7    1  0.5910662E-013  0.5052886E+02  0.7816164E-02  0.1300439E+00
        -11   -1    0    0    0    0  0.00000000000E+00  0.00000000000E+00  0.45593999997E+02  0.45594000000E+02  0.51100000000E-03 0.  1.
         11   -1    0    0    0    0 -0.00000000000E+00 -0.00000000000E+00 -0.45593999997E+02  0.45594000000E+02  0.51100000000E-03 0. -1.
    9900012    2    1    2    0    0 -0.14107595062E+02  0.34888027137E+02 -0.15393730668E+02  0.50528860563E+02  0.30000002166E+02 0.  0.
         12    1    1    2    0    0  0.14107595062E+02 -0.34888027137E+02  0.15393730668E+02  0.40659139437E+02  0.00000000000E+00 0. -1.
         11    1    3    3    0    0 -0.15624047359E+02  0.29148208138E+02 -0.18924018725E+02  0.38103115076E+02  0.51100000000E-03 0. -1.
        -11    1    3    3    0    0  0.12961369107E+01  0.85322143879E+01  0.41202513992E+01  0.95632172989E+01  0.51100000000E-03 0.  1.
         12    1    3    3    0    0  0.22031538667E+00 -0.27923953894E+01 -0.58996334239E+00  0.28625281877E+01  0.00000000000E+00 0. -1.
</event>
<event>
 7    1  0.5910662E-013  0.5052885E+02  0.7816164E-02  0.1300439E+00
        -11   -1    0    0    0    0  0.00000000000E+00  0.00000000000E+00  0.45593999997E+02  0.45594000000E+02  0.51100000000E-03 0. -1.
         11   -1    0    0    0    0 -0.00000000000E+00 -0.00000000000E+00 -0.45593999997E+02  0.45594000000E+02  0.51100000000E-03 0.  1.
    9900012    2    1    2    0    0 -0.39564296492E+02 -0.85819925273E+01 -0.37659143743E+01  0.50528852644E+02  0.29999978098E+02 0.  0.
         12    1    1    2    0    0  0.39564296492E+02  0.85819925273E+01  0.37659143743E+01  0.40659147356E+02  0.00000000000E+00 0. -1.
         11    1    3    3    0    0 -0.16436953133E+02 -0.17973721940E+02 -0.16451102889E+01  0.24411769637E+02  0.51100000000E-03 0. -1.
        -11    1    3    3    0    0 -0.55227655838E+01  0.48773119027E+01 -0.29192902227E+01  0.79253622476E+01  0.51100000000E-03 0.  1.
         12    1    3    3    0    0 -0.17604577775E+02  0.45144175103E+01  0.79848613726E+00  0.18191720760E+02  0.00000000000E+00 0. -1.
</event>
<event>
 7    1  0.5910662E-013  0.5052888E+02  0.7816164E-02  0.1300439E+00
        -11   -1    0    0    0    0  0.00000000000E+00  0.00000000000E+00  0.45593999997E+02  0.45594000000E+02  0.51100000000E-03 0.  1.
         11   -1    0    0    0    0 -0.00000000000E+00 -0.00000000000E+00 -0.45593999997E+02  0.45594000000E+02  0.51100000000E-03 0. -1.
    9900012    2    1    2    0    0 -0.16511318113E+02  0.66331021926E+01  0.36558757478E+02  0.50528875331E+02  0.30000047056E+02 0.  0.
         12    1    1    2    0    0  0.16511318113E+02 -0.66331021926E+01 -0.36558757478E+02  0.40659124669E+02  0.00000000000E+00 0. -1.
         11    1    3    3    0    0  0.50067211777E+01  0.37431907344E+01  0.18466958678E+01  0.65183602014E+01  0.51100000000E-03 0.  1.
        -11    1    3    3    0    0 -0.16981694019E+02 -0.43612063589E+01  0.17402941564E+02  0.24703449719E+02  0.51100000000E-03 0. -1.
        -12    1    3    3    0    0 -0.45363452722E+01  0.72511178171E+01  0.17309120045E+02  0.19307065411E+02  0.00000000000E+00 0.  1.
</event>
<event>
 7    1  0.5910662E-013  0.5052887E+02  0.7816164E-02  0.1300439E+00
        -11   -1    0    0    0    0  0.00000000000E+00  0.00000000000E+00  0.45593999997E+02  0.45594000000E+02  0.51100000000E-03 0.  1.
         11   -1    0    0    0    0 -0.00000000000E+00 -0.00000000000E+00 -0.45593999997E+02  0.45594000000E+02  0.51100000000E-03 0. -1.
    9900012    2    1    2    0    0  0.37969967532E+02  0.67528227949E+01 -0.12878119839E+02  0.50528867931E+02  0.30000024562E+02 0.  0.
         12    1    1    2    0    0 -0.37969967532E+02 -0.67528227949E+01  0.12878119839E+02  0.40659132069E+02  0.00000000000E+00 0. -1.
         11    1    3    3    0    0  0.28335545699E+02 -0.81434390086E+01 -0.48298888835E+01  0.29875518001E+02  0.51100000000E-03 0. -1.
        -11    1    3    3    0    0  0.87690377826E+01  0.78813882323E+01 -0.63186516986E+01  0.13376758339E+02  0.51100000000E-03 0.  1.
         12    1    3    3    0    0  0.86538405003E+00  0.70148735711E+01 -0.17295792567E+01  0.72765915907E+01  0.00000000000E+00 0. -1.
</event>
<event>
 7    1  0.5910662E-013  0.5052896E+02  0.7816164E-02  0.1300438E+00
        -11   -1    0    0    0    0  0.00000000000E+00  0.00000000000E+00  0.45593999997E+02  0.45594000000E+02  0.51100000000E-03 0.  1.
         11   -1    0    0    0    0 -0.00000000000E+00 -0.00000000000E+00 -0.45593999997E+02  0.45594000000E+02  0.51100000000E-03 0. -1.
    9900012    2    1    2    0    0  0.36342782800E+02 -0.14516794333E+02  0.11028270771E+02  0.50528955058E+02  0.30000289394E+02 0.  0.
         12    1    1    2    0    0 -0.36342782800E+02  0.14516794333E+02 -0.11028270771E+02  0.40659044942E+02  0.00000000000E+00 0. -1.
         11    1    3    3    0    0  0.19635544596E+02 -0.60707852485E+01  0.90803667796E+00  0.20572641444E+02  0.51100000000E-03 0. -1.
        -11    1    3    3    0    0  0.98019999388E+01 -0.83834183184E+01  0.16233419528E+02  0.20733663818E+02  0.51100000000E-03 0.  1.
        -12    1    3    3    0    0  0.69052382650E+01 -0.62590766381E-01 -0.61131854348E+01  0.92226497960E+01  0.00000000000E+00 0.  1.
</event>
<event>
 7    1  0.5910662E-013  0.5052886E+02  0.7816164E-02  0.1300439E+00
        -11   -1    0    0    0    0  0.00000000000E+00  0.00000000000E+00  0.45593999997E+02  0.45594000000E+02  0.51100000000E-03 0. -1.
         11   -1    0    0    0    0 -0.00000000000E+00 -0.00000000000E+00 -0.45593999997E+02  0.45594000000E+02  0.51100000000E-03 0.  1.
    9900012    2    1    2    0    0  0.26373880733E+02 -0.10793368110E+02 -0.29001504916E+02  0.50528859976E+02  0.30000000384E+02 0.  0.
         12    1    1    2    0    0 -0.26373880733E+02  0.10793368110E+02  0.29001504916E+02  0.40659140024E+02  0.00000000000E+00 0. -1.
         11    1    3    3    0    0  0.63026866403E+01 -0.10660542680E+02 -0.15128054543E+02  0.19550679365E+02  0.51100000000E-03 0. -1.
        -11    1    3    3    0    0  0.17812416004E+02  0.20486015102E+01 -0.12536988582E+01  0.17973611021E+02  0.51100000000E-03 0.  1.
        -12    1    3    3    0    0  0.22587780893E+01 -0.21814269408E+01 -0.12619751515E+02  0.13004569591E+02  0.00000000000E+00 0.  1.
</event>
<event>
 7    1  0.5910662E-013  0.5052885E+02  0.7816164E-02  0.1300439E+00
        -11   -1    0    0    0    0  0.00000000000E+00  0.00000000000E+00  0.45593999997E+02  0.45594000000E+02  0.51100000000E-03 0.  1.
         11   -1    0    0    0    0 -0.00000000000E+00 -0.00000000000E+00 -0.45593999997E+02  0.45594000000E+02  0.51100000000E-03 0. -1.
    9900012    2    1    2    0    0  0.22851834829E+02  0.94005449472E+00  0.33616613603E+02  0.50528846447E+02  0.29999959259E+02 0.  0.
         12    1    1    2    0    0 -0.22851834829E+02 -0.94005449472E+00 -0.33616613603E+02  0.40659153553E+02  0.00000000000E+00 0. -1.
         11    1    3    3    0    0  0.26133169439E+02  0.18696438893E+01  0.29487440123E+02  0.39445497062E+02  0.51100000000E-03 0. -1.
        -11    1    3    3    0    0  0.14796577185E+01 -0.37383238505E+01  0.38216934815E+01  0.55470526861E+01  0.51100000000E-03 0.  1.
         12    1    3    3    0    0 -0.47609923275E+01  0.28087344559E+01  0.30747999887E+00  0.55362966987E+01  0.00000000000E+00 0. -1.
</event>
<event>
 7    1  0.5910662E-013  0.5052888E+02  0.7816164E-02  0.1300439E+00
        -11   -1    0    0    0    0  0.00000000000E+00  0.00000000000E+00  0.45593999997E+02  0.45594000000E+02  0.51100000000E-03 0. -1.
         11   -1    0    0    0    0 -0.00000000000E+00 -0.00000000000E+00 -0.45593999997E+02  0.45594000000E+02  0.51100000000E-03 0.  1.
    9900012    2    1    2    0    0  0.24358111735E+02 -0.32444626094E+02  0.26819722846E+01  0.50528876239E+02  0.30000049815E+02 0.  0.
         12    1    1    2    0    0 -0.24358111735E+02  0.32444626094E+02 -0.26819722846E+01  0.40659123761E+02  0.00000000000E+00 0. -1.
         11    1    3    3    0    0  0.86273863158E+01 -0.37628937814E+01 -0.11159205229E+01  0.94782088565E+01  0.51100000000E-03 0. -1.
        -11    1    3    3    0    0  0.13163003268E+02 -0.16454634412E+02  0.13678420257E+02  0.25122078530E+02  0.51100000000E-03 0.  1.
        -12    1    3    3    0    0  0.25677221511E+01 -0.12227097901E+02 -0.98805274500E+01  0.15928588852E+02  0.00000000000E+00 0.  1.
</event>
<event>
 7    1  0.5910662E-013  0.5052886E+02  0.7816164E-02  0.1300439E+00
        -11   -1    0    0    0    0  0.00000000000E+00  0.00000000000E+00  0.45593999997E+02  0.45594000000E+02  0.51100000000E-03 0. -1.
         11   -1    0    0    0    0 -0.00000000000E+00 -0.00000000000E+00 -0.45593999997E+02  0.45594000000E+02  0.51100000000E-03 0.  1.
    9900012    2    1    2    0    0  0.12356356758E+02 -0.38721888522E+02 -0.10493460484E+01  0.50528864124E+02  0.30000012991E+02 0.  0.
         12    1    1    2    0    0 -0.12356356758E+02  0.38721888522E+02  0.10493460484E+01  0.40659135876E+02  0.00000000000E+00 0. -1.
         11    1    3    3    0    0  0.12304582716E+02 -0.79395896056E+01 -0.15031582258E+00  0.14644535978E+02  0.51100000000E-03 0. -1.
        -11    1    3    3    0    0 -0.59051815461E+00 -0.31870172943E+02  0.27778631902E+01  0.31996455417E+02  0.51100000000E-03 0.  1.
        -12    1    3    3    0    0  0.64229219640E+00  0.10878740259E+01 -0.36768934161E+01  0.38878727287E+01  0.00000000000E+00 0.  1.
</event>
<event>
 7    1  0.5910662E-013  0.5052886E+02  0.7816164E-02  0.1300439E+00
        -11   -1    0    0    0    0  0.00000000000E+00  0.00000000000E+00  0.45593999997E+02  0.45594000000E+02  0.51100000000E-03 0.  1.
         11   -1    0    0    0    0 -0.00000000000E+00 -0.00000000000E+00 -0.45593999997E+02  0.45594000000E+02  0.51100000000E-03 0. -1.
    9900012    2    1    2    0    0 -0.25847430532E+02  0.34966389890E+01  0.31190536132E+02  0.50528859656E+02  0.29999999410E+02 0.  0.
         12    1    1    2    0    0  0.25847430532E+02 -0.34966389890E+01 -0.31190536132E+02  0.40659140344E+02  0.00000000000E+00 0. -1.
         11    1    3    3    0    0 -0.10936396174E+02 -0.12594314847E+02  0.12426371219E+02  0.20799909366E+02  0.51100000000E-03 0. -1.
        -11    1    3    3    0    0 -0.65014323644E+01  0.22810981793E+01  0.55709287497E+01  0.88604333465E+01  0.51100000000E-03 0.  1.
         12    1    3    3    0    0 -0.84096019937E+01  0.13809855656E+02  0.13193236163E+02  0.20868516943E+02  0.00000000000E+00 0. -1.
</event>
<event>
 7    1  0.5910662E-013  0.5052886E+02  0.7816164E-02  0.1300439E+00
        -11   -1    0    0    0    0  0.00000000000E+00  0.00000000000E+00  0.45593999997E+02  0.45594000000E+02  0.51100000000E-03 0. -1.
         11   -1    0    0    0    0 -0.00000000000E+00 -0.00000000000E+00 -0.45593999997E+02  0.45594000000E+02  0.51100000000E-03 0.  1.
    9900012    2    1    2    0    0 -0.88748074692E+01 -0.37370268656E+02  0.13336656827E+02  0.50528860777E+02  0.30000002816E+02 0.  0.
         12    1    1    2    0    0  0.88748074692E+01  0.37370268656E+02 -0.13336656827E+02  0.40659139223E+02  0.00000000000E+00 0. -1.
         11    1    3    3    0    0 -0.12544011396E+02 -0.32744494104E+02  0.57156548224E+01  0.35527775421E+02  0.51100000000E-03 0. -1.
        -11    1    3    3    0    0  0.45454965123E+01 -0.79943172558E+01  0.67656829485E+01  0.11416878424E+02  0.51100000000E-03 0.  1.
         12    1    3    3    0    0 -0.87629258597E+00  0.33685427036E+01  0.85531905648E+00  0.35842069319E+01  0.00000000000E+00 0. -1.
</event>
<event>
 7    1  0.5910662E-013  0.5052886E+02  0.7816164E-02  0.1300439E+00
        -11   -1    0    0    0    0  0.00000000000E+00  0.00000000000E+00  0.45593999997E+02  0.45594000000E+02  0.51100000000E-03 0.  1.
         11   -1    0    0    0    0 -0.00000000000E+00 -0.00000000000E+00 -0.45593999997E+02  0.45594000000E+02  0.51100000000E-03 0. -1.
    9900012    2    1    2    0    0  0.32817337512E+02  0.14890880141E+01  0.23957685822E+02  0.50528859153E+02  0.29999997881E+02 0.  0.
         12    1    1    2    0    0 -0.32817337512E+02 -0.14890880141E+01 -0.23957685822E+02  0.40659140847E+02  0.00000000000E+00 0. -1.
         11    1    3    3    0    0 -0.32343082134E+01  0.57878027636E+01  0.42162950064E+01  0.78572612462E+01  0.51100000000E-03 0. -1.
        -11    1    3    3    0    0  0.76219567242E+01  0.11615560704E+00  0.93923163698E+01  0.12096417795E+02  0.51100000000E-03 0.  1.
         12    1    3    3    0    0  0.28429689001E+02 -0.44148703565E+01  0.10349074446E+02  0.30575180111E+02  0.00000000000E+00 0. -1.
</event>
<event>
 7    1  0.5910662E-013  0.5052886E+02  0.7816164E-02  0.1300439E+00
        -11   -1    0    0    0    0  0.00000000000E+00  0.00000000000E+00  0.45593999997E+02  0.45594000000E+02  0.51100000000E-03 0.  1.
         11   -1    0    0    0    0 -0.00000000000E+00 -0.00000000000E+00 -0.45593999997E+02  0.45594000000E+02  0.51100000000E-03 0. -1.
    9900012    2    1    2    0    0  0.69700595267E+01 -0.27778007867E+02  0.28861155267E+02  0.50528859156E+02  0.29999997889E+02 0.  0.
         12    1    1    2    0    0 -0.69700595267E+01  0.27778007867E+02 -0.28861155267E+02  0.40659140844E+02  0.00000000000E+00 0. -1.
         11    1    3    3    0    0  0.11381023416E+02 -0.12398670442E+02  0.32796440474E+01  0.17146742784E+02  0.51100000000E-03 0. -1.
        -11    1    3    3    0    0 -0.43721819748E+01  0.14524672571E+01  0.51394837326E+01  0.69021684746E+01  0.51100000000E-03 0.  1.
         12    1    3    3    0    0 -0.38781914957E-01 -0.16831804682E+02  0.20442027487E+02  0.26479947897E+02  0.00000000000E+00 0. -1.
</event>
<event>
 7    1  0.5910662E-013  0.5052887E+02  0.7816164E-02  0.1300439E+00
        -11   -1    0    0    0    0  0.00000000000E+00  0.00000000000E+00  0.45593999997E+02  0.45594000000E+02  0.51100000000E-03 0.  1.
         11   -1    0    0    0    0 -0.00000000000E+00 -0.00000000000E+00 -0.45593999997E+02  0.45594000000E+02  0.51100000000E-03 0. -1.
    9900012    2    1    2    0    0  0.27614023557E+02  0.23265282268E+02  0.18691099599E+02  0.50528869903E+02  0.30000030559E+02 0.  0.
         12    1    1    2    0    0 -0.27614023557E+02 -0.23265282268E+02 -0.18691099599E+02  0.40659130097E+02  0.00000000000E+00 0. -1.
         11    1    3    3    0    0  0.54844954497E+01  0.10743042387E+02  0.21148179962E+02  0.24346214614E+02  0.51100000000E-03 0. -1.
        -11    1    3    3    0    0  0.20696315121E+02  0.10906759404E+02 -0.37088414529E+01  0.23686501757E+02  0.51100000000E-03 0.  1.
        -12    1    3    3    0    0  0.14332129860E+01  0.16154804768E+01  0.12517610900E+01  0.24961535331E+01  0.00000000000E+00 0.  1.
</event>
<event>
 7    1  0.5910662E-013  0.5052885E+02  0.7816164E-02  0.1300439E+00
        -11   -1    0    0    0    0  0.00000000000E+00  0.00000000000E+00  0.45593999997E+02  0.45594000000E+02  0.51100000000E-03 0.  1.
         11   -1    0    0    0    0 -0.00000000000E+00 -0.00000000000E+00 -0.45593999997E+02  0.45594000000E+02  0.51100000000E-03 0. -1.
    9900012    2    1    2    0    0  0.44361286394E+00  0.10711313467E+02  0.39220367662E+02  0.50528852590E+02  0.29999977934E+02 0.  0.
         12    1    1    2    0    0 -0.44361286394E+00 -0.10711313467E+02 -0.39220367662E+02  0.40659147410E+02  0.00000000000E+00 0. -1.
         11    1    3    3    0    0  0.12700972192E+02  0.63388696452E+01  0.25043836395E+02  0.28786971092E+02  0.51100000000E-03 0. -1.
        -11    1    3    3    0    0 -0.91113814099E+01  0.66082706177E+01  0.13881211305E+02  0.17871053111E+02  0.51100000000E-03 0.  1.
         12    1    3    3    0    0 -0.31459779183E+01 -0.22358267957E+01  0.29531996152E+00  0.38708283871E+01  0.00000000000E+00 0. -1.
</event>
<event>
 7    1  0.5910662E-013  0.5052886E+02  0.7816164E-02  0.1300439E+00
        -11   -1    0    0    0    0  0.00000000000E+00  0.00000000000E+00  0.45593999997E+02  0.45594000000E+02  0.51100000000E-03 0.  1.
         11   -1    0    0    0    0 -0.00000000000E+00 -0.00000000000E+00 -0.45593999997E+02  0.45594000000E+02  0.51100000000E-03 0. -1.
    9900012    2    1    2    0    0  0.85035070008E+00 -0.37188003586E+02  0.16416290640E+02  0.50528864429E+02  0.30000013918E+02 0.  0.
         12    1    1    2    0    0 -0.85035070008E+00  0.37188003586E+02 -0.16416290640E+02  0.40659135571E+02  0.00000000000E+00 0. -1.
         11    1    3    3    0    0  0.22454974275E+01 -0.26086469063E+02  0.11927796758E+01  0.26210090623E+02  0.51100000000E-03 0. -1.
        -11    1    3    3    0    0 -0.79953421327E+01 -0.49775234424E+01  0.48863104935E+01  0.10610243444E+02  0.51100000000E-03 0.  1.
         12    1    3    3    0    0  0.66001954053E+01 -0.61240110806E+01  0.10337200470E+02  0.13708530361E+02  0.00000000000E+00 0. -1.
</event>
<event>
 7    1  0.5910662E-013  0.5052884E+02  0.7816164E-02  0.1300439E+00
        -11   -1    0    0    0    0  0.00000000000E+00  0.00000000000E+00  0.45593999997E+02  0.45594000000E+02  0.51100000000E-03 0.  1.
         11   -1    0    0    0    0 -0.00000000000E+00 -0.00000000000E+00 -0.45593999997E+02  0.45594000000E+02  0.51100000000E-03 0. -1.
    9900012    2    1    2    0    0 -0.45232398395E+01  0.72959447413E+00  0.40400185430E+02  0.50528843718E+02  0.29999950966E+02 0.  0.
         12    1    1    2    0    0  0.45232398395E+01 -0.72959447413E+00 -0.40400185430E+02  0.40659156282E+02  0.00000000000E+00 0. -1.
         11    1    3    3    0    0 -0.12793690140E+02 -0.25541179962E+01  0.24741773681E+02  0.27970652321E+02  0.51100000000E-03 0. -1.
        -11    1    3    3    0    0  0.82974561347E+01  0.53003255017E+01  0.17334692488E+02  0.19935716507E+02  0.51100000000E-03 0.  1.
         12    1    3    3    0    0 -0.27005833964E-01 -0.20166130314E+01 -0.16762807387E+01  0.26224748899E+01  0.00000000000E+00 0. -1.
</event>
<event>
 7    1  0.5910662E-013  0.5052886E+02  0.7816164E-02  0.1300439E+00
        -11   -1    0    0    0    0  0.00000000000E+00  0.00000000000E+00  0.45593999997E+02  0.45594000000E+02  0.51100000000E-03 0. -1.
         11   -1    0    0    0    0 -0.00000000000E+00 -0.00000000000E+00 -0.45593999997E+02  0.45594000000E+02  0.51100000000E-03 0.  1.
    9900012    2    1    2    0    0  0.26222158948E+02  0.30345369471E+02 -0.66874965820E+01  0.50528859837E+02  0.29999999961E+02 0.  0.
         12    1    1    2    0    0 -0.26222158948E+02 -0.30345369471E+02  0.66874965820E+01  0.40659140163E+02  0.00000000000E+00 0. -1.
         11    1    3    3    0    0 -0.28150734043E+01 -0.19759738391E+01  0.56092520358E+00  0.34847881183E+01  0.51100000000E-03 0. -1.
        -11    1    3    3    0    0  0.14840345155E+02  0.16815317881E+02  0.46249938470E+01  0.22899373968E+02  0.51100000000E-03 0.  1.
         12    1    3    3    0    0  0.14196887198E+02  0.15506025429E+02 -0.11873415633E+02  0.24144697751E+02  0.00000000000E+00 0. -1.
</event>
<event>
 7    1  0.5910662E-013  0.5052883E+02  0.7816164E-02  0.1300439E+00
        -11   -1    0    0    0    0  0.00000000000E+00  0.00000000000E+00  0.45593999997E+02  0.45594000000E+02  0.51100000000E-03 0.  1.
         11   -1    0    0    0    0 -0.00000000000E+00 -0.00000000000E+00 -0.45593999997E+02  0.45594000000E+02  0.51100000000E-03 0. -1.
    9900012    2    1    2    0    0 -0.36053888876E+02 -0.15966239405E+02  0.99178819495E+01  0.50528830232E+02  0.29999909974E+02 0.  0.
         12    1    1    2    0    0  0.36053888876E+02  0.15966239405E+02 -0.99178819495E+01  0.40659169768E+02  0.00000000000E+00 0. -1.
         11    1    3    3    0    0 -0.30703393807E+02  0.48755091120E+00  0.14980263585E+01  0.30743782792E+02  0.51100000000E-03 0. -1.
        -11    1    3    3    0    0 -0.10577347251E+01 -0.99520935777E+01  0.36672975384E+01  0.10658894916E+02  0.51100000000E-03 0.  1.
         12    1    3    3    0    0 -0.42927603443E+01 -0.65016967386E+01  0.47525580526E+01  0.91261525244E+01  0.00000000000E+00 0. -1.
</event>
<event>
 7    1  0.5910662E-013  0.5052888E+02  0.7816164E-02  0.1300439E+00
        -11   -1    0    0    0    0  0.00000000000E+00  0.00000000000E+00  0.45593999997E+02  0.45594000000E+02  0.51100000000E-03 0.  1.
         11   -1    0    0    0    0 -0.00000000000E+00 -0.00000000000E+00 -0.45593999997E+02  0.45594000000E+02  0.51100000000E-03 0. -1.
    9900012    2    1    2    0    0 -0.17351267359E+02 -0.55892128823E+01  0.36343614729E+02  0.50528879114E+02  0.30000058555E+02 0.  0.
         12    1    1    2    0    0  0.17351267359E+02  0.55892128823E+01 -0.36343614729E+02  0.40659120886E+02  0.00000000000E+00 0. -1.
         11    1    3    3    0    0 -0.75805424220E+01 -0.80587572158E+01  0.16546971492E+02  0.19905035974E+02  0.51100000000E-03 0. -1.
        -11    1    3    3    0    0 -0.64984214478E+01  0.11799073677E+02  0.11025960418E+02  0.17407453127E+02  0.51100000000E-03 0.  1.
        -12    1    3    3    0    0 -0.32723034896E+01 -0.93295293435E+01  0.87706828186E+01  0.13216390014E+02  0.00000000000E+00 0.  1.
</event>
<event>
 7    1  0.5910662E-013  0.5052886E+02  0.7816164E-02  0.1300439E+00
        -11   -1    0    0    0    0  0.00000000000E+00  0.00000000000E+00  0.45593999997E+02  0.45594000000E+02  0.51100000000E-03 0.  1.
         11   -1    0    0    0    0 -0.00000000000E+00 -0.00000000000E+00 -0.45593999997E+02  0.45594000000E+02  0.51100000000E-03 0. -1.
    9900012    2    1    2    0    0  0.35893549849E+01 -0.39111652432E+02  0.10514806705E+02  0.50528856069E+02  0.29999988507E+02 0.  0.
         12    1    1    2    0    0 -0.35893549849E+01  0.39111652432E+02 -0.10514806705E+02  0.40659143931E+02  0.00000000000E+00 0. -1.
         11    1    3    3    0    0  0.63826873504E+01 -0.10212367875E+02  0.73313772217E+01  0.14098944912E+02  0.51100000000E-03 0. -1.
        -11    1    3    3    0    0 -0.17018567050E+01  0.37742655082E-01 -0.58526781767E+01  0.60952098285E+01  0.51100000000E-03 0.  1.
        -12    1    3    3    0    0 -0.10914756605E+01 -0.28937027212E+02  0.90361076600E+01  0.30334701328E+02  0.00000000000E+00 0.  1.
</event>
<event>
 7    1  0.5910662E-013  0.5052886E+02  0.7816164E-02  0.1300439E+00
        -11   -1    0    0    0    0  0.00000000000E+00  0.00000000000E+00  0.45593999997E+02  0.45594000000E+02  0.51100000000E-03 0.  1.
         11   -1    0    0    0    0 -0.00000000000E+00 -0.00000000000E+00 -0.45593999997E+02  0.45594000000E+02  0.51100000000E-03 0. -1.
    9900012    2    1    2    0    0 -0.39602908190E+01  0.40406484363E+02  0.21903913391E+01  0.50528859623E+02  0.29999999311E+02 0.  0.
         12    1    1    2    0    0  0.39602908190E+01 -0.40406484363E+02 -0.21903913391E+01  0.40659140377E+02  0.00000000000E+00 0. -1.
         11    1    3    3    0    0 -0.23224502772E+01  0.18542355161E+00 -0.71740902662E+01  0.75429257316E+01  0.51100000000E-03 0. -1.
        -11    1    3    3    0    0  0.35785980699E+01  0.31471185683E+02  0.58486467976E+01  0.32209448335E+02  0.51100000000E-03 0.  1.
         12    1    3    3    0    0 -0.52164386117E+01  0.87498751284E+01  0.35158348078E+01  0.10776485556E+02  0.00000000000E+00 0. -1.
</event>
<event>
 7    1  0.5910662E-013  0.5052886E+02  0.7816164E-02  0.1300439E+00
        -11   -1    0    0    0    0  0.00000000000E+00  0.00000000000E+00  0.45593999997E+02  0.45594000000E+02  0.51100000000E-03 0.  1.
         11   -1    0    0    0    0 -0.00000000000E+00 -0.00000000000E+00 -0.45593999997E+02  0.45594000000E+02  0.51100000000E-03 0. -1.
    9900012    2    1    2    0    0 -0.13272400920E+02 -0.16594180131E+02  0.34664711897E+02  0.50528859683E+02  0.29999999493E+02 0.  0.
         12    1    1    2    0    0  0.13272400920E+02  0.16594180131E+02 -0.34664711897E+02  0.40659140317E+02  0.00000000000E+00 0. -1.
         11    1    3    3    0    0 -0.51569664408E+00 -0.10506528128E+02  0.58005962983E+01  0.12012493247E+02  0.51100000000E-03 0. -1.
        -11    1    3    3    0    0 -0.16938743664E+02 -0.30435249210E+01  0.12273770308E+02  0.21138342383E+02  0.51100000000E-03 0.  1.
        -12    1    3    3    0    0  0.41820393880E+01 -0.30441270821E+01  0.16590345291E+02  0.17378024053E+02  0.00000000000E+00 0.  1.
</event>
<event>
 7    1  0.5910662E-013  0.5052887E+02  0.7816164E-02  0.1300439E+00
        -11   -1    0    0    0    0  0.00000000000E+00  0.00000000000E+00  0.45593999997E+02  0.45594000000E+02  0.51100000000E-03 0.  1.
         11   -1    0    0    0    0 -0.00000000000E+00 -0.00000000000E+00 -0.45593999997E+02  0.45594000000E+02  0.51100000000E-03 0. -1.
    9900012    2    1    2    0    0  0.18340143793E+01 -0.37379552533E+02  0.15892472645E+02  0.50528865195E+02  0.30000016246E+02 0.  0.
         12    1    1    2    0    0 -0.18340143793E+01  0.37379552533E+02 -0.15892472645E+02  0.40659134805E+02  0.00000000000E+00 0. -1.
         11    1    3    3    0    0 -0.66746989062E+01 -0.11109807928E+01  0.33796886683E+01  0.75636088983E+01  0.51100000000E-03 0. -1.
        -11    1    3    3    0    0  0.11510686675E+02 -0.29299611138E+02  0.42803806017E+01  0.31769242656E+02  0.51100000000E-03 0.  1.
         12    1    3    3    0    0 -0.30019733890E+01 -0.69689606024E+01  0.82324033752E+01  0.11196013641E+02  0.00000000000E+00 0. -1.
</event>
<event>
 7    1  0.5910662E-013  0.5052889E+02  0.7816164E-02  0.1300439E+00
        -11   -1    0    0    0    0  0.00000000000E+00  0.00000000000E+00  0.45593999997E+02  0.45594000000E+02  0.51100000000E-03 0.  1.
         11   -1    0    0    0    0 -0.00000000000E+00 -0.00000000000E+00 -0.45593999997E+02  0.45594000000E+02  0.51100000000E-03 0. -1.
    9900012    2    1    2    0    0 -0.19713043385E+02 -0.64420638434E+01  0.34972260358E+02  0.50528889574E+02  0.30000090349E+02 0.  0.
         12    1    1    2    0    0  0.19713043385E+02  0.64420638434E+01 -0.34972260358E+02  0.40659110426E+02  0.00000000000E+00 0. -1.
         11    1    3    3    0    0 -0.71890755753E+01  0.87755838051E+01  0.10500108639E+02  0.15457876971E+02  0.51100000000E-03 0.  1.
        -11    1    3    3    0    0 -0.70976021570E+01 -0.81768889030E+01  0.21431886010E+01  0.11037695690E+02  0.51100000000E-03 0. -1.
         12    1    3    3    0    0 -0.54263656529E+01 -0.70407587455E+01  0.22328963118E+02  0.24033316913E+02  0.00000000000E+00 0. -1.
</event>
<event>
 7    1  0.5910662E-013  0.5052886E+02  0.7816164E-02  0.1300439E+00
        -11   -1    0    0    0    0  0.00000000000E+00  0.00000000000E+00  0.45593999997E+02  0.45594000000E+02  0.51100000000E-03 0.  1.
         11   -1    0    0    0    0 -0.00000000000E+00 -0.00000000000E+00 -0.45593999997E+02  0.45594000000E+02  0.51100000000E-03 0. -1.
    9900012    2    1    2    0    0 -0.40106211765E+02 -0.66593764529E+01 -0.55709720342E+00  0.50528857435E+02  0.29999992658E+02 0.  0.
         12    1    1    2    0    0  0.40106211765E+02  0.66593764529E+01  0.55709720342E+00  0.40659142565E+02  0.00000000000E+00 0. -1.
         11    1    3    3    0    0 -0.13757258956E+02  0.91573963923E+01  0.68323917805E+00  0.16540462470E+02  0.51100000000E-03 0.  1.
        -11    1    3    3    0    0 -0.21134475768E+02 -0.16494104300E+02 -0.53216617293E+01  0.27332062243E+02  0.51100000000E-03 0. -1.
         12    1    3    3    0    0 -0.52144770407E+01  0.67733145467E+00  0.40813253479E+01  0.66563327217E+01  0.00000000000E+00 0. -1.
</event>
<event>
 7    1  0.5910662E-013  0.5052886E+02  0.7816164E-02  0.1300439E+00
        -11   -1    0    0    0    0  0.00000000000E+00  0.00000000000E+00  0.45593999997E+02  0.45594000000E+02  0.51100000000E-03 0.  1.
         11   -1    0    0    0    0 -0.00000000000E+00 -0.00000000000E+00 -0.45593999997E+02  0.45594000000E+02  0.51100000000E-03 0. -1.
    9900012    2    1    2    0    0 -0.41319667282E+01  0.14601583770E+02  0.37721167293E+02  0.50528857613E+02  0.29999993202E+02 0.  0.
         12    1    1    2    0    0  0.41319667282E+01 -0.14601583770E+02 -0.37721167293E+02  0.40659142387E+02  0.00000000000E+00 0. -1.
         11    1    3    3    0    0 -0.57230933790E+01 -0.47993986512E+01  0.12631724796E+02  0.14674757130E+02  0.51100000000E-03 0. -1.
        -11    1    3    3    0    0  0.65618707793E+01  0.64834651552E+01  0.18175524385E+02  0.20382422709E+02  0.51100000000E-03 0.  1.
        -12    1    3    3    0    0 -0.49707441284E+01  0.12917517266E+02  0.69139181124E+01  0.15471677775E+02  0.00000000000E+00 0.  1.
</event>
<event>
 7    1  0.5910662E-013  0.5052887E+02  0.7816164E-02  0.1300439E+00
        -11   -1    0    0    0    0  0.00000000000E+00  0.00000000000E+00  0.45593999997E+02  0.45594000000E+02  0.51100000000E-03 0.  1.
         11   -1    0    0    0    0 -0.00000000000E+00 -0.00000000000E+00 -0.45593999997E+02  0.45594000000E+02  0.51100000000E-03 0. -1.
    9900012    2    1    2    0    0  0.11520577877E+02 -0.38899349090E+02  0.26984995463E+01  0.50528868503E+02  0.30000026303E+02 0.  0.
         12    1    1    2    0    0 -0.11520577877E+02  0.38899349090E+02 -0.26984995463E+01  0.40659131497E+02  0.00000000000E+00 0. -1.
         11    1    3    3    0    0 -0.34912921404E+01  0.49261252286E+00  0.31042488444E+01  0.46976748564E+01  0.51100000000E-03 0. -1.
        -11    1    3    3    0    0  0.14068620753E+02 -0.26422613636E+02  0.71705906623E+01  0.30781455001E+02  0.51100000000E-03 0.  1.
        -12    1    3    3    0    0  0.94324926463E+00 -0.12969347977E+02 -0.75763399603E+01  0.15049738646E+02  0.00000000000E+00 0.  1.
</event>
<event>
 7    1  0.5910662E-013  0.5052887E+02  0.7816164E-02  0.1300439E+00
        -11   -1    0    0    0    0  0.00000000000E+00  0.00000000000E+00  0.45593999997E+02  0.45594000000E+02  0.51100000000E-03 0.  1.
         11   -1    0    0    0    0 -0.00000000000E+00 -0.00000000000E+00 -0.45593999997E+02  0.45594000000E+02  0.51100000000E-03 0. -1.
    9900012    2    1    2    0    0  0.38213743144E+02 -0.25740858074E+01  0.13647305981E+02  0.50528867651E+02  0.30000023712E+02 0.  0.
         12    1    1    2    0    0 -0.38213743144E+02  0.25740858074E+01 -0.13647305981E+02  0.40659132349E+02  0.00000000000E+00 0. -1.
         11    1    3    3    0    0  0.41382828579E+02 -0.18678630296E-01  0.16602942941E+02  0.44589197847E+02  0.51100000000E-03 0. -1.
        -11    1    3    3    0    0 -0.17093618589E+01 -0.24177171091E+01 -0.39257693600E+00  0.29868697487E+01  0.51100000000E-03 0.  1.
         12    1    3    3    0    0 -0.14597235758E+01 -0.13769006797E+00 -0.25630600247E+01  0.29528000547E+01  0.00000000000E+00 0. -1.
</event>
<event>
 7    1  0.5910662E-013  0.5052884E+02  0.7816164E-02  0.1300439E+00
        -11   -1    0    0    0    0  0.00000000000E+00  0.00000000000E+00  0.45593999997E+02  0.45594000000E+02  0.51100000000E-03 0.  1.
         11   -1    0    0    0    0 -0.00000000000E+00 -0.00000000000E+00 -0.45593999997E+02  0.45594000000E+02  0.51100000000E-03 0. -1.
    9900012    2    1    2    0    0  0.30076979000E+02 -0.22518398687E+02  0.15539114396E+02  0.50528843326E+02  0.29999949775E+02 0.  0.
         12    1    1    2    0    0 -0.30076979000E+02  0.22518398687E+02 -0.15539114396E+02  0.40659156674E+02  0.00000000000E+00 0. -1.
         11    1    3    3    0    0  0.13651635447E+02  0.27977018783E+00 -0.26488430956E+01  0.13909054308E+02  0.51100000000E-03 0. -1.
        -11    1    3    3    0    0  0.15659977500E+02 -0.22989443857E+02  0.11853922075E+02  0.30236813539E+02  0.51100000000E-03 0.  1.
         12    1    3    3    0    0  0.76536605239E+00  0.19127498193E+00  0.63340354165E+01  0.63829754794E+01  0.00000000000E+00 0. -1.
</event>
<event>
 7    1  0.5910662E-013  0.5052885E+02  0.7816164E-02  0.1300439E+00
        -11   -1    0    0    0    0  0.00000000000E+00  0.00000000000E+00  0.45593999997E+02  0.45594000000E+02  0.51100000000E-03 0.  1.
         11   -1    0    0    0    0 -0.00000000000E+00 -0.00000000000E+00 -0.45593999997E+02  0.45594000000E+02  0.51100000000E-03 0. -1.
    9900012    2    1    2    0    0  0.69381811454E+01 -0.99549059432E+01  0.38806284115E+02  0.50528853468E+02  0.29999980601E+02 0.  0.
         12    1    1    2    0    0 -0.69381811454E+01  0.99549059432E+01 -0.38806284115E+02  0.40659146532E+02  0.00000000000E+00 0. -1.
         11    1    3    3    0    0 -0.18043984615E+01 -0.16352739412E+01 -0.36413761856E+01  0.43805930485E+01  0.51100000000E-03 0. -1.
        -11    1    3    3    0    0  0.90397910449E+01 -0.22868088303E+01  0.36496698535E+02  0.37669036635E+02  0.51100000000E-03 0.  1.
        -12    1    3    3    0    0 -0.29721143804E+00 -0.60328231717E+01  0.59509617652E+01  0.84792237847E+01  0.00000000000E+00 0.  1.
</event>
<event>
 7    1  0.5910662E-013  0.5052887E+02  0.7816164E-02  0.1300439E+00
        -11   -1    0    0    0    0  0.00000000000E+00  0.00000000000E+00  0.45593999997E+02  0.45594000000E+02  0.51100000000E-03 0.  1.
         11   -1    0    0    0    0 -0.00000000000E+00 -0.00000000000E+00 -0.45593999997E+02  0.45594000000E+02  0.51100000000E-03 0. -1.
    9900012    2    1    2    0    0 -0.18545336263E+02  0.47963713329E+01  0.35864051978E+02  0.50528869422E+02  0.30000029095E+02 0.  0.
         12    1    1    2    0    0  0.18545336263E+02 -0.47963713329E+01 -0.35864051978E+02  0.40659130578E+02  0.00000000000E+00 0. -1.
         11    1    3    3    0    0 -0.50659536309E+01 -0.36880098757E+01  0.71906348062E+01  0.95378473573E+01  0.51100000000E-03 0. -1.
        -11    1    3    3    0    0  0.36041792539E+01  0.11394262896E+02  0.12305721582E+02  0.17153720265E+02  0.51100000000E-03 0.  1.
        -12    1    3    3    0    0 -0.17083561886E+02 -0.29098816874E+01  0.16367695590E+02  0.23837301799E+02  0.00000000000E+00 0.  1.
</event>
<event>
 7    1  0.5910662E-013  0.5052886E+02  0.7816164E-02  0.1300439E+00
        -11   -1    0    0    0    0  0.00000000000E+00  0.00000000000E+00  0.45593999997E+02  0.45594000000E+02  0.51100000000E-03 0. -1.
         11   -1    0    0    0    0 -0.00000000000E+00 -0.00000000000E+00 -0.45593999997E+02  0.45594000000E+02  0.51100000000E-03 0.  1.
    9900012    2    1    2    0    0  0.24145017676E+02  0.14557136585E+02 -0.29296310267E+02  0.50528857124E+02  0.29999991715E+02 0.  0.
         12    1    1    2    0    0 -0.24145017676E+02 -0.14557136585E+02  0.29296310267E+02  0.40659142876E+02  0.00000000000E+00 0. -1.
         11    1    3    3    0    0 -0.57016894242E+01  0.45028196924E+01 -0.89478355870E+01  0.11525988436E+02  0.51100000000E-03 0. -1.
        -11    1    3    3    0    0  0.21245344954E+02  0.77415777268E+01 -0.84482197887E+01  0.24138540258E+02  0.51100000000E-03 0.  1.
         12    1    3    3    0    0  0.86013621460E+01  0.23127391659E+01 -0.11900254891E+02  0.14864328431E+02  0.00000000000E+00 0. -1.
</event>
<event>
 7    1  0.5910662E-013  0.5052887E+02  0.7816164E-02  0.1300439E+00
        -11   -1    0    0    0    0  0.00000000000E+00  0.00000000000E+00  0.45593999997E+02  0.45594000000E+02  0.51100000000E-03 0.  1.
         11   -1    0    0    0    0 -0.00000000000E+00 -0.00000000000E+00 -0.45593999997E+02  0.45594000000E+02  0.51100000000E-03 0. -1.
    9900012    2    1    2    0    0 -0.29148694595E+02 -0.56985663562E+00  0.28340677488E+02  0.50528866540E+02  0.30000020335E+02 0.  0.
         12    1    1    2    0    0  0.29148694595E+02  0.56985663562E+00 -0.28340677488E+02  0.40659133460E+02  0.00000000000E+00 0. -1.
         11    1    3    3    0    0  0.47654873626E+00 -0.71431269969E+00 -0.24193815822E+01  0.25672453783E+01  0.51100000000E-03 0. -1.
        -11    1    3    3    0    0 -0.13841097778E+02 -0.81648453728E+01  0.24005666176E+02  0.28887933406E+02  0.51100000000E-03 0.  1.
        -12    1    3    3    0    0 -0.15784145553E+02  0.83093014369E+01  0.67543928947E+01  0.19073687755E+02  0.00000000000E+00 0.  1.
</event>
<event>
 7    1  0.5910662E-013  0.5052886E+02  0.7816164E-02  0.1300439E+00
        -11   -1    0    0    0    0  0.00000000000E+00  0.00000000000E+00  0.45593999997E+02  0.45594000000E+02  0.51100000000E-03 0. -1.
         11   -1    0    0    0    0 -0.00000000000E+00 -0.00000000000E+00 -0.45593999997E+02  0.45594000000E+02  0.51100000000E-03 0.  1.
    9900012    2    1    2    0    0 -0.16844250126E+02 -0.54602678098E+01 -0.36600855343E+02  0.50528857133E+02  0.29999991741E+02 0.  0.
         12    1    1    2    0    0  0.16844250126E+02  0.54602678098E+01  0.36600855343E+02  0.40659142867E+02  0.00000000000E+00 0. -1.
         11    1    3    3    0    0 -0.15214870545E+02 -0.74527758355E+01 -0.64034511775E+01  0.18111883960E+02  0.51100000000E-03 0. -1.
        -11    1    3    3    0    0  0.25863205873E+01 -0.16180151703E+01 -0.23595164804E+02  0.23791570558E+02  0.51100000000E-03 0.  1.
         12    1    3    3    0    0 -0.42157001681E+01  0.36105231960E+01 -0.66022393620E+01  0.86254026138E+01  0.00000000000E+00 0. -1.
</event>
<event>
 7    1  0.5910662E-013  0.5052887E+02  0.7816164E-02  0.1300439E+00
        -11   -1    0    0    0    0  0.00000000000E+00  0.00000000000E+00  0.45593999997E+02  0.45594000000E+02  0.51100000000E-03 0.  1.
         11   -1    0    0    0    0 -0.00000000000E+00 -0.00000000000E+00 -0.45593999997E+02  0.45594000000E+02  0.51100000000E-03 0. -1.
    9900012    2    1    2    0    0 -0.29107150076E+02  0.26466058171E+02  0.10270674882E+02  0.50528865932E+02  0.30000018487E+02 0.  0.
         12    1    1    2    0    0  0.29107150076E+02 -0.26466058171E+02 -0.10270674882E+02  0.40659134068E+02  0.00000000000E+00 0. -1.
         11    1    3    3    0    0 -0.11338569068E+01  0.71107149443E+00 -0.65976009835E+01  0.67319828546E+01  0.51100000000E-03 0. -1.
        -11    1    3    3    0    0 -0.23170815413E+02  0.13752194331E+02  0.79558096356E+01  0.28094562517E+02  0.51100000000E-03 0.  1.
         12    1    3    3    0    0 -0.48024777563E+01  0.12002792345E+02  0.89124662304E+01  0.15702320560E+02  0.00000000000E+00 0. -1.
</event>
<event>
 7    1  0.5910662E-013  0.5052886E+02  0.7816164E-02  0.1300439E+00
        -11   -1    0    0    0    0  0.00000000000E+00  0.00000000000E+00  0.45593999997E+02  0.45594000000E+02  0.51100000000E-03 0.  1.
         11   -1    0    0    0    0 -0.00000000000E+00 -0.00000000000E+00 -0.45593999997E+02  0.45594000000E+02  0.51100000000E-03 0. -1.
    9900012    2    1    2    0    0  0.27634858175E+02 -0.11807531224E+02  0.27387272447E+02  0.50528857460E+02  0.29999992737E+02 0.  0.
         12    1    1    2    0    0 -0.27634858175E+02  0.11807531224E+02 -0.27387272447E+02  0.40659142540E+02  0.00000000000E+00 0. -1.
         11    1    3    3    0    0  0.28396786577E+02 -0.15528693841E+02  0.20716138259E+02  0.38427544872E+02  0.51100000000E-03 0. -1.
        -11    1    3    3    0    0  0.32292956328E+01  0.32004715043E+01  0.66749305829E+01  0.80762656396E+01  0.51100000000E-03 0.  1.
         12    1    3    3    0    0 -0.39912240341E+01  0.52069111273E+00 -0.37963949003E-02  0.40250469485E+01  0.00000000000E+00 0. -1.
</event>
<event>
 7    1  0.5910662E-013  0.5052886E+02  0.7816164E-02  0.1300439E+00
        -11   -1    0    0    0    0  0.00000000000E+00  0.00000000000E+00  0.45593999997E+02  0.45594000000E+02  0.51100000000E-03 0. -1.
         11   -1    0    0    0    0 -0.00000000000E+00 -0.00000000000E+00 -0.45593999997E+02  0.45594000000E+02  0.51100000000E-03 0.  1.
    9900012    2    1    2    0    0  0.28284001466E+02  0.15157347217E+02 -0.24968695328E+02  0.50528860068E+02  0.30000000663E+02 0.  0.
         12    1    1    2    0    0 -0.28284001466E+02 -0.15157347217E+02  0.24968695328E+02  0.40659139932E+02  0.00000000000E+00 0. -1.
         11    1    3    3    0    0 -0.22646151058E+01  0.55399666515E+01 -0.13859159079E+02  0.15096224783E+02  0.51100000000E-03 0. -1.
        -11    1    3    3    0    0  0.19724417012E+01  0.38035418832E+01 -0.27700835758E+01  0.51020408073E+01  0.51100000000E-03 0.  1.
         12    1    3    3    0    0  0.28576174871E+02  0.58138386827E+01 -0.83394526740E+01  0.30330594478E+02  0.00000000000E+00 0. -1.
</event>
<event>
 7    1  0.5910662E-013  0.5052886E+02  0.7816164E-02  0.1300439E+00
        -11   -1    0    0    0    0  0.00000000000E+00  0.00000000000E+00  0.45593999997E+02  0.45594000000E+02  0.51100000000E-03 0.  1.
         11   -1    0    0    0    0 -0.00000000000E+00 -0.00000000000E+00 -0.45593999997E+02  0.45594000000E+02  0.51100000000E-03 0. -1.
    9900012    2    1    2    0    0  0.33295800304E+02  0.14858769279E+02 -0.17993682882E+02  0.50528856305E+02  0.29999989224E+02 0.  0.
         12    1    1    2    0    0 -0.33295800304E+02 -0.14858769279E+02  0.17993682882E+02  0.40659143695E+02  0.00000000000E+00 0. -1.
         11    1    3    3    0    0 -0.26528717713E+01  0.81605021312E+01 -0.47548726803E+01  0.98102160086E+01  0.51100000000E-03 0. -1.
        -11    1    3    3    0    0  0.32296402844E+02  0.89550774201E+01 -0.14064978278E+02  0.36346590796E+02  0.51100000000E-03 0.  1.
        -12    1    3    3    0    0  0.36522692316E+01 -0.22568102721E+01  0.82616807601E+00  0.43720495004E+01  0.00000000000E+00 0.  1.
</event>
<event>
 7    1  0.5910662E-013  0.5052886E+02  0.7816164E-02  0.1300439E+00
        -11   -1    0    0    0    0  0.00000000000E+00  0.00000000000E+00  0.45593999997E+02  0.45594000000E+02  0.51100000000E-03 0. -1.
         11   -1    0    0    0    0 -0.00000000000E+00 -0.00000000000E+00 -0.45593999997E+02  0.45594000000E+02  0.51100000000E-03 0.  1.
    9900012    2    1    2    0    0  0.10014672618E+02  0.36578817717E+02  0.14658187645E+02  0.50528855417E+02  0.29999986525E+02 0.  0.
         12    1    1    2    0    0 -0.10014672618E+02 -0.36578817717E+02 -0.14658187645E+02  0.40659144583E+02  0.00000000000E+00 0. -1.
         11    1    3    3    0    0  0.10930450748E+02  0.89524050639E+01 -0.50457169082E+01  0.15002652077E+02  0.51100000000E-03 0.  1.
        -11    1    3    3    0    0 -0.47057143702E+00  0.18510763220E+02  0.18746525035E+02  0.26349610882E+02  0.51100000000E-03 0. -1.
         12    1    3    3    0    0 -0.44520669316E+00  0.91156494333E+01  0.95737951730E+00  0.91765924575E+01  0.00000000000E+00 0. -1.
</event>
<event>
 7    1  0.5910662E-013  0.5052886E+02  0.7816164E-02  0.1300439E+00
        -11   -1    0    0    0    0  0.00000000000E+00  0.00000000000E+00  0.45593999997E+02  0.45594000000E+02  0.51100000000E-03 0.  1.
         11   -1    0    0    0    0 -0.00000000000E+00 -0.00000000000E+00 -0.45593999997E+02  0.45594000000E+02  0.51100000000E-03 0. -1.
    9900012    2    1    2    0    0  0.10704508719E+02 -0.32835056621E+02  0.21457825287E+02  0.50528859376E+02  0.29999998560E+02 0.  0.
         12    1    1    2    0    0 -0.10704508719E+02  0.32835056621E+02 -0.21457825287E+02  0.40659140624E+02  0.00000000000E+00 0. -1.
         11    1    3    3    0    0 -0.68076180135E+01 -0.11366317574E+01  0.86762839122E+00  0.69561752462E+01  0.51100000000E-03 0. -1.
        -11    1    3    3    0    0  0.92440858281E+01 -0.21032982659E+02  0.60979884398E+01  0.23770253377E+02  0.51100000000E-03 0.  1.
         12    1    3    3    0    0  0.82680409043E+01 -0.10665442205E+02  0.14492208456E+02  0.19802430753E+02  0.00000000000E+00 0. -1.
</event>
<event>
 7    1  0.5910662E-013  0.5052886E+02  0.7816164E-02  0.1300439E+00
        -11   -1    0    0    0    0  0.00000000000E+00  0.00000000000E+00  0.45593999997E+02  0.45594000000E+02  0.51100000000E-03 0. -1.
         11   -1    0    0    0    0 -0.00000000000E+00 -0.00000000000E+00 -0.45593999997E+02  0.45594000000E+02  0.51100000000E-03 0.  1.
    9900012    2    1    2    0    0 -0.56727060427E+01  0.22686367285E+02 -0.33261315824E+02  0.50528856074E+02  0.29999988524E+02 0.  0.
         12    1    1    2    0    0  0.56727060427E+01 -0.22686367285E+02  0.33261315824E+02  0.40659143926E+02  0.00000000000E+00 0. -1.
         11    1    3    3    0    0 -0.72347884812E+01  0.88905999655E+01 -0.44338543033E+01  0.12289995784E+02  0.51100000000E-03 0. -1.
        -11    1    3    3    0    0  0.19378639472E+01  0.44952016379E+01 -0.28508008409E+02  0.28925225983E+02  0.51100000000E-03 0.  1.
        -12    1    3    3    0    0 -0.37578150867E+00  0.93005656810E+01 -0.31945311153E+00  0.93136343078E+01  0.00000000000E+00 0.  1.
</event>
<event>
 7    1  0.5910662E-013  0.5052886E+02  0.7816164E-02  0.1300439E+00
        -11   -1    0    0    0    0  0.00000000000E+00  0.00000000000E+00  0.45593999997E+02  0.45594000000E+02  0.51100000000E-03 0. -1.
         11   -1    0    0    0    0 -0.00000000000E+00 -0.00000000000E+00 -0.45593999997E+02  0.45594000000E+02  0.51100000000E-03 0.  1.
    9900012    2    1    2    0    0  0.17762739085E+02  0.35090526609E+02 -0.10310463120E+02  0.50528860716E+02  0.30000002634E+02 0.  0.
         12    1    1    2    0    0 -0.17762739085E+02 -0.35090526609E+02  0.10310463120E+02  0.40659139284E+02  0.00000000000E+00 0. -1.
         11    1    3    3    0    0  0.25276441616E+01  0.23647029903E+01 -0.88424630802E+01  0.94957863722E+01  0.51100000000E-03 0. -1.
        -11    1    3    3    0    0  0.15055762603E+02  0.35290306334E+02 -0.79610509362E+00  0.38375975457E+02  0.51100000000E-03 0.  1.
        -12    1    3    3    0    0  0.17933232025E+00 -0.25644827150E+01 -0.67189494575E+00  0.26570988869E+01  0.00000000000E+00 0.  1.
</event>
<event>
 7    1  0.5910662E-013  0.5052885E+02  0.7816164E-02  0.1300439E+00
        -11   -1    0    0    0    0  0.00000000000E+00  0.00000000000E+00  0.45593999997E+02  0.45594000000E+02  0.51100000000E-03 0.  1.
         11   -1    0    0    0    0 -0.00000000000E+00 -0.00000000000E+00 -0.45593999997E+02  0.45594000000E+02  0.51100000000E-03 0. -1.
    9900012    2    1    2    0    0 -0.98439013378E+01 -0.27728429991E+02  0.28060617834E+02  0.50528849781E+02  0.29999969393E+02 0.  0.
         12    1    1    2    0    0  0.98439013378E+01  0.27728429991E+02 -0.28060617834E+02  0.40659150219E+02  0.00000000000E+00 0. -1.
         11    1    3    3    0    0  0.52713549413E+01 -0.74011530469E+01  0.32759020942E+01  0.96589742795E+01  0.51100000000E-03 0. -1.
        -11    1    3    3    0    0 -0.12338085774E+02 -0.10788464736E+02  0.26129619213E+02  0.30844388994E+02  0.51100000000E-03 0.  1.
        -12    1    3    3    0    0 -0.27771705053E+01 -0.95388122083E+01 -0.13449034727E+01  0.10025486508E+02  0.00000000000E+00 0.  1.
</event>
<event>
 7    1  0.5910662E-013  0.5052886E+02  0.7816164E-02  0.1300439E+00
        -11   -1    0    0    0    0  0.00000000000E+00  0.00000000000E+00  0.45593999997E+02  0.45594000000E+02  0.51100000000E-03 0.  1.
         11   -1    0    0    0    0 -0.00000000000E+00 -0.00000000000E+00 -0.45593999997E+02  0.45594000000E+02  0.51100000000E-03 0. -1.
    9900012    2    1    2    0    0 -0.32646650243E+02 -0.21055260300E+02 -0.12001578359E+02  0.50528860295E+02  0.30000001354E+02 0.  0.
         12    1    1    2    0    0  0.32646650243E+02  0.21055260300E+02  0.12001578359E+02  0.40659139705E+02  0.00000000000E+00 0. -1.
         11    1    3    3    0    0 -0.15920955277E+01 -0.15403662924E+02 -0.86080412075E+01  0.17717391832E+02  0.51100000000E-03 0. -1.
        -11    1    3    3    0    0 -0.10307156828E+02 -0.57680723472E+01 -0.15402434024E+00  0.11812360655E+02  0.51100000000E-03 0.  1.
         12    1    3    3    0    0 -0.20747397887E+02  0.11647497037E+00 -0.32395128112E+01  0.20999107809E+02  0.00000000000E+00 0. -1.
</event>
<event>
 7    1  0.5910662E-013  0.5052886E+02  0.7816164E-02  0.1300439E+00
        -11   -1    0    0    0    0  0.00000000000E+00  0.00000000000E+00  0.45593999997E+02  0.45594000000E+02  0.51100000000E-03 0.  1.
         11   -1    0    0    0    0 -0.00000000000E+00 -0.00000000000E+00 -0.45593999997E+02  0.45594000000E+02  0.51100000000E-03 0. -1.
    9900012    2    1    2    0    0 -0.13807975649E+02 -0.70378348534E+01  0.37589548402E+02  0.50528862527E+02  0.30000008138E+02 0.  0.
         12    1    1    2    0    0  0.13807975649E+02  0.70378348534E+01 -0.37589548402E+02  0.40659137473E+02  0.00000000000E+00 0. -1.
         11    1    3    3    0    0 -0.31260255960E+01  0.18053870478E+01 -0.70055722258E+00  0.36772597274E+01  0.51100000000E-03 0. -1.
        -11    1    3    3    0    0  0.73221877004E+00 -0.15717079614E+01 -0.29642352895E+01  0.34341085242E+01  0.51100000000E-03 0.  1.
        -12    1    3    3    0    0 -0.11414168823E+02 -0.72715139398E+01  0.41254340914E+02  0.43417494276E+02  0.00000000000E+00 0.  1.
</event>
<event>
 7    1  0.5910662E-013  0.5052880E+02  0.7816164E-02  0.1300439E+00
        -11   -1    0    0    0    0  0.00000000000E+00  0.00000000000E+00  0.45593999997E+02  0.45594000000E+02  0.51100000000E-03 0. -1.
         11   -1    0    0    0    0 -0.00000000000E+00 -0.00000000000E+00 -0.45593999997E+02  0.45594000000E+02  0.51100000000E-03 0.  1.
    9900012    2    1    2    0    0 -0.36743355872E+02  0.15309885471E+02 -0.82887962582E+01  0.50528795172E+02  0.29999803403E+02 0.  0.
         12    1    1    2    0    0  0.36743355872E+02 -0.15309885471E+02  0.82887962582E+01  0.40659204828E+02  0.00000000000E+00 0. -1.
         11    1    3    3    0    0 -0.49078919231E+01  0.19195986157E+01  0.40370741629E+01  0.66385412579E+01  0.51100000000E-03 0. -1.
        -11    1    3    3    0    0 -0.34363006408E+02  0.10889320847E+02 -0.15391375775E+02  0.39195509519E+02  0.51100000000E-03 0.  1.
        -12    1    3    3    0    0  0.25275424597E+01  0.25009660087E+01  0.30655053538E+01  0.46947443952E+01  0.00000000000E+00 0.  1.
</event>
<event>
 7    1  0.5910662E-013  0.5052886E+02  0.7816164E-02  0.1300439E+00
        -11   -1    0    0    0    0  0.00000000000E+00  0.00000000000E+00  0.45593999997E+02  0.45594000000E+02  0.51100000000E-03 0. -1.
         11   -1    0    0    0    0 -0.00000000000E+00 -0.00000000000E+00 -0.45593999997E+02  0.45594000000E+02  0.51100000000E-03 0.  1.
    9900012    2    1    2    0    0 -0.25295819147E+02 -0.24557610503E+02  0.20253656180E+02  0.50528864636E+02  0.30000014546E+02 0.  0.
         12    1    1    2    0    0  0.25295819147E+02  0.24557610503E+02 -0.20253656180E+02  0.40659135364E+02  0.00000000000E+00 0. -1.
         11    1    3    3    0    0 -0.18816479552E+01  0.50944629746E+01 -0.54132646422E+00  0.54577638854E+01  0.51100000000E-03 0.  1.
        -11    1    3    3    0    0 -0.11477447645E+02 -0.24292513977E+02  0.13093116595E+02  0.29887919670E+02  0.51100000000E-03 0. -1.
        -12    1    3    3    0    0 -0.11936723547E+02 -0.53595595002E+01  0.77018660494E+01  0.15183181080E+02  0.00000000000E+00 0.  1.
</event>
<event>
 7    1  0.5910662E-013  0.5052888E+02  0.7816164E-02  0.1300439E+00
        -11   -1    0    0    0    0  0.00000000000E+00  0.00000000000E+00  0.45593999997E+02  0.45594000000E+02  0.51100000000E-03 0.  1.
         11   -1    0    0    0    0 -0.00000000000E+00 -0.00000000000E+00 -0.45593999997E+02  0.45594000000E+02  0.51100000000E-03 0. -1.
    9900012    2    1    2    0    0  0.19393954448E+02  0.14411934544E+02  0.32700687071E+02  0.50528877268E+02  0.30000052943E+02 0.  0.
         12    1    1    2    0    0 -0.19393954448E+02 -0.14411934544E+02 -0.32700687071E+02  0.40659122732E+02  0.00000000000E+00 0. -1.
         11    1    3    3    0    0  0.15025692934E+02  0.20427251398E+02  0.11119449905E+02  0.27689099196E+02  0.51100000000E-03 0. -1.
        -11    1    3    3    0    0  0.22716417968E+01 -0.29977329123E+01  0.12114204224E+02  0.12684664099E+02  0.51100000000E-03 0.  1.
         12    1    3    3    0    0  0.20966197172E+01 -0.30175839417E+01  0.94670329417E+01  0.10155113973E+02  0.00000000000E+00 0. -1.
</event>
<event>
 7    1  0.5910662E-013  0.5052886E+02  0.7816164E-02  0.1300439E+00
        -11   -1    0    0    0    0  0.00000000000E+00  0.00000000000E+00  0.45593999997E+02  0.45594000000E+02  0.51100000000E-03 0.  1.
         11   -1    0    0    0    0 -0.00000000000E+00 -0.00000000000E+00 -0.45593999997E+02  0.45594000000E+02  0.51100000000E-03 0. -1.
    9900012    2    1    2    0    0  0.31656308514E+02  0.15478179115E+02  0.20284713239E+02  0.50528862176E+02  0.30000007069E+02 0.  0.
         12    1    1    2    0    0 -0.31656308514E+02 -0.15478179115E+02 -0.20284713239E+02  0.40659137824E+02  0.00000000000E+00 0. -1.
         11    1    3    3    0    0  0.20335507659E+02 -0.40370766731E+00  0.91763601411E+01  0.22313705146E+02  0.51100000000E-03 0. -1.
        -11    1    3    3    0    0  0.39294661950E+01  0.98675360348E+01 -0.31385642407E+01  0.11075177548E+02  0.51100000000E-03 0.  1.
        -12    1    3    3    0    0  0.73913346591E+01  0.60143507472E+01  0.14246917339E+02  0.17139979481E+02  0.00000000000E+00 0.  1.
</event>
<event>
 7    1  0.5910662E-013  0.5052886E+02  0.7816164E-02  0.1300439E+00
        -11   -1    0    0    0    0  0.00000000000E+00  0.00000000000E+00  0.45593999997E+02  0.45594000000E+02  0.51100000000E-03 0. -1.
         11   -1    0    0    0    0 -0.00000000000E+00 -0.00000000000E+00 -0.45593999997E+02  0.45594000000E+02  0.51100000000E-03 0.  1.
    9900012    2    1    2    0    0 -0.31289288724E+02 -0.16559555894E+02 -0.19998178711E+02  0.50528860412E+02  0.30000001709E+02 0.  0.
         12    1    1    2    0    0  0.31289288724E+02  0.16559555894E+02  0.19998178711E+02  0.40659139588E+02  0.00000000000E+00 0. -1.
         11    1    3    3    0    0 -0.12441781353E+01  0.72043202450E+01 -0.21692006581E+01  0.76259846041E+01  0.51100000000E-03 0. -1.
        -11    1    3    3    0    0 -0.10435440581E+02 -0.11995269064E+02 -0.97347870833E+01  0.18642719218E+02  0.51100000000E-03 0.  1.
         12    1    3    3    0    0 -0.19609670008E+02 -0.11768607075E+02 -0.80941909690E+01  0.24260156590E+02  0.00000000000E+00 0. -1.
</event>
<event>
 7    1  0.5910662E-013  0.5052887E+02  0.7816164E-02  0.1300439E+00
        -11   -1    0    0    0    0  0.00000000000E+00  0.00000000000E+00  0.45593999997E+02  0.45594000000E+02  0.51100000000E-03 0. -1.
         11   -1    0    0    0    0 -0.00000000000E+00 -0.00000000000E+00 -0.45593999997E+02  0.45594000000E+02  0.51100000000E-03 0.  1.
    9900012    2    1    2    0    0 -0.27149994848E+02 -0.28819556207E+02 -0.92452962795E+01  0.50528873798E+02  0.30000042396E+02 0.  0.
         12    1    1    2    0    0  0.27149994848E+02  0.28819556207E+02  0.92452962795E+01  0.40659126202E+02  0.00000000000E+00 0. -1.
         11    1    3    3    0    0 -0.13970498079E+01  0.62630020638E+00 -0.37552111547E+01  0.40553188767E+01  0.51100000000E-03 0. -1.
        -11    1    3    3    0    0 -0.19548677988E+02 -0.33459893163E+02 -0.48989216468E+01  0.39060398041E+02  0.51100000000E-03 0.  1.
        -12    1    3    3    0    0 -0.62042670517E+01  0.40140367490E+01 -0.59116347797E+00  0.74131568800E+01  0.00000000000E+00 0.  1.
</event>
<event>
 7    1  0.5910662E-013  0.5052885E+02  0.7816164E-02  0.1300439E+00
        -11   -1    0    0    0    0  0.00000000000E+00  0.00000000000E+00  0.45593999997E+02  0.45594000000E+02  0.51100000000E-03 0.  1.
         11   -1    0    0    0    0 -0.00000000000E+00 -0.00000000000E+00 -0.45593999997E+02  0.45594000000E+02  0.51100000000E-03 0. -1.
    9900012    2    1    2    0    0  0.15889269239E+02 -0.34217943278E+02  0.15160146394E+02  0.50528849027E+02  0.29999967103E+02 0.  0.
         12    1    1    2    0    0 -0.15889269239E+02  0.34217943278E+02 -0.15160146394E+02  0.40659150973E+02  0.00000000000E+00 0. -1.
         11    1    3    3    0    0  0.49339396841E+01 -0.19395673453E+01 -0.63726351320E+01  0.82895211611E+01  0.51100000000E-03 0. -1.
        -11    1    3    3    0    0  0.12864545169E+02 -0.26593991840E+02  0.14231768531E+02  0.32791464746E+02  0.51100000000E-03 0.  1.
         12    1    3    3    0    0 -0.19092156142E+01 -0.56843840929E+01  0.73010129953E+01  0.94478631200E+01  0.00000000000E+00 0. -1.
</event>
<event>
 7    1  0.5910662E-013  0.5052886E+02  0.7816164E-02  0.1300439E+00
        -11   -1    0    0    0    0  0.00000000000E+00  0.00000000000E+00  0.45593999997E+02  0.45594000000E+02  0.51100000000E-03 0. -1.
         11   -1    0    0    0    0 -0.00000000000E+00 -0.00000000000E+00 -0.45593999997E+02  0.45594000000E+02  0.51100000000E-03 0.  1.
    9900012    2    1    2    0    0 -0.39934699124E+02 -0.41397947883E+01 -0.64224357708E+01  0.50528858638E+02  0.29999996317E+02 0.  0.
         12    1    1    2    0    0  0.39934699124E+02  0.41397947883E+01  0.64224357708E+01  0.40659141362E+02  0.00000000000E+00 0. -1.
         11    1    3    3    0    0 -0.17348582696E+01  0.79353854469E+01 -0.44729980945E+01  0.92729600248E+01  0.51100000000E-03 0. -1.
        -11    1    3    3    0    0 -0.31855383009E+02 -0.12367350968E+02 -0.43884253488E+01  0.34452504611E+02  0.51100000000E-03 0.  1.
        -12    1    3    3    0    0 -0.63444578454E+01  0.29217073290E+00  0.24389876725E+01  0.68033940027E+01  0.00000000000E+00 0.  1.
</event>
<event>
 7    1  0.5910662E-013  0.5052886E+02  0.7816164E-02  0.1300439E+00
        -11   -1    0    0    0    0  0.00000000000E+00  0.00000000000E+00  0.45593999997E+02  0.45594000000E+02  0.51100000000E-03 0.  1.
         11   -1    0    0    0    0 -0.00000000000E+00 -0.00000000000E+00 -0.45593999997E+02  0.45594000000E+02  0.51100000000E-03 0. -1.
    9900012    2    1    2    0    0 -0.20049568123E+02 -0.26796172276E+02  0.23089950313E+02  0.50528857904E+02  0.29999994085E+02 0.  0.
         12    1    1    2    0    0  0.20049568123E+02  0.26796172276E+02 -0.23089950313E+02  0.40659142096E+02  0.00000000000E+00 0. -1.
         11    1    3    3    0    0 -0.24383374418E+01 -0.19362653589E+02  0.21938575706E+02  0.29362543278E+02  0.51100000000E-03 0. -1.
        -11    1    3    3    0    0 -0.52817260226E+01 -0.63429551778E+01  0.27176771451E+01  0.86899642975E+01  0.51100000000E-03 0.  1.
         12    1    3    3    0    0 -0.12329504658E+02 -0.10905635085E+01 -0.15663025378E+01  0.12476350329E+02  0.00000000000E+00 0. -1.
</event>
<event>
 7    1  0.5910662E-013  0.5052887E+02  0.7816164E-02  0.1300439E+00
        -11   -1    0    0    0    0  0.00000000000E+00  0.00000000000E+00  0.45593999997E+02  0.45594000000E+02  0.51100000000E-03 0. -1.
         11   -1    0    0    0    0 -0.00000000000E+00 -0.00000000000E+00 -0.45593999997E+02  0.45594000000E+02  0.51100000000E-03 0.  1.
    9900012    2    1    2    0    0  0.38483486610E+02 -0.54421561461E+01 -0.11940245083E+02  0.50528865014E+02  0.30000015696E+02 0.  0.
         12    1    1    2    0    0 -0.38483486610E+02  0.54421561461E+01  0.11940245083E+02  0.40659134986E+02  0.00000000000E+00 0. -1.
         11    1    3    3    0    0  0.25642563661E+02  0.77280499566E+01 -0.13408076062E+01  0.26815323838E+02  0.51100000000E-03 0. -1.
        -11    1    3    3    0    0  0.12877346601E+02 -0.14681998258E+02 -0.10558727393E+02  0.22200762436E+02  0.51100000000E-03 0.  1.
         12    1    3    3    0    0 -0.36423652045E-01  0.15117921555E+01 -0.40710083994E-01  0.15127787395E+01  0.00000000000E+00 0. -1.
</event>
<event>
 7    1  0.5910662E-013  0.5052886E+02  0.7816164E-02  0.1300439E+00
        -11   -1    0    0    0    0  0.00000000000E+00  0.00000000000E+00  0.45593999997E+02  0.45594000000E+02  0.51100000000E-03 0.  1.
         11   -1    0    0    0    0 -0.00000000000E+00 -0.00000000000E+00 -0.45593999997E+02  0.45594000000E+02  0.51100000000E-03 0. -1.
    9900012    2    1    2    0    0  0.25054858656E+02  0.33515168985E+01  0.31846306061E+02  0.50528858131E+02  0.29999994774E+02 0.  0.
         12    1    1    2    0    0 -0.25054858656E+02 -0.33515168985E+01 -0.31846306061E+02  0.40659141869E+02  0.00000000000E+00 0. -1.
         11    1    3    3    0    0  0.13169074781E+02  0.32606850239E+01  0.27154227681E+01  0.13835827351E+02  0.51100000000E-03 0. -1.
        -11    1    3    3    0    0  0.98111608701E+01 -0.83442318072E+01  0.21828273055E+02  0.25344794079E+02  0.51100000000E-03 0.  1.
        -12    1    3    3    0    0  0.20746230051E+01  0.84350636819E+01  0.73026102379E+01  0.11348236701E+02  0.00000000000E+00 0.  1.
</event>
<event>
 7    1  0.5910662E-013  0.5052873E+02  0.7816164E-02  0.1300439E+00
        -11   -1    0    0    0    0  0.00000000000E+00  0.00000000000E+00  0.45593999997E+02  0.45594000000E+02  0.51100000000E-03 0. -1.
         11   -1    0    0    0    0 -0.00000000000E+00 -0.00000000000E+00 -0.45593999997E+02  0.45594000000E+02  0.51100000000E-03 0.  1.
    9900012    2    1    2    0    0  0.43701939347E+01  0.93005430452E+01 -0.39339260295E+02  0.50528731727E+02  0.29999610554E+02 0.  0.
         12    1    1    2    0    0 -0.43701939347E+01 -0.93005430452E+01  0.39339260295E+02  0.40659268273E+02  0.00000000000E+00 0. -1.
         11    1    3    3    0    0 -0.95942907862E+01  0.24305042558E+01 -0.55097959518E+01  0.11327648402E+02  0.51100000000E-03 0. -1.
        -11    1    3    3    0    0  0.56093226552E+01  0.94212091467E+01 -0.16798061165E+02  0.20059873918E+02  0.51100000000E-03 0.  1.
         12    1    3    3    0    0  0.83551620657E+01 -0.25511703572E+01 -0.17031403178E+02  0.19141209407E+02  0.00000000000E+00 0. -1.
</event>
<event>
 7    1  0.5910662E-013  0.5052886E+02  0.7816164E-02  0.1300439E+00
        -11   -1    0    0    0    0  0.00000000000E+00  0.00000000000E+00  0.45593999997E+02  0.45594000000E+02  0.51100000000E-03 0.  1.
         11   -1    0    0    0    0 -0.00000000000E+00 -0.00000000000E+00 -0.45593999997E+02  0.45594000000E+02  0.51100000000E-03 0. -1.
    9900012    2    1    2    0    0  0.23419639333E+02 -0.45780980959E+01  0.32920012970E+02  0.50528859052E+02  0.29999997574E+02 0.  0.
         12    1    1    2    0    0 -0.23419639333E+02  0.45780980959E+01 -0.32920012970E+02  0.40659140948E+02  0.00000000000E+00 0. -1.
         11    1    3    3    0    0  0.50426459495E+01  0.10242623548E+02  0.11631280134E+02  0.16298045685E+02  0.51100000000E-03 0. -1.
        -11    1    3    3    0    0  0.89223621083E+01 -0.93685890060E+01  0.35709027327E+01  0.13421264923E+02  0.51100000000E-03 0.  1.
        -12    1    3    3    0    0  0.94546312753E+01 -0.54521326383E+01  0.17717830104E+02  0.20809548444E+02  0.00000000000E+00 0.  1.
</event>
<event>
 7    1  0.5910662E-013  0.5052887E+02  0.7816164E-02  0.1300439E+00
        -11   -1    0    0    0    0  0.00000000000E+00  0.00000000000E+00  0.45593999997E+02  0.45594000000E+02  0.51100000000E-03 0. -1.
         11   -1    0    0    0    0 -0.00000000000E+00 -0.00000000000E+00 -0.45593999997E+02  0.45594000000E+02  0.51100000000E-03 0.  1.
    9900012    2    1    2    0    0  0.14556084626E+02 -0.14639688227E+02 -0.35028062406E+02  0.50528865394E+02  0.30000016851E+02 0.  0.
         12    1    1    2    0    0 -0.14556084626E+02  0.14639688227E+02  0.35028062406E+02  0.40659134606E+02  0.00000000000E+00 0. -1.
         11    1    3    3    0    0  0.70290723336E+01  0.72820890075E+00  0.37254854351E+01  0.79885786008E+01  0.51100000000E-03 0. -1.
        -11    1    3    3    0    0  0.50871630718E+01 -0.75886748828E+01 -0.16829194347E+02  0.19149125234E+02  0.51100000000E-03 0.  1.
         12    1    3    3    0    0  0.24398492206E+01 -0.77792222451E+01 -0.21924353493E+02  0.23391161559E+02  0.00000000000E+00 0. -1.
</event>
<event>
 7    1  0.5910662E-013  0.5052886E+02  0.7816164E-02  0.1300439E+00
        -11   -1    0    0    0    0  0.00000000000E+00  0.00000000000E+00  0.45593999997E+02  0.45594000000E+02  0.51100000000E-03 0. -1.
         11   -1    0    0    0    0 -0.00000000000E+00 -0.00000000000E+00 -0.45593999997E+02  0.45594000000E+02  0.51100000000E-03 0.  1.
    9900012    2    1    2    0    0 -0.14178897613E+02 -0.34349328815E+02  0.16499950111E+02  0.50528857348E+02  0.29999992394E+02 0.  0.
         12    1    1    2    0    0  0.14178897613E+02  0.34349328815E+02 -0.16499950111E+02  0.40659142652E+02  0.00000000000E+00 0. -1.
         11    1    3    3    0    0 -0.12744953185E+02 -0.22672056307E+02  0.26533367515E+01  0.26143759581E+02  0.51100000000E-03 0.  1.
        -11    1    3    3    0    0  0.24402793829E+01  0.18504235720E+01  0.89927604906E+01  0.94999353874E+01  0.51100000000E-03 0. -1.
        -12    1    3    3    0    0 -0.38742238116E+01 -0.13527696081E+02  0.48538528687E+01  0.14885162379E+02  0.00000000000E+00 0.  1.
</event>
<event>
 7    1  0.5910662E-013  0.5052886E+02  0.7816164E-02  0.1300439E+00
        -11   -1    0    0    0    0  0.00000000000E+00  0.00000000000E+00  0.45593999997E+02  0.45594000000E+02  0.51100000000E-03 0. -1.
         11   -1    0    0    0    0 -0.00000000000E+00 -0.00000000000E+00 -0.45593999997E+02  0.45594000000E+02  0.51100000000E-03 0.  1.
    9900012    2    1    2    0    0  0.22074236474E+01 -0.32396896536E+02 -0.24469045253E+02  0.50528858348E+02  0.29999995433E+02 0.  0.
         12    1    1    2    0    0 -0.22074236474E+01  0.32396896536E+02  0.24469045253E+02  0.40659141652E+02  0.00000000000E+00 0. -1.
         11    1    3    3    0    0  0.67105698740E+01  0.16569581883E+01  0.30969610608E+00  0.69190440388E+01  0.51100000000E-03 0. -1.
        -11    1    3    3    0    0 -0.14883347728E+01 -0.26183258740E+02 -0.13402830705E+02  0.29451893824E+02  0.51100000000E-03 0.  1.
         12    1    3    3    0    0 -0.30148114537E+01 -0.78705959840E+01 -0.11375910654E+02  0.14157920485E+02  0.00000000000E+00 0. -1.
</event>
<event>
 7    1  0.5910662E-013  0.5052885E+02  0.7816164E-02  0.1300439E+00
        -11   -1    0    0    0    0  0.00000000000E+00  0.00000000000E+00  0.45593999997E+02  0.45594000000E+02  0.51100000000E-03 0. -1.
         11   -1    0    0    0    0 -0.00000000000E+00 -0.00000000000E+00 -0.45593999997E+02  0.45594000000E+02  0.51100000000E-03 0.  1.
    9900012    2    1    2    0    0  0.26274976909E+02  0.30989745066E+02  0.15580585634E+01  0.50528852723E+02  0.29999978336E+02 0.  0.
         12    1    1    2    0    0 -0.26274976909E+02 -0.30989745066E+02 -0.15580585634E+01  0.40659147277E+02  0.00000000000E+00 0. -1.
         11    1    3    3    0    0 -0.35645185711E+01  0.11641713483E+01  0.60064896121E+01  0.70808901483E+01  0.51100000000E-03 0. -1.
        -11    1    3    3    0    0  0.24291055694E+02  0.26658372204E+02 -0.66833258097E+01  0.36679572508E+02  0.51100000000E-03 0.  1.
         12    1    3    3    0    0  0.55484397860E+01  0.31672015145E+01  0.22348947610E+01  0.67683900660E+01  0.00000000000E+00 0. -1.
</event>
<event>
 7    1  0.5910662E-013  0.5052883E+02  0.7816164E-02  0.1300439E+00
        -11   -1    0    0    0    0  0.00000000000E+00  0.00000000000E+00  0.45593999997E+02  0.45594000000E+02  0.51100000000E-03 0.  1.
         11   -1    0    0    0    0 -0.00000000000E+00 -0.00000000000E+00 -0.45593999997E+02  0.45594000000E+02  0.51100000000E-03 0. -1.
    9900012    2    1    2    0    0  0.32351667620E+02  0.15881460039E+02  0.18823298077E+02  0.50528834720E+02  0.29999923614E+02 0.  0.
         12    1    1    2    0    0 -0.32351667620E+02 -0.15881460039E+02 -0.18823298077E+02  0.40659165280E+02  0.00000000000E+00 0. -1.
         11    1    3    3    0    0 -0.42380953744E+01  0.65741715983E+01  0.32382391926E+01  0.84656587420E+01  0.51100000000E-03 0. -1.
        -11    1    3    3    0    0  0.90375858816E+01  0.47037891718E+01  0.23878849205E+00  0.10191202645E+02  0.51100000000E-03 0.  1.
         12    1    3    3    0    0  0.27552177113E+02  0.46034992690E+01  0.15346270392E+02  0.31871973333E+02  0.00000000000E+00 0. -1.
</event>
<event>
 7    1  0.5910662E-013  0.5052886E+02  0.7816164E-02  0.1300439E+00
        -11   -1    0    0    0    0  0.00000000000E+00  0.00000000000E+00  0.45593999997E+02  0.45594000000E+02  0.51100000000E-03 0. -1.
         11   -1    0    0    0    0 -0.00000000000E+00 -0.00000000000E+00 -0.45593999997E+02  0.45594000000E+02  0.51100000000E-03 0.  1.
    9900012    2    1    2    0    0  0.40973608644E+01  0.39751480760E+02 -0.74964893191E+01  0.50528856615E+02  0.29999990168E+02 0.  0.
         12    1    1    2    0    0 -0.40973608644E+01 -0.39751480760E+02  0.74964893191E+01  0.40659143385E+02  0.00000000000E+00 0. -1.
         11    1    3    3    0    0  0.27444390499E+01  0.16197127547E+02  0.63838872900E+00  0.16440390108E+02  0.51100000000E-03 0. -1.
        -11    1    3    3    0    0 -0.82385655780E+01  0.23896737236E+01 -0.65591792180E+01  0.10798487652E+02  0.51100000000E-03 0.  1.
        -12    1    3    3    0    0  0.95914873926E+01  0.21164679489E+02 -0.15756988301E+01  0.23289978855E+02  0.00000000000E+00 0.  1.
</event>
<event>
 7    1  0.5910662E-013  0.5052874E+02  0.7816164E-02  0.1300439E+00
        -11   -1    0    0    0    0  0.00000000000E+00  0.00000000000E+00  0.45593999997E+02  0.45594000000E+02  0.51100000000E-03 0. -1.
         11   -1    0    0    0    0 -0.00000000000E+00 -0.00000000000E+00 -0.45593999997E+02  0.45594000000E+02  0.51100000000E-03 0.  1.
    9900012    2    1    2    0    0  0.81394338681E+01  0.57089488411E+01 -0.39425031345E+02  0.50528738114E+02  0.29999629968E+02 0.  0.
         12    1    1    2    0    0 -0.81394338681E+01 -0.57089488411E+01  0.39425031345E+02  0.40659261886E+02  0.00000000000E+00 0. -1.
         11    1    3    3    0    0  0.14675337899E+02  0.12340973487E+02 -0.15668282613E+02  0.24762072800E+02  0.51100000000E-03 0. -1.
        -11    1    3    3    0    0 -0.43823551126E+01 -0.48735140657E+01 -0.20292587095E+02  0.21324757137E+02  0.51100000000E-03 0.  1.
         12    1    3    3    0    0 -0.21535489182E+01 -0.17585105799E+01 -0.34641616370E+01  0.44419081767E+01  0.00000000000E+00 0. -1.
</event>
<event>
 7    1  0.5910662E-013  0.5052886E+02  0.7816164E-02  0.1300439E+00
        -11   -1    0    0    0    0  0.00000000000E+00  0.00000000000E+00  0.45593999997E+02  0.45594000000E+02  0.51100000000E-03 0.  1.
         11   -1    0    0    0    0 -0.00000000000E+00 -0.00000000000E+00 -0.45593999997E+02  0.45594000000E+02  0.51100000000E-03 0. -1.
    9900012    2    1    2    0    0  0.15854077839E+02  0.24897740297E+02  0.27962767766E+02  0.50528860350E+02  0.30000001519E+02 0.  0.
         12    1    1    2    0    0 -0.15854077839E+02 -0.24897740297E+02 -0.27962767766E+02  0.40659139650E+02  0.00000000000E+00 0. -1.
         11    1    3    3    0    0 -0.42617468939E+01  0.48780163578E+01  0.10496057503E+02  0.12333886392E+02  0.51100000000E-03 0. -1.
        -11    1    3    3    0    0  0.17134824496E+02  0.42227042659E+01  0.68525724899E+01  0.18931222671E+02  0.51100000000E-03 0.  1.
        -12    1    3    3    0    0  0.29810002362E+01  0.15797019673E+02  0.10614137773E+02  0.19263751286E+02  0.00000000000E+00 0.  1.
</event>
<event>
 7    1  0.5910662E-013  0.5052886E+02  0.7816164E-02  0.1300439E+00
        -11   -1    0    0    0    0  0.00000000000E+00  0.00000000000E+00  0.45593999997E+02  0.45594000000E+02  0.51100000000E-03 0.  1.
         11   -1    0    0    0    0 -0.00000000000E+00 -0.00000000000E+00 -0.45593999997E+02  0.45594000000E+02  0.51100000000E-03 0. -1.
    9900012    2    1    2    0    0 -0.33880584905E+02  0.19108605250E+02  0.11837780113E+02  0.50528857533E+02  0.29999992958E+02 0.  0.
         12    1    1    2    0    0  0.33880584905E+02 -0.19108605250E+02 -0.11837780113E+02  0.40659142467E+02  0.00000000000E+00 0. -1.
         11    1    3    3    0    0 -0.47386830386E+01  0.17172748762E+02  0.92529383770E+01  0.20074244341E+02  0.51100000000E-03 0. -1.
        -11    1    3    3    0    0 -0.26506966419E+02  0.15992917177E+01  0.48126247227E+01  0.26987744621E+02  0.51100000000E-03 0.  1.
         12    1    3    3    0    0 -0.26349354479E+01  0.33656477008E+00 -0.22277829868E+01  0.34668685719E+01  0.00000000000E+00 0. -1.
</event>
<event>
 7    1  0.5910662E-013  0.5052885E+02  0.7816164E-02  0.1300439E+00
        -11   -1    0    0    0    0  0.00000000000E+00  0.00000000000E+00  0.45593999997E+02  0.45594000000E+02  0.51100000000E-03 0. -1.
         11   -1    0    0    0    0 -0.00000000000E+00 -0.00000000000E+00 -0.45593999997E+02  0.45594000000E+02  0.51100000000E-03 0.  1.
    9900012    2    1    2    0    0  0.12010025069E+02 -0.38061574228E+02  0.77615710205E+01  0.50528854417E+02  0.29999983485E+02 0.  0.
         12    1    1    2    0    0 -0.12010025069E+02  0.38061574228E+02 -0.77615710205E+01  0.40659145583E+02  0.00000000000E+00 0. -1.
         11    1    3    3    0    0  0.64278407759E+01 -0.28769295285E+02  0.14084615180E+02  0.32670565854E+02  0.51100000000E-03 0. -1.
        -11    1    3    3    0    0  0.93979783319E+00 -0.58415640986E+01 -0.95502675332E+01  0.11234531646E+02  0.51100000000E-03 0.  1.
        -12    1    3    3    0    0  0.46423864602E+01 -0.34507148447E+01  0.32272233734E+01  0.66237569164E+01  0.00000000000E+00 0.  1.
</event>
<event>
 7    1  0.5910662E-013  0.5052886E+02  0.7816164E-02  0.1300439E+00
        -11   -1    0    0    0    0  0.00000000000E+00  0.00000000000E+00  0.45593999997E+02  0.45594000000E+02  0.51100000000E-03 0.  1.
         11   -1    0    0    0    0 -0.00000000000E+00 -0.00000000000E+00 -0.45593999997E+02  0.45594000000E+02  0.51100000000E-03 0. -1.
    9900012    2    1    2    0    0 -0.94019998751E+00  0.23093087502E+02  0.33451317892E+02  0.50528864064E+02  0.30000012808E+02 0.  0.
         12    1    1    2    0    0  0.94019998751E+00 -0.23093087502E+02 -0.33451317892E+02  0.40659135936E+02  0.00000000000E+00 0. -1.
         11    1    3    3    0    0 -0.93747179244E+01  0.17393570544E+02  0.30126784809E+02  0.36028388746E+02  0.51100000000E-03 0.  1.
        -11    1    3    3    0    0  0.50178309082E+01  0.24498913230E+01 -0.32111105650E+01  0.64414148942E+01  0.51100000000E-03 0. -1.
         12    1    3    3    0    0  0.34166870288E+01  0.32496256350E+01  0.65356436475E+01  0.80590604234E+01  0.00000000000E+00 0. -1.
</event>
<event>
 7    1  0.5910662E-013  0.5052886E+02  0.7816164E-02  0.1300439E+00
        -11   -1    0    0    0    0  0.00000000000E+00  0.00000000000E+00  0.45593999997E+02  0.45594000000E+02  0.51100000000E-03 0. -1.
         11   -1    0    0    0    0 -0.00000000000E+00 -0.00000000000E+00 -0.45593999997E+02  0.45594000000E+02  0.51100000000E-03 0.  1.
    9900012    2    1    2    0    0  0.63671128315E+01  0.22038751441E+02 -0.33569613727E+02  0.50528860109E+02  0.30000000788E+02 0.  0.
         12    1    1    2    0    0 -0.63671128315E+01 -0.22038751441E+02  0.33569613727E+02  0.40659139891E+02  0.00000000000E+00 0. -1.
         11    1    3    3    0    0  0.10879125912E+02  0.91581918444E+01 -0.44910927578E+01  0.14913006836E+02  0.51100000000E-03 0. -1.
        -11    1    3    3    0    0 -0.80243860901E+01  0.14577170002E+02 -0.24219838185E+02  0.29385119012E+02  0.51100000000E-03 0.  1.
        -12    1    3    3    0    0  0.35123730098E+01 -0.16966104063E+01 -0.48586827844E+01  0.62307342610E+01  0.00000000000E+00 0.  1.
</event>
<event>
 7    1  0.5910662E-013  0.5052886E+02  0.7816164E-02  0.1300439E+00
        -11   -1    0    0    0    0  0.00000000000E+00  0.00000000000E+00  0.45593999997E+02  0.45594000000E+02  0.51100000000E-03 0. -1.
         11   -1    0    0    0    0 -0.00000000000E+00 -0.00000000000E+00 -0.45593999997E+02  0.45594000000E+02  0.51100000000E-03 0.  1.
    9900012    2    1    2    0    0 -0.37266236063E+02 -0.12386297600E+02 -0.10534367351E+02  0.50528860633E+02  0.30000002381E+02 0.  0.
         12    1    1    2    0    0  0.37266236063E+02  0.12386297600E+02  0.10534367351E+02  0.40659139367E+02  0.00000000000E+00 0. -1.
         11    1    3    3    0    0  0.66471058216E+00  0.28336533164E+01 -0.74211765550E+01  0.79715301540E+01  0.51100000000E-03 0. -1.
        -11    1    3    3    0    0 -0.17645906481E+02 -0.58683124540E+01 -0.70282939659E+01  0.19879940214E+02  0.51100000000E-03 0.  1.
         12    1    3    3    0    0 -0.20285040164E+02 -0.93516384627E+01  0.39151031698E+01  0.22677390265E+02  0.00000000000E+00 0. -1.
</event>
<event>
 7    1  0.5910662E-013  0.5052888E+02  0.7816164E-02  0.1300439E+00
        -11   -1    0    0    0    0  0.00000000000E+00  0.00000000000E+00  0.45593999997E+02  0.45594000000E+02  0.51100000000E-03 0.  1.
         11   -1    0    0    0    0 -0.00000000000E+00 -0.00000000000E+00 -0.45593999997E+02  0.45594000000E+02  0.51100000000E-03 0. -1.
    9900012    2    1    2    0    0 -0.48823460933E+01 -0.27508140696E+02  0.29540297686E+02  0.50528876850E+02  0.30000051674E+02 0.  0.
         12    1    1    2    0    0  0.48823460933E+01  0.27508140696E+02 -0.29540297686E+02  0.40659123150E+02  0.00000000000E+00 0. -1.
         11    1    3    3    0    0  0.79097583398E+01 -0.19009144154E+01  0.60455891227E+01  0.10135427998E+02  0.51100000000E-03 0. -1.
        -11    1    3    3    0    0 -0.16309898656E+02 -0.20168413558E+02  0.15949728174E+02  0.30449491436E+02  0.51100000000E-03 0.  1.
        -12    1    3    3    0    0  0.35177942227E+01 -0.54388127230E+01  0.75449803888E+01  0.99439574163E+01  0.00000000000E+00 0.  1.
</event>
<event>
 7    1  0.5910662E-013  0.5052884E+02  0.7816164E-02  0.1300439E+00
        -11   -1    0    0    0    0  0.00000000000E+00  0.00000000000E+00  0.45593999997E+02  0.45594000000E+02  0.51100000000E-03 0.  1.
         11   -1    0    0    0    0 -0.00000000000E+00 -0.00000000000E+00 -0.45593999997E+02  0.45594000000E+02  0.51100000000E-03 0. -1.
    9900012    2    1    2    0    0 -0.35298759250E+02  0.29786664718E+01  0.19957256126E+02  0.50528844443E+02  0.29999953168E+02 0.  0.
         12    1    1    2    0    0  0.35298759250E+02 -0.29786664718E+01 -0.19957256126E+02  0.40659155557E+02  0.00000000000E+00 0. -1.
         11    1    3    3    0    0 -0.27148879011E+02 -0.79116204369E+01  0.11708946321E+02  0.30606450197E+02  0.51100000000E-03 0. -1.
        -11    1    3    3    0    0 -0.85710157154E+01  0.10473805151E+02  0.10792518473E+02  0.17310151934E+02  0.51100000000E-03 0.  1.
         12    1    3    3    0    0  0.42113547599E+00  0.41648175761E+00 -0.25442086680E+01  0.26122423108E+01  0.00000000000E+00 0. -1.
</event>
<event>
 7    1  0.5910662E-013  0.5052886E+02  0.7816164E-02  0.1300439E+00
        -11   -1    0    0    0    0  0.00000000000E+00  0.00000000000E+00  0.45593999997E+02  0.45594000000E+02  0.51100000000E-03 0. -1.
         11   -1    0    0    0    0 -0.00000000000E+00 -0.00000000000E+00 -0.45593999997E+02  0.45594000000E+02  0.51100000000E-03 0.  1.
    9900012    2    1    2    0    0 -0.45485540369E+01 -0.10847963436E+02 -0.38920408310E+02  0.50528857885E+02  0.29999994026E+02 0.  0.
         12    1    1    2    0    0  0.45485540369E+01  0.10847963436E+02  0.38920408310E+02  0.40659142115E+02  0.00000000000E+00 0. -1.
         11    1    3    3    0    0 -0.76057282251E+01  0.35693779605E+01 -0.27648881605E+01  0.88448950056E+01  0.51100000000E-03 0. -1.
        -11    1    3    3    0    0  0.39621543199E+01 -0.14634773180E+02 -0.18128709887E+02  0.23633141461E+02  0.51100000000E-03 0.  1.
        -12    1    3    3    0    0 -0.90498013174E+00  0.21743178380E+00 -0.18026810263E+02  0.18050821418E+02  0.00000000000E+00 0.  1.
</event>
<event>
 7    1  0.5910662E-013  0.5052886E+02  0.7816164E-02  0.1300439E+00
        -11   -1    0    0    0    0  0.00000000000E+00  0.00000000000E+00  0.45593999997E+02  0.45594000000E+02  0.51100000000E-03 0.  1.
         11   -1    0    0    0    0 -0.00000000000E+00 -0.00000000000E+00 -0.45593999997E+02  0.45594000000E+02  0.51100000000E-03 0. -1.
    9900012    2    1    2    0    0  0.23298907158E+02 -0.20085869976E+02  0.26587296678E+02  0.50528860903E+02  0.30000003201E+02 0.  0.
         12    1    1    2    0    0 -0.23298907158E+02  0.20085869976E+02 -0.26587296678E+02  0.40659139097E+02  0.00000000000E+00 0. -1.
         11    1    3    3    0    0  0.61482423699E+01  0.60421904062E+01  0.37873664908E+01  0.94155772176E+01  0.51100000000E-03 0. -1.
        -11    1    3    3    0    0  0.13439418637E+02 -0.22204036236E+02  0.11103134058E+02  0.28229714569E+02  0.51100000000E-03 0.  1.
        -12    1    3    3    0    0  0.37112461509E+01 -0.39240241465E+01  0.11696796129E+02  0.12883569116E+02  0.00000000000E+00 0.  1.
</event>
<event>
 7    1  0.5910662E-013  0.5052886E+02  0.7816164E-02  0.1300439E+00
        -11   -1    0    0    0    0  0.00000000000E+00  0.00000000000E+00  0.45593999997E+02  0.45594000000E+02  0.51100000000E-03 0. -1.
         11   -1    0    0    0    0 -0.00000000000E+00 -0.00000000000E+00 -0.45593999997E+02  0.45594000000E+02  0.51100000000E-03 0.  1.
    9900012    2    1    2    0    0 -0.54201694722E+01 -0.40147153834E+02 -0.34632058950E+01  0.50528855971E+02  0.29999988209E+02 0.  0.
         12    1    1    2    0    0  0.54201694722E+01  0.40147153834E+02  0.34632058950E+01  0.40659144029E+02  0.00000000000E+00 0. -1.
         11    1    3    3    0    0 -0.10990697859E+02 -0.83915471056E+01  0.59015770323E+01  0.15034697003E+02  0.51100000000E-03 0. -1.
        -11    1    3    3    0    0 -0.45332157104E+00 -0.19291816111E+02 -0.98024002572E+01  0.21644092043E+02  0.51100000000E-03 0.  1.
        -12    1    3    3    0    0  0.60238499579E+01 -0.12463790618E+02  0.43761732990E+00  0.13850066925E+02  0.00000000000E+00 0.  1.
</event>
<event>
 7    1  0.5910662E-013  0.5052886E+02  0.7816164E-02  0.1300439E+00
        -11   -1    0    0    0    0  0.00000000000E+00  0.00000000000E+00  0.45593999997E+02  0.45594000000E+02  0.51100000000E-03 0.  1.
         11   -1    0    0    0    0 -0.00000000000E+00 -0.00000000000E+00 -0.45593999997E+02  0.45594000000E+02  0.51100000000E-03 0. -1.
    9900012    2    1    2    0    0  0.51085961329E+01  0.40244122167E+02  0.27346528112E+01  0.50528862657E+02  0.30000008533E+02 0.  0.
         12    1    1    2    0    0 -0.51085961329E+01 -0.40244122167E+02 -0.27346528112E+01  0.40659137343E+02  0.00000000000E+00 0. -1.
         11    1    3    3    0    0  0.82616391052E+00  0.53689996318E+01  0.12387702500E+02  0.13526414061E+02  0.51100000000E-03 0. -1.
        -11    1    3    3    0    0 -0.65045200192E+00  0.13928262923E+02 -0.59786525521E+01  0.15171152970E+02  0.51100000000E-03 0.  1.
         12    1    3    3    0    0  0.49328842243E+01  0.20946859613E+02 -0.36743971366E+01  0.21831295626E+02  0.00000000000E+00 0. -1.
</event>
<event>
 7    1  0.5910662E-013  0.5052886E+02  0.7816164E-02  0.1300439E+00
        -11   -1    0    0    0    0  0.00000000000E+00  0.00000000000E+00  0.45593999997E+02  0.45594000000E+02  0.51100000000E-03 0.  1.
         11   -1    0    0    0    0 -0.00000000000E+00 -0.00000000000E+00 -0.45593999997E+02  0.45594000000E+02  0.51100000000E-03 0. -1.
    9900012    2    1    2    0    0 -0.24688679274E+01 -0.99753541100E+01  0.39339071101E+02  0.50528861869E+02  0.30000006138E+02 0.  0.
         12    1    1    2    0    0  0.24688679274E+01  0.99753541100E+01 -0.39339071101E+02  0.40659138131E+02  0.00000000000E+00 0. -1.
         11    1    3    3    0    0 -0.22473106175E+01  0.77948781093E+01  0.18082492687E+02  0.19818856470E+02  0.51100000000E-03 0. -1.
        -11    1    3    3    0    0  0.18918028811E+01 -0.17344267273E+02  0.22300603245E+02  0.28314650461E+02  0.51100000000E-03 0.  1.
        -12    1    3    3    0    0 -0.21133601910E+01 -0.42596494662E+00 -0.10440248314E+01  0.23953549385E+01  0.00000000000E+00 0.  1.
</event>
<event>
 7    1  0.5910662E-013  0.5052886E+02  0.7816164E-02  0.1300439E+00
        -11   -1    0    0    0    0  0.00000000000E+00  0.00000000000E+00  0.45593999997E+02  0.45594000000E+02  0.51100000000E-03 0. -1.
         11   -1    0    0    0    0 -0.00000000000E+00 -0.00000000000E+00 -0.45593999997E+02  0.45594000000E+02  0.51100000000E-03 0.  1.
    9900012    2    1    2    0    0  0.67286685211E+00 -0.74671418519E+01 -0.39961916779E+02  0.50528858963E+02  0.29999997303E+02 0.  0.
         12    1    1    2    0    0 -0.67286685211E+00  0.74671418519E+01  0.39961916779E+02  0.40659141037E+02  0.00000000000E+00 0. -1.
         11    1    3    3    0    0 -0.16085286540E+01 -0.56542340302E+00  0.40263879960E+01  0.43725128485E+01  0.51100000000E-03 0. -1.
        -11    1    3    3    0    0  0.46876341546E+01 -0.72513255140E+01 -0.17080869062E+02  0.19139271770E+02  0.51100000000E-03 0.  1.
         12    1    3    3    0    0 -0.24062386485E+01  0.34960706516E+00 -0.26907435712E+02  0.27017074345E+02  0.00000000000E+00 0. -1.
</event>
<event>
 7    1  0.5910662E-013  0.5052885E+02  0.7816164E-02  0.1300439E+00
        -11   -1    0    0    0    0  0.00000000000E+00  0.00000000000E+00  0.45593999997E+02  0.45594000000E+02  0.51100000000E-03 0.  1.
         11   -1    0    0    0    0 -0.00000000000E+00 -0.00000000000E+00 -0.45593999997E+02  0.45594000000E+02  0.51100000000E-03 0. -1.
    9900012    2    1    2    0    0  0.18806788734E+02  0.34693687892E+02  0.97887082946E+01  0.50528854755E+02  0.29999984512E+02 0.  0.
         12    1    1    2    0    0 -0.18806788734E+02 -0.34693687892E+02 -0.97887082946E+01  0.40659145245E+02  0.00000000000E+00 0. -1.
         11    1    3    3    0    0 -0.15584902254E+01  0.61079042463E+01  0.11579927652E+01  0.64090821161E+01  0.51100000000E-03 0. -1.
        -11    1    3    3    0    0  0.18973441224E+02  0.15401872208E+02 -0.51746773111E+01  0.24979720273E+02  0.51100000000E-03 0.  1.
        -12    1    3    3    0    0  0.13918377356E+01  0.13183911437E+02  0.13805392840E+02  0.19140052365E+02  0.00000000000E+00 0.  1.
</event>
<event>
 7    1  0.5910662E-013  0.5052886E+02  0.7816164E-02  0.1300439E+00
        -11   -1    0    0    0    0  0.00000000000E+00  0.00000000000E+00  0.45593999997E+02  0.45594000000E+02  0.51100000000E-03 0.  1.
         11   -1    0    0    0    0 -0.00000000000E+00 -0.00000000000E+00 -0.45593999997E+02  0.45594000000E+02  0.51100000000E-03 0. -1.
    9900012    2    1    2    0    0 -0.16715759914E+02  0.14852873770E+02  0.33957928180E+02  0.50528863572E+02  0.30000011315E+02 0.  0.
         12    1    1    2    0    0  0.16715759914E+02 -0.14852873770E+02 -0.33957928180E+02  0.40659136428E+02  0.00000000000E+00 0. -1.
         11    1    3    3    0    0 -0.13173737492E+02 -0.99326508787E+00  0.47185191261E+01  0.14028483811E+02  0.51100000000E-03 0. -1.
        -11    1    3    3    0    0  0.10073559901E+01  0.56686617762E+01  0.23031939331E+02  0.23740655467E+02  0.51100000000E-03 0.  1.
         12    1    3    3    0    0 -0.45493784126E+01  0.10177477082E+02  0.62074697236E+01  0.12759724294E+02  0.00000000000E+00 0. -1.
</event>
<event>
 7    1  0.5910662E-013  0.5052888E+02  0.7816164E-02  0.1300439E+00
        -11   -1    0    0    0    0  0.00000000000E+00  0.00000000000E+00  0.45593999997E+02  0.45594000000E+02  0.51100000000E-03 0.  1.
         11   -1    0    0    0    0 -0.00000000000E+00 -0.00000000000E+00 -0.45593999997E+02  0.45594000000E+02  0.51100000000E-03 0. -1.
    9900012    2    1    2    0    0 -0.10058157598E+02 -0.37054623723E+02  0.13377296406E+02  0.50528883770E+02  0.30000072706E+02 0.  0.
         12    1    1    2    0    0  0.10058157598E+02  0.37054623723E+02 -0.13377296406E+02  0.40659116230E+02  0.00000000000E+00 0. -1.
         11    1    3    3    0    0 -0.15593892853E+02 -0.28831794212E+02 -0.60627235962E+00  0.32784286148E+02  0.51100000000E-03 0. -1.
        -11    1    3    3    0    0  0.49142200610E+01 -0.73608775663E+01  0.89015874743E+01  0.12552702385E+02  0.51100000000E-03 0.  1.
        -12    1    3    3    0    0  0.62151519418E+00 -0.86195194386E+00  0.50819812918E+01  0.51918952359E+01  0.00000000000E+00 0.  1.
</event>
<event>
 7    1  0.5910662E-013  0.5052884E+02  0.7816164E-02  0.1300439E+00
        -11   -1    0    0    0    0  0.00000000000E+00  0.00000000000E+00  0.45593999997E+02  0.45594000000E+02  0.51100000000E-03 0.  1.
         11   -1    0    0    0    0 -0.00000000000E+00 -0.00000000000E+00 -0.45593999997E+02  0.45594000000E+02  0.51100000000E-03 0. -1.
    9900012    2    1    2    0    0  0.35245946006E+02 -0.19436968289E+01  0.20177037642E+02  0.50528837253E+02  0.29999931315E+02 0.  0.
         12    1    1    2    0    0 -0.35245946006E+02  0.19436968289E+01 -0.20177037642E+02  0.40659162747E+02  0.00000000000E+00 0. -1.
         11    1    3    3    0    0  0.73251744820E+01  0.43273208336E+01 -0.23703348447E+01  0.88318952850E+01  0.51100000000E-03 0. -1.
        -11    1    3    3    0    0  0.94613118957E+01 -0.16815740620E+01  0.20405870365E+02  0.22555346589E+02  0.51100000000E-03 0.  1.
        -12    1    3    3    0    0  0.18459459629E+02 -0.45894436005E+01  0.21415021214E+01  0.19141595380E+02  0.00000000000E+00 0.  1.
</event>
<event>
 7    1  0.5910662E-013  0.5052885E+02  0.7816164E-02  0.1300439E+00
        -11   -1    0    0    0    0  0.00000000000E+00  0.00000000000E+00  0.45593999997E+02  0.45594000000E+02  0.51100000000E-03 0.  1.
         11   -1    0    0    0    0 -0.00000000000E+00 -0.00000000000E+00 -0.45593999997E+02  0.45594000000E+02  0.51100000000E-03 0. -1.
    9900012    2    1    2    0    0 -0.39135486708E+02  0.10769708267E+02 -0.23649837124E+01  0.50528854854E+02  0.29999984816E+02 0.  0.
         12    1    1    2    0    0  0.39135486708E+02 -0.10769708267E+02  0.23649837124E+01  0.40659145146E+02  0.00000000000E+00 0. -1.
         11    1    3    3    0    0 -0.29678943709E+01 -0.43790423784E+01 -0.46880919910E+01  0.70684238643E+01  0.51100000000E-03 0. -1.
        -11    1    3    3    0    0 -0.24644213799E+02  0.19101838046E+02  0.24576891184E+01  0.31277111864E+02  0.51100000000E-03 0.  1.
        -12    1    3    3    0    0 -0.11523378538E+02 -0.39530874006E+01 -0.13458083981E+00  0.12183319126E+02  0.00000000000E+00 0.  1.
</event>
<event>
 7    1  0.5910662E-013  0.5052886E+02  0.7816164E-02  0.1300439E+00
        -11   -1    0    0    0    0  0.00000000000E+00  0.00000000000E+00  0.45593999997E+02  0.45594000000E+02  0.51100000000E-03 0.  1.
         11   -1    0    0    0    0 -0.00000000000E+00 -0.00000000000E+00 -0.45593999997E+02  0.45594000000E+02  0.51100000000E-03 0. -1.
    9900012    2    1    2    0    0 -0.21850166504E+02 -0.32145058761E+02  0.11934444080E+02  0.50528861612E+02  0.30000005355E+02 0.  0.
         12    1    1    2    0    0  0.21850166504E+02  0.32145058761E+02 -0.11934444080E+02  0.40659138388E+02  0.00000000000E+00 0. -1.
         11    1    3    3    0    0 -0.23107461076E+01 -0.88122890748E+01 -0.63614015784E+01  0.11111409299E+02  0.51100000000E-03 0. -1.
        -11    1    3    3    0    0 -0.12573872892E+02 -0.18815385783E+02  0.20809214336E+02  0.30743201252E+02  0.51100000000E-03 0.  1.
        -12    1    3    3    0    0 -0.69655475038E+01 -0.45173839030E+01 -0.25133686773E+01  0.86742510606E+01  0.00000000000E+00 0.  1.
</event>
<event>
 7    1  0.5910662E-013  0.5052886E+02  0.7816164E-02  0.1300439E+00
        -11   -1    0    0    0    0  0.00000000000E+00  0.00000000000E+00  0.45593999997E+02  0.45594000000E+02  0.51100000000E-03 0.  1.
         11   -1    0    0    0    0 -0.00000000000E+00 -0.00000000000E+00 -0.45593999997E+02  0.45594000000E+02  0.51100000000E-03 0. -1.
    9900012    2    1    2    0    0  0.22381006426E+02 -0.25010692108E+02  0.22950415670E+02  0.50528858989E+02  0.29999997383E+02 0.  0.
         12    1    1    2    0    0 -0.22381006426E+02  0.25010692108E+02 -0.22950415670E+02  0.40659141011E+02  0.00000000000E+00 0. -1.
         11    1    3    3    0    0 -0.42792295537E+00 -0.12704878593E+02  0.41228711267E+01  0.13363948695E+02  0.51100000000E-03 0. -1.
        -11    1    3    3    0    0  0.23564346469E+02 -0.13138365041E+02  0.21348753180E+02  0.34404423016E+02  0.51100000000E-03 0.  1.
        -12    1    3    3    0    0 -0.75541708786E+00  0.83255152687E+00 -0.25212086369E+01  0.27604872781E+01  0.00000000000E+00 0.  1.
</event>
<event>
 7    1  0.5910662E-013  0.5052885E+02  0.7816164E-02  0.1300439E+00
        -11   -1    0    0    0    0  0.00000000000E+00  0.00000000000E+00  0.45593999997E+02  0.45594000000E+02  0.51100000000E-03 0.  1.
         11   -1    0    0    0    0 -0.00000000000E+00 -0.00000000000E+00 -0.45593999997E+02  0.45594000000E+02  0.51100000000E-03 0. -1.
    9900012    2    1    2    0    0  0.21813312649E+02  0.54044394980E+01  0.33884181159E+02  0.50528852102E+02  0.29999976449E+02 0.  0.
         12    1    1    2    0    0 -0.21813312649E+02 -0.54044394980E+01 -0.33884181159E+02  0.40659147898E+02  0.00000000000E+00 0. -1.
         11    1    3    3    0    0  0.11522656331E+02 -0.87180001855E+01  0.71335516165E+01  0.16114052721E+02  0.51100000000E-03 0. -1.
        -11    1    3    3    0    0  0.63166752733E+01  0.13799016412E+02  0.12636378295E+02  0.19748197313E+02  0.51100000000E-03 0.  1.
        -12    1    3    3    0    0  0.39739810446E+01  0.32342327138E+00  0.14114251247E+02  0.14666602068E+02  0.00000000000E+00 0.  1.
</event>
<event>
 7    1  0.5910662E-013  0.5052873E+02  0.7816164E-02  0.1300439E+00
        -11   -1    0    0    0    0  0.00000000000E+00  0.00000000000E+00  0.45593999997E+02  0.45594000000E+02  0.51100000000E-03 0.  1.
         11   -1    0    0    0    0 -0.00000000000E+00 -0.00000000000E+00 -0.45593999997E+02  0.45594000000E+02  0.51100000000E-03 0. -1.
    9900012    2    1    2    0    0  0.36073946815E+02  0.18553242175E+02 -0.27611710274E+01  0.50528726771E+02  0.29999595492E+02 0.  0.
         12    1    1    2    0    0 -0.36073946815E+02 -0.18553242175E+02  0.27611710274E+01  0.40659273229E+02  0.00000000000E+00 0. -1.
         11    1    3    3    0    0  0.47718836739E+00 -0.53394423484E+01  0.45067699481E+01  0.70034512175E+01  0.51100000000E-03 0. -1.
        -11    1    3    3    0    0  0.23275315407E+02  0.16690319434E+02 -0.47036752781E+01  0.29024672805E+02  0.51100000000E-03 0.  1.
         12    1    3    3    0    0  0.12321443041E+02  0.72023650898E+01 -0.25642656974E+01  0.14500602749E+02  0.00000000000E+00 0. -1.
</event>
<event>
 7    1  0.5910662E-013  0.5052887E+02  0.7816164E-02  0.1300439E+00
        -11   -1    0    0    0    0  0.00000000000E+00  0.00000000000E+00  0.45593999997E+02  0.45594000000E+02  0.51100000000E-03 0.  1.
         11   -1    0    0    0    0 -0.00000000000E+00 -0.00000000000E+00 -0.45593999997E+02  0.45594000000E+02  0.51100000000E-03 0. -1.
    9900012    2    1    2    0    0  0.17659572336E+02  0.29164045237E+02  0.22153173032E+02  0.50528866893E+02  0.30000021407E+02 0.  0.
         12    1    1    2    0    0 -0.17659572336E+02 -0.29164045237E+02 -0.22153173032E+02  0.40659133107E+02  0.00000000000E+00 0. -1.
         11    1    3    3    0    0  0.20806020056E+02  0.89159886082E+01  0.10930525659E+02  0.25136859686E+02  0.51100000000E-03 0. -1.
        -11    1    3    3    0    0 -0.65929925721E+00  0.18385035142E+02  0.60655057923E+01  0.19370971929E+02  0.51100000000E-03 0.  1.
         12    1    3    3    0    0 -0.24871484632E+01  0.18630214867E+01  0.51571415800E+01  0.60210352776E+01  0.00000000000E+00 0. -1.
</event>
<event>
 7    1  0.5910662E-013  0.5052886E+02  0.7816164E-02  0.1300439E+00
        -11   -1    0    0    0    0  0.00000000000E+00  0.00000000000E+00  0.45593999997E+02  0.45594000000E+02  0.51100000000E-03 0.  1.
         11   -1    0    0    0    0 -0.00000000000E+00 -0.00000000000E+00 -0.45593999997E+02  0.45594000000E+02  0.51100000000E-03 0. -1.
    9900012    2    1    2    0    0  0.26926380170E+02 -0.15008764953E+02  0.26511747463E+02  0.50528859231E+02  0.29999998119E+02 0.  0.
         12    1    1    2    0    0 -0.26926380170E+02  0.15008764953E+02 -0.26511747463E+02  0.40659140769E+02  0.00000000000E+00 0. -1.
         11    1    3    3    0    0  0.19800553434E+02 -0.49543270330E+01  0.22006713160E+01  0.20529252961E+02  0.51100000000E-03 0. -1.
        -11    1    3    3    0    0  0.72817992428E+01 -0.12772771571E+02  0.18931207451E+02  0.23969958482E+02  0.51100000000E-03 0.  1.
         12    1    3    3    0    0 -0.15597250611E+00  0.27183336510E+01  0.53798686965E+01  0.60296477884E+01  0.00000000000E+00 0. -1.
</event>
<event>
 7    1  0.5910662E-013  0.5052886E+02  0.7816164E-02  0.1300439E+00
        -11   -1    0    0    0    0  0.00000000000E+00  0.00000000000E+00  0.45593999997E+02  0.45594000000E+02  0.51100000000E-03 0.  1.
         11   -1    0    0    0    0 -0.00000000000E+00 -0.00000000000E+00 -0.45593999997E+02  0.45594000000E+02  0.51100000000E-03 0. -1.
    9900012    2    1    2    0    0  0.12557012631E+02  0.30118131583E+02  0.24256658267E+02  0.50528857282E+02  0.29999992195E+02 0.  0.
         12    1    1    2    0    0 -0.12557012631E+02 -0.30118131583E+02 -0.24256658267E+02  0.40659142718E+02  0.00000000000E+00 0. -1.
         11    1    3    3    0    0 -0.39577985680E+01  0.23191812905E+01  0.90705983791E+01  0.10164572130E+02  0.51100000000E-03 0. -1.
        -11    1    3    3    0    0  0.84536955099E+01  0.55060565944E+01 -0.29563849655E+01  0.10512936760E+02  0.51100000000E-03 0.  1.
        -12    1    3    3    0    0  0.80611156892E+01  0.22292893698E+02  0.18142444853E+02  0.29851348392E+02  0.00000000000E+00 0.  1.
</event>
<event>
 7    1  0.5910662E-013  0.5052886E+02  0.7816164E-02  0.1300439E+00
        -11   -1    0    0    0    0  0.00000000000E+00  0.00000000000E+00  0.45593999997E+02  0.45594000000E+02  0.51100000000E-03 0.  1.
         11   -1    0    0    0    0 -0.00000000000E+00 -0.00000000000E+00 -0.45593999997E+02  0.45594000000E+02  0.51100000000E-03 0. -1.
    9900012    2    1    2    0    0  0.31815109221E+02 -0.32091296717E+01  0.25113069946E+02  0.50528856254E+02  0.29999989071E+02 0.  0.
         12    1    1    2    0    0 -0.31815109221E+02  0.32091296717E+01 -0.25113069946E+02  0.40659143746E+02  0.00000000000E+00 0. -1.
         11    1    3    3    0    0  0.17559733162E+02 -0.28377093434E+01  0.26774142732E+02  0.32144230311E+02  0.51100000000E-03 0. -1.
        -11    1    3    3    0    0  0.81453657312E+01  0.52670587760E+01 -0.25321258495E+01  0.10024996390E+02  0.51100000000E-03 0.  1.
        -12    1    3    3    0    0  0.61100103280E+01 -0.56384791044E+01  0.87105306418E+00  0.83596295528E+01  0.00000000000E+00 0.  1.
</event>
<event>
 7    1  0.5910662E-013  0.5052886E+02  0.7816164E-02  0.1300439E+00
        -11   -1    0    0    0    0  0.00000000000E+00  0.00000000000E+00  0.45593999997E+02  0.45594000000E+02  0.51100000000E-03 0. -1.
         11   -1    0    0    0    0 -0.00000000000E+00 -0.00000000000E+00 -0.45593999997E+02  0.45594000000E+02  0.51100000000E-03 0.  1.
    9900012    2    1    2    0    0  0.24426371256E+02  0.32470391847E+02 -0.14805256769E+01  0.50528856923E+02  0.29999991105E+02 0.  0.
         12    1    1    2    0    0 -0.24426371256E+02 -0.32470391847E+02  0.14805256769E+01  0.40659143077E+02  0.00000000000E+00 0. -1.
         11    1    3    3    0    0  0.37118014474E+00  0.14697956728E+02 -0.62399721282E+01  0.15972005482E+02  0.51100000000E-03 0. -1.
        -11    1    3    3    0    0  0.18290204204E+02  0.16795515227E+02  0.99375023017E+01  0.26746492365E+02  0.51100000000E-03 0.  1.
        -12    1    3    3    0    0  0.57649869072E+01  0.97691989134E+00 -0.51780558504E+01  0.78103590765E+01  0.00000000000E+00 0.  1.
</event>
<event>
 7    1  0.5910662E-013  0.5052887E+02  0.7816164E-02  0.1300439E+00
        -11   -1    0    0    0    0  0.00000000000E+00  0.00000000000E+00  0.45593999997E+02  0.45594000000E+02  0.51100000000E-03 0.  1.
         11   -1    0    0    0    0 -0.00000000000E+00 -0.00000000000E+00 -0.45593999997E+02  0.45594000000E+02  0.51100000000E-03 0. -1.
    9900012    2    1    2    0    0  0.31866983929E+02 -0.25770784133E+01  0.25120095601E+02  0.50528865714E+02  0.30000017824E+02 0.  0.
         12    1    1    2    0    0 -0.31866983929E+02  0.25770784133E+01 -0.25120095601E+02  0.40659134286E+02  0.00000000000E+00 0. -1.
         11    1    3    3    0    0  0.37102947844E+01 -0.27179688402E+01 -0.54804260310E+01  0.71546286938E+01  0.51100000000E-03 0. -1.
        -11    1    3    3    0    0  0.24759279070E+02  0.12092254538E+01  0.31108070351E+02  0.39776829530E+02  0.51100000000E-03 0.  1.
        -12    1    3    3    0    0  0.33974100752E+01 -0.10683350269E+01 -0.50754871900E+00  0.35974074903E+01  0.00000000000E+00 0.  1.
</event>
<event>
 7    1  0.5910662E-013  0.5052886E+02  0.7816164E-02  0.1300439E+00
        -11   -1    0    0    0    0  0.00000000000E+00  0.00000000000E+00  0.45593999997E+02  0.45594000000E+02  0.51100000000E-03 0.  1.
         11   -1    0    0    0    0 -0.00000000000E+00 -0.00000000000E+00 -0.45593999997E+02  0.45594000000E+02  0.51100000000E-03 0. -1.
    9900012    2    1    2    0    0 -0.30338934462E+02 -0.25915226010E+02  0.78176327169E+01  0.50528864929E+02  0.30000015439E+02 0.  0.
         12    1    1    2    0    0  0.30338934462E+02  0.25915226010E+02 -0.78176327169E+01  0.40659135071E+02  0.00000000000E+00 0. -1.
         11    1    3    3    0    0 -0.49442188103E+01  0.18091099168E+00 -0.70815140447E+01  0.86386266187E+01  0.51100000000E-03 0. -1.
        -11    1    3    3    0    0 -0.21495303879E+02 -0.12307946271E+02  0.83885065141E+01  0.26151494643E+02  0.51100000000E-03 0.  1.
         12    1    3    3    0    0 -0.38994117721E+01 -0.13788190731E+02  0.65106402476E+01  0.15738743668E+02  0.00000000000E+00 0. -1.
</event>
<event>
 7    1  0.5910662E-013  0.5052886E+02  0.7816164E-02  0.1300439E+00
        -11   -1    0    0    0    0  0.00000000000E+00  0.00000000000E+00  0.45593999997E+02  0.45594000000E+02  0.51100000000E-03 0.  1.
         11   -1    0    0    0    0 -0.00000000000E+00 -0.00000000000E+00 -0.45593999997E+02  0.45594000000E+02  0.51100000000E-03 0. -1.
    9900012    2    1    2    0    0 -0.17345203899E+02 -0.24429143335E+01  0.36692527788E+02  0.50528861738E+02  0.30000005740E+02 0.  0.
         12    1    1    2    0    0  0.17345203899E+02  0.24429143335E+01 -0.36692527788E+02  0.40659138262E+02  0.00000000000E+00 0. -1.
         11    1    3    3    0    0  0.67730760521E+01 -0.22222187376E+01  0.84808570347E+01  0.11078707128E+02  0.51100000000E-03 0. -1.
        -11    1    3    3    0    0 -0.23362844902E+02 -0.39879394313E+01  0.24917807947E+02  0.34389291007E+02  0.51100000000E-03 0.  1.
        -12    1    3    3    0    0 -0.75543504904E+00  0.37672438354E+01  0.32938628056E+01  0.50608636032E+01  0.00000000000E+00 0.  1.
</event>
<event>
 7    1  0.5910662E-013  0.5052888E+02  0.7816164E-02  0.1300439E+00
        -11   -1    0    0    0    0  0.00000000000E+00  0.00000000000E+00  0.45593999997E+02  0.45594000000E+02  0.51100000000E-03 0.  1.
         11   -1    0    0    0    0 -0.00000000000E+00 -0.00000000000E+00 -0.45593999997E+02  0.45594000000E+02  0.51100000000E-03 0. -1.
    9900012    2    1    2    0    0  0.25260835519E+02  0.11443973925E+02  0.29733650466E+02  0.50528876542E+02  0.30000050738E+02 0.  0.
         12    1    1    2    0    0 -0.25260835519E+02 -0.11443973925E+02 -0.29733650466E+02  0.40659123458E+02  0.00000000000E+00 0. -1.
         11    1    3    3    0    0 -0.30069650390E+01  0.90747106481E+01  0.67811731883E+01  0.11720773104E+02  0.51100000000E-03 0.  1.
        -11    1    3    3    0    0  0.14819048219E+02 -0.44064754776E+01  0.15906942617E+02  0.22182246052E+02  0.51100000000E-03 0. -1.
         12    1    3    3    0    0  0.13448752340E+02  0.67757387545E+01  0.70455346608E+01  0.16625857386E+02  0.00000000000E+00 0. -1.
</event>
<event>
 7    1  0.5910662E-013  0.5052886E+02  0.7816164E-02  0.1300439E+00
        -11   -1    0    0    0    0  0.00000000000E+00  0.00000000000E+00  0.45593999997E+02  0.45594000000E+02  0.51100000000E-03 0.  1.
         11   -1    0    0    0    0 -0.00000000000E+00 -0.00000000000E+00 -0.45593999997E+02  0.45594000000E+02  0.51100000000E-03 0. -1.
    9900012    2    1    2    0    0  0.22570659480E+02 -0.11064248205E+02  0.31957989060E+02  0.50528864219E+02  0.30000013280E+02 0.  0.
         12    1    1    2    0    0 -0.22570659480E+02  0.11064248205E+02 -0.31957989060E+02  0.40659135781E+02  0.00000000000E+00 0. -1.
         11    1    3    3    0    0  0.26745810678E+02 -0.75808065067E+01  0.14909496359E+02  0.31545207212E+02  0.51100000000E-03 0. -1.
        -11    1    3    3    0    0 -0.31243436616E+01 -0.43722392360E+01  0.16728793165E+02  0.17570729077E+02  0.51100000000E-03 0.  1.
        -12    1    3    3    0    0 -0.10508075370E+01  0.88879753772E+00  0.31969953585E+00  0.14129279303E+01  0.00000000000E+00 0.  1.
</event>
<event>
 7    1  0.5910662E-013  0.5052885E+02  0.7816164E-02  0.1300439E+00
        -11   -1    0    0    0    0  0.00000000000E+00  0.00000000000E+00  0.45593999997E+02  0.45594000000E+02  0.51100000000E-03 0.  1.
         11   -1    0    0    0    0 -0.00000000000E+00 -0.00000000000E+00 -0.45593999997E+02  0.45594000000E+02  0.51100000000E-03 0. -1.
    9900012    2    1    2    0    0  0.28310274334E+01  0.32911671929E+02  0.23705980755E+02  0.50528851103E+02  0.29999973412E+02 0.  0.
         12    1    1    2    0    0 -0.28310274334E+01 -0.32911671929E+02 -0.23705980755E+02  0.40659148897E+02  0.00000000000E+00 0. -1.
         11    1    3    3    0    0  0.36131156261E+01  0.28864034050E+01  0.12130483953E+02  0.12982086517E+02  0.51100000000E-03 0. -1.
        -11    1    3    3    0    0 -0.29993646382E+01  0.27987980921E+02  0.15860857009E+02  0.32309287358E+02  0.51100000000E-03 0.  1.
        -12    1    3    3    0    0  0.22172764455E+01  0.20372876035E+01 -0.42853602064E+01  0.52374772280E+01  0.00000000000E+00 0.  1.
</event>
<event>
 7    1  0.5910662E-013  0.5052886E+02  0.7816164E-02  0.1300439E+00
        -11   -1    0    0    0    0  0.00000000000E+00  0.00000000000E+00  0.45593999997E+02  0.45594000000E+02  0.51100000000E-03 0. -1.
         11   -1    0    0    0    0 -0.00000000000E+00 -0.00000000000E+00 -0.45593999997E+02  0.45594000000E+02  0.51100000000E-03 0.  1.
    9900012    2    1    2    0    0 -0.73011740267E+01  0.26007828384E+02 -0.30388343496E+02  0.50528859578E+02  0.29999999174E+02 0.  0.
         12    1    1    2    0    0  0.73011740267E+01 -0.26007828384E+02  0.30388343496E+02  0.40659140422E+02  0.00000000000E+00 0. -1.
         11    1    3    3    0    0 -0.10225078191E+02 -0.19856877123E+01 -0.73091610607E+01  0.12724740287E+02  0.51100000000E-03 0. -1.
        -11    1    3    3    0    0  0.34404182764E+01  0.87343419996E+01 -0.13073474204E+02  0.16094748712E+02  0.51100000000E-03 0.  1.
         12    1    3    3    0    0 -0.51651411187E+00  0.19259174096E+02 -0.10005708231E+02  0.21709370578E+02  0.00000000000E+00 0. -1.
</event>
<event>
 7    1  0.5910662E-013  0.5052886E+02  0.7816164E-02  0.1300439E+00
        -11   -1    0    0    0    0  0.00000000000E+00  0.00000000000E+00  0.45593999997E+02  0.45594000000E+02  0.51100000000E-03 0.  1.
         11   -1    0    0    0    0 -0.00000000000E+00 -0.00000000000E+00 -0.45593999997E+02  0.45594000000E+02  0.51100000000E-03 0. -1.
    9900012    2    1    2    0    0 -0.10785110229E+02 -0.38434990256E+02  0.77200174386E+01  0.50528858987E+02  0.29999997377E+02 0.  0.
         12    1    1    2    0    0  0.10785110229E+02  0.38434990256E+02 -0.77200174386E+01  0.40659141013E+02  0.00000000000E+00 0. -1.
         11    1    3    3    0    0 -0.19392241604E+02 -0.17183314412E+02  0.16370913662E+01  0.25961613914E+02  0.51100000000E-03 0. -1.
        -11    1    3    3    0    0  0.67761112652E+01 -0.12752470631E+02  0.65575559758E+01  0.15860098729E+02  0.51100000000E-03 0.  1.
        -12    1    3    3    0    0  0.18310201096E+01 -0.84992052137E+01 -0.47462990334E+00  0.87071463438E+01  0.00000000000E+00 0.  1.
</event>
<event>
 7    1  0.5910662E-013  0.5052885E+02  0.7816164E-02  0.1300439E+00
        -11   -1    0    0    0    0  0.00000000000E+00  0.00000000000E+00  0.45593999997E+02  0.45594000000E+02  0.51100000000E-03 0. -1.
         11   -1    0    0    0    0 -0.00000000000E+00 -0.00000000000E+00 -0.45593999997E+02  0.45594000000E+02  0.51100000000E-03 0.  1.
    9900012    2    1    2    0    0  0.34529111604E+02  0.10608261470E+02 -0.18664714757E+02  0.50528851748E+02  0.29999975373E+02 0.  0.
         12    1    1    2    0    0 -0.34529111604E+02 -0.10608261470E+02  0.18664714757E+02  0.40659148252E+02  0.00000000000E+00 0. -1.
         11    1    3    3    0    0 -0.32994774445E+01  0.24822865465E+00 -0.44310483120E+01  0.55301318498E+01  0.51100000000E-03 0. -1.
        -11    1    3    3    0    0  0.30963880027E+02  0.85585074709E+01 -0.37561485469E+01  0.32343756254E+02  0.51100000000E-03 0.  1.
        -12    1    3    3    0    0  0.68647090223E+01  0.18015253446E+01 -0.10477517898E+02  0.12654963644E+02  0.00000000000E+00 0.  1.
</event>
<event>
 7    1  0.5910662E-013  0.5052887E+02  0.7816164E-02  0.1300439E+00
        -11   -1    0    0    0    0  0.00000000000E+00  0.00000000000E+00  0.45593999997E+02  0.45594000000E+02  0.51100000000E-03 0. -1.
         11   -1    0    0    0    0 -0.00000000000E+00 -0.00000000000E+00 -0.45593999997E+02  0.45594000000E+02  0.51100000000E-03 0.  1.
    9900012    2    1    2    0    0  0.28518630092E+02 -0.28979810552E+02  0.15255015208E+00  0.50528868757E+02  0.30000027072E+02 0.  0.
         12    1    1    2    0    0 -0.28518630092E+02  0.28979810552E+02 -0.15255015208E+00  0.40659131243E+02  0.00000000000E+00 0. -1.
         11    1    3    3    0    0 -0.47544962059E+01 -0.36885148709E+01  0.36232355285E+01  0.70241164627E+01  0.51100000000E-03 0. -1.
        -11    1    3    3    0    0  0.25806719043E+02 -0.24640327315E+02 -0.44055874065E+01  0.35951935673E+02  0.51100000000E-03 0.  1.
         12    1    3    3    0    0  0.74664072548E+01 -0.65096836545E+00  0.93490203009E+00  0.75528166212E+01  0.00000000000E+00 0. -1.
</event>
<event>
 7    1  0.5910662E-013  0.5052892E+02  0.7816164E-02  0.1300439E+00
        -11   -1    0    0    0    0  0.00000000000E+00  0.00000000000E+00  0.45593999997E+02  0.45594000000E+02  0.51100000000E-03 0.  1.
         11   -1    0    0    0    0 -0.00000000000E+00 -0.00000000000E+00 -0.45593999997E+02  0.45594000000E+02  0.51100000000E-03 0. -1.
    9900012    2    1    2    0    0 -0.49694324244E+01  0.38492860902E+02  0.12114654932E+02  0.50528923975E+02  0.30000194914E+02 0.  0.
         12    1    1    2    0    0  0.49694324244E+01 -0.38492860902E+02 -0.12114654932E+02  0.40659076025E+02  0.00000000000E+00 0. -1.
         11    1    3    3    0    0 -0.20904295175E+01  0.34422700376E+01  0.13700970431E+02  0.14280606065E+02  0.51100000000E-03 0. -1.
        -11    1    3    3    0    0 -0.59678314693E+00  0.17869801647E+01  0.19597486836E+01  0.27184671044E+01  0.51100000000E-03 0.  1.
         12    1    3    3    0    0 -0.22822197600E+01  0.33263610700E+02 -0.35460641831E+01  0.33529850805E+02  0.00000000000E+00 0. -1.
</event>
<event>
 7    1  0.5910662E-013  0.5052884E+02  0.7816164E-02  0.1300439E+00
        -11   -1    0    0    0    0  0.00000000000E+00  0.00000000000E+00  0.45593999997E+02  0.45594000000E+02  0.51100000000E-03 0.  1.
         11   -1    0    0    0    0 -0.00000000000E+00 -0.00000000000E+00 -0.45593999997E+02  0.45594000000E+02  0.51100000000E-03 0. -1.
    9900012    2    1    2    0    0 -0.48256564796E+01 -0.33421318421E+02 -0.22647195691E+02  0.50528844104E+02  0.29999952140E+02 0.  0.
         12    1    1    2    0    0  0.48256564796E+01  0.33421318421E+02  0.22647195691E+02  0.40659155896E+02  0.00000000000E+00 0. -1.
         11    1    3    3    0    0 -0.37866587291E+01 -0.90318330205E+00 -0.14603030733E+01  0.41577649927E+01  0.51100000000E-03 0. -1.
        -11    1    3    3    0    0 -0.27556299214E+01 -0.30045268700E+02 -0.58395390191E+01  0.30731285097E+02  0.51100000000E-03 0.  1.
        -12    1    3    3    0    0  0.17166321709E+01 -0.24728664192E+01 -0.15347353598E+02  0.15639794014E+02  0.00000000000E+00 0.  1.
</event>
<event>
 7    1  0.5910662E-013  0.5052887E+02  0.7816164E-02  0.1300439E+00
        -11   -1    0    0    0    0  0.00000000000E+00  0.00000000000E+00  0.45593999997E+02  0.45594000000E+02  0.51100000000E-03 0. -1.
         11   -1    0    0    0    0 -0.00000000000E+00 -0.00000000000E+00 -0.45593999997E+02  0.45594000000E+02  0.51100000000E-03 0.  1.
    9900012    2    1    2    0    0  0.32107853215E+02 -0.16191696808E+02 -0.18975767090E+02  0.50528867936E+02  0.30000024578E+02 0.  0.
         12    1    1    2    0    0 -0.32107853215E+02  0.16191696808E+02  0.18975767090E+02  0.40659132064E+02  0.00000000000E+00 0. -1.
         11    1    3    3    0    0 -0.35016907064E+01 -0.47326269388E+00  0.26413772499E+01  0.44116538190E+01  0.51100000000E-03 0. -1.
        -11    1    3    3    0    0  0.33277321083E+02 -0.17686316895E+02 -0.19981729578E+02  0.42655074973E+02  0.51100000000E-03 0.  1.
        -12    1    3    3    0    0  0.23322228379E+01  0.19678827812E+01 -0.16354147623E+01  0.34621391438E+01  0.00000000000E+00 0.  1.
</event>
<event>
 7    1  0.5910662E-013  0.5052889E+02  0.7816164E-02  0.1300439E+00
        -11   -1    0    0    0    0  0.00000000000E+00  0.00000000000E+00  0.45593999997E+02  0.45594000000E+02  0.51100000000E-03 0. -1.
         11   -1    0    0    0    0 -0.00000000000E+00 -0.00000000000E+00 -0.45593999997E+02  0.45594000000E+02  0.51100000000E-03 0.  1.
    9900012    2    1    2    0    0  0.22153024190E+02 -0.61843293758E+01 -0.33528506975E+02  0.50528890436E+02  0.30000092968E+02 0.  0.
         12    1    1    2    0    0 -0.22153024190E+02  0.61843293758E+01  0.33528506975E+02  0.40659109564E+02  0.00000000000E+00 0. -1.
         11    1    3    3    0    0 -0.82781118716E+00  0.27428993935E+01 -0.13977162073E+02  0.14267789889E+02  0.51100000000E-03 0.  1.
        -11    1    3    3    0    0  0.20674178037E+02 -0.12237564428E+02 -0.10245053062E+02  0.26117824051E+02  0.51100000000E-03 0. -1.
         12    1    3    3    0    0  0.23066573403E+01  0.33103356588E+01 -0.93062918402E+01  0.10143276496E+02  0.00000000000E+00 0. -1.
</event>
<event>
 7    1  0.5910662E-013  0.5052886E+02  0.7816164E-02  0.1300439E+00
        -11   -1    0    0    0    0  0.00000000000E+00  0.00000000000E+00  0.45593999997E+02  0.45594000000E+02  0.51100000000E-03 0.  1.
         11   -1    0    0    0    0 -0.00000000000E+00 -0.00000000000E+00 -0.45593999997E+02  0.45594000000E+02  0.51100000000E-03 0. -1.
    9900012    2    1    2    0    0  0.35476087209E+01 -0.15747394510E+02  0.37317554255E+02  0.50528858136E+02  0.29999994792E+02 0.  0.
         12    1    1    2    0    0 -0.35476087209E+01  0.15747394510E+02 -0.37317554255E+02  0.40659141864E+02  0.00000000000E+00 0. -1.
         11    1    3    3    0    0 -0.43113729875E+01  0.40211366805E+01 -0.13517138718E+01  0.60485211327E+01  0.51100000000E-03 0. -1.
        -11    1    3    3    0    0  0.31054230128E+01 -0.99015842629E+01  0.24218830328E+02  0.26348373113E+02  0.51100000000E-03 0.  1.
         12    1    3    3    0    0  0.47535586955E+01 -0.98669469272E+01  0.14450437799E+02  0.18131963890E+02  0.00000000000E+00 0. -1.
</event>
<event>
 7    1  0.5910662E-013  0.5052886E+02  0.7816164E-02  0.1300439E+00
        -11   -1    0    0    0    0  0.00000000000E+00  0.00000000000E+00  0.45593999997E+02  0.45594000000E+02  0.51100000000E-03 0.  1.
         11   -1    0    0    0    0 -0.00000000000E+00 -0.00000000000E+00 -0.45593999997E+02  0.45594000000E+02  0.51100000000E-03 0. -1.
    9900012    2    1    2    0    0  0.16282559124E+02 -0.37138753134E+02 -0.29592605634E+01  0.50528856637E+02  0.29999990232E+02 0.  0.
         12    1    1    2    0    0 -0.16282559124E+02  0.37138753134E+02  0.29592605634E+01  0.40659143363E+02  0.00000000000E+00 0. -1.
         11    1    3    3    0    0  0.48108000969E+01 -0.99689543403E+01 -0.11070701742E+02  0.15655168014E+02  0.51100000000E-03 0. -1.
        -11    1    3    3    0    0  0.95700197218E+01 -0.41127753870E+01  0.49181004102E+01  0.11519023863E+02  0.51100000000E-03 0.  1.
        -12    1    3    3    0    0  0.19017393050E+01 -0.23057023407E+02  0.31933407685E+01  0.23354664759E+02  0.00000000000E+00 0.  1.
</event>
<event>
 7    1  0.5910662E-013  0.5052885E+02  0.7816164E-02  0.1300439E+00
        -11   -1    0    0    0    0  0.00000000000E+00  0.00000000000E+00  0.45593999997E+02  0.45594000000E+02  0.51100000000E-03 0.  1.
         11   -1    0    0    0    0 -0.00000000000E+00 -0.00000000000E+00 -0.45593999997E+02  0.45594000000E+02  0.51100000000E-03 0. -1.
    9900012    2    1    2    0    0  0.16000038463E+02  0.85926856255E+01  0.36377618726E+02  0.50528848247E+02  0.29999964732E+02 0.  0.
         12    1    1    2    0    0 -0.16000038463E+02 -0.85926856255E+01 -0.36377618726E+02  0.40659151753E+02  0.00000000000E+00 0. -1.
         11    1    3    3    0    0 -0.54726500518E+01  0.51425240021E+01  0.96435567345E+01  0.12222669040E+02  0.51100000000E-03 0. -1.
        -11    1    3    3    0    0  0.13385900786E+02  0.88651909951E+01  0.99028218746E+01  0.18863717358E+02  0.51100000000E-03 0.  1.
         12    1    3    3    0    0  0.80867877295E+01 -0.54150293717E+01  0.16831240117E+02  0.19442461849E+02  0.00000000000E+00 0. -1.
</event>
<event>
 7    1  0.5910662E-013  0.5052886E+02  0.7816164E-02  0.1300439E+00
        -11   -1    0    0    0    0  0.00000000000E+00  0.00000000000E+00  0.45593999997E+02  0.45594000000E+02  0.51100000000E-03 0.  1.
         11   -1    0    0    0    0 -0.00000000000E+00 -0.00000000000E+00 -0.45593999997E+02  0.45594000000E+02  0.51100000000E-03 0. -1.
    9900012    2    1    2    0    0  0.85663478830E+01 -0.21242543872E+01  0.39689687054E+02  0.50528855503E+02  0.29999986788E+02 0.  0.
         12    1    1    2    0    0 -0.85663478830E+01  0.21242543872E+01 -0.39689687054E+02  0.40659144497E+02  0.00000000000E+00 0. -1.
         11    1    3    3    0    0  0.13354018796E+02 -0.98207459012E+01  0.19063986168E+02  0.25262866759E+02  0.51100000000E-03 0. -1.
        -11    1    3    3    0    0 -0.53429051496E+01 -0.11434063992E+01  0.55997346554E+01  0.78237485966E+01  0.51100000000E-03 0.  1.
         12    1    3    3    0    0  0.55523423697E+00  0.88398979132E+01  0.15025966231E+02  0.17442240147E+02  0.00000000000E+00 0. -1.
</event>
<event>
 7    1  0.5910662E-013  0.5052885E+02  0.7816164E-02  0.1300439E+00
        -11   -1    0    0    0    0  0.00000000000E+00  0.00000000000E+00  0.45593999997E+02  0.45594000000E+02  0.51100000000E-03 0.  1.
         11   -1    0    0    0    0 -0.00000000000E+00 -0.00000000000E+00 -0.45593999997E+02  0.45594000000E+02  0.51100000000E-03 0. -1.
    9900012    2    1    2    0    0 -0.40403900319E+02  0.41232061865E+01  0.19209887286E+01  0.50528853575E+02  0.29999980928E+02 0.  0.
         12    1    1    2    0    0  0.40403900319E+02 -0.41232061865E+01 -0.19209887286E+01  0.40659146425E+02  0.00000000000E+00 0. -1.
         11    1    3    3    0    0 -0.26307760646E+00  0.42175384720E+01 -0.49637621415E+01  0.65188783889E+01  0.51100000000E-03 0. -1.
        -11    1    3    3    0    0 -0.19015951876E+02 -0.82750319714E+01  0.19904573767E+01  0.20833734680E+02  0.51100000000E-03 0.  1.
        -12    1    3    3    0    0 -0.21124870837E+02  0.81806996859E+01  0.48942934934E+01  0.23176240507E+02  0.00000000000E+00 0.  1.
</event>
<event>
 7    1  0.5910662E-013  0.5052877E+02  0.7816164E-02  0.1300439E+00
        -11   -1    0    0    0    0  0.00000000000E+00  0.00000000000E+00  0.45593999997E+02  0.45594000000E+02  0.51100000000E-03 0.  1.
         11   -1    0    0    0    0 -0.00000000000E+00 -0.00000000000E+00 -0.45593999997E+02  0.45594000000E+02  0.51100000000E-03 0. -1.
    9900012    2    1    2    0    0 -0.28703093975E+02  0.21673340754E+02  0.18962370026E+02  0.50528772509E+02  0.29999734517E+02 0.  0.
         12    1    1    2    0    0  0.28703093975E+02 -0.21673340754E+02 -0.18962370026E+02  0.40659227491E+02  0.00000000000E+00 0. -1.
         11    1    3    3    0    0 -0.20046683075E+02 -0.23164229733E+01  0.38570253959E+01  0.20545363537E+02  0.51100000000E-03 0. -1.
        -11    1    3    3    0    0 -0.85792640066E+01  0.19919779402E+02  0.13807264467E+02  0.25710735786E+02  0.51100000000E-03 0.  1.
         12    1    3    3    0    0 -0.77146893771E-01  0.40699843249E+01  0.12980801628E+01  0.42726731864E+01  0.00000000000E+00 0. -1.
</event>
<event>
 7    1  0.5910662E-013  0.5052887E+02  0.7816164E-02  0.1300439E+00
        -11   -1    0    0    0    0  0.00000000000E+00  0.00000000000E+00  0.45593999997E+02  0.45594000000E+02  0.51100000000E-03 0.  1.
         11   -1    0    0    0    0 -0.00000000000E+00 -0.00000000000E+00 -0.45593999997E+02  0.45594000000E+02  0.51100000000E-03 0. -1.
    9900012    2    1    2    0    0 -0.20539878635E+02  0.21954182707E+02 -0.27373196557E+02  0.50528872582E+02  0.30000038700E+02 0.  0.
         12    1    1    2    0    0  0.20539878635E+02 -0.21954182707E+02  0.27373196557E+02  0.40659127418E+02  0.00000000000E+00 0. -1.
         11    1    3    3    0    0 -0.33293802035E+01  0.82117847294E+01 -0.26974655369E+02  0.28392784533E+02  0.51100000000E-03 0. -1.
        -11    1    3    3    0    0 -0.86700397009E+01  0.76734314991E+01 -0.11319439951E+01  0.11633247047E+02  0.51100000000E-03 0.  1.
         12    1    3    3    0    0 -0.85404587302E+01  0.60689664786E+01  0.73340280757E+00  0.10502841002E+02  0.00000000000E+00 0. -1.
</event>
<event>
 7    1  0.5910662E-013  0.5052889E+02  0.7816164E-02  0.1300439E+00
        -11   -1    0    0    0    0  0.00000000000E+00  0.00000000000E+00  0.45593999997E+02  0.45594000000E+02  0.51100000000E-03 0.  1.
         11   -1    0    0    0    0 -0.00000000000E+00 -0.00000000000E+00 -0.45593999997E+02  0.45594000000E+02  0.51100000000E-03 0. -1.
    9900012    2    1    2    0    0  0.13127976903E+02  0.34213631519E+02  0.17613823396E+02  0.50528891132E+02  0.30000095086E+02 0.  0.
         12    1    1    2    0    0 -0.13127976903E+02 -0.34213631519E+02 -0.17613823396E+02  0.40659108868E+02  0.00000000000E+00 0. -1.
         11    1    3    3    0    0  0.13816673528E+02  0.29298137574E+02  0.13679050754E+02  0.35162448187E+02  0.51100000000E-03 0. -1.
        -11    1    3    3    0    0 -0.43767703020E+01  0.45162183645E+01  0.77929884915E+01  0.10014140826E+02  0.51100000000E-03 0.  1.
         12    1    3    3    0    0  0.36880736773E+01  0.39927558020E+00 -0.38582158494E+01  0.53523021196E+01  0.00000000000E+00 0. -1.
</event>
<event>
 7    1  0.5910662E-013  0.5052886E+02  0.7816164E-02  0.1300439E+00
        -11   -1    0    0    0    0  0.00000000000E+00  0.00000000000E+00  0.45593999997E+02  0.45594000000E+02  0.51100000000E-03 0. -1.
         11   -1    0    0    0    0 -0.00000000000E+00 -0.00000000000E+00 -0.45593999997E+02  0.45594000000E+02  0.51100000000E-03 0.  1.
    9900012    2    1    2    0    0  0.12802655219E+02  0.38590840292E+02  0.69901107590E-01  0.50528858086E+02  0.29999994637E+02 0.  0.
         12    1    1    2    0    0 -0.12802655219E+02 -0.38590840292E+02 -0.69901107590E-01  0.40659141914E+02  0.00000000000E+00 0. -1.
         11    1    3    3    0    0 -0.37742263528E+01  0.17477210888E+02 -0.60078096852E+01  0.18862435221E+02  0.51100000000E-03 0. -1.
        -11    1    3    3    0    0  0.16826001260E+02  0.20937195331E+02  0.13135453878E+01  0.26892487213E+02  0.51100000000E-03 0.  1.
        -12    1    3    3    0    0 -0.24911968855E+00  0.17643407179E+00  0.47641654049E+01  0.47739356517E+01  0.00000000000E+00 0.  1.
</event>
<event>
 7    1  0.5910662E-013  0.5052887E+02  0.7816164E-02  0.1300439E+00
        -11   -1    0    0    0    0  0.00000000000E+00  0.00000000000E+00  0.45593999997E+02  0.45594000000E+02  0.51100000000E-03 0.  1.
         11   -1    0    0    0    0 -0.00000000000E+00 -0.00000000000E+00 -0.45593999997E+02  0.45594000000E+02  0.51100000000E-03 0. -1.
    9900012    2    1    2    0    0 -0.14873867042E+02  0.37154243868E+02  0.71760079743E+01  0.50528870046E+02  0.30000030991E+02 0.  0.
         12    1    1    2    0    0  0.14873867042E+02 -0.37154243868E+02 -0.71760079743E+01  0.40659129954E+02  0.00000000000E+00 0. -1.
         11    1    3    3    0    0  0.12658996424E+01  0.27796097875E+01  0.56316117324E+01  0.64065422375E+01  0.51100000000E-03 0. -1.
        -11    1    3    3    0    0 -0.17685190902E+02  0.33416949898E+02 -0.42529019683E+01  0.38046625253E+02  0.51100000000E-03 0.  1.
        -12    1    3    3    0    0  0.15454242177E+01  0.95768418264E+00  0.57972982103E+01  0.60757025557E+01  0.00000000000E+00 0.  1.
</event>
<event>
 7    1  0.5910662E-013  0.5052886E+02  0.7816164E-02  0.1300439E+00
        -11   -1    0    0    0    0  0.00000000000E+00  0.00000000000E+00  0.45593999997E+02  0.45594000000E+02  0.51100000000E-03 0.  1.
         11   -1    0    0    0    0 -0.00000000000E+00 -0.00000000000E+00 -0.45593999997E+02  0.45594000000E+02  0.51100000000E-03 0. -1.
    9900012    2    1    2    0    0  0.18002659918E+02 -0.34748148098E+01  0.36290438464E+02  0.50528855568E+02  0.29999986984E+02 0.  0.
         12    1    1    2    0    0 -0.18002659918E+02  0.34748148098E+01 -0.36290438464E+02  0.40659144432E+02  0.00000000000E+00 0. -1.
         11    1    3    3    0    0  0.17767134864E+02 -0.10647405804E+02  0.25710360049E+02  0.33016071022E+02  0.51100000000E-03 0. -1.
        -11    1    3    3    0    0  0.26610385706E+01 -0.12832735711E+01  0.77146933058E+01  0.82610175157E+01  0.51100000000E-03 0.  1.
         12    1    3    3    0    0 -0.24255135166E+01  0.84558645649E+01  0.28653851089E+01  0.92517670303E+01  0.00000000000E+00 0. -1.
</event>
<event>
 7    1  0.5910662E-013  0.5052885E+02  0.7816164E-02  0.1300439E+00
        -11   -1    0    0    0    0  0.00000000000E+00  0.00000000000E+00  0.45593999997E+02  0.45594000000E+02  0.51100000000E-03 0.  1.
         11   -1    0    0    0    0 -0.00000000000E+00 -0.00000000000E+00 -0.45593999997E+02  0.45594000000E+02  0.51100000000E-03 0. -1.
    9900012    2    1    2    0    0  0.50864596170E+01  0.82018298623E+01  0.39497140622E+02  0.50528853405E+02  0.29999980410E+02 0.  0.
         12    1    1    2    0    0 -0.50864596170E+01 -0.82018298623E+01 -0.39497140622E+02  0.40659146595E+02  0.00000000000E+00 0. -1.
         11    1    3    3    0    0  0.72219143546E+01 -0.44044417678E+01  0.41006424233E+01  0.94005543866E+01  0.51100000000E-03 0. -1.
        -11    1    3    3    0    0  0.97311750077E+00  0.81119541479E+01  0.34665175298E+02  0.35614956640E+02  0.51100000000E-03 0.  1.
         12    1    3    3    0    0 -0.31085722384E+01  0.44943174822E+01  0.73132290036E+00  0.55133423779E+01  0.00000000000E+00 0. -1.
</event>
<event>
 7    1  0.5910662E-013  0.5052885E+02  0.7816164E-02  0.1300439E+00
        -11   -1    0    0    0    0  0.00000000000E+00  0.00000000000E+00  0.45593999997E+02  0.45594000000E+02  0.51100000000E-03 0. -1.
         11   -1    0    0    0    0 -0.00000000000E+00 -0.00000000000E+00 -0.45593999997E+02  0.45594000000E+02  0.51100000000E-03 0.  1.
    9900012    2    1    2    0    0  0.23277991222E+02 -0.59436816351E+01  0.32802049657E+02  0.50528847421E+02  0.29999962221E+02 0.  0.
         12    1    1    2    0    0 -0.23277991222E+02  0.59436816351E+01 -0.32802049657E+02  0.40659152579E+02  0.00000000000E+00 0. -1.
         11    1    3    3    0    0  0.17450863104E+02  0.56375457418E+01  0.18669964596E+02  0.26170252642E+02  0.51100000000E-03 0. -1.
        -11    1    3    3    0    0  0.57854736748E+01 -0.88353430239E+01  0.62969926660E+00  0.10579769063E+02  0.51100000000E-03 0.  1.
        -12    1    3    3    0    0  0.41654443260E-01 -0.27458843530E+01  0.13502385794E+02  0.13778825716E+02  0.00000000000E+00 0.  1.
</event>
<event>
 7    1  0.5910662E-013  0.5052886E+02  0.7816164E-02  0.1300439E+00
        -11   -1    0    0    0    0  0.00000000000E+00  0.00000000000E+00  0.45593999997E+02  0.45594000000E+02  0.51100000000E-03 0. -1.
         11   -1    0    0    0    0 -0.00000000000E+00 -0.00000000000E+00 -0.45593999997E+02  0.45594000000E+02  0.51100000000E-03 0.  1.
    9900012    2    1    2    0    0 -0.10886973186E+02 -0.25310215273E+02 -0.29900378041E+02  0.50528858478E+02  0.29999995830E+02 0.  0.
         12    1    1    2    0    0  0.10886973186E+02  0.25310215273E+02  0.29900378041E+02  0.40659141522E+02  0.00000000000E+00 0. -1.
         11    1    3    3    0    0 -0.14426471165E+02 -0.93100963409E+01 -0.17935742113E+02  0.24829253101E+02  0.51100000000E-03 0. -1.
        -11    1    3    3    0    0  0.30018922915E+01 -0.17946696213E+02 -0.56242835624E+01  0.19045414885E+02  0.51100000000E-03 0.  1.
         12    1    3    3    0    0  0.53760568724E+00  0.19465772814E+01 -0.63403523654E+01  0.66541904921E+01  0.00000000000E+00 0. -1.
</event>
<event>
 7    1  0.5910662E-013  0.5052886E+02  0.7816164E-02  0.1300439E+00
        -11   -1    0    0    0    0  0.00000000000E+00  0.00000000000E+00  0.45593999997E+02  0.45594000000E+02  0.51100000000E-03 0. -1.
         11   -1    0    0    0    0 -0.00000000000E+00 -0.00000000000E+00 -0.45593999997E+02  0.45594000000E+02  0.51100000000E-03 0.  1.
    9900012    2    1    2    0    0 -0.34300315165E+02  0.14382060196E+02 -0.16425911509E+02  0.50528857795E+02  0.29999993755E+02 0.  0.
         12    1    1    2    0    0  0.34300315165E+02 -0.14382060196E+02  0.16425911509E+02  0.40659142205E+02  0.00000000000E+00 0. -1.
         11    1    3    3    0    0 -0.10595904409E+02  0.12663467073E+02  0.13772919071E+01  0.16569053135E+02  0.51100000000E-03 0. -1.
        -11    1    3    3    0    0 -0.17615387849E+02 -0.62613234009E+01 -0.13385401836E+02  0.22992934619E+02  0.51100000000E-03 0.  1.
        -12    1    3    3    0    0 -0.60890229063E+01  0.79799165248E+01 -0.44178015809E+01  0.10966870041E+02  0.00000000000E+00 0.  1.
</event>
<event>
 7    1  0.5910662E-013  0.5052887E+02  0.7816164E-02  0.1300439E+00
        -11   -1    0    0    0    0  0.00000000000E+00  0.00000000000E+00  0.45593999997E+02  0.45594000000E+02  0.51100000000E-03 0.  1.
         11   -1    0    0    0    0 -0.00000000000E+00 -0.00000000000E+00 -0.45593999997E+02  0.45594000000E+02  0.51100000000E-03 0. -1.
    9900012    2    1    2    0    0 -0.14961493240E+02 -0.22065096734E+02  0.30699343373E+02  0.50528874857E+02  0.30000045616E+02 0.  0.
         12    1    1    2    0    0  0.14961493240E+02  0.22065096734E+02 -0.30699343373E+02  0.40659125143E+02  0.00000000000E+00 0. -1.
         11    1    3    3    0    0 -0.29055987787E+01  0.17004904760E+01 -0.57554235016E+00  0.34154679591E+01  0.51100000000E-03 0. -1.
        -11    1    3    3    0    0  0.15995770083E+01 -0.20761289416E+02  0.15033608559E+02  0.25682662856E+02  0.51100000000E-03 0.  1.
        -12    1    3    3    0    0 -0.13655471470E+02 -0.30042977948E+01  0.16241277164E+02  0.21430744042E+02  0.00000000000E+00 0.  1.
</event>
<event>
 7    1  0.5910662E-013  0.5052886E+02  0.7816164E-02  0.1300439E+00
        -11   -1    0    0    0    0  0.00000000000E+00  0.00000000000E+00  0.45593999997E+02  0.45594000000E+02  0.51100000000E-03 0.  1.
         11   -1    0    0    0    0 -0.00000000000E+00 -0.00000000000E+00 -0.45593999997E+02  0.45594000000E+02  0.51100000000E-03 0. -1.
    9900012    2    1    2    0    0 -0.11446801764E+02  0.29850218796E+02  0.25121718777E+02  0.50528860965E+02  0.30000003390E+02 0.  0.
         12    1    1    2    0    0  0.11446801764E+02 -0.29850218796E+02 -0.25121718777E+02  0.40659139035E+02  0.00000000000E+00 0. -1.
         11    1    3    3    0    0 -0.10004949902E+02 -0.66840912614E-01  0.27368314452E+01  0.10372740084E+02  0.51100000000E-03 0. -1.
        -11    1    3    3    0    0 -0.59122657410E+01  0.26958476645E+02  0.16327030260E+02  0.32066902977E+02  0.51100000000E-03 0.  1.
         12    1    3    3    0    0  0.44704138784E+01  0.29585830635E+01  0.60578570717E+01  0.80892179034E+01  0.00000000000E+00 0. -1.
</event>
<event>
 7    1  0.5910662E-013  0.5052883E+02  0.7816164E-02  0.1300439E+00
        -11   -1    0    0    0    0  0.00000000000E+00  0.00000000000E+00  0.45593999997E+02  0.45594000000E+02  0.51100000000E-03 0.  1.
         11   -1    0    0    0    0 -0.00000000000E+00 -0.00000000000E+00 -0.45593999997E+02  0.45594000000E+02  0.51100000000E-03 0. -1.
    9900012    2    1    2    0    0 -0.36726205920E+02 -0.77064734634E+01  0.15651325008E+02  0.50528832411E+02  0.29999916595E+02 0.  0.
         12    1    1    2    0    0  0.36726205920E+02  0.77064734634E+01 -0.15651325008E+02  0.40659167589E+02  0.00000000000E+00 0. -1.
         11    1    3    3    0    0 -0.12129426301E+02  0.82342505571E+01 -0.32856509114E+01  0.15024026318E+02  0.51100000000E-03 0. -1.
        -11    1    3    3    0    0 -0.27127588331E+01 -0.11253369777E+01 -0.93645121335E-01  0.29384032177E+01  0.51100000000E-03 0.  1.
         12    1    3    3    0    0 -0.21884020786E+02 -0.14815387043E+02  0.19030621041E+02  0.32566402875E+02  0.00000000000E+00 0. -1.
</event>
<event>
 7    1  0.5910662E-013  0.5052885E+02  0.7816164E-02  0.1300439E+00
        -11   -1    0    0    0    0  0.00000000000E+00  0.00000000000E+00  0.45593999997E+02  0.45594000000E+02  0.51100000000E-03 0. -1.
         11   -1    0    0    0    0 -0.00000000000E+00 -0.00000000000E+00 -0.45593999997E+02  0.45594000000E+02  0.51100000000E-03 0.  1.
    9900012    2    1    2    0    0  0.14454614927E+02 -0.37853946902E+02  0.33629421333E+01  0.50528848896E+02  0.29999966703E+02 0.  0.
         12    1    1    2    0    0 -0.14454614927E+02  0.37853946902E+02 -0.33629421333E+01  0.40659151104E+02  0.00000000000E+00 0. -1.
         11    1    3    3    0    0 -0.51185751699E+01 -0.63169829692E+01  0.46563314890E+01  0.93693921254E+01  0.51100000000E-03 0. -1.
        -11    1    3    3    0    0  0.83155243710E+01 -0.27267913597E+02 -0.40884589043E+01  0.28799349888E+02  0.51100000000E-03 0.  1.
        -12    1    3    3    0    0  0.11257665726E+02 -0.42690503356E+01  0.27950695486E+01  0.12360106882E+02  0.00000000000E+00 0.  1.
</event>
<event>
 7    1  0.5910662E-013  0.5052884E+02  0.7816164E-02  0.1300439E+00
        -11   -1    0    0    0    0  0.00000000000E+00  0.00000000000E+00  0.45593999997E+02  0.45594000000E+02  0.51100000000E-03 0. -1.
         11   -1    0    0    0    0 -0.00000000000E+00 -0.00000000000E+00 -0.45593999997E+02  0.45594000000E+02  0.51100000000E-03 0.  1.
    9900012    2    1    2    0    0 -0.19315617543E+02 -0.24691039954E+02 -0.25892599553E+02  0.50528840556E+02  0.29999941354E+02 0.  0.
         12    1    1    2    0    0  0.19315617543E+02  0.24691039954E+02  0.25892599553E+02  0.40659159444E+02  0.00000000000E+00 0. -1.
         11    1    3    3    0    0  0.32835891831E+01  0.16864814421E+01  0.13466291510E+01  0.39293241034E+01  0.51100000000E-03 0. -1.
        -11    1    3    3    0    0 -0.92238797276E+01 -0.38544371767E+01 -0.14125704476E+02  0.17305264239E+02  0.51100000000E-03 0.  1.
        -12    1    3    3    0    0 -0.13375326998E+02 -0.22523084219E+02 -0.13113524228E+02  0.29294252214E+02  0.00000000000E+00 0.  1.
</event>
<event>
 7    1  0.5910662E-013  0.5052885E+02  0.7816164E-02  0.1300439E+00
        -11   -1    0    0    0    0  0.00000000000E+00  0.00000000000E+00  0.45593999997E+02  0.45594000000E+02  0.51100000000E-03 0.  1.
         11   -1    0    0    0    0 -0.00000000000E+00 -0.00000000000E+00 -0.45593999997E+02  0.45594000000E+02  0.51100000000E-03 0. -1.
    9900012    2    1    2    0    0 -0.26755309504E+02 -0.20045012590E+02  0.23141244608E+02  0.50528851972E+02  0.29999976053E+02 0.  0.
         12    1    1    2    0    0  0.26755309504E+02  0.20045012590E+02 -0.23141244608E+02  0.40659148028E+02  0.00000000000E+00 0. -1.
         11    1    3    3    0    0 -0.31052900173E+02 -0.12517365217E+02  0.22182768807E+02  0.40162697535E+02  0.51100000000E-03 0.  1.
        -11    1    3    3    0    0  0.27536408054E+01 -0.78909996284E+01  0.18310047504E+01  0.85558746763E+01  0.51100000000E-03 0. -1.
        -12    1    3    3    0    0  0.15439498634E+01  0.36335225528E+00 -0.87252894935E+00  0.18102797600E+01  0.00000000000E+00 0.  1.
</event>
<event>
 7    1  0.5910662E-013  0.5052887E+02  0.7816164E-02  0.1300439E+00
        -11   -1    0    0    0    0  0.00000000000E+00  0.00000000000E+00  0.45593999997E+02  0.45594000000E+02  0.51100000000E-03 0. -1.
         11   -1    0    0    0    0 -0.00000000000E+00 -0.00000000000E+00 -0.45593999997E+02  0.45594000000E+02  0.51100000000E-03 0.  1.
    9900012    2    1    2    0    0 -0.25698193869E+02  0.14802473628E+01 -0.31473429936E+02  0.50528867049E+02  0.30000021883E+02 0.  0.
         12    1    1    2    0    0  0.25698193869E+02 -0.14802473628E+01  0.31473429936E+02  0.40659132951E+02  0.00000000000E+00 0. -1.
         11    1    3    3    0    0 -0.46442536593E+01  0.59245885625E+01  0.22872208668E+01  0.78677329162E+01  0.51100000000E-03 0. -1.
        -11    1    3    3    0    0 -0.20538144547E+02 -0.19261206386E+01 -0.20244350940E+02  0.28902578906E+02  0.51100000000E-03 0.  1.
        -12    1    3    3    0    0 -0.51579566196E+00 -0.25182205610E+01 -0.13516299863E+02  0.13758555227E+02  0.00000000000E+00 0.  1.
</event>
<event>
 7    1  0.5910662E-013  0.5052885E+02  0.7816164E-02  0.1300439E+00
        -11   -1    0    0    0    0  0.00000000000E+00  0.00000000000E+00  0.45593999997E+02  0.45594000000E+02  0.51100000000E-03 0.  1.
         11   -1    0    0    0    0 -0.00000000000E+00 -0.00000000000E+00 -0.45593999997E+02  0.45594000000E+02  0.51100000000E-03 0. -1.
    9900012    2    1    2    0    0  0.20087950391E+02  0.25577695572E+02  0.24401267674E+02  0.50528854340E+02  0.29999983253E+02 0.  0.
         12    1    1    2    0    0 -0.20087950391E+02 -0.25577695572E+02 -0.24401267674E+02  0.40659145660E+02  0.00000000000E+00 0. -1.
         11    1    3    3    0    0  0.94856695956E+01 -0.12491573112E+01  0.38140631940E+01  0.10299776695E+02  0.51100000000E-03 0. -1.
        -11    1    3    3    0    0  0.58859269520E+01  0.21732980115E+02  0.23638784601E+02  0.32645959909E+02  0.51100000000E-03 0.  1.
         12    1    3    3    0    0  0.47163538437E+01  0.50938727682E+01 -0.30515801206E+01  0.75831177355E+01  0.00000000000E+00 0. -1.
</event>
<event>
 7    1  0.5910662E-013  0.5052887E+02  0.7816164E-02  0.1300439E+00
        -11   -1    0    0    0    0  0.00000000000E+00  0.00000000000E+00  0.45593999997E+02  0.45594000000E+02  0.51100000000E-03 0.  1.
         11   -1    0    0    0    0 -0.00000000000E+00 -0.00000000000E+00 -0.45593999997E+02  0.45594000000E+02  0.51100000000E-03 0. -1.
    9900012    2    1    2    0    0 -0.34682196632E+02 -0.75628428683E+01  0.19827091245E+02  0.50528869381E+02  0.30000028969E+02 0.  0.
         12    1    1    2    0    0  0.34682196632E+02  0.75628428683E+01 -0.19827091245E+02  0.40659130619E+02  0.00000000000E+00 0. -1.
         11    1    3    3    0    0 -0.86464649754E+01 -0.74295914629E+01  0.93234691787E+01  0.14727092845E+02  0.51100000000E-03 0. -1.
        -11    1    3    3    0    0 -0.29056223542E+02  0.15017180263E+01  0.53105862176E+01  0.29575692887E+02  0.51100000000E-03 0.  1.
        -12    1    3    3    0    0  0.30204918847E+01 -0.16349694316E+01  0.51930358489E+01  0.62260836483E+01  0.00000000000E+00 0.  1.
</event>
<event>
 7    1  0.5910662E-013  0.5052886E+02  0.7816164E-02  0.1300439E+00
        -11   -1    0    0    0    0  0.00000000000E+00  0.00000000000E+00  0.45593999997E+02  0.45594000000E+02  0.51100000000E-03 0.  1.
         11   -1    0    0    0    0 -0.00000000000E+00 -0.00000000000E+00 -0.45593999997E+02  0.45594000000E+02  0.51100000000E-03 0. -1.
    9900012    2    1    2    0    0 -0.31851279600E+02 -0.16137417340E+02  0.19448527007E+02  0.50528862610E+02  0.30000008388E+02 0.  0.
         12    1    1    2    0    0  0.31851279600E+02  0.16137417340E+02 -0.19448527007E+02  0.40659137390E+02  0.00000000000E+00 0. -1.
         11    1    3    3    0    0 -0.21903496942E+02 -0.43577359894E+01  0.46190754836E+01  0.22805457676E+02  0.51100000000E-03 0. -1.
        -11    1    3    3    0    0 -0.19300188370E+01 -0.75463721740E+01  0.16734685524E+02  0.18458667491E+02  0.51100000000E-03 0.  1.
        -12    1    3    3    0    0 -0.80177638214E+01 -0.42333091767E+01 -0.19052340005E+01  0.92647374425E+01  0.00000000000E+00 0.  1.
</event>
<event>
 7    1  0.5910662E-013  0.5052886E+02  0.7816164E-02  0.1300439E+00
        -11   -1    0    0    0    0  0.00000000000E+00  0.00000000000E+00  0.45593999997E+02  0.45594000000E+02  0.51100000000E-03 0.  1.
         11   -1    0    0    0    0 -0.00000000000E+00 -0.00000000000E+00 -0.45593999997E+02  0.45594000000E+02  0.51100000000E-03 0. -1.
    9900012    2    1    2    0    0  0.53565741454E+01 -0.26851808537E+02  0.30057491715E+02  0.50528864293E+02  0.30000013504E+02 0.  0.
         12    1    1    2    0    0 -0.53565741454E+01  0.26851808537E+02 -0.30057491715E+02  0.40659135707E+02  0.00000000000E+00 0. -1.
         11    1    3    3    0    0 -0.45737545672E+01 -0.27884892090E+01 -0.60871485928E+00  0.53912370520E+01  0.51100000000E-03 0. -1.
        -11    1    3    3    0    0  0.13279961942E+02 -0.25289004105E+02  0.22966042869E+02  0.36651469863E+02  0.51100000000E-03 0.  1.
        -12    1    3    3    0    0 -0.33496332300E+01  0.12256847767E+01  0.77001637051E+01  0.84861573774E+01  0.00000000000E+00 0.  1.
</event>
<event>
 7    1  0.5910662E-013  0.5052885E+02  0.7816164E-02  0.1300439E+00
        -11   -1    0    0    0    0  0.00000000000E+00  0.00000000000E+00  0.45593999997E+02  0.45594000000E+02  0.51100000000E-03 0. -1.
         11   -1    0    0    0    0 -0.00000000000E+00 -0.00000000000E+00 -0.45593999997E+02  0.45594000000E+02  0.51100000000E-03 0.  1.
    9900012    2    1    2    0    0 -0.14425951006E+02  0.27044777298E+02 -0.26714006586E+02  0.50528853558E+02  0.29999980874E+02 0.  0.
         12    1    1    2    0    0  0.14425951006E+02 -0.27044777298E+02  0.26714006586E+02  0.40659146442E+02  0.00000000000E+00 0. -1.
         11    1    3    3    0    0  0.61547867924E+01  0.70724267327E+01  0.14678148344E+00  0.93766820046E+01  0.51100000000E-03 0. -1.
        -11    1    3    3    0    0 -0.12627092937E+02  0.19468796196E+02 -0.20207130871E+02  0.30770207014E+02  0.51100000000E-03 0.  1.
         12    1    3    3    0    0 -0.79536448611E+01  0.50355436933E+00 -0.66536571982E+01  0.10381964539E+02  0.00000000000E+00 0. -1.
</event>
<event>
 7    1  0.5910662E-013  0.5052884E+02  0.7816164E-02  0.1300439E+00
        -11   -1    0    0    0    0  0.00000000000E+00  0.00000000000E+00  0.45593999997E+02  0.45594000000E+02  0.51100000000E-03 0. -1.
         11   -1    0    0    0    0 -0.00000000000E+00 -0.00000000000E+00 -0.45593999997E+02  0.45594000000E+02  0.51100000000E-03 0.  1.
    9900012    2    1    2    0    0  0.25887009263E+02 -0.24199905333E+02 -0.19934763475E+02  0.50528837914E+02  0.29999933323E+02 0.  0.
         12    1    1    2    0    0 -0.25887009263E+02  0.24199905333E+02  0.19934763475E+02  0.40659162086E+02  0.00000000000E+00 0. -1.
         11    1    3    3    0    0  0.12712365195E+02 -0.91627229068E+01 -0.38167707029E+01  0.16128467341E+02  0.51100000000E-03 0. -1.
        -11    1    3    3    0    0  0.38878482202E+01 -0.15072230511E+02 -0.19106605349E+02  0.24644469249E+02  0.51100000000E-03 0.  1.
        -12    1    3    3    0    0  0.92867958479E+01  0.35048084154E-01  0.29886125768E+01  0.97559013229E+01  0.00000000000E+00 0.  1.
</event>
<event>
 7    1  0.5910662E-013  0.5052890E+02  0.7816164E-02  0.1300439E+00
        -11   -1    0    0    0    0  0.00000000000E+00  0.00000000000E+00  0.45593999997E+02  0.45594000000E+02  0.51100000000E-03 0.  1.
         11   -1    0    0    0    0 -0.00000000000E+00 -0.00000000000E+00 -0.45593999997E+02  0.45594000000E+02  0.51100000000E-03 0. -1.
    9900012    2    1    2    0    0  0.30478951355E+01 -0.39573877136E+02  0.88193480124E+01  0.50528901194E+02  0.30000125671E+02 0.  0.
         12    1    1    2    0    0 -0.30478951355E+01  0.39573877136E+02 -0.88193480124E+01  0.40659098806E+02  0.00000000000E+00 0. -1.
         11    1    3    3    0    0 -0.71187069004E+01 -0.27832194648E+02 -0.35456887456E+01  0.28946138875E+02  0.51100000000E-03 0. -1.
        -11    1    3    3    0    0  0.43531444583E+00 -0.62468706981E+01  0.27457755062E+01  0.68375562577E+01  0.51100000000E-03 0.  1.
         12    1    3    3    0    0  0.97312875900E+01 -0.54948117899E+01  0.96192612518E+01  0.14745206062E+02  0.00000000000E+00 0. -1.
</event>
<event>
 7    1  0.5910662E-013  0.5052881E+02  0.7816164E-02  0.1300439E+00
        -11   -1    0    0    0    0  0.00000000000E+00  0.00000000000E+00  0.45593999997E+02  0.45594000000E+02  0.51100000000E-03 0.  1.
         11   -1    0    0    0    0 -0.00000000000E+00 -0.00000000000E+00 -0.45593999997E+02  0.45594000000E+02  0.51100000000E-03 0. -1.
    9900012    2    1    2    0    0  0.96480968892E+01 -0.13748390835E+02  0.37027901260E+02  0.50528812897E+02  0.29999857282E+02 0.  0.
         12    1    1    2    0    0 -0.96480968892E+01  0.13748390835E+02 -0.37027901260E+02  0.40659187103E+02  0.00000000000E+00 0. -1.
         11    1    3    3    0    0  0.14957543442E+01  0.47886635889E+01 -0.15344841386E+01  0.52462578910E+01  0.51100000000E-03 0. -1.
        -11    1    3    3    0    0  0.78057064779E+01 -0.32667915114E+01  0.13967344691E+02  0.16330575568E+02  0.51100000000E-03 0.  1.
         12    1    3    3    0    0  0.34663606715E+00 -0.15270262913E+02  0.24595040707E+02  0.28951979438E+02  0.00000000000E+00 0. -1.
</event>
<event>
 7    1  0.5910662E-013  0.5052886E+02  0.7816164E-02  0.1300439E+00
        -11   -1    0    0    0    0  0.00000000000E+00  0.00000000000E+00  0.45593999997E+02  0.45594000000E+02  0.51100000000E-03 0. -1.
         11   -1    0    0    0    0 -0.00000000000E+00 -0.00000000000E+00 -0.45593999997E+02  0.45594000000E+02  0.51100000000E-03 0.  1.
    9900012    2    1    2    0    0 -0.17571067205E+02  0.20755944665E+02 -0.30226045772E+02  0.50528862225E+02  0.30000007218E+02 0.  0.
         12    1    1    2    0    0  0.17571067205E+02 -0.20755944665E+02  0.30226045772E+02  0.40659137775E+02  0.00000000000E+00 0. -1.
         11    1    3    3    0    0 -0.95499836921E+00 -0.26299034181E+01  0.23980358934E+01  0.36849681519E+01  0.51100000000E-03 0. -1.
        -11    1    3    3    0    0 -0.11219979504E+02  0.71238651190E+01 -0.24519615910E+02  0.27889943689E+02  0.51100000000E-03 0.  1.
         12    1    3    3    0    0 -0.53960893323E+01  0.16261982964E+02 -0.81044657546E+01  0.18953950384E+02  0.00000000000E+00 0. -1.
</event>
<event>
 7    1  0.5910662E-013  0.5052885E+02  0.7816164E-02  0.1300439E+00
        -11   -1    0    0    0    0  0.00000000000E+00  0.00000000000E+00  0.45593999997E+02  0.45594000000E+02  0.51100000000E-03 0.  1.
         11   -1    0    0    0    0 -0.00000000000E+00 -0.00000000000E+00 -0.45593999997E+02  0.45594000000E+02  0.51100000000E-03 0. -1.
    9900012    2    1    2    0    0 -0.41352156765E+01  0.29551610501E+01  0.40340223654E+02  0.50528848140E+02  0.29999964406E+02 0.  0.
         12    1    1    2    0    0  0.41352156765E+01 -0.29551610501E+01 -0.40340223654E+02  0.40659151860E+02  0.00000000000E+00 0. -1.
         11    1    3    3    0    0 -0.52574786811E+01  0.16863857940E+01 -0.93709887110E+00  0.56002797862E+01  0.51100000000E-03 0. -1.
        -11    1    3    3    0    0  0.57223596997E+00  0.71213948141E+01  0.36936632099E+02  0.37621224185E+02  0.51100000000E-03 0.  1.
         12    1    3    3    0    0  0.55002703462E+00 -0.58526195580E+01  0.43406904263E+01  0.73073441691E+01  0.00000000000E+00 0. -1.
</event>
<event>
 7    1  0.5910662E-013  0.5052885E+02  0.7816164E-02  0.1300439E+00
        -11   -1    0    0    0    0  0.00000000000E+00  0.00000000000E+00  0.45593999997E+02  0.45594000000E+02  0.51100000000E-03 0. -1.
         11   -1    0    0    0    0 -0.00000000000E+00 -0.00000000000E+00 -0.45593999997E+02  0.45594000000E+02  0.51100000000E-03 0.  1.
    9900012    2    1    2    0    0  0.20868176806E+02  0.21771545521E+02 -0.27270595246E+02  0.50528851427E+02  0.29999974399E+02 0.  0.
         12    1    1    2    0    0 -0.20868176806E+02 -0.21771545521E+02  0.27270595246E+02  0.40659148573E+02  0.00000000000E+00 0. -1.
         11    1    3    3    0    0  0.19617829312E+01 -0.44489723871E+01 -0.15812204650E+01  0.51129449431E+01  0.51100000000E-03 0. -1.
        -11    1    3    3    0    0  0.20777971718E+02  0.22153427339E+02 -0.27117290856E+02  0.40716654028E+02  0.51100000000E-03 0.  1.
        -12    1    3    3    0    0 -0.18715778441E+01  0.40670905700E+01  0.14279160756E+01  0.46992524565E+01  0.00000000000E+00 0.  1.
</event>
<event>
 7    1  0.5910662E-013  0.5052886E+02  0.7816164E-02  0.1300439E+00
        -11   -1    0    0    0    0  0.00000000000E+00  0.00000000000E+00  0.45593999997E+02  0.45594000000E+02  0.51100000000E-03 0.  1.
         11   -1    0    0    0    0 -0.00000000000E+00 -0.00000000000E+00 -0.45593999997E+02  0.45594000000E+02  0.51100000000E-03 0. -1.
    9900012    2    1    2    0    0 -0.67792741178E+01 -0.26918562659E+02  0.29708553725E+02  0.50528859114E+02  0.29999997762E+02 0.  0.
         12    1    1    2    0    0  0.67792741178E+01  0.26918562659E+02 -0.29708553725E+02  0.40659140886E+02  0.00000000000E+00 0. -1.
         11    1    3    3    0    0 -0.51678744722E+00  0.19532011418E+01  0.63405518297E+01  0.66546721732E+01  0.51100000000E-03 0. -1.
        -11    1    3    3    0    0 -0.14493683198E+02 -0.14945161904E+02  0.11269860233E+02  0.23673497142E+02  0.51100000000E-03 0.  1.
        -12    1    3    3    0    0  0.82311965278E+01 -0.13926601897E+02  0.12098141662E+02  0.20200689799E+02  0.00000000000E+00 0.  1.
</event>
<event>
 7    1  0.5910662E-013  0.5052882E+02  0.7816164E-02  0.1300439E+00
        -11   -1    0    0    0    0  0.00000000000E+00  0.00000000000E+00  0.45593999997E+02  0.45594000000E+02  0.51100000000E-03 0.  1.
         11   -1    0    0    0    0 -0.00000000000E+00 -0.00000000000E+00 -0.45593999997E+02  0.45594000000E+02  0.51100000000E-03 0. -1.
    9900012    2    1    2    0    0  0.35769627595E+02 -0.76879336075E+01  0.17736925048E+02  0.50528817868E+02  0.29999872392E+02 0.  0.
         12    1    1    2    0    0 -0.35769627595E+02  0.76879336075E+01 -0.17736925048E+02  0.40659182132E+02  0.00000000000E+00 0. -1.
         11    1    3    3    0    0 -0.84911193886E+00  0.61714040460E+01  0.68902880280E+01  0.92888798223E+01  0.51100000000E-03 0. -1.
        -11    1    3    3    0    0  0.29579087867E+02 -0.13501988768E+02  0.10554626219E+02  0.34185176241E+02  0.51100000000E-03 0.  1.
         12    1    3    3    0    0  0.70396516670E+01 -0.35734888599E+00  0.29201080091E+00  0.70547618051E+01  0.00000000000E+00 0. -1.
</event>
<event>
 7    1  0.5910662E-013  0.5052886E+02  0.7816164E-02  0.1300439E+00
        -11   -1    0    0    0    0  0.00000000000E+00  0.00000000000E+00  0.45593999997E+02  0.45594000000E+02  0.51100000000E-03 0.  1.
         11   -1    0    0    0    0 -0.00000000000E+00 -0.00000000000E+00 -0.45593999997E+02  0.45594000000E+02  0.51100000000E-03 0. -1.
    9900012    2    1    2    0    0  0.72031116939E+01 -0.36897594353E+02  0.15487036061E+02  0.50528861137E+02  0.30000003911E+02 0.  0.
         12    1    1    2    0    0 -0.72031116939E+01  0.36897594353E+02 -0.15487036061E+02  0.40659138863E+02  0.00000000000E+00 0. -1.
         11    1    3    3    0    0 -0.30782764412E+00 -0.26233605586E+02  0.21519352650E+02  0.33931981355E+02  0.51100000000E-03 0. -1.
        -11    1    3    3    0    0  0.33457776081E+01 -0.77526140333E+01  0.33481523285E+00  0.84504055319E+01  0.51100000000E-03 0.  1.
         12    1    3    3    0    0  0.41651617299E+01 -0.29113747336E+01 -0.63671318216E+01  0.81464742502E+01  0.00000000000E+00 0. -1.
</event>
<event>
 7    1  0.5910662E-013  0.5052886E+02  0.7816164E-02  0.1300439E+00
        -11   -1    0    0    0    0  0.00000000000E+00  0.00000000000E+00  0.45593999997E+02  0.45594000000E+02  0.51100000000E-03 0.  1.
         11   -1    0    0    0    0 -0.00000000000E+00 -0.00000000000E+00 -0.45593999997E+02  0.45594000000E+02  0.51100000000E-03 0. -1.
    9900012    2    1    2    0    0  0.11167332026E+02  0.13060170555E+02  0.36849537333E+02  0.50528858824E+02  0.29999996880E+02 0.  0.
         12    1    1    2    0    0 -0.11167332026E+02 -0.13060170555E+02 -0.36849537333E+02  0.40659141176E+02  0.00000000000E+00 0. -1.
         11    1    3    3    0    0  0.59038826645E+01  0.70676181438E+01  0.53381630570E+00  0.92245334219E+01  0.51100000000E-03 0. -1.
        -11    1    3    3    0    0  0.64491223474E+01 -0.27394973421E+01  0.29049949212E+02  0.29883031543E+02  0.51100000000E-03 0.  1.
         12    1    3    3    0    0 -0.11856729859E+01  0.87320497533E+01  0.72657718161E+01  0.11421293859E+02  0.00000000000E+00 0. -1.
</event>
<event>
 7    1  0.5910662E-013  0.5052886E+02  0.7816164E-02  0.1300439E+00
        -11   -1    0    0    0    0  0.00000000000E+00  0.00000000000E+00  0.45593999997E+02  0.45594000000E+02  0.51100000000E-03 0.  1.
         11   -1    0    0    0    0 -0.00000000000E+00 -0.00000000000E+00 -0.45593999997E+02  0.45594000000E+02  0.51100000000E-03 0. -1.
    9900012    2    1    2    0    0 -0.29672655305E+02  0.77259138812E+01  0.26702237988E+02  0.50528859186E+02  0.29999997983E+02 0.  0.
         12    1    1    2    0    0  0.29672655305E+02 -0.77259138812E+01 -0.26702237988E+02  0.40659140814E+02  0.00000000000E+00 0. -1.
         11    1    3    3    0    0  0.26611615756E+01  0.46163432679E+00 -0.64421471577E+00  0.27766706762E+01  0.51100000000E-03 0. -1.
        -11    1    3    3    0    0 -0.22528409894E+02  0.14404784865E+02  0.16111664985E+02  0.31218789666E+02  0.51100000000E-03 0.  1.
        -12    1    3    3    0    0 -0.98054069867E+01 -0.71405053106E+01  0.11234787719E+02  0.16533398845E+02  0.00000000000E+00 0.  1.
</event>
<event>
 7    1  0.5910662E-013  0.5052886E+02  0.7816164E-02  0.1300439E+00
        -11   -1    0    0    0    0  0.00000000000E+00  0.00000000000E+00  0.45593999997E+02  0.45594000000E+02  0.51100000000E-03 0. -1.
         11   -1    0    0    0    0 -0.00000000000E+00 -0.00000000000E+00 -0.45593999997E+02  0.45594000000E+02  0.51100000000E-03 0.  1.
    9900012    2    1    2    0    0  0.15502358684E+02 -0.28681743491E+02  0.24294034680E+02  0.50528860124E+02  0.30000000833E+02 0.  0.
         12    1    1    2    0    0 -0.15502358684E+02  0.28681743491E+02 -0.24294034680E+02  0.40659139876E+02  0.00000000000E+00 0. -1.
         11    1    3    3    0    0  0.14661766249E+01  0.52820409797E+01  0.78632295436E+01  0.95854060907E+01  0.51100000000E-03 0. -1.
        -11    1    3    3    0    0  0.25999318976E+01 -0.11534285639E+02  0.22113357389E+01  0.12028690580E+02  0.51100000000E-03 0.  1.
         12    1    3    3    0    0  0.11436250161E+02 -0.22429498832E+02  0.14219469398E+02  0.28914763453E+02  0.00000000000E+00 0. -1.
</event>
<event>
 7    1  0.5910662E-013  0.5052886E+02  0.7816164E-02  0.1300439E+00
        -11   -1    0    0    0    0  0.00000000000E+00  0.00000000000E+00  0.45593999997E+02  0.45594000000E+02  0.51100000000E-03 0.  1.
         11   -1    0    0    0    0 -0.00000000000E+00 -0.00000000000E+00 -0.45593999997E+02  0.45594000000E+02  0.51100000000E-03 0. -1.
    9900012    2    1    2    0    0  0.90384860653E+01 -0.22352227858E+01  0.39578725507E+02  0.50528856330E+02  0.29999989299E+02 0.  0.
         12    1    1    2    0    0 -0.90384860653E+01  0.22352227858E+01 -0.39578725507E+02  0.40659143670E+02  0.00000000000E+00 0. -1.
         11    1    3    3    0    0  0.17199422230E+02 -0.25910425242E+01  0.20747439061E+02  0.27073785370E+02  0.51100000000E-03 0. -1.
        -11    1    3    3    0    0 -0.12240124232E+01 -0.31147205998E+01  0.29292449500E+00  0.33593892076E+01  0.51100000000E-03 0.  1.
         12    1    3    3    0    0 -0.69369237420E+01  0.34705403382E+01  0.18538361951E+02  0.20095681752E+02  0.00000000000E+00 0. -1.
</event>
<event>
 7    1  0.5910662E-013  0.5052884E+02  0.7816164E-02  0.1300439E+00
        -11   -1    0    0    0    0  0.00000000000E+00  0.00000000000E+00  0.45593999997E+02  0.45594000000E+02  0.51100000000E-03 0.  1.
         11   -1    0    0    0    0 -0.00000000000E+00 -0.00000000000E+00 -0.45593999997E+02  0.45594000000E+02  0.51100000000E-03 0. -1.
    9900012    2    1    2    0    0  0.27407958938E+02 -0.50754672935E+01  0.29600856592E+02  0.50528839994E+02  0.29999939646E+02 0.  0.
         12    1    1    2    0    0 -0.27407958938E+02  0.50754672935E+01 -0.29600856592E+02  0.40659160006E+02  0.00000000000E+00 0. -1.
         11    1    3    3    0    0  0.20686217497E+02 -0.57652981923E+01  0.33449693156E+02  0.39749719874E+02  0.51100000000E-03 0. -1.
        -11    1    3    3    0    0  0.33839582395E+01  0.26272113231E+01  0.11766490660E+01  0.44427374431E+01  0.51100000000E-03 0.  1.
         12    1    3    3    0    0  0.33377832013E+01 -0.19373804243E+01 -0.50254856298E+01  0.63363826765E+01  0.00000000000E+00 0. -1.
</event>
<event>
 7    1  0.5910662E-013  0.5052886E+02  0.7816164E-02  0.1300439E+00
        -11   -1    0    0    0    0  0.00000000000E+00  0.00000000000E+00  0.45593999997E+02  0.45594000000E+02  0.51100000000E-03 0. -1.
         11   -1    0    0    0    0 -0.00000000000E+00 -0.00000000000E+00 -0.45593999997E+02  0.45594000000E+02  0.51100000000E-03 0.  1.
    9900012    2    1    2    0    0  0.19684906078E+02  0.22257960113E+02 -0.27753445297E+02  0.50528855376E+02  0.29999986401E+02 0.  0.
         12    1    1    2    0    0 -0.19684906078E+02 -0.22257960113E+02  0.27753445297E+02  0.40659144624E+02  0.00000000000E+00 0. -1.
         11    1    3    3    0    0 -0.34256128809E+01  0.65066769606E+01  0.24761564099E+01  0.77590604784E+01  0.51100000000E-03 0. -1.
        -11    1    3    3    0    0  0.20943099213E+02  0.97213729465E+01 -0.19268174971E+02  0.30072929082E+02  0.51100000000E-03 0.  1.
        -12    1    3    3    0    0  0.21674197460E+01  0.60299102058E+01 -0.10961426736E+02  0.12696865815E+02  0.00000000000E+00 0.  1.
</event>
<event>
 7    1  0.5910662E-013  0.5052886E+02  0.7816164E-02  0.1300439E+00
        -11   -1    0    0    0    0  0.00000000000E+00  0.00000000000E+00  0.45593999997E+02  0.45594000000E+02  0.51100000000E-03 0. -1.
         11   -1    0    0    0    0 -0.00000000000E+00 -0.00000000000E+00 -0.45593999997E+02  0.45594000000E+02  0.51100000000E-03 0.  1.
    9900012    2    1    2    0    0 -0.13387081814E+02  0.29741187244E+02 -0.24277837989E+02  0.50528860860E+02  0.30000003071E+02 0.  0.
         12    1    1    2    0    0  0.13387081814E+02 -0.29741187244E+02  0.24277837989E+02  0.40659139140E+02  0.00000000000E+00 0. -1.
         11    1    3    3    0    0  0.38922170779E+01  0.74247003965E+01 -0.22180573705E+01  0.86715228489E+01  0.51100000000E-03 0. -1.
        -11    1    3    3    0    0 -0.21288598081E+02  0.12028894787E+02 -0.13885313077E+02  0.28119399666E+02  0.51100000000E-03 0.  1.
        -12    1    3    3    0    0  0.40092991897E+01  0.10287592060E+02 -0.81744675418E+01  0.13737938345E+02  0.00000000000E+00 0.  1.
</event>
<event>
 7    1  0.5910662E-013  0.5052886E+02  0.7816164E-02  0.1300439E+00
        -11   -1    0    0    0    0  0.00000000000E+00  0.00000000000E+00  0.45593999997E+02  0.45594000000E+02  0.51100000000E-03 0.  1.
         11   -1    0    0    0    0 -0.00000000000E+00 -0.00000000000E+00 -0.45593999997E+02  0.45594000000E+02  0.51100000000E-03 0. -1.
    9900012    2    1    2    0    0  0.10489340498E+02  0.39232838311E+02  0.19809340605E+01  0.50528856308E+02  0.29999989234E+02 0.  0.
         12    1    1    2    0    0 -0.10489340498E+02 -0.39232838311E+02 -0.19809340605E+01  0.40659143692E+02  0.00000000000E+00 0. -1.
         11    1    3    3    0    0 -0.47607796948E+00  0.28620566454E+02 -0.10541366526E+02  0.30503833904E+02  0.51100000000E-03 0. -1.
        -11    1    3    3    0    0  0.60371939384E+01  0.66125703726E+01  0.92888596717E+01  0.12901810410E+02  0.51100000000E-03 0.  1.
         12    1    3    3    0    0  0.49282245287E+01  0.39997014846E+01  0.32334409144E+01  0.71232119945E+01  0.00000000000E+00 0. -1.
</event>
<event>
 7    1  0.5910662E-013  0.5052884E+02  0.7816164E-02  0.1300439E+00
        -11   -1    0    0    0    0  0.00000000000E+00  0.00000000000E+00  0.45593999997E+02  0.45594000000E+02  0.51100000000E-03 0. -1.
         11   -1    0    0    0    0 -0.00000000000E+00 -0.00000000000E+00 -0.45593999997E+02  0.45594000000E+02  0.51100000000E-03 0.  1.
    9900012    2    1    2    0    0 -0.30240504677E+02 -0.17910300453E+02 -0.20442602727E+02  0.50528843692E+02  0.29999950886E+02 0.  0.
         12    1    1    2    0    0  0.30240504677E+02  0.17910300453E+02  0.20442602727E+02  0.40659156308E+02  0.00000000000E+00 0. -1.
         11    1    3    3    0    0 -0.93836456321E+01 -0.12946557651E+02 -0.17050176481E+02  0.23374658899E+02  0.51100000000E-03 0.  1.
        -11    1    3    3    0    0 -0.20872282947E+02 -0.34414840857E+01  0.22841143163E+01  0.21277057752E+02  0.51100000000E-03 0. -1.
         12    1    3    3    0    0  0.15423901890E-01 -0.15222587156E+01 -0.56765405625E+01  0.58771270407E+01  0.00000000000E+00 0. -1.
</event>
<event>
 7    1  0.5910662E-013  0.5052886E+02  0.7816164E-02  0.1300439E+00
        -11   -1    0    0    0    0  0.00000000000E+00  0.00000000000E+00  0.45593999997E+02  0.45594000000E+02  0.51100000000E-03 0.  1.
         11   -1    0    0    0    0 -0.00000000000E+00 -0.00000000000E+00 -0.45593999997E+02  0.45594000000E+02  0.51100000000E-03 0. -1.
    9900012    2    1    2    0    0 -0.38286017447E+00 -0.35171055192E+02  0.20396472814E+02  0.50528858242E+02  0.29999995112E+02 0.  0.
         12    1    1    2    0    0  0.38286017447E+00  0.35171055192E+02 -0.20396472814E+02  0.40659141758E+02  0.00000000000E+00 0. -1.
         11    1    3    3    0    0 -0.60294283294E+01 -0.37491941357E+01 -0.20540703162E+01  0.73911885222E+01  0.51100000000E-03 0. -1.
        -11    1    3    3    0    0  0.14948830590E+01 -0.26486226228E+02  0.24759185781E+02  0.36287355042E+02  0.51100000000E-03 0.  1.
        -12    1    3    3    0    0  0.41516850959E+01 -0.49356348286E+01 -0.23086426501E+01  0.68503146776E+01  0.00000000000E+00 0.  1.
</event>
<event>
 7    1  0.5910662E-013  0.5052895E+02  0.7816164E-02  0.1300438E+00
        -11   -1    0    0    0    0  0.00000000000E+00  0.00000000000E+00  0.45593999997E+02  0.45594000000E+02  0.51100000000E-03 0.  1.
         11   -1    0    0    0    0 -0.00000000000E+00 -0.00000000000E+00 -0.45593999997E+02  0.45594000000E+02  0.51100000000E-03 0. -1.
    9900012    2    1    2    0    0 -0.28367000382E+02 -0.12147308006E+02  0.26474787974E+02  0.50528951798E+02  0.30000279483E+02 0.  0.
         12    1    1    2    0    0  0.28367000382E+02  0.12147308006E+02 -0.26474787974E+02  0.40659048202E+02  0.00000000000E+00 0. -1.
         11    1    3    3    0    0  0.37509841144E+01 -0.60324657148E+01  0.35287206973E+01  0.79317333823E+01  0.51100000000E-03 0. -1.
        -11    1    3    3    0    0 -0.30720745073E+02 -0.13912454494E+01  0.18081091404E+02  0.35673878515E+02  0.51100000000E-03 0.  1.
        -12    1    3    3    0    0 -0.13972394238E+01 -0.47235968414E+01  0.48649758728E+01  0.69233399000E+01  0.00000000000E+00 0.  1.
</event>
<event>
 7    1  0.5910662E-013  0.5052886E+02  0.7816164E-02  0.1300439E+00
        -11   -1    0    0    0    0  0.00000000000E+00  0.00000000000E+00  0.45593999997E+02  0.45594000000E+02  0.51100000000E-03 0.  1.
         11   -1    0    0    0    0 -0.00000000000E+00 -0.00000000000E+00 -0.45593999997E+02  0.45594000000E+02  0.51100000000E-03 0. -1.
    9900012    2    1    2    0    0  0.50568700721E+01  0.18151941548E+02  0.36029164704E+02  0.50528860484E+02  0.30000001928E+02 0.  0.
         12    1    1    2    0    0 -0.50568700721E+01 -0.18151941548E+02 -0.36029164704E+02  0.40659139516E+02  0.00000000000E+00 0. -1.
         11    1    3    3    0    0 -0.51323228040E+01  0.59840354118E+01 -0.13395490692E+01  0.79964873003E+01  0.51100000000E-03 0. -1.
        -11    1    3    3    0    0  0.77196471335E+01  0.12291055460E+02  0.37337725166E+02  0.40059564614E+02  0.51100000000E-03 0.  1.
        -12    1    3    3    0    0  0.24695457425E+01 -0.12314932470E+00  0.30988607404E-01  0.24728085701E+01  0.00000000000E+00 0.  1.
</event>
<event>
 7    1  0.5910662E-013  0.5052886E+02  0.7816164E-02  0.1300439E+00
        -11   -1    0    0    0    0  0.00000000000E+00  0.00000000000E+00  0.45593999997E+02  0.45594000000E+02  0.51100000000E-03 0.  1.
         11   -1    0    0    0    0 -0.00000000000E+00 -0.00000000000E+00 -0.45593999997E+02  0.45594000000E+02  0.51100000000E-03 0. -1.
    9900012    2    1    2    0    0  0.40480864728E+02 -0.24534639459E+01  0.29061568559E+01  0.50528860288E+02  0.30000001331E+02 0.  0.
         12    1    1    2    0    0 -0.40480864728E+02  0.24534639459E+01 -0.29061568559E+01  0.40659139712E+02  0.00000000000E+00 0. -1.
         11    1    3    3    0    0  0.87204911943E+01 -0.22107930253E+01 -0.54363368069E+01  0.10511342950E+02  0.51100000000E-03 0. -1.
        -11    1    3    3    0    0  0.20136618828E+02 -0.66355001207E+01  0.14198356681E+02  0.25516790793E+02  0.51100000000E-03 0.  1.
        -12    1    3    3    0    0  0.11623754706E+02  0.63928292001E+01 -0.58558630183E+01  0.14500726545E+02  0.00000000000E+00 0.  1.
</event>
<event>
 7    1  0.5910662E-013  0.5052881E+02  0.7816164E-02  0.1300439E+00
        -11   -1    0    0    0    0  0.00000000000E+00  0.00000000000E+00  0.45593999997E+02  0.45594000000E+02  0.51100000000E-03 0. -1.
         11   -1    0    0    0    0 -0.00000000000E+00 -0.00000000000E+00 -0.45593999997E+02  0.45594000000E+02  0.51100000000E-03 0.  1.
    9900012    2    1    2    0    0 -0.21552796680E+02 -0.30141164925E+02 -0.16737889788E+02  0.50528808883E+02  0.29999845080E+02 0.  0.
         12    1    1    2    0    0  0.21552796680E+02  0.30141164925E+02  0.16737889788E+02  0.40659191117E+02  0.00000000000E+00 0. -1.
         11    1    3    3    0    0 -0.11068686880E+01 -0.60533521987E+01  0.31533756467E+01  0.69146228649E+01  0.51100000000E-03 0. -1.
        -11    1    3    3    0    0 -0.84515870778E+01 -0.21860724576E+02 -0.20860436659E+02  0.31376399108E+02  0.51100000000E-03 0.  1.
        -12    1    3    3    0    0 -0.11994340914E+02 -0.22270881497E+01  0.96917122393E+00  0.12237786910E+02  0.00000000000E+00 0.  1.
</event>
<event>
 7    1  0.5910662E-013  0.5052885E+02  0.7816164E-02  0.1300439E+00
        -11   -1    0    0    0    0  0.00000000000E+00  0.00000000000E+00  0.45593999997E+02  0.45594000000E+02  0.51100000000E-03 0.  1.
         11   -1    0    0    0    0 -0.00000000000E+00 -0.00000000000E+00 -0.45593999997E+02  0.45594000000E+02  0.51100000000E-03 0. -1.
    9900012    2    1    2    0    0 -0.29877993753E+02 -0.56619426367E+01  0.26989145440E+02  0.50528854944E+02  0.29999985087E+02 0.  0.
         12    1    1    2    0    0  0.29877993753E+02  0.56619426367E+01 -0.26989145440E+02  0.40659145056E+02  0.00000000000E+00 0. -1.
         11    1    3    3    0    0  0.17149795612E+01  0.35886681133E+01 -0.23066178321E+01  0.45978451265E+01  0.51100000000E-03 0. -1.
        -11    1    3    3    0    0 -0.28970790642E+02 -0.54702862312E+01  0.28945870990E+02  0.41316996376E+02  0.51100000000E-03 0.  1.
         12    1    3    3    0    0 -0.26221826717E+01 -0.37803245187E+01  0.34989228262E+00  0.46140134417E+01  0.00000000000E+00 0. -1.
</event>
<event>
 7    1  0.5910662E-013  0.5052883E+02  0.7816164E-02  0.1300439E+00
        -11   -1    0    0    0    0  0.00000000000E+00  0.00000000000E+00  0.45593999997E+02  0.45594000000E+02  0.51100000000E-03 0. -1.
         11   -1    0    0    0    0 -0.00000000000E+00 -0.00000000000E+00 -0.45593999997E+02  0.45594000000E+02  0.51100000000E-03 0.  1.
    9900012    2    1    2    0    0  0.31178872031E+02  0.25999377691E+02 -0.22535839981E+01  0.50528827083E+02  0.29999900401E+02 0.  0.
         12    1    1    2    0    0 -0.31178872031E+02 -0.25999377691E+02  0.22535839981E+01  0.40659172917E+02  0.00000000000E+00 0. -1.
         11    1    3    3    0    0  0.57619790423E+00 -0.44906230894E+01 -0.37016312706E+01  0.58480572912E+01  0.51100000000E-03 0. -1.
        -11    1    3    3    0    0  0.10690033568E+02  0.11090727873E+02 -0.49011635182E+01  0.16164852815E+02  0.51100000000E-03 0.  1.
         12    1    3    3    0    0  0.19912640559E+02  0.19399272907E+02  0.63492107907E+01  0.28515916976E+02  0.00000000000E+00 0. -1.
</event>
<event>
 7    1  0.5910662E-013  0.5052886E+02  0.7816164E-02  0.1300439E+00
        -11   -1    0    0    0    0  0.00000000000E+00  0.00000000000E+00  0.45593999997E+02  0.45594000000E+02  0.51100000000E-03 0.  1.
         11   -1    0    0    0    0 -0.00000000000E+00 -0.00000000000E+00 -0.45593999997E+02  0.45594000000E+02  0.51100000000E-03 0. -1.
    9900012    2    1    2    0    0  0.32851729844E+02  0.18956190167E+02  0.14648977569E+02  0.50528857815E+02  0.29999993814E+02 0.  0.
         12    1    1    2    0    0 -0.32851729844E+02 -0.18956190167E+02 -0.14648977569E+02  0.40659142185E+02  0.00000000000E+00 0. -1.
         11    1    3    3    0    0  0.22739493093E+02  0.14803332981E+02 -0.41336515280E+01  0.27446498660E+02  0.51100000000E-03 0. -1.
        -11    1    3    3    0    0  0.97224967922E+01  0.12390219748E+01  0.10844170574E+02  0.14617050148E+02  0.51100000000E-03 0.  1.
         12    1    3    3    0    0  0.38973995916E+00  0.29138352115E+01  0.79384585223E+01  0.84653090071E+01  0.00000000000E+00 0. -1.
</event>
<event>
 7    1  0.5910662E-013  0.5052886E+02  0.7816164E-02  0.1300439E+00
        -11   -1    0    0    0    0  0.00000000000E+00  0.00000000000E+00  0.45593999997E+02  0.45594000000E+02  0.51100000000E-03 0.  1.
         11   -1    0    0    0    0 -0.00000000000E+00 -0.00000000000E+00 -0.45593999997E+02  0.45594000000E+02  0.51100000000E-03 0. -1.
    9900012    2    1    2    0    0  0.18058915843E+02  0.15760253198E+02  0.32842891073E+02  0.50528861835E+02  0.30000006034E+02 0.  0.
         12    1    1    2    0    0 -0.18058915843E+02 -0.15760253198E+02 -0.32842891073E+02  0.40659138165E+02  0.00000000000E+00 0. -1.
         11    1    3    3    0    0  0.20760714397E+02  0.61785810448E+01  0.98851356389E+01  0.23809620595E+02  0.51100000000E-03 0. -1.
        -11    1    3    3    0    0  0.89034911419E-01  0.10118838224E+02  0.20866404178E+02  0.23190636857E+02  0.51100000000E-03 0.  1.
        -12    1    3    3    0    0 -0.27908334659E+01 -0.53716607065E+00  0.20913512557E+01  0.35286043836E+01  0.00000000000E+00 0.  1.
</event>
<event>
 7    1  0.5910662E-013  0.5052885E+02  0.7816164E-02  0.1300439E+00
        -11   -1    0    0    0    0  0.00000000000E+00  0.00000000000E+00  0.45593999997E+02  0.45594000000E+02  0.51100000000E-03 0.  1.
         11   -1    0    0    0    0 -0.00000000000E+00 -0.00000000000E+00 -0.45593999997E+02  0.45594000000E+02  0.51100000000E-03 0. -1.
    9900012    2    1    2    0    0 -0.26905199025E+02  0.46948686719E+00  0.30480419345E+02  0.50528854462E+02  0.29999983621E+02 0.  0.
         12    1    1    2    0    0  0.26905199025E+02 -0.46948686719E+00 -0.30480419345E+02  0.40659145538E+02  0.00000000000E+00 0. -1.
         11    1    3    3    0    0 -0.52628978530E+01  0.46193066694E+01  0.77635865758E+01  0.10455111893E+02  0.51100000000E-03 0. -1.
        -11    1    3    3    0    0 -0.24927502081E+02 -0.64057144735E+01  0.11537050747E+02  0.28204912304E+02  0.51100000000E-03 0.  1.
        -12    1    3    3    0    0  0.32852009087E+01  0.22558946713E+01  0.11179782022E+02  0.11868830264E+02  0.00000000000E+00 0.  1.
</event>
<event>
 7    1  0.5910662E-013  0.5052886E+02  0.7816164E-02  0.1300439E+00
        -11   -1    0    0    0    0  0.00000000000E+00  0.00000000000E+00  0.45593999997E+02  0.45594000000E+02  0.51100000000E-03 0. -1.
         11   -1    0    0    0    0 -0.00000000000E+00 -0.00000000000E+00 -0.45593999997E+02  0.45594000000E+02  0.51100000000E-03 0.  1.
    9900012    2    1    2    0    0  0.91786145438E+01  0.39439075384E+02 -0.36712251306E+01  0.50528861716E+02  0.30000005671E+02 0.  0.
         12    1    1    2    0    0 -0.91786145438E+01 -0.39439075384E+02  0.36712251306E+01  0.40659138284E+02  0.00000000000E+00 0. -1.
         11    1    3    3    0    0 -0.18950900623E+01  0.32346176997E+02  0.35831609386E+01  0.32599165254E+02  0.51100000000E-03 0. -1.
        -11    1    3    3    0    0  0.40562241000E+01 -0.19951797347E+01 -0.38931083001E+01  0.59657345416E+01  0.51100000000E-03 0.  1.
        -12    1    3    3    0    0  0.70174805060E+01  0.90880781210E+01 -0.33612777691E+01  0.11963961920E+02  0.00000000000E+00 0.  1.
</event>
<event>
 7    1  0.5910662E-013  0.5052887E+02  0.7816164E-02  0.1300439E+00
        -11   -1    0    0    0    0  0.00000000000E+00  0.00000000000E+00  0.45593999997E+02  0.45594000000E+02  0.51100000000E-03 0. -1.
         11   -1    0    0    0    0 -0.00000000000E+00 -0.00000000000E+00 -0.45593999997E+02  0.45594000000E+02  0.51100000000E-03 0.  1.
    9900012    2    1    2    0    0  0.34215234271E+02  0.19790750629E+02 -0.95293813280E+01  0.50528866030E+02  0.30000018785E+02 0.  0.
         12    1    1    2    0    0 -0.34215234271E+02 -0.19790750629E+02  0.95293813280E+01  0.40659133970E+02  0.00000000000E+00 0. -1.
         11    1    3    3    0    0  0.15145747000E+01  0.15447622804E+00  0.82693862854E+00  0.17325204713E+01  0.51100000000E-03 0. -1.
        -11    1    3    3    0    0  0.13794983048E+02  0.87668749714E+01  0.98357297575E+01  0.19076195485E+02  0.51100000000E-03 0.  1.
        -12    1    3    3    0    0  0.18905676523E+02  0.10869399429E+02 -0.20192049714E+02  0.29720150074E+02  0.00000000000E+00 0.  1.
</event>
<event>
 7    1  0.5910662E-013  0.5052887E+02  0.7816164E-02  0.1300439E+00
        -11   -1    0    0    0    0  0.00000000000E+00  0.00000000000E+00  0.45593999997E+02  0.45594000000E+02  0.51100000000E-03 0.  1.
         11   -1    0    0    0    0 -0.00000000000E+00 -0.00000000000E+00 -0.45593999997E+02  0.45594000000E+02  0.51100000000E-03 0. -1.
    9900012    2    1    2    0    0 -0.10516204790E+02  0.10518437908E+01  0.39261534832E+02  0.50528867497E+02  0.30000023245E+02 0.  0.
         12    1    1    2    0    0  0.10516204790E+02 -0.10518437908E+01 -0.39261534832E+02  0.40659132503E+02  0.00000000000E+00 0. -1.
         11    1    3    3    0    0  0.94850273446E+00 -0.70466008384E+01  0.54709059674E+01  0.89713462299E+01  0.51100000000E-03 0. -1.
        -11    1    3    3    0    0  0.10186215417E+01  0.11172107642E+02  0.13722937106E+02  0.17724914163E+02  0.51100000000E-03 0.  1.
        -12    1    3    3    0    0 -0.12483329066E+02 -0.30736630131E+01  0.20067691758E+02  0.23832607104E+02  0.00000000000E+00 0.  1.
</event>
<event>
 7    1  0.5910662E-013  0.5052886E+02  0.7816164E-02  0.1300439E+00
        -11   -1    0    0    0    0  0.00000000000E+00  0.00000000000E+00  0.45593999997E+02  0.45594000000E+02  0.51100000000E-03 0. -1.
         11   -1    0    0    0    0 -0.00000000000E+00 -0.00000000000E+00 -0.45593999997E+02  0.45594000000E+02  0.51100000000E-03 0.  1.
    9900012    2    1    2    0    0  0.40189069138E+01  0.13638717007E+02 -0.38091983260E+02  0.50528863227E+02  0.30000010266E+02 0.  0.
         12    1    1    2    0    0 -0.40189069138E+01 -0.13638717007E+02  0.38091983260E+02  0.40659136773E+02  0.00000000000E+00 0. -1.
         11    1    3    3    0    0  0.37949736526E+01 -0.26508105758E+01 -0.43474576439E+01  0.63505125745E+01  0.51100000000E-03 0. -1.
        -11    1    3    3    0    0 -0.11105249388E+02  0.49862045177E+01 -0.11277890239E+02  0.16594565615E+02  0.51100000000E-03 0.  1.
        -12    1    3    3    0    0  0.11329182649E+02  0.11303323065E+02 -0.22466635377E+02  0.27583785038E+02  0.00000000000E+00 0.  1.
</event>
<event>
 7    1  0.5910662E-013  0.5052885E+02  0.7816164E-02  0.1300439E+00
        -11   -1    0    0    0    0  0.00000000000E+00  0.00000000000E+00  0.45593999997E+02  0.45594000000E+02  0.51100000000E-03 0. -1.
         11   -1    0    0    0    0 -0.00000000000E+00 -0.00000000000E+00 -0.45593999997E+02  0.45594000000E+02  0.51100000000E-03 0.  1.
    9900012    2    1    2    0    0  0.59062922062E+01  0.22154944804E+01 -0.40166825624E+02  0.50528848704E+02  0.29999966121E+02 0.  0.
         12    1    1    2    0    0 -0.59062922062E+01 -0.22154944804E+01  0.40166825624E+02  0.40659151296E+02  0.00000000000E+00 0. -1.
         11    1    3    3    0    0  0.14395010044E+02 -0.26990416836E+01 -0.11934223983E+02  0.18892507576E+02  0.51100000000E-03 0. -1.
        -11    1    3    3    0    0 -0.85430010528E+01  0.16634237654E+01 -0.10642273486E+02  0.13748011886E+02  0.51100000000E-03 0.  1.
         12    1    3    3    0    0  0.54283215406E-01  0.32511123986E+01 -0.17590328154E+02  0.17888329242E+02  0.00000000000E+00 0. -1.
</event>
<event>
 7    1  0.5910662E-013  0.5052885E+02  0.7816164E-02  0.1300439E+00
        -11   -1    0    0    0    0  0.00000000000E+00  0.00000000000E+00  0.45593999997E+02  0.45594000000E+02  0.51100000000E-03 0.  1.
         11   -1    0    0    0    0 -0.00000000000E+00 -0.00000000000E+00 -0.45593999997E+02  0.45594000000E+02  0.51100000000E-03 0. -1.
    9900012    2    1    2    0    0  0.22874002367E+02  0.32914747410E+02  0.68239200703E+01  0.50528850151E+02  0.29999970519E+02 0.  0.
         12    1    1    2    0    0 -0.22874002367E+02 -0.32914747410E+02 -0.68239200703E+01  0.40659149849E+02  0.00000000000E+00 0. -1.
         11    1    3    3    0    0  0.77421784353E+01  0.86713587588E+01 -0.69709838557E+01  0.13554645175E+02  0.51100000000E-03 0. -1.
        -11    1    3    3    0    0  0.10294697614E+02  0.26293057380E+02  0.14381548667E+02  0.31688083055E+02  0.51100000000E-03 0.  1.
         12    1    3    3    0    0  0.48371263176E+01 -0.20496687294E+01 -0.58664474130E+00  0.52861219211E+01  0.00000000000E+00 0. -1.
</event>
<event>
 7    1  0.5910662E-013  0.5052886E+02  0.7816164E-02  0.1300439E+00
        -11   -1    0    0    0    0  0.00000000000E+00  0.00000000000E+00  0.45593999997E+02  0.45594000000E+02  0.51100000000E-03 0. -1.
         11   -1    0    0    0    0 -0.00000000000E+00 -0.00000000000E+00 -0.45593999997E+02  0.45594000000E+02  0.51100000000E-03 0.  1.
    9900012    2    1    2    0    0  0.28357947451E+01  0.19644413657E+02 -0.35485500399E+02  0.50528862548E+02  0.30000008201E+02 0.  0.
         12    1    1    2    0    0 -0.28357947451E+01 -0.19644413657E+02  0.35485500399E+02  0.40659137452E+02  0.00000000000E+00 0. -1.
         11    1    3    3    0    0 -0.99239726509E+01  0.43723597270E+01 -0.64519248487E+01  0.12618640865E+02  0.51100000000E-03 0. -1.
        -11    1    3    3    0    0  0.35095791071E+01  0.14693822229E+02 -0.18203565621E+02  0.23655767981E+02  0.51100000000E-03 0.  1.
         12    1    3    3    0    0  0.92501882889E+01  0.57823170122E+00 -0.10830009930E+02  0.14254453703E+02  0.00000000000E+00 0. -1.
</event>
<event>
 7    1  0.5910662E-013  0.5052885E+02  0.7816164E-02  0.1300439E+00
        -11   -1    0    0    0    0  0.00000000000E+00  0.00000000000E+00  0.45593999997E+02  0.45594000000E+02  0.51100000000E-03 0.  1.
         11   -1    0    0    0    0 -0.00000000000E+00 -0.00000000000E+00 -0.45593999997E+02  0.45594000000E+02  0.51100000000E-03 0. -1.
    9900012    2    1    2    0    0 -0.10200884894E+02  0.26909218482E+02  0.28722850212E+02  0.50528853228E+02  0.29999979871E+02 0.  0.
         12    1    1    2    0    0  0.10200884894E+02 -0.26909218482E+02 -0.28722850212E+02  0.40659146772E+02  0.00000000000E+00 0. -1.
         11    1    3    3    0    0  0.64696127338E+00  0.15687663487E+02 -0.13455473393E+01  0.15758548235E+02  0.51100000000E-03 0. -1.
        -11    1    3    3    0    0 -0.91041003517E+01  0.11622344915E+02  0.21922852052E+02  0.26430569175E+02  0.51100000000E-03 0.  1.
         12    1    3    3    0    0 -0.17437458151E+01 -0.40078992003E+00  0.81455454995E+01  0.83397358179E+01  0.00000000000E+00 0. -1.
</event>
<event>
 7    1  0.5910662E-013  0.5052886E+02  0.7816164E-02  0.1300439E+00
        -11   -1    0    0    0    0  0.00000000000E+00  0.00000000000E+00  0.45593999997E+02  0.45594000000E+02  0.51100000000E-03 0.  1.
         11   -1    0    0    0    0 -0.00000000000E+00 -0.00000000000E+00 -0.45593999997E+02  0.45594000000E+02  0.51100000000E-03 0. -1.
    9900012    2    1    2    0    0 -0.72576813252E+01 -0.53393729223E+01  0.39648238906E+02  0.50528859702E+02  0.29999999550E+02 0.  0.
         12    1    1    2    0    0  0.72576813252E+01  0.53393729223E+01 -0.39648238906E+02  0.40659140298E+02  0.00000000000E+00 0. -1.
         11    1    3    3    0    0 -0.43055914515E+01  0.75574417629E+01  0.33518055254E+00  0.87043316809E+01  0.51100000000E-03 0. -1.
        -11    1    3    3    0    0 -0.30553600411E+01 -0.13166092393E+02  0.35268093083E+02  0.37769294457E+02  0.51100000000E-03 0.  1.
         12    1    3    3    0    0  0.10327016730E+00  0.26927770751E+00  0.40449652711E+01  0.40552335636E+01  0.00000000000E+00 0. -1.
</event>
<event>
 7    1  0.5910662E-013  0.5052886E+02  0.7816164E-02  0.1300439E+00
        -11   -1    0    0    0    0  0.00000000000E+00  0.00000000000E+00  0.45593999997E+02  0.45594000000E+02  0.51100000000E-03 0.  1.
         11   -1    0    0    0    0 -0.00000000000E+00 -0.00000000000E+00 -0.45593999997E+02  0.45594000000E+02  0.51100000000E-03 0. -1.
    9900012    2    1    2    0    0  0.17761134980E+02 -0.35880463597E+02 -0.70922428405E+01  0.50528862132E+02  0.30000006936E+02 0.  0.
         12    1    1    2    0    0 -0.17761134980E+02  0.35880463597E+02  0.70922428405E+01  0.40659137868E+02  0.00000000000E+00 0. -1.
         11    1    3    3    0    0  0.88370233231E+01 -0.27499700302E+02  0.63758445359E+01  0.29580025215E+02  0.51100000000E-03 0. -1.
        -11    1    3    3    0    0  0.75406158622E+01 -0.69863349387E+01 -0.36070529216E+01  0.10894062351E+02  0.51100000000E-03 0.  1.
         12    1    3    3    0    0  0.13834957942E+01 -0.13944283556E+01 -0.98610344547E+01  0.10054774566E+02  0.00000000000E+00 0. -1.
</event>
<event>
 7    1  0.5910662E-013  0.5052886E+02  0.7816164E-02  0.1300439E+00
        -11   -1    0    0    0    0  0.00000000000E+00  0.00000000000E+00  0.45593999997E+02  0.45594000000E+02  0.51100000000E-03 0.  1.
         11   -1    0    0    0    0 -0.00000000000E+00 -0.00000000000E+00 -0.45593999997E+02  0.45594000000E+02  0.51100000000E-03 0. -1.
    9900012    2    1    2    0    0 -0.21467399376E+02  0.26976816444E+02  0.21553830022E+02  0.50528862650E+02  0.30000008510E+02 0.  0.
         12    1    1    2    0    0  0.21467399376E+02 -0.26976816444E+02 -0.21553830022E+02  0.40659137350E+02  0.00000000000E+00 0. -1.
         11    1    3    3    0    0 -0.14661657193E+01  0.65917738807E+01 -0.31346261137E+01  0.74449315608E+01  0.51100000000E-03 0. -1.
        -11    1    3    3    0    0 -0.20887519600E+02  0.23245999662E+02  0.25070083528E+02  0.40064623593E+02  0.51100000000E-03 0.  1.
        -12    1    3    3    0    0  0.88628594233E+00 -0.28609570983E+01 -0.38162739190E+00  0.30193074961E+01  0.00000000000E+00 0.  1.
</event>
<event>
 7    1  0.5910662E-013  0.5052886E+02  0.7816164E-02  0.1300439E+00
        -11   -1    0    0    0    0  0.00000000000E+00  0.00000000000E+00  0.45593999997E+02  0.45594000000E+02  0.51100000000E-03 0.  1.
         11   -1    0    0    0    0 -0.00000000000E+00 -0.00000000000E+00 -0.45593999997E+02  0.45594000000E+02  0.51100000000E-03 0. -1.
    9900012    2    1    2    0    0 -0.24253038844E+02 -0.37266498683E+01  0.32420180270E+02  0.50528857103E+02  0.29999991649E+02 0.  0.
         12    1    1    2    0    0  0.24253038844E+02  0.37266498683E+01 -0.32420180270E+02  0.40659142897E+02  0.00000000000E+00 0. -1.
         11    1    3    3    0    0  0.38911896219E+01 -0.59392364947E+01  0.67647278110E+01  0.98070091991E+01  0.51100000000E-03 0. -1.
        -11    1    3    3    0    0 -0.11317962649E+02  0.18699049852E+01  0.19287898883E+01  0.11632413932E+02  0.51100000000E-03 0.  1.
         12    1    3    3    0    0 -0.16826265817E+02  0.34268164111E+00  0.23726662571E+02  0.29089433972E+02  0.00000000000E+00 0. -1.
</event>
<event>
 7    1  0.5910662E-013  0.5052886E+02  0.7816164E-02  0.1300439E+00
        -11   -1    0    0    0    0  0.00000000000E+00  0.00000000000E+00  0.45593999997E+02  0.45594000000E+02  0.51100000000E-03 0.  1.
         11   -1    0    0    0    0 -0.00000000000E+00 -0.00000000000E+00 -0.45593999997E+02  0.45594000000E+02  0.51100000000E-03 0. -1.
    9900012    2    1    2    0    0  0.13436290984E+02  0.17357566677E+02  0.34224939217E+02  0.50528862026E+02  0.30000006614E+02 0.  0.
         12    1    1    2    0    0 -0.13436290984E+02 -0.17357566677E+02 -0.34224939217E+02  0.40659137974E+02  0.00000000000E+00 0. -1.
         11    1    3    3    0    0 -0.60893351409E+01  0.10130654613E+01  0.98701153171E+01  0.11641541166E+02  0.51100000000E-03 0. -1.
        -11    1    3    3    0    0  0.12355271324E+02  0.16617372074E+02  0.10346652309E+02  0.23148282839E+02  0.51100000000E-03 0.  1.
        -12    1    3    3    0    0  0.71703548014E+01 -0.27287085843E+00  0.14008171591E+02  0.15739038021E+02  0.00000000000E+00 0.  1.
</event>
<event>
 7    1  0.5910662E-013  0.5052884E+02  0.7816164E-02  0.1300439E+00
        -11   -1    0    0    0    0  0.00000000000E+00  0.00000000000E+00  0.45593999997E+02  0.45594000000E+02  0.51100000000E-03 0.  1.
         11   -1    0    0    0    0 -0.00000000000E+00 -0.00000000000E+00 -0.45593999997E+02  0.45594000000E+02  0.51100000000E-03 0. -1.
    9900012    2    1    2    0    0  0.14841973064E+02  0.37169517742E+02  0.71631028374E+01  0.50528840444E+02  0.29999941012E+02 0.  0.
         12    1    1    2    0    0 -0.14841973064E+02 -0.37169517742E+02 -0.71631028374E+01  0.40659159556E+02  0.00000000000E+00 0. -1.
         11    1    3    3    0    0 -0.70737403291E+01  0.26839476927E+01  0.18426080616E+01  0.77869494791E+01  0.51100000000E-03 0. -1.
        -11    1    3    3    0    0  0.18610468294E+02  0.21198449607E+02  0.66610758071E+01  0.28984370392E+02  0.51100000000E-03 0.  1.
         12    1    3    3    0    0  0.33052450994E+01  0.13287120442E+02 -0.13405810313E+01  0.13757520573E+02  0.00000000000E+00 0. -1.
</event>
<event>
 7    1  0.5910662E-013  0.5052886E+02  0.7816164E-02  0.1300439E+00
        -11   -1    0    0    0    0  0.00000000000E+00  0.00000000000E+00  0.45593999997E+02  0.45594000000E+02  0.51100000000E-03 0. -1.
         11   -1    0    0    0    0 -0.00000000000E+00 -0.00000000000E+00 -0.45593999997E+02  0.45594000000E+02  0.51100000000E-03 0.  1.
    9900012    2    1    2    0    0 -0.20664312340E+02 -0.34023084717E+02 -0.82813853153E+01  0.50528862763E+02  0.30000008854E+02 0.  0.
         12    1    1    2    0    0  0.20664312340E+02  0.34023084717E+02  0.82813853153E+01  0.40659137237E+02  0.00000000000E+00 0. -1.
         11    1    3    3    0    0  0.41935036508E+01 -0.89702608092E+01  0.19071108850E+01  0.10084052957E+02  0.51100000000E-03 0. -1.
        -11    1    3    3    0    0 -0.23958156355E+02 -0.16850300283E+02 -0.12544086920E+02  0.31863458577E+02  0.51100000000E-03 0.  1.
        -12    1    3    3    0    0 -0.89965963601E+00 -0.82025236241E+01  0.23555907199E+01  0.85813512283E+01  0.00000000000E+00 0.  1.
</event>
<event>
 7    1  0.5910662E-013  0.5052886E+02  0.7816164E-02  0.1300439E+00
        -11   -1    0    0    0    0  0.00000000000E+00  0.00000000000E+00  0.45593999997E+02  0.45594000000E+02  0.51100000000E-03 0.  1.
         11   -1    0    0    0    0 -0.00000000000E+00 -0.00000000000E+00 -0.45593999997E+02  0.45594000000E+02  0.51100000000E-03 0. -1.
    9900012    2    1    2    0    0  0.38871170087E+02  0.11434188745E+02  0.33848325620E+01  0.50528860466E+02  0.30000001873E+02 0.  0.
         12    1    1    2    0    0 -0.38871170087E+02 -0.11434188745E+02 -0.33848325620E+01  0.40659139534E+02  0.00000000000E+00 0. -1.
         11    1    3    3    0    0  0.69259615024E-01 -0.44689294588E+01  0.69600862247E+01  0.82715734850E+01  0.51100000000E-03 0. -1.
        -11    1    3    3    0    0  0.24096368068E+02  0.11823425168E+02 -0.25597238006E+01  0.26962576341E+02  0.51100000000E-03 0.  1.
         12    1    3    3    0    0  0.14705542404E+02  0.40796930362E+01 -0.10155298620E+01  0.15294710640E+02  0.00000000000E+00 0. -1.
</event>
<event>
 7    1  0.5910662E-013  0.5052886E+02  0.7816164E-02  0.1300439E+00
        -11   -1    0    0    0    0  0.00000000000E+00  0.00000000000E+00  0.45593999997E+02  0.45594000000E+02  0.51100000000E-03 0.  1.
         11   -1    0    0    0    0 -0.00000000000E+00 -0.00000000000E+00 -0.45593999997E+02  0.45594000000E+02  0.51100000000E-03 0. -1.
    9900012    2    1    2    0    0  0.37731825955E+02  0.12018564043E+02  0.92211325196E+01  0.50528857652E+02  0.29999993318E+02 0.  0.
         12    1    1    2    0    0 -0.37731825955E+02 -0.12018564043E+02 -0.92211325196E+01  0.40659142348E+02  0.00000000000E+00 0. -1.
         11    1    3    3    0    0  0.31234706572E+02  0.54830133147E+01 -0.51385592215E+01  0.32125925991E+02  0.51100000000E-03 0. -1.
        -11    1    3    3    0    0  0.64491977397E+01  0.25120831519E+01  0.61439978370E+01  0.92548053966E+01  0.51100000000E-03 0.  1.
         12    1    3    3    0    0  0.47921643407E-01  0.40234675759E+01  0.82156939041E+01  0.91481262641E+01  0.00000000000E+00 0. -1.
</event>
<event>
 7    1  0.5910662E-013  0.5052888E+02  0.7816164E-02  0.1300439E+00
        -11   -1    0    0    0    0  0.00000000000E+00  0.00000000000E+00  0.45593999997E+02  0.45594000000E+02  0.51100000000E-03 0.  1.
         11   -1    0    0    0    0 -0.00000000000E+00 -0.00000000000E+00 -0.45593999997E+02  0.45594000000E+02  0.51100000000E-03 0. -1.
    9900012    2    1    2    0    0  0.17173562773E+02 -0.28000668669E+02  0.23962374948E+02  0.50528879039E+02  0.30000058325E+02 0.  0.
         12    1    1    2    0    0 -0.17173562773E+02  0.28000668669E+02 -0.23962374948E+02  0.40659120961E+02  0.00000000000E+00 0. -1.
         11    1    3    3    0    0  0.11613058898E+02 -0.24056794530E+01  0.18453863859E+02  0.21936169269E+02  0.51100000000E-03 0. -1.
        -11    1    3    3    0    0  0.23779708212E+00 -0.59936979160E+01 -0.28350475189E+01  0.66346406728E+01  0.51100000000E-03 0.  1.
         12    1    3    3    0    0  0.53227067922E+01 -0.19601291300E+02  0.83435586081E+01  0.21958069097E+02  0.00000000000E+00 0. -1.
</event>
<event>
 7    1  0.5910662E-013  0.5052885E+02  0.7816164E-02  0.1300439E+00
        -11   -1    0    0    0    0  0.00000000000E+00  0.00000000000E+00  0.45593999997E+02  0.45594000000E+02  0.51100000000E-03 0. -1.
         11   -1    0    0    0    0 -0.00000000000E+00 -0.00000000000E+00 -0.45593999997E+02  0.45594000000E+02  0.51100000000E-03 0.  1.
    9900012    2    1    2    0    0  0.24073303044E+02  0.19543390842E+02 -0.26300152933E+02  0.50528854789E+02  0.29999984615E+02 0.  0.
         12    1    1    2    0    0 -0.24073303044E+02 -0.19543390842E+02  0.26300152933E+02  0.40659145211E+02  0.00000000000E+00 0. -1.
         11    1    3    3    0    0  0.15397759839E+02 -0.40096615236E+01 -0.16265621271E+02  0.22753875036E+02  0.51100000000E-03 0. -1.
        -11    1    3    3    0    0  0.69848249618E+01  0.12016050758E+02 -0.32104526310E+01  0.14264650781E+02  0.51100000000E-03 0.  1.
         12    1    3    3    0    0  0.16907182432E+01  0.11537001608E+02 -0.68240790314E+01  0.13510328971E+02  0.00000000000E+00 0. -1.
</event>
<event>
 7    1  0.5910662E-013  0.5052886E+02  0.7816164E-02  0.1300439E+00
        -11   -1    0    0    0    0  0.00000000000E+00  0.00000000000E+00  0.45593999997E+02  0.45594000000E+02  0.51100000000E-03 0.  1.
         11   -1    0    0    0    0 -0.00000000000E+00 -0.00000000000E+00 -0.45593999997E+02  0.45594000000E+02  0.51100000000E-03 0. -1.
    9900012    2    1    2    0    0  0.80286397874E+01 -0.47181328981E+01  0.39578349776E+02  0.50528860733E+02  0.30000002685E+02 0.  0.
         12    1    1    2    0    0 -0.80286397874E+01  0.47181328981E+01 -0.39578349776E+02  0.40659139267E+02  0.00000000000E+00 0. -1.
         11    1    3    3    0    0  0.19733707536E+01  0.13441499298E+01  0.17947140220E+01  0.29869599674E+01  0.51100000000E-03 0. -1.
        -11    1    3    3    0    0  0.80865629981E+00  0.65043468286E+01 -0.82114109919E+00  0.66056586079E+01  0.51100000000E-03 0.  1.
        -12    1    3    3    0    0  0.52466127340E+01 -0.12566629657E+02  0.38604776854E+02  0.40936242158E+02  0.00000000000E+00 0.  1.
</event>
<event>
 7    1  0.5910662E-013  0.5052886E+02  0.7816164E-02  0.1300439E+00
        -11   -1    0    0    0    0  0.00000000000E+00  0.00000000000E+00  0.45593999997E+02  0.45594000000E+02  0.51100000000E-03 0.  1.
         11   -1    0    0    0    0 -0.00000000000E+00 -0.00000000000E+00 -0.45593999997E+02  0.45594000000E+02  0.51100000000E-03 0. -1.
    9900012    2    1    2    0    0  0.34087327078E+02  0.10951443887E+02  0.19268777091E+02  0.50528858825E+02  0.29999996883E+02 0.  0.
         12    1    1    2    0    0 -0.34087327078E+02 -0.10951443887E+02 -0.19268777091E+02  0.40659141175E+02  0.00000000000E+00 0. -1.
         11    1    3    3    0    0  0.19528282285E+02  0.20113171922E+02  0.13174008933E+02  0.30974957714E+02  0.51100000000E-03 0. -1.
        -11    1    3    3    0    0  0.14593786297E+02 -0.80160226689E+01  0.70308914930E+01  0.18073977243E+02  0.51100000000E-03 0.  1.
         12    1    3    3    0    0 -0.34741503858E-01 -0.11457053658E+01 -0.93612333513E+00  0.14799238683E+01  0.00000000000E+00 0. -1.
</event>
<event>
 7    1  0.5910662E-013  0.5052884E+02  0.7816164E-02  0.1300439E+00
        -11   -1    0    0    0    0  0.00000000000E+00  0.00000000000E+00  0.45593999997E+02  0.45594000000E+02  0.51100000000E-03 0.  1.
         11   -1    0    0    0    0 -0.00000000000E+00 -0.00000000000E+00 -0.45593999997E+02  0.45594000000E+02  0.51100000000E-03 0. -1.
    9900012    2    1    2    0    0 -0.17048543032E+02 -0.33018279323E+01  0.36764284029E+02  0.50528837842E+02  0.29999933105E+02 0.  0.
         12    1    1    2    0    0  0.17048543032E+02  0.33018279323E+01 -0.36764284029E+02  0.40659162158E+02  0.00000000000E+00 0. -1.
         11    1    3    3    0    0  0.44977790468E+01  0.28802370317E+01 -0.12868446179E+01  0.54937920459E+01  0.51100000000E-03 0. -1.
        -11    1    3    3    0    0 -0.10163590569E+02  0.14356113422E+01  0.14037370410E+02  0.17389862606E+02  0.51100000000E-03 0.  1.
         12    1    3    3    0    0 -0.11382731509E+02 -0.76176763062E+01  0.24013758238E+02  0.27645183190E+02  0.00000000000E+00 0. -1.
</event>
<event>
 7    1  0.5910662E-013  0.5052887E+02  0.7816164E-02  0.1300439E+00
        -11   -1    0    0    0    0  0.00000000000E+00  0.00000000000E+00  0.45593999997E+02  0.45594000000E+02  0.51100000000E-03 0. -1.
         11   -1    0    0    0    0 -0.00000000000E+00 -0.00000000000E+00 -0.45593999997E+02  0.45594000000E+02  0.51100000000E-03 0.  1.
    9900012    2    1    2    0    0 -0.21152717900E+02 -0.25670004863E+02 -0.23383298185E+02  0.50528865009E+02  0.30000015682E+02 0.  0.
         12    1    1    2    0    0  0.21152717900E+02  0.25670004863E+02  0.23383298185E+02  0.40659134991E+02  0.00000000000E+00 0. -1.
         11    1    3    3    0    0  0.58592781817E+00  0.24172921870E+01  0.18403899980E+01  0.30941313048E+01  0.51100000000E-03 0. -1.
        -11    1    3    3    0    0 -0.29514549990E+01 -0.18188136389E+02 -0.15501529550E+02  0.24079385594E+02  0.51100000000E-03 0.  1.
        -12    1    3    3    0    0 -0.18787190719E+02 -0.98991606604E+01 -0.97221586331E+01  0.23355348111E+02  0.00000000000E+00 0.  1.
</event>
<event>
 7    1  0.5910662E-013  0.5052886E+02  0.7816164E-02  0.1300439E+00
        -11   -1    0    0    0    0  0.00000000000E+00  0.00000000000E+00  0.45593999997E+02  0.45594000000E+02  0.51100000000E-03 0.  1.
         11   -1    0    0    0    0 -0.00000000000E+00 -0.00000000000E+00 -0.45593999997E+02  0.45594000000E+02  0.51100000000E-03 0. -1.
    9900012    2    1    2    0    0 -0.16052291438E+02  0.37352306660E+02 -0.54267711623E+00  0.50528863614E+02  0.30000011440E+02 0.  0.
         12    1    1    2    0    0  0.16052291438E+02 -0.37352306660E+02  0.54267711623E+00  0.40659136386E+02  0.00000000000E+00 0. -1.
         11    1    3    3    0    0 -0.53927999467E+01  0.65879364799E+00  0.30084435477E+01  0.62102361611E+01  0.51100000000E-03 0. -1.
        -11    1    3    3    0    0 -0.10684174686E+02  0.39676321944E+02 -0.25365770684E+01  0.41167904188E+02  0.51100000000E-03 0.  1.
         12    1    3    3    0    0  0.24683195071E-01 -0.29828089317E+01 -0.10145435955E+01  0.31507232647E+01  0.00000000000E+00 0. -1.
</event>
<event>
 7    1  0.5910662E-013  0.5052882E+02  0.7816164E-02  0.1300439E+00
        -11   -1    0    0    0    0  0.00000000000E+00  0.00000000000E+00  0.45593999997E+02  0.45594000000E+02  0.51100000000E-03 0.  1.
         11   -1    0    0    0    0 -0.00000000000E+00 -0.00000000000E+00 -0.45593999997E+02  0.45594000000E+02  0.51100000000E-03 0. -1.
    9900012    2    1    2    0    0  0.13369031984E+02 -0.37835893510E+02 -0.65485401397E+01  0.50528816144E+02  0.29999867151E+02 0.  0.
         12    1    1    2    0    0 -0.13369031984E+02  0.37835893510E+02  0.65485401397E+01  0.40659183856E+02  0.00000000000E+00 0. -1.
         11    1    3    3    0    0 -0.62288937759E+01 -0.87599535155E+01  0.60877515556E+01  0.12353000548E+02  0.51100000000E-03 0. -1.
        -11    1    3    3    0    0  0.75127711333E+01 -0.99956554539E+01 -0.87418006553E+01  0.15256930786E+02  0.51100000000E-03 0.  1.
         12    1    3    3    0    0  0.12085154627E+02 -0.19080284540E+02 -0.38944910400E+01  0.22918884810E+02  0.00000000000E+00 0. -1.
</event>
<event>
 7    1  0.5910662E-013  0.5052889E+02  0.7816164E-02  0.1300439E+00
        -11   -1    0    0    0    0  0.00000000000E+00  0.00000000000E+00  0.45593999997E+02  0.45594000000E+02  0.51100000000E-03 0.  1.
         11   -1    0    0    0    0 -0.00000000000E+00 -0.00000000000E+00 -0.45593999997E+02  0.45594000000E+02  0.51100000000E-03 0. -1.
    9900012    2    1    2    0    0  0.40557546709E+02 -0.23553761247E+01 -0.16434398942E+01  0.50528889257E+02  0.30000089386E+02 0.  0.
         12    1    1    2    0    0 -0.40557546709E+02  0.23553761247E+01  0.16434398942E+01  0.40659110743E+02  0.00000000000E+00 0. -1.
         11    1    3    3    0    0  0.17072537368E+02 -0.79648258919E+01 -0.13725140687E+02  0.23308570759E+02  0.51100000000E-03 0. -1.
        -11    1    3    3    0    0  0.19910703297E+02  0.43537365910E+01  0.87680583040E+01  0.22187157880E+02  0.51100000000E-03 0.  1.
         12    1    3    3    0    0  0.35743060428E+01  0.12557131762E+01  0.33136424889E+01  0.50331606186E+01  0.00000000000E+00 0. -1.
</event>
<event>
 7    1  0.5910662E-013  0.5052887E+02  0.7816164E-02  0.1300439E+00
        -11   -1    0    0    0    0  0.00000000000E+00  0.00000000000E+00  0.45593999997E+02  0.45594000000E+02  0.51100000000E-03 0.  1.
         11   -1    0    0    0    0 -0.00000000000E+00 -0.00000000000E+00 -0.45593999997E+02  0.45594000000E+02  0.51100000000E-03 0. -1.
    9900012    2    1    2    0    0 -0.29510242305E+02  0.26626719842E+02 -0.85631986123E+01  0.50528868419E+02  0.30000026048E+02 0.  0.
         12    1    1    2    0    0  0.29510242305E+02 -0.26626719842E+02  0.85631986123E+01  0.40659131581E+02  0.00000000000E+00 0. -1.
         11    1    3    3    0    0  0.41741098904E+01  0.63025018491E+01 -0.27926273047E+01  0.80587524134E+01  0.51100000000E-03 0. -1.
        -11    1    3    3    0    0 -0.18660339654E+02  0.18154961223E+02 -0.77450949757E+01  0.27162426059E+02  0.51100000000E-03 0.  1.
        -12    1    3    3    0    0 -0.15024012542E+02  0.21692567698E+01  0.19745236682E+01  0.15307689947E+02  0.00000000000E+00 0.  1.
</event>
<event>
 7    1  0.5910662E-013  0.5052888E+02  0.7816164E-02  0.1300439E+00
        -11   -1    0    0    0    0  0.00000000000E+00  0.00000000000E+00  0.45593999997E+02  0.45594000000E+02  0.51100000000E-03 0.  1.
         11   -1    0    0    0    0 -0.00000000000E+00 -0.00000000000E+00 -0.45593999997E+02  0.45594000000E+02  0.51100000000E-03 0. -1.
    9900012    2    1    2    0    0  0.14888331809E+01  0.29099972227E+02  0.28357351631E+02  0.50528875570E+02  0.30000047783E+02 0.  0.
         12    1    1    2    0    0 -0.14888331809E+01 -0.29099972227E+02 -0.28357351631E+02  0.40659124430E+02  0.00000000000E+00 0. -1.
         11    1    3    3    0    0  0.48888325173E+01  0.13447455565E+02  0.25374571154E+01  0.14531807645E+02  0.51100000000E-03 0. -1.
        -11    1    3    3    0    0 -0.11356524882E+02  0.10440582734E+02  0.17809812658E+02  0.23561957737E+02  0.51100000000E-03 0.  1.
         12    1    3    3    0    0  0.79565255454E+01  0.52119339277E+01  0.80100818576E+01  0.12435110188E+02  0.00000000000E+00 0. -1.
</event>
<event>
 7    1  0.5910662E-013  0.5052884E+02  0.7816164E-02  0.1300439E+00
        -11   -1    0    0    0    0  0.00000000000E+00  0.00000000000E+00  0.45593999997E+02  0.45594000000E+02  0.51100000000E-03 0.  1.
         11   -1    0    0    0    0 -0.00000000000E+00 -0.00000000000E+00 -0.45593999997E+02  0.45594000000E+02  0.51100000000E-03 0. -1.
    9900012    2    1    2    0    0 -0.10434020012E+02  0.25970042748E+02  0.29493312016E+02  0.50528839315E+02  0.29999937581E+02 0.  0.
         12    1    1    2    0    0  0.10434020012E+02 -0.25970042748E+02 -0.29493312016E+02  0.40659160685E+02  0.00000000000E+00 0. -1.
         11    1    3    3    0    0 -0.54243699529E+01 -0.55866643876E+01  0.50123949872E+01  0.92605999878E+01  0.51100000000E-03 0. -1.
        -11    1    3    3    0    0 -0.60780802814E+01  0.24937848287E+02  0.22857134479E+02  0.34369869565E+02  0.51100000000E-03 0.  1.
        -12    1    3    3    0    0  0.10684302223E+01  0.66188588486E+01  0.16237825500E+01  0.68983697615E+01  0.00000000000E+00 0.  1.
</event>
<event>
 7    1  0.5910662E-013  0.5052886E+02  0.7816164E-02  0.1300439E+00
        -11   -1    0    0    0    0  0.00000000000E+00  0.00000000000E+00  0.45593999997E+02  0.45594000000E+02  0.51100000000E-03 0.  1.
         11   -1    0    0    0    0 -0.00000000000E+00 -0.00000000000E+00 -0.45593999997E+02  0.45594000000E+02  0.51100000000E-03 0. -1.
    9900012    2    1    2    0    0  0.32100116820E+02  0.72007323383E+01  0.23893464840E+02  0.50528859477E+02  0.29999998865E+02 0.  0.
         12    1    1    2    0    0 -0.32100116820E+02 -0.72007323383E+01 -0.23893464840E+02  0.40659140523E+02  0.00000000000E+00 0. -1.
         11    1    3    3    0    0  0.12898218886E+02  0.14716277780E+02  0.18279983668E+02  0.26778548976E+02  0.51100000000E-03 0. -1.
        -11    1    3    3    0    0  0.54697079312E+01 -0.28419937307E+01 -0.30260366480E+01  0.68666972610E+01  0.51100000000E-03 0.  1.
         12    1    3    3    0    0  0.13732190002E+02 -0.46735517106E+01  0.86395178199E+01  0.16883613239E+02  0.00000000000E+00 0. -1.
</event>
<event>
 7    1  0.5910662E-013  0.5052885E+02  0.7816164E-02  0.1300439E+00
        -11   -1    0    0    0    0  0.00000000000E+00  0.00000000000E+00  0.45593999997E+02  0.45594000000E+02  0.51100000000E-03 0. -1.
         11   -1    0    0    0    0 -0.00000000000E+00 -0.00000000000E+00 -0.45593999997E+02  0.45594000000E+02  0.51100000000E-03 0.  1.
    9900012    2    1    2    0    0  0.37174413734E+01  0.17998285659E+02 -0.36268559614E+02  0.50528854983E+02  0.29999985206E+02 0.  0.
         12    1    1    2    0    0 -0.37174413734E+01 -0.17998285659E+02  0.36268559614E+02  0.40659145017E+02  0.00000000000E+00 0. -1.
         11    1    3    3    0    0 -0.37428661053E-01 -0.44937211877E+01  0.68945860398E+00  0.45464584509E+01  0.51100000000E-03 0. -1.
        -11    1    3    3    0    0  0.63888018762E-02  0.17465996794E+02 -0.35471840511E+02  0.39538747506E+02  0.51100000000E-03 0.  1.
        -12    1    3    3    0    0  0.37484812325E+01  0.50260100523E+01 -0.14861777078E+01  0.64436490264E+01  0.00000000000E+00 0.  1.
</event>
<event>
 7    1  0.5910662E-013  0.5052887E+02  0.7816164E-02  0.1300439E+00
        -11   -1    0    0    0    0  0.00000000000E+00  0.00000000000E+00  0.45593999997E+02  0.45594000000E+02  0.51100000000E-03 0.  1.
         11   -1    0    0    0    0 -0.00000000000E+00 -0.00000000000E+00 -0.45593999997E+02  0.45594000000E+02  0.51100000000E-03 0. -1.
    9900012    2    1    2    0    0 -0.23015844297E+02  0.22738621096E+01  0.33440468367E+02  0.50528874798E+02  0.30000045436E+02 0.  0.
         12    1    1    2    0    0  0.23015844297E+02 -0.22738621096E+01 -0.33440468367E+02  0.40659125202E+02  0.00000000000E+00 0. -1.
         11    1    3    3    0    0 -0.71770393526E-01 -0.65263517394E-01  0.11278759046E+02  0.11279176220E+02  0.51100000000E-03 0. -1.
        -11    1    3    3    0    0 -0.17649206997E+02  0.10154933083E+02  0.72764984587E+01  0.21623242209E+02  0.51100000000E-03 0.  1.
        -12    1    3    3    0    0 -0.52948669061E+01 -0.78158074558E+01  0.14885210862E+02  0.17626456369E+02  0.00000000000E+00 0.  1.
</event>
<event>
 7    1  0.5910662E-013  0.5052886E+02  0.7816164E-02  0.1300439E+00
        -11   -1    0    0    0    0  0.00000000000E+00  0.00000000000E+00  0.45593999997E+02  0.45594000000E+02  0.51100000000E-03 0.  1.
         11   -1    0    0    0    0 -0.00000000000E+00 -0.00000000000E+00 -0.45593999997E+02  0.45594000000E+02  0.51100000000E-03 0. -1.
    9900012    2    1    2    0    0 -0.29829450447E+02  0.22652228871E+02  0.15819174524E+02  0.50528857493E+02  0.29999992837E+02 0.  0.
         12    1    1    2    0    0  0.29829450447E+02 -0.22652228871E+02 -0.15819174524E+02  0.40659142507E+02  0.00000000000E+00 0. -1.
         11    1    3    3    0    0 -0.19074422702E+02  0.16224560892E+01  0.83918019233E+00  0.19161685438E+02  0.51100000000E-03 0. -1.
        -11    1    3    3    0    0 -0.19914204821E+01  0.93355958550E+01  0.13700186994E+02  0.16697731266E+02  0.51100000000E-03 0.  1.
        -12    1    3    3    0    0 -0.87636072622E+01  0.11694176926E+02  0.12798073373E+01  0.14669440789E+02  0.00000000000E+00 0.  1.
</event>
<event>
 7    1  0.5910662E-013  0.5052886E+02  0.7816164E-02  0.1300439E+00
        -11   -1    0    0    0    0  0.00000000000E+00  0.00000000000E+00  0.45593999997E+02  0.45594000000E+02  0.51100000000E-03 0.  1.
         11   -1    0    0    0    0 -0.00000000000E+00 -0.00000000000E+00 -0.45593999997E+02  0.45594000000E+02  0.51100000000E-03 0. -1.
    9900012    2    1    2    0    0  0.38956166228E+02 -0.55520539292E+01  0.10235101751E+02  0.50528862062E+02  0.30000006724E+02 0.  0.
         12    1    1    2    0    0 -0.38956166228E+02  0.55520539292E+01 -0.10235101751E+02  0.40659137938E+02  0.00000000000E+00 0. -1.
         11    1    3    3    0    0  0.20787541585E+02 -0.11287057286E+02  0.16399199742E+02  0.28782864690E+02  0.51100000000E-03 0.  1.
        -11    1    3    3    0    0  0.96346515248E+01  0.60423420918E+01 -0.28090827169E+00  0.11376085341E+02  0.51100000000E-03 0. -1.
         12    1    3    3    0    0  0.85339731184E+01 -0.30733873503E+00 -0.58831897188E+01  0.10369912032E+02  0.00000000000E+00 0. -1.
</event>
<event>
 7    1  0.5910662E-013  0.5052890E+02  0.7816164E-02  0.1300439E+00
        -11   -1    0    0    0    0  0.00000000000E+00  0.00000000000E+00  0.45593999997E+02  0.45594000000E+02  0.51100000000E-03 0.  1.
         11   -1    0    0    0    0 -0.00000000000E+00 -0.00000000000E+00 -0.45593999997E+02  0.45594000000E+02  0.51100000000E-03 0. -1.
    9900012    2    1    2    0    0  0.39159655968E+02 -0.10170211145E+02  0.40312434051E+01  0.50528895562E+02  0.30000108551E+02 0.  0.
         12    1    1    2    0    0 -0.39159655968E+02  0.10170211145E+02 -0.40312434051E+01  0.40659104438E+02  0.00000000000E+00 0. -1.
         11    1    3    3    0    0  0.45650265926E+01  0.34648748584E+00 -0.95317723294E+01  0.10574223630E+02  0.51100000000E-03 0. -1.
        -11    1    3    3    0    0  0.18232647881E+01 -0.21559971377E+01  0.38350687092E+01  0.47623912492E+01  0.51100000000E-03 0.  1.
         12    1    3    3    0    0  0.32771364587E+02 -0.83607014934E+01  0.97279470253E+01  0.35192280684E+02  0.00000000000E+00 0. -1.
</event>
<event>
 7    1  0.5910662E-013  0.5052892E+02  0.7816164E-02  0.1300439E+00
        -11   -1    0    0    0    0  0.00000000000E+00  0.00000000000E+00  0.45593999997E+02  0.45594000000E+02  0.51100000000E-03 0.  1.
         11   -1    0    0    0    0 -0.00000000000E+00 -0.00000000000E+00 -0.45593999997E+02  0.45594000000E+02  0.51100000000E-03 0. -1.
    9900012    2    1    2    0    0 -0.15326120676E+01 -0.31272543531E+01  0.40509652781E+02  0.50528922440E+02  0.30000190249E+02 0.  0.
         12    1    1    2    0    0  0.15326120676E+01  0.31272543531E+01 -0.40509652781E+02  0.40659077560E+02  0.00000000000E+00 0. -1.
         11    1    3    3    0    0 -0.90041617531E+01 -0.96774253599E+01  0.22442253074E+02  0.26045771514E+02  0.51100000000E-03 0. -1.
        -11    1    3    3    0    0  0.65022734020E+01  0.40532763548E+01  0.19842110186E+02  0.21270118605E+02  0.51100000000E-03 0.  1.
         12    1    3    3    0    0  0.96927628355E+00  0.24968946520E+01 -0.17747104780E+01  0.32130323213E+01  0.00000000000E+00 0. -1.
</event>
<event>
 7    1  0.5910662E-013  0.5052886E+02  0.7816164E-02  0.1300439E+00
        -11   -1    0    0    0    0  0.00000000000E+00  0.00000000000E+00  0.45593999997E+02  0.45594000000E+02  0.51100000000E-03 0.  1.
         11   -1    0    0    0    0 -0.00000000000E+00 -0.00000000000E+00 -0.45593999997E+02  0.45594000000E+02  0.51100000000E-03 0. -1.
    9900012    2    1    2    0    0 -0.24508934500E+02  0.12670118168E+02  0.29865459387E+02  0.50528862907E+02  0.30000009293E+02 0.  0.
         12    1    1    2    0    0  0.24508934500E+02 -0.12670118168E+02 -0.29865459387E+02  0.40659137093E+02  0.00000000000E+00 0. -1.
         11    1    3    3    0    0 -0.10882282775E+02 -0.12026502408E+01 -0.15769816346E+01  0.11061524187E+02  0.51100000000E-03 0. -1.
        -11    1    3    3    0    0 -0.14414022748E+02  0.11179367566E+02  0.31777933928E+02  0.36641225361E+02  0.51100000000E-03 0.  1.
        -12    1    3    3    0    0  0.78737102350E+00  0.26934008429E+01 -0.33549290616E+00  0.28261133593E+01  0.00000000000E+00 0.  1.
</event>
<event>
 7    1  0.5910662E-013  0.5052887E+02  0.7816164E-02  0.1300439E+00
        -11   -1    0    0    0    0  0.00000000000E+00  0.00000000000E+00  0.45593999997E+02  0.45594000000E+02  0.51100000000E-03 0. -1.
         11   -1    0    0    0    0 -0.00000000000E+00 -0.00000000000E+00 -0.45593999997E+02  0.45594000000E+02  0.51100000000E-03 0.  1.
    9900012    2    1    2    0    0 -0.72240480917E+01 -0.39644825511E+02  0.54098078313E+01  0.50528867184E+02  0.30000022292E+02 0.  0.
         12    1    1    2    0    0  0.72240480917E+01  0.39644825511E+02 -0.54098078313E+01  0.40659132816E+02  0.00000000000E+00 0. -1.
         11    1    3    3    0    0 -0.59665873338E+00 -0.12106892716E+02 -0.99103512544E+01  0.15657200105E+02  0.51100000000E-03 0. -1.
        -11    1    3    3    0    0 -0.18028086346E+01 -0.84489312307E+01  0.12181270275E+02  0.14933783971E+02  0.51100000000E-03 0.  1.
         12    1    3    3    0    0 -0.48245807236E+01 -0.19089001563E+02  0.31388888108E+01  0.19937883108E+02  0.00000000000E+00 0. -1.
</event>
<event>
 7    1  0.5910662E-013  0.5052888E+02  0.7816164E-02  0.1300439E+00
        -11   -1    0    0    0    0  0.00000000000E+00  0.00000000000E+00  0.45593999997E+02  0.45594000000E+02  0.51100000000E-03 0.  1.
         11   -1    0    0    0    0 -0.00000000000E+00 -0.00000000000E+00 -0.45593999997E+02  0.45594000000E+02  0.51100000000E-03 0. -1.
    9900012    2    1    2    0    0 -0.16194847765E+02 -0.25280919489E+02  0.27418352131E+02  0.50528880261E+02  0.30000062042E+02 0.  0.
         12    1    1    2    0    0  0.16194847765E+02  0.25280919489E+02 -0.27418352131E+02  0.40659119739E+02  0.00000000000E+00 0. -1.
         11    1    3    3    0    0  0.34776039336E+01 -0.57510978760E+01  0.10774203300E+02  0.12698516169E+02  0.51100000000E-03 0. -1.
        -11    1    3    3    0    0 -0.22253522134E+02 -0.19911840438E+02  0.18023476197E+02  0.34879024234E+02  0.51100000000E-03 0.  1.
        -12    1    3    3    0    0  0.25810704353E+01  0.38201882487E+00 -0.13793273660E+01  0.29513398580E+01  0.00000000000E+00 0.  1.
</event>
<event>
 7    1  0.5910662E-013  0.5052888E+02  0.7816164E-02  0.1300439E+00
        -11   -1    0    0    0    0  0.00000000000E+00  0.00000000000E+00  0.45593999997E+02  0.45594000000E+02  0.51100000000E-03 0.  1.
         11   -1    0    0    0    0 -0.00000000000E+00 -0.00000000000E+00 -0.45593999997E+02  0.45594000000E+02  0.51100000000E-03 0. -1.
    9900012    2    1    2    0    0  0.22411834638E+02 -0.30786334471E+02  0.14250453512E+02  0.50528878670E+02  0.30000057207E+02 0.  0.
         12    1    1    2    0    0 -0.22411834638E+02  0.30786334471E+02 -0.14250453512E+02  0.40659121330E+02  0.00000000000E+00 0. -1.
         11    1    3    3    0    0  0.17775158779E+00  0.17765151338E+00  0.22327400029E+01  0.22468386388E+01  0.51100000000E-03 0. -1.
        -11    1    3    3    0    0  0.25371225032E+02 -0.13486604197E+02  0.99418550099E+01  0.30404408129E+02  0.51100000000E-03 0.  1.
        -12    1    3    3    0    0 -0.31371419811E+01 -0.17477381787E+02  0.20758584992E+01  0.17877631903E+02  0.00000000000E+00 0.  1.
</event>
<event>
 7    1  0.5910662E-013  0.5052886E+02  0.7816164E-02  0.1300439E+00
        -11   -1    0    0    0    0  0.00000000000E+00  0.00000000000E+00  0.45593999997E+02  0.45594000000E+02  0.51100000000E-03 0.  1.
         11   -1    0    0    0    0 -0.00000000000E+00 -0.00000000000E+00 -0.45593999997E+02  0.45594000000E+02  0.51100000000E-03 0. -1.
    9900012    2    1    2    0    0 -0.32478264674E+02  0.23730607273E+02  0.59318018009E+01  0.50528859940E+02  0.30000000273E+02 0.  0.
         12    1    1    2    0    0  0.32478264674E+02 -0.23730607273E+02 -0.59318018009E+01  0.40659140060E+02  0.00000000000E+00 0. -1.
         11    1    3    3    0    0 -0.22554421116E+02  0.21205102741E+02  0.10021676525E+01  0.30973579619E+02  0.51100000000E-03 0. -1.
        -11    1    3    3    0    0  0.79525228750E+00 -0.41349175820E+01  0.54949991999E+01  0.69227874500E+01  0.51100000000E-03 0.  1.
        -12    1    3    3    0    0 -0.10719095846E+02  0.66604221138E+01 -0.56536505146E+00  0.12632492871E+02  0.00000000000E+00 0.  1.
</event>
<event>
 7    1  0.5910662E-013  0.5052886E+02  0.7816164E-02  0.1300439E+00
        -11   -1    0    0    0    0  0.00000000000E+00  0.00000000000E+00  0.45593999997E+02  0.45594000000E+02  0.51100000000E-03 0.  1.
         11   -1    0    0    0    0 -0.00000000000E+00 -0.00000000000E+00 -0.45593999997E+02  0.45594000000E+02  0.51100000000E-03 0. -1.
    9900012    2    1    2    0    0 -0.10820452258E+02 -0.12673328068E+02  0.37087331404E+02  0.50528861027E+02  0.30000003577E+02 0.  0.
         12    1    1    2    0    0  0.10820452258E+02  0.12673328068E+02 -0.37087331404E+02  0.40659138973E+02  0.00000000000E+00 0. -1.
         11    1    3    3    0    0 -0.94325876463E+01  0.14631903269E+01  0.71499557520E+00  0.95721394981E+01  0.51100000000E-03 0. -1.
        -11    1    3    3    0    0 -0.42393535925E+01 -0.15112967462E+02  0.28667252608E+02  0.32683103842E+02  0.51100000000E-03 0.  1.
         12    1    3    3    0    0  0.28514889810E+01  0.97644906757E+00  0.77050832211E+01  0.82736176872E+01  0.00000000000E+00 0. -1.
</event>
<event>
 7    1  0.5910662E-013  0.5052886E+02  0.7816164E-02  0.1300439E+00
        -11   -1    0    0    0    0  0.00000000000E+00  0.00000000000E+00  0.45593999997E+02  0.45594000000E+02  0.51100000000E-03 0.  1.
         11   -1    0    0    0    0 -0.00000000000E+00 -0.00000000000E+00 -0.45593999997E+02  0.45594000000E+02  0.51100000000E-03 0. -1.
    9900012    2    1    2    0    0 -0.24562983390E+02  0.14560937204E+02  0.28944853865E+02  0.50528860676E+02  0.30000002511E+02 0.  0.
         12    1    1    2    0    0  0.24562983390E+02 -0.14560937204E+02 -0.28944853865E+02  0.40659139324E+02  0.00000000000E+00 0. -1.
         11    1    3    3    0    0 -0.19088045043E+02 -0.10980242100E+01  0.27878456642E+02  0.33804843820E+02  0.51100000000E-03 0.  1.
        -11    1    3    3    0    0 -0.42687945062E+01  0.10035167658E+02  0.19817613640E+00  0.10907175184E+02  0.51100000000E-03 0. -1.
        -12    1    3    3    0    0 -0.12061438415E+01  0.56237937560E+01  0.86822108658E+00  0.58168416715E+01  0.00000000000E+00 0.  1.
</event>
<event>
 7    1  0.5910662E-013  0.5052886E+02  0.7816164E-02  0.1300439E+00
        -11   -1    0    0    0    0  0.00000000000E+00  0.00000000000E+00  0.45593999997E+02  0.45594000000E+02  0.51100000000E-03 0. -1.
         11   -1    0    0    0    0 -0.00000000000E+00 -0.00000000000E+00 -0.45593999997E+02  0.45594000000E+02  0.51100000000E-03 0.  1.
    9900012    2    1    2    0    0 -0.11965195839E+02 -0.38723745639E+02 -0.32358874853E+01  0.50528863811E+02  0.30000012041E+02 0.  0.
         12    1    1    2    0    0  0.11965195839E+02  0.38723745639E+02  0.32358874853E+01  0.40659136189E+02  0.00000000000E+00 0. -1.
         11    1    3    3    0    0 -0.12331632695E+02 -0.80193159624E+01 -0.22811998564E+01  0.14885646324E+02  0.51100000000E-03 0. -1.
        -11    1    3    3    0    0  0.29092929290E+01 -0.25085508540E+02  0.63928718283E+01  0.26050250182E+02  0.51100000000E-03 0.  1.
        -12    1    3    3    0    0 -0.25428560728E+01 -0.56189211367E+01 -0.73475594573E+01  0.95929673056E+01  0.00000000000E+00 0.  1.
</event>
<event>
 7    1  0.5910662E-013  0.5052886E+02  0.7816164E-02  0.1300439E+00
        -11   -1    0    0    0    0  0.00000000000E+00  0.00000000000E+00  0.45593999997E+02  0.45594000000E+02  0.51100000000E-03 0. -1.
         11   -1    0    0    0    0 -0.00000000000E+00 -0.00000000000E+00 -0.45593999997E+02  0.45594000000E+02  0.51100000000E-03 0.  1.
    9900012    2    1    2    0    0  0.30698508346E+02 -0.16504489919E+02 -0.20937255571E+02  0.50528864827E+02  0.30000015130E+02 0.  0.
         12    1    1    2    0    0 -0.30698508346E+02  0.16504489919E+02  0.20937255571E+02  0.40659135173E+02  0.00000000000E+00 0. -1.
         11    1    3    3    0    0  0.26759318035E+01 -0.83813815426E+01  0.10576014387E+00  0.87988267995E+01  0.51100000000E-03 0. -1.
        -11    1    3    3    0    0  0.23893572489E+02  0.22839262861E+01 -0.99941189144E+01  0.26000029590E+02  0.51100000000E-03 0.  1.
        -12    1    3    3    0    0  0.41290040532E+01 -0.10407034662E+02 -0.11048896801E+02  0.15730008437E+02  0.00000000000E+00 0.  1.
</event>
<event>
 7    1  0.5910662E-013  0.5052886E+02  0.7816164E-02  0.1300439E+00
        -11   -1    0    0    0    0  0.00000000000E+00  0.00000000000E+00  0.45593999997E+02  0.45594000000E+02  0.51100000000E-03 0.  1.
         11   -1    0    0    0    0 -0.00000000000E+00 -0.00000000000E+00 -0.45593999997E+02  0.45594000000E+02  0.51100000000E-03 0. -1.
    9900012    2    1    2    0    0  0.14831241741E+02 -0.34174024751E+02  0.16289138756E+02  0.50528859076E+02  0.29999997649E+02 0.  0.
         12    1    1    2    0    0 -0.14831241741E+02  0.34174024751E+02 -0.16289138756E+02  0.40659140924E+02  0.00000000000E+00 0. -1.
         11    1    3    3    0    0 -0.56240956961E+01  0.43571677088E+00 -0.15069878935E+01  0.58387767790E+01  0.51100000000E-03 0. -1.
        -11    1    3    3    0    0  0.17476145259E+02 -0.24227114692E+02  0.15471048010E+02  0.33641077066E+02  0.51100000000E-03 0.  1.
        -12    1    3    3    0    0  0.29791921779E+01 -0.10382626830E+02  0.23250786397E+01  0.11049005231E+02  0.00000000000E+00 0.  1.
</event>
<event>
 7    1  0.5910662E-013  0.5052886E+02  0.7816164E-02  0.1300439E+00
        -11   -1    0    0    0    0  0.00000000000E+00  0.00000000000E+00  0.45593999997E+02  0.45594000000E+02  0.51100000000E-03 0.  1.
         11   -1    0    0    0    0 -0.00000000000E+00 -0.00000000000E+00 -0.45593999997E+02  0.45594000000E+02  0.51100000000E-03 0. -1.
    9900012    2    1    2    0    0 -0.18024498497E+02 -0.22965624607E+02  0.28299531818E+02  0.50528856369E+02  0.29999989420E+02 0.  0.
         12    1    1    2    0    0  0.18024498497E+02  0.22965624607E+02 -0.28299531818E+02  0.40659143631E+02  0.00000000000E+00 0. -1.
         11    1    3    3    0    0 -0.56747767845E+00 -0.92905599668E+01 -0.12474287711E+01  0.93910922801E+01  0.51100000000E-03 0. -1.
        -11    1    3    3    0    0 -0.12371116527E+02 -0.15999685881E+02  0.29219645145E+02  0.35536208789E+02  0.51100000000E-03 0.  1.
        -12    1    3    3    0    0 -0.50859042922E+01  0.23246212412E+01  0.32731544446E+00  0.56015553006E+01  0.00000000000E+00 0.  1.
</event>
<event>
 7    1  0.5910662E-013  0.5052886E+02  0.7816164E-02  0.1300439E+00
        -11   -1    0    0    0    0  0.00000000000E+00  0.00000000000E+00  0.45593999997E+02  0.45594000000E+02  0.51100000000E-03 0. -1.
         11   -1    0    0    0    0 -0.00000000000E+00 -0.00000000000E+00 -0.45593999997E+02  0.45594000000E+02  0.51100000000E-03 0.  1.
    9900012    2    1    2    0    0  0.23037882960E+02 -0.21074528391E+02 -0.26043923333E+02  0.50528859075E+02  0.29999997645E+02 0.  0.
         12    1    1    2    0    0 -0.23037882960E+02  0.21074528391E+02  0.26043923333E+02  0.40659140925E+02  0.00000000000E+00 0. -1.
         11    1    3    3    0    0  0.11583117285E+01  0.25254380899E+01  0.15900537683E+00  0.27829492589E+01  0.51100000000E-03 0. -1.
        -11    1    3    3    0    0  0.14393743296E+02 -0.26051460772E+02 -0.26517348794E+02  0.39862617096E+02  0.51100000000E-03 0.  1.
        -12    1    3    3    0    0  0.74858279350E+01  0.24514942906E+01  0.31442008394E+00  0.78832927206E+01  0.00000000000E+00 0.  1.
</event>
<event>
 7    1  0.5910662E-013  0.5052886E+02  0.7816164E-02  0.1300439E+00
        -11   -1    0    0    0    0  0.00000000000E+00  0.00000000000E+00  0.45593999997E+02  0.45594000000E+02  0.51100000000E-03 0.  1.
         11   -1    0    0    0    0 -0.00000000000E+00 -0.00000000000E+00 -0.45593999997E+02  0.45594000000E+02  0.51100000000E-03 0. -1.
    9900012    2    1    2    0    0 -0.30272851817E+02  0.77364599743E+01  0.26016679318E+02  0.50528856221E+02  0.29999988969E+02 0.  0.
         12    1    1    2    0    0  0.30272851817E+02 -0.77364599743E+01 -0.26016679318E+02  0.40659143779E+02  0.00000000000E+00 0. -1.
         11    1    3    3    0    0  0.21017649149E+00  0.39365296316E+01  0.15527708646E+02  0.16020305108E+02  0.51100000000E-03 0. -1.
        -11    1    3    3    0    0 -0.22824730189E+02  0.38506891671E+01  0.22444860208E+01  0.23255834387E+02  0.51100000000E-03 0.  1.
        -12    1    3    3    0    0 -0.76582981196E+01 -0.50758824366E-01  0.82444846512E+01  0.11252716726E+02  0.00000000000E+00 0.  1.
</event>
<event>
 7    1  0.5910662E-013  0.5052885E+02  0.7816164E-02  0.1300439E+00
        -11   -1    0    0    0    0  0.00000000000E+00  0.00000000000E+00  0.45593999997E+02  0.45594000000E+02  0.51100000000E-03 0.  1.
         11   -1    0    0    0    0 -0.00000000000E+00 -0.00000000000E+00 -0.45593999997E+02  0.45594000000E+02  0.51100000000E-03 0. -1.
    9900012    2    1    2    0    0 -0.33604753311E+01  0.30793774730E+01  0.40402863845E+02  0.50528846455E+02  0.29999959285E+02 0.  0.
         12    1    1    2    0    0  0.33604753311E+01 -0.30793774730E+01 -0.40402863845E+02  0.40659153545E+02  0.00000000000E+00 0. -1.
         11    1    3    3    0    0 -0.17252633900E+01 -0.94939060432E+01  0.73224280439E+01  0.12113163849E+02  0.51100000000E-03 0. -1.
        -11    1    3    3    0    0  0.30957711682E+01  0.39817019298E+01  0.25569224899E+02  0.26061907290E+02  0.51100000000E-03 0.  1.
         12    1    3    3    0    0 -0.47309831092E+01  0.85915815863E+01  0.75112109023E+01  0.12353775316E+02  0.00000000000E+00 0. -1.
</event>
<event>
 7    1  0.5910662E-013  0.5052886E+02  0.7816164E-02  0.1300439E+00
        -11   -1    0    0    0    0  0.00000000000E+00  0.00000000000E+00  0.45593999997E+02  0.45594000000E+02  0.51100000000E-03 0.  1.
         11   -1    0    0    0    0 -0.00000000000E+00 -0.00000000000E+00 -0.45593999997E+02  0.45594000000E+02  0.51100000000E-03 0. -1.
    9900012    2    1    2    0    0  0.90441676726E+01  0.28821897944E+02  0.27215200187E+02  0.50528857226E+02  0.29999992023E+02 0.  0.
         12    1    1    2    0    0 -0.90441676726E+01 -0.28821897944E+02 -0.27215200187E+02  0.40659142774E+02  0.00000000000E+00 0. -1.
         11    1    3    3    0    0 -0.35328210650E+01  0.74775761206E+01 -0.11363532915E+01  0.83478301600E+01  0.51100000000E-03 0. -1.
        -11    1    3    3    0    0  0.12962365199E+02  0.51095608987E+01  0.18596254760E+02  0.23236850378E+02  0.51100000000E-03 0.  1.
        -12    1    3    3    0    0 -0.38537646175E+00  0.16234760924E+02  0.97552987185E+01  0.18944176688E+02  0.00000000000E+00 0.  1.
</event>
<event>
 7    1  0.5910662E-013  0.5052887E+02  0.7816164E-02  0.1300439E+00
        -11   -1    0    0    0    0  0.00000000000E+00  0.00000000000E+00  0.45593999997E+02  0.45594000000E+02  0.51100000000E-03 0. -1.
         11   -1    0    0    0    0 -0.00000000000E+00 -0.00000000000E+00 -0.45593999997E+02  0.45594000000E+02  0.51100000000E-03 0.  1.
    9900012    2    1    2    0    0 -0.27512693545E+02 -0.63128542052E+00 -0.29930225726E+02  0.50528865240E+02  0.30000016384E+02 0.  0.
         12    1    1    2    0    0  0.27512693545E+02  0.63128542052E+00  0.29930225726E+02  0.40659134760E+02  0.00000000000E+00 0. -1.
         11    1    3    3    0    0 -0.79286729179E+01 -0.90076437527E+01 -0.26276196849E+00  0.12002938987E+02  0.51100000000E-03 0. -1.
        -11    1    3    3    0    0 -0.19640589143E+02  0.63944905747E+01 -0.20335869389E+02  0.28986028284E+02  0.51100000000E-03 0.  1.
         12    1    3    3    0    0  0.56568515935E-01  0.19818677575E+01 -0.93315943683E+01  0.95398979690E+01  0.00000000000E+00 0. -1.
</event>
<event>
 7    1  0.5910662E-013  0.5052888E+02  0.7816164E-02  0.1300439E+00
        -11   -1    0    0    0    0  0.00000000000E+00  0.00000000000E+00  0.45593999997E+02  0.45594000000E+02  0.51100000000E-03 0.  1.
         11   -1    0    0    0    0 -0.00000000000E+00 -0.00000000000E+00 -0.45593999997E+02  0.45594000000E+02  0.51100000000E-03 0. -1.
    9900012    2    1    2    0    0 -0.36602373163E+02 -0.30266614816E+00 -0.17701387065E+02  0.50528875169E+02  0.30000046565E+02 0.  0.
         12    1    1    2    0    0  0.36602373163E+02  0.30266614816E+00  0.17701387065E+02  0.40659124831E+02  0.00000000000E+00 0. -1.
         11    1    3    3    0    0 -0.17599650103E+02  0.89061332860E+01 -0.15886051926E+02  0.25326538253E+02  0.51100000000E-03 0. -1.
        -11    1    3    3    0    0 -0.32365333058E+01 -0.86818245891E+01 -0.17383978415E+01  0.94271551038E+01  0.51100000000E-03 0.  1.
         12    1    3    3    0    0 -0.15766189754E+02 -0.52697484507E+00 -0.76937297447E-01  0.15775181812E+02  0.00000000000E+00 0. -1.
</event>
<event>
 7    1  0.5910662E-013  0.5052887E+02  0.7816164E-02  0.1300439E+00
        -11   -1    0    0    0    0  0.00000000000E+00  0.00000000000E+00  0.45593999997E+02  0.45594000000E+02  0.51100000000E-03 0.  1.
         11   -1    0    0    0    0 -0.00000000000E+00 -0.00000000000E+00 -0.45593999997E+02  0.45594000000E+02  0.51100000000E-03 0. -1.
    9900012    2    1    2    0    0 -0.46253424302E+01 -0.26675119915E+02  0.30334953495E+02  0.50528865496E+02  0.30000017162E+02 0.  0.
         12    1    1    2    0    0  0.46253424302E+01  0.26675119915E+02 -0.30334953495E+02  0.40659134504E+02  0.00000000000E+00 0. -1.
         11    1    3    3    0    0 -0.46423811722E+01 -0.65657114761E+01  0.19583583711E+01  0.82761970678E+01  0.51100000000E-03 0. -1.
        -11    1    3    3    0    0  0.43081250418E+01 -0.10061818542E+02  0.29310321357E+02  0.31287298894E+02  0.51100000000E-03 0.  1.
        -12    1    3    3    0    0 -0.42910862999E+01 -0.10047589896E+02 -0.93372623289E+00  0.10965369535E+02  0.00000000000E+00 0.  1.
</event>
<event>
 7    1  0.5910662E-013  0.5052885E+02  0.7816164E-02  0.1300439E+00
        -11   -1    0    0    0    0  0.00000000000E+00  0.00000000000E+00  0.45593999997E+02  0.45594000000E+02  0.51100000000E-03 0.  1.
         11   -1    0    0    0    0 -0.00000000000E+00 -0.00000000000E+00 -0.45593999997E+02  0.45594000000E+02  0.51100000000E-03 0. -1.
    9900012    2    1    2    0    0  0.15250404443E+02 -0.34611025094E+02  0.14922092095E+02  0.50528846956E+02  0.29999960807E+02 0.  0.
         12    1    1    2    0    0 -0.15250404443E+02  0.34611025094E+02 -0.14922092095E+02  0.40659153044E+02  0.00000000000E+00 0. -1.
         11    1    3    3    0    0  0.13920818251E+01  0.27078458114E+00  0.33740641559E+01  0.36599897932E+01  0.51100000000E-03 0. -1.
        -11    1    3    3    0    0  0.31835316629E+01 -0.34597379004E+02  0.90100561983E+01  0.35892821298E+02  0.51100000000E-03 0.  1.
        -12    1    3    3    0    0  0.10674790955E+02 -0.28443067198E+00  0.25379717405E+01  0.10976035865E+02  0.00000000000E+00 0.  1.
</event>
<event>
 7    1  0.5910662E-013  0.5052885E+02  0.7816164E-02  0.1300439E+00
        -11   -1    0    0    0    0  0.00000000000E+00  0.00000000000E+00  0.45593999997E+02  0.45594000000E+02  0.51100000000E-03 0. -1.
         11   -1    0    0    0    0 -0.00000000000E+00 -0.00000000000E+00 -0.45593999997E+02  0.45594000000E+02  0.51100000000E-03 0.  1.
    9900012    2    1    2    0    0  0.30110515225E+02  0.27312205140E+02  0.75286757790E+00  0.50528849906E+02  0.29999969776E+02 0.  0.
         12    1    1    2    0    0 -0.30110515225E+02 -0.27312205140E+02 -0.75286757790E+00  0.40659150094E+02  0.00000000000E+00 0. -1.
         11    1    3    3    0    0  0.80521866135E+00  0.11350845274E+02 -0.24953524262E+01  0.11649757487E+02  0.51100000000E-03 0. -1.
        -11    1    3    3    0    0  0.31911762081E+02  0.16678841783E+02  0.26142286851E+01  0.36102333916E+02  0.51100000000E-03 0.  1.
        -12    1    3    3    0    0 -0.26064655170E+01 -0.71748191649E+00  0.63399131901E+00  0.27767585031E+01  0.00000000000E+00 0.  1.
</event>
<event>
 7    1  0.5910662E-013  0.5052882E+02  0.7816164E-02  0.1300439E+00
        -11   -1    0    0    0    0  0.00000000000E+00  0.00000000000E+00  0.45593999997E+02  0.45594000000E+02  0.51100000000E-03 0.  1.
         11   -1    0    0    0    0 -0.00000000000E+00 -0.00000000000E+00 -0.45593999997E+02  0.45594000000E+02  0.51100000000E-03 0. -1.
    9900012    2    1    2    0    0 -0.20669570999E+02  0.24197566576E+02  0.25306436109E+02  0.50528817741E+02  0.29999872005E+02 0.  0.
         12    1    1    2    0    0  0.20669570999E+02 -0.24197566576E+02 -0.25306436109E+02  0.40659182259E+02  0.00000000000E+00 0. -1.
         11    1    3    3    0    0  0.49964926109E+01  0.93410882561E+01  0.93119509016E+01  0.14104371594E+02  0.51100000000E-03 0. -1.
        -11    1    3    3    0    0 -0.18429951926E+02  0.12152802918E+02  0.44282331887E+01  0.22515838785E+02  0.51100000000E-03 0.  1.
        -12    1    3    3    0    0 -0.72361116840E+01  0.27036754011E+01  0.11566252018E+02  0.13908607361E+02  0.00000000000E+00 0.  1.
</event>
<event>
 7    1  0.5910662E-013  0.5052886E+02  0.7816164E-02  0.1300439E+00
        -11   -1    0    0    0    0  0.00000000000E+00  0.00000000000E+00  0.45593999997E+02  0.45594000000E+02  0.51100000000E-03 0. -1.
         11   -1    0    0    0    0 -0.00000000000E+00 -0.00000000000E+00 -0.45593999997E+02  0.45594000000E+02  0.51100000000E-03 0.  1.
    9900012    2    1    2    0    0 -0.31598504607E+02  0.25129158783E+02  0.48192986031E+01  0.50528858917E+02  0.29999997164E+02 0.  0.
         12    1    1    2    0    0  0.31598504607E+02 -0.25129158783E+02 -0.48192986031E+01  0.40659141083E+02  0.00000000000E+00 0. -1.
         11    1    3    3    0    0 -0.87732782328E+01  0.22547782924E+02  0.50281545018E+01  0.24711439936E+02  0.51100000000E-03 0. -1.
        -11    1    3    3    0    0 -0.11604436130E+02 -0.68070078042E+00 -0.56530667393E+01  0.12926076561E+02  0.51100000000E-03 0.  1.
        -12    1    3    3    0    0 -0.11220790245E+02  0.32620766394E+01  0.54442108406E+01  0.12891342420E+02  0.00000000000E+00 0.  1.
</event>
<event>
 7    1  0.5910662E-013  0.5052886E+02  0.7816164E-02  0.1300439E+00
        -11   -1    0    0    0    0  0.00000000000E+00  0.00000000000E+00  0.45593999997E+02  0.45594000000E+02  0.51100000000E-03 0.  1.
         11   -1    0    0    0    0 -0.00000000000E+00 -0.00000000000E+00 -0.45593999997E+02  0.45594000000E+02  0.51100000000E-03 0. -1.
    9900012    2    1    2    0    0 -0.81017157876E+01 -0.10354294886E+02  0.38474875872E+02  0.50528864561E+02  0.30000014319E+02 0.  0.
         12    1    1    2    0    0  0.81017157876E+01  0.10354294886E+02 -0.38474875872E+02  0.40659135439E+02  0.00000000000E+00 0. -1.
         11    1    3    3    0    0  0.28576250723E+01  0.65575585540E+01  0.47712800755E+01  0.85984131712E+01  0.51100000000E-03 0. -1.
        -11    1    3    3    0    0 -0.11017482695E+02 -0.16186542295E+02  0.19248747806E+02  0.27457300828E+02  0.51100000000E-03 0.  1.
        -12    1    3    3    0    0  0.58141835419E-01 -0.72531114462E+00  0.14454847991E+02  0.14473150561E+02  0.00000000000E+00 0.  1.
</event>
<event>
 7    1  0.5910662E-013  0.5052885E+02  0.7816164E-02  0.1300439E+00
        -11   -1    0    0    0    0  0.00000000000E+00  0.00000000000E+00  0.45593999997E+02  0.45594000000E+02  0.51100000000E-03 0.  1.
         11   -1    0    0    0    0 -0.00000000000E+00 -0.00000000000E+00 -0.45593999997E+02  0.45594000000E+02  0.51100000000E-03 0. -1.
    9900012    2    1    2    0    0 -0.19949816450E+02 -0.15845099437E+02  0.31687600039E+02  0.50528851598E+02  0.29999974917E+02 0.  0.
         12    1    1    2    0    0  0.19949816450E+02  0.15845099437E+02 -0.31687600039E+02  0.40659148402E+02  0.00000000000E+00 0. -1.
         11    1    3    3    0    0 -0.34067413392E+01  0.77218510916E+01  0.82886736588E+01  0.11829411740E+02  0.51100000000E-03 0. -1.
        -11    1    3    3    0    0 -0.16144724553E+02 -0.19598691437E+02  0.15231063304E+02  0.29609899131E+02  0.51100000000E-03 0.  1.
        -12    1    3    3    0    0 -0.39835055796E+00 -0.39682590909E+01  0.81678630767E+01  0.90895407265E+01  0.00000000000E+00 0.  1.
</event>
<event>
 7    1  0.5910662E-013  0.5052886E+02  0.7816164E-02  0.1300439E+00
        -11   -1    0    0    0    0  0.00000000000E+00  0.00000000000E+00  0.45593999997E+02  0.45594000000E+02  0.51100000000E-03 0.  1.
         11   -1    0    0    0    0 -0.00000000000E+00 -0.00000000000E+00 -0.45593999997E+02  0.45594000000E+02  0.51100000000E-03 0. -1.
    9900012    2    1    2    0    0  0.87003553906E+01  0.17854832058E+02  0.35477799649E+02  0.50528862285E+02  0.30000007402E+02 0.  0.
         12    1    1    2    0    0 -0.87003553906E+01 -0.17854832058E+02 -0.35477799649E+02  0.40659137715E+02  0.00000000000E+00 0. -1.
         11    1    3    3    0    0 -0.20484674649E+01  0.64121726170E+01  0.83380929249E+01  0.10716154651E+02  0.51100000000E-03 0. -1.
        -11    1    3    3    0    0  0.15397042607E+02  0.62552729102E+00  0.22247721471E+02  0.27063283547E+02  0.51100000000E-03 0.  1.
        -12    1    3    3    0    0 -0.46482197517E+01  0.10817132150E+02  0.48919852534E+01  0.12749424086E+02  0.00000000000E+00 0.  1.
</event>
<event>
 7    1  0.5910662E-013  0.5052886E+02  0.7816164E-02  0.1300439E+00
        -11   -1    0    0    0    0  0.00000000000E+00  0.00000000000E+00  0.45593999997E+02  0.45594000000E+02  0.51100000000E-03 0.  1.
         11   -1    0    0    0    0 -0.00000000000E+00 -0.00000000000E+00 -0.45593999997E+02  0.45594000000E+02  0.51100000000E-03 0. -1.
    9900012    2    1    2    0    0 -0.14130579258E+02 -0.35183900572E+02  0.14682830695E+02  0.50528860230E+02  0.30000001156E+02 0.  0.
         12    1    1    2    0    0  0.14130579258E+02  0.35183900572E+02 -0.14682830695E+02  0.40659139770E+02  0.00000000000E+00 0. -1.
         11    1    3    3    0    0  0.39782677192E+01  0.85662634369E+00  0.14077014455E+01  0.43060476494E+01  0.51100000000E-03 0. -1.
        -11    1    3    3    0    0 -0.20124082621E+02 -0.20977131394E+02  0.82819657298E+01  0.30225977229E+02  0.51100000000E-03 0.  1.
        -12    1    3    3    0    0  0.20152356433E+01 -0.15063395521E+02  0.49931635201E+01  0.15996835352E+02  0.00000000000E+00 0.  1.
</event>
<event>
 7    1  0.5910662E-013  0.5052885E+02  0.7816164E-02  0.1300439E+00
        -11   -1    0    0    0    0  0.00000000000E+00  0.00000000000E+00  0.45593999997E+02  0.45594000000E+02  0.51100000000E-03 0.  1.
         11   -1    0    0    0    0 -0.00000000000E+00 -0.00000000000E+00 -0.45593999997E+02  0.45594000000E+02  0.51100000000E-03 0. -1.
    9900012    2    1    2    0    0 -0.38089488414E+02  0.13877044757E+02  0.31280651819E+01  0.50528852313E+02  0.29999977092E+02 0.  0.
         12    1    1    2    0    0  0.38089488414E+02 -0.13877044757E+02 -0.31280651819E+01  0.40659147687E+02  0.00000000000E+00 0. -1.
         11    1    3    3    0    0 -0.25912787607E+02  0.17018502380E+01 -0.71501796638E+01  0.26934994436E+02  0.51100000000E-03 0.  1.
        -11    1    3    3    0    0 -0.13178864256E+01  0.10012137128E+02  0.58379045100E+01  0.11664512156E+02  0.51100000000E-03 0. -1.
        -12    1    3    3    0    0 -0.10858814382E+02  0.21630573912E+01  0.44403403357E+01  0.11929345722E+02  0.00000000000E+00 0.  1.
</event>
<event>
 7    1  0.5910662E-013  0.5052885E+02  0.7816164E-02  0.1300439E+00
        -11   -1    0    0    0    0  0.00000000000E+00  0.00000000000E+00  0.45593999997E+02  0.45594000000E+02  0.51100000000E-03 0.  1.
         11   -1    0    0    0    0 -0.00000000000E+00 -0.00000000000E+00 -0.45593999997E+02  0.45594000000E+02  0.51100000000E-03 0. -1.
    9900012    2    1    2    0    0 -0.11091795948E+02 -0.28447179946E+02  0.26849509897E+02  0.50528853847E+02  0.29999981752E+02 0.  0.
         12    1    1    2    0    0  0.11091795948E+02  0.28447179946E+02 -0.26849509897E+02  0.40659146153E+02  0.00000000000E+00 0. -1.
         11    1    3    3    0    0 -0.56184253528E+01  0.29002524451E-01 -0.42708990011E+01  0.70574870266E+01  0.51100000000E-03 0. -1.
        -11    1    3    3    0    0 -0.37804389470E+01 -0.28226405447E+02  0.28148427038E+02  0.40041923381E+02  0.51100000000E-03 0.  1.
         12    1    3    3    0    0 -0.16929316477E+01 -0.24977702388E+00  0.29719818599E+01  0.34294434390E+01  0.00000000000E+00 0. -1.
</event>
<event>
 7    1  0.5910662E-013  0.5052886E+02  0.7816164E-02  0.1300439E+00
        -11   -1    0    0    0    0  0.00000000000E+00  0.00000000000E+00  0.45593999997E+02  0.45594000000E+02  0.51100000000E-03 0.  1.
         11   -1    0    0    0    0 -0.00000000000E+00 -0.00000000000E+00 -0.45593999997E+02  0.45594000000E+02  0.51100000000E-03 0. -1.
    9900012    2    1    2    0    0 -0.10099908425E+02  0.33800313802E+02  0.20216245013E+02  0.50528856800E+02  0.29999990729E+02 0.  0.
         12    1    1    2    0    0  0.10099908425E+02 -0.33800313802E+02 -0.20216245013E+02  0.40659143200E+02  0.00000000000E+00 0. -1.
         11    1    3    3    0    0 -0.74899133842E+01  0.40289710458E+01  0.13360472990E+01  0.86090901283E+01  0.51100000000E-03 0. -1.
        -11    1    3    3    0    0  0.75281126986E+01  0.21293634977E+02  0.57834892808E+01  0.23313946896E+02  0.51100000000E-03 0.  1.
        -12    1    3    3    0    0 -0.10138107740E+02  0.84777077791E+01  0.13096708434E+02  0.18605819776E+02  0.00000000000E+00 0.  1.
</event>
<event>
 7    1  0.5910662E-013  0.5052885E+02  0.7816164E-02  0.1300439E+00
        -11   -1    0    0    0    0  0.00000000000E+00  0.00000000000E+00  0.45593999997E+02  0.45594000000E+02  0.51100000000E-03 0.  1.
         11   -1    0    0    0    0 -0.00000000000E+00 -0.00000000000E+00 -0.45593999997E+02  0.45594000000E+02  0.51100000000E-03 0. -1.
    9900012    2    1    2    0    0 -0.31769407364E+02 -0.20101221699E+02  0.15485864565E+02  0.50528851468E+02  0.29999974522E+02 0.  0.
         12    1    1    2    0    0  0.31769407364E+02  0.20101221699E+02 -0.15485864565E+02  0.40659148532E+02  0.00000000000E+00 0. -1.
         11    1    3    3    0    0 -0.28135804415E+02 -0.12800356503E+02 -0.33040505293E+00  0.30912485899E+02  0.51100000000E-03 0. -1.
        -11    1    3    3    0    0 -0.35903937661E+01 -0.74334938255E+01  0.70697171227E+01  0.10868700856E+02  0.51100000000E-03 0.  1.
         12    1    3    3    0    0 -0.43209182514E-01  0.13262862898E+00  0.87465524948E+01  0.87476647130E+01  0.00000000000E+00 0. -1.
</event>
<event>
 7    1  0.5910662E-013  0.5052884E+02  0.7816164E-02  0.1300439E+00
        -11   -1    0    0    0    0  0.00000000000E+00  0.00000000000E+00  0.45593999997E+02  0.45594000000E+02  0.51100000000E-03 0.  1.
         11   -1    0    0    0    0 -0.00000000000E+00 -0.00000000000E+00 -0.45593999997E+02  0.45594000000E+02  0.51100000000E-03 0. -1.
    9900012    2    1    2    0    0 -0.23769831330E+02  0.32847364423E+02  0.30353692863E+01  0.50528835010E+02  0.29999924496E+02 0.  0.
         12    1    1    2    0    0  0.23769831330E+02 -0.32847364423E+02 -0.30353692863E+01  0.40659164990E+02  0.00000000000E+00 0. -1.
         11    1    3    3    0    0 -0.99545485297E+01  0.13941669692E+02 -0.72211457743E+01  0.18590538905E+02  0.51100000000E-03 0. -1.
        -11    1    3    3    0    0 -0.75775657193E+01  0.68343988696E+01  0.14475486965E+02  0.17710681333E+02  0.51100000000E-03 0.  1.
        -12    1    3    3    0    0 -0.62377170808E+01  0.12071295861E+02 -0.42189719047E+01  0.14227614772E+02  0.00000000000E+00 0.  1.
</event>
<event>
 7    1  0.5910662E-013  0.5052885E+02  0.7816164E-02  0.1300439E+00
        -11   -1    0    0    0    0  0.00000000000E+00  0.00000000000E+00  0.45593999997E+02  0.45594000000E+02  0.51100000000E-03 0. -1.
         11   -1    0    0    0    0 -0.00000000000E+00 -0.00000000000E+00 -0.45593999997E+02  0.45594000000E+02  0.51100000000E-03 0.  1.
    9900012    2    1    2    0    0 -0.22623245208E+02  0.31616235514E+02 -0.11906672247E+02  0.50528850774E+02  0.29999972412E+02 0.  0.
         12    1    1    2    0    0  0.22623245208E+02 -0.31616235514E+02  0.11906672247E+02  0.40659149226E+02  0.00000000000E+00 0. -1.
         11    1    3    3    0    0 -0.10451051547E+01  0.19071091383E+02 -0.10158327854E+02  0.21633085688E+02  0.51100000000E-03 0.  1.
        -11    1    3    3    0    0 -0.23349697097E+02  0.11288239418E+02 -0.34134543445E+01  0.26158829762E+02  0.51100000000E-03 0. -1.
        -12    1    3    3    0    0  0.17715570445E+01  0.12569047128E+01  0.16651099510E+01  0.27369353240E+01  0.00000000000E+00 0.  1.
</event>
<event>
 7    1  0.5910662E-013  0.5052886E+02  0.7816164E-02  0.1300439E+00
        -11   -1    0    0    0    0  0.00000000000E+00  0.00000000000E+00  0.45593999997E+02  0.45594000000E+02  0.51100000000E-03 0.  1.
         11   -1    0    0    0    0 -0.00000000000E+00 -0.00000000000E+00 -0.45593999997E+02  0.45594000000E+02  0.51100000000E-03 0. -1.
    9900012    2    1    2    0    0  0.76329879992E+01 -0.37921772019E+02  0.12523667250E+02  0.50528861541E+02  0.30000005139E+02 0.  0.
         12    1    1    2    0    0 -0.76329879992E+01  0.37921772019E+02 -0.12523667250E+02  0.40659138459E+02  0.00000000000E+00 0. -1.
         11    1    3    3    0    0  0.15614675800E+02 -0.33917387023E+02  0.94850694741E+01  0.38524976132E+02  0.51100000000E-03 0. -1.
        -11    1    3    3    0    0 -0.22390337031E+01 -0.40771370588E+01  0.40558147714E+01  0.61713817125E+01  0.51100000000E-03 0.  1.
         12    1    3    3    0    0 -0.57426540977E+01  0.72752062321E-01 -0.10172169955E+01  0.58325036961E+01  0.00000000000E+00 0. -1.
</event>
<event>
 7    1  0.5910662E-013  0.5052885E+02  0.7816164E-02  0.1300439E+00
        -11   -1    0    0    0    0  0.00000000000E+00  0.00000000000E+00  0.45593999997E+02  0.45594000000E+02  0.51100000000E-03 0. -1.
         11   -1    0    0    0    0 -0.00000000000E+00 -0.00000000000E+00 -0.45593999997E+02  0.45594000000E+02  0.51100000000E-03 0.  1.
    9900012    2    1    2    0    0  0.75430723318E+01 -0.25990827266E+02 -0.30343788174E+02  0.50528849456E+02  0.29999968407E+02 0.  0.
         12    1    1    2    0    0 -0.75430723318E+01  0.25990827266E+02  0.30343788174E+02  0.40659150544E+02  0.00000000000E+00 0. -1.
         11    1    3    3    0    0 -0.12884577270E+01  0.15215199228E+01 -0.51149858673E+00  0.20583433277E+01  0.51100000000E-03 0. -1.
        -11    1    3    3    0    0  0.11541793777E+02 -0.29274967719E+02 -0.18102675242E+02  0.36303492804E+02  0.51100000000E-03 0.  1.
        -12    1    3    3    0    0 -0.27102637184E+01  0.17626205301E+01 -0.11729614345E+02  0.12167013325E+02  0.00000000000E+00 0.  1.
</event>
<event>
 7    1  0.5910662E-013  0.5052879E+02  0.7816164E-02  0.1300439E+00
        -11   -1    0    0    0    0  0.00000000000E+00  0.00000000000E+00  0.45593999997E+02  0.45594000000E+02  0.51100000000E-03 0.  1.
         11   -1    0    0    0    0 -0.00000000000E+00 -0.00000000000E+00 -0.45593999997E+02  0.45594000000E+02  0.51100000000E-03 0. -1.
    9900012    2    1    2    0    0 -0.14659275370E+02  0.61413997019E+01  0.37424055563E+02  0.50528793423E+02  0.29999798089E+02 0.  0.
         12    1    1    2    0    0  0.14659275370E+02 -0.61413997019E+01 -0.37424055563E+02  0.40659206577E+02  0.00000000000E+00 0. -1.
         11    1    3    3    0    0 -0.69684004428E+01  0.14323262498E+02  0.32985553413E+02  0.36630058525E+02  0.51100000000E-03 0. -1.
        -11    1    3    3    0    0  0.67910792917E+00 -0.31675512483E+01  0.15615504923E+00  0.32432935652E+01  0.51100000000E-03 0.  1.
         12    1    3    3    0    0 -0.83699828565E+01 -0.50143115475E+01  0.42823471008E+01  0.10655441333E+02  0.00000000000E+00 0. -1.
</event>
<event>
 7    1  0.5910662E-013  0.5052886E+02  0.7816164E-02  0.1300439E+00
        -11   -1    0    0    0    0  0.00000000000E+00  0.00000000000E+00  0.45593999997E+02  0.45594000000E+02  0.51100000000E-03 0. -1.
         11   -1    0    0    0    0 -0.00000000000E+00 -0.00000000000E+00 -0.45593999997E+02  0.45594000000E+02  0.51100000000E-03 0.  1.
    9900012    2    1    2    0    0  0.17159078512E+02 -0.20489420249E+02 -0.30641722198E+02  0.50528862567E+02  0.30000008260E+02 0.  0.
         12    1    1    2    0    0 -0.17159078512E+02  0.20489420249E+02  0.30641722198E+02  0.40659137433E+02  0.00000000000E+00 0. -1.
         11    1    3    3    0    0  0.82175025294E+01  0.67240978475E+01 -0.47859612998E+01  0.11646727674E+02  0.51100000000E-03 0. -1.
        -11    1    3    3    0    0  0.40435851635E+00 -0.68588052988E+01 -0.75309337208E+01  0.10194198296E+02  0.51100000000E-03 0.  1.
         12    1    3    3    0    0  0.85372174663E+01 -0.20354712797E+02 -0.18324827177E+02  0.28687936597E+02  0.00000000000E+00 0. -1.
</event>
<event>
 7    1  0.5910662E-013  0.5052885E+02  0.7816164E-02  0.1300439E+00
        -11   -1    0    0    0    0  0.00000000000E+00  0.00000000000E+00  0.45593999997E+02  0.45594000000E+02  0.51100000000E-03 0.  1.
         11   -1    0    0    0    0 -0.00000000000E+00 -0.00000000000E+00 -0.45593999997E+02  0.45594000000E+02  0.51100000000E-03 0. -1.
    9900012    2    1    2    0    0 -0.25302447093E+01 -0.71514421970E+01  0.39945230101E+02  0.50528847628E+02  0.29999962851E+02 0.  0.
         12    1    1    2    0    0  0.25302447093E+01  0.71514421970E+01 -0.39945230101E+02  0.40659152372E+02  0.00000000000E+00 0. -1.
         11    1    3    3    0    0 -0.16797799859E+01 -0.12404911614E+02  0.11050063482E+02  0.16697526648E+02  0.51100000000E-03 0. -1.
        -11    1    3    3    0    0 -0.38798928254E+01  0.89062211237E+01  0.27046786424E+02  0.28738528131E+02  0.51100000000E-03 0.  1.
        -12    1    3    3    0    0  0.30294281019E+01 -0.36527517066E+01  0.18483801950E+01  0.50927928487E+01  0.00000000000E+00 0.  1.
</event>
<event>
 7    1  0.5910662E-013  0.5052886E+02  0.7816164E-02  0.1300439E+00
        -11   -1    0    0    0    0  0.00000000000E+00  0.00000000000E+00  0.45593999997E+02  0.45594000000E+02  0.51100000000E-03 0. -1.
         11   -1    0    0    0    0 -0.00000000000E+00 -0.00000000000E+00 -0.45593999997E+02  0.45594000000E+02  0.51100000000E-03 0.  1.
    9900012    2    1    2    0    0  0.25719574767E+02 -0.11964444568E+02 -0.29129385570E+02  0.50528861253E+02  0.30000004263E+02 0.  0.
         12    1    1    2    0    0 -0.25719574767E+02  0.11964444568E+02  0.29129385570E+02  0.40659138747E+02  0.00000000000E+00 0. -1.
         11    1    3    3    0    0  0.19632465581E+02  0.68966227560E+01 -0.17353818582E+02  0.27095241831E+02  0.51100000000E-03 0. -1.
        -11    1    3    3    0    0  0.65155313210E+01 -0.17053038556E+02 -0.11444926693E+02  0.21546336572E+02  0.51100000000E-03 0.  1.
        -12    1    3    3    0    0 -0.42842213563E+00 -0.18080287674E+01 -0.33064029476E+00  0.18872828497E+01  0.00000000000E+00 0.  1.
</event>
<event>
 7    1  0.5910662E-013  0.5052886E+02  0.7816164E-02  0.1300439E+00
        -11   -1    0    0    0    0  0.00000000000E+00  0.00000000000E+00  0.45593999997E+02  0.45594000000E+02  0.51100000000E-03 0.  1.
         11   -1    0    0    0    0 -0.00000000000E+00 -0.00000000000E+00 -0.45593999997E+02  0.45594000000E+02  0.51100000000E-03 0. -1.
    9900012    2    1    2    0    0 -0.25274380772E+02  0.14960631145E+02  0.28116737635E+02  0.50528859049E+02  0.29999997565E+02 0.  0.
         12    1    1    2    0    0  0.25274380772E+02 -0.14960631145E+02 -0.28116737635E+02  0.40659140951E+02  0.00000000000E+00 0. -1.
         11    1    3    3    0    0  0.37858646665E+01  0.46471157852E+01  0.70191507455E+01  0.92302185155E+01  0.51100000000E-03 0. -1.
        -11    1    3    3    0    0 -0.29521373915E+02  0.12026466139E+02  0.22516179329E+02  0.39027243528E+02  0.51100000000E-03 0.  1.
         12    1    3    3    0    0  0.46112847642E+00 -0.17129507797E+01 -0.14185924391E+01  0.22713970048E+01  0.00000000000E+00 0. -1.
</event>
<event>
 7    1  0.5910662E-013  0.5052886E+02  0.7816164E-02  0.1300439E+00
        -11   -1    0    0    0    0  0.00000000000E+00  0.00000000000E+00  0.45593999997E+02  0.45594000000E+02  0.51100000000E-03 0.  1.
         11   -1    0    0    0    0 -0.00000000000E+00 -0.00000000000E+00 -0.45593999997E+02  0.45594000000E+02  0.51100000000E-03 0. -1.
    9900012    2    1    2    0    0 -0.15401251844E+02  0.17363163737E+02  0.33383946520E+02  0.50528857135E+02  0.29999991746E+02 0.  0.
         12    1    1    2    0    0  0.15401251844E+02 -0.17363163737E+02 -0.33383946520E+02  0.40659142865E+02  0.00000000000E+00 0. -1.
         11    1    3    3    0    0 -0.36502550929E+01  0.21172230777E+02  0.15253447330E+02  0.26348726232E+02  0.51100000000E-03 0. -1.
        -11    1    3    3    0    0 -0.12123855467E+02 -0.14120364375E+01  0.18003387351E+02  0.21750946523E+02  0.51100000000E-03 0.  1.
         12    1    3    3    0    0  0.37285871527E+00 -0.23970306028E+01  0.12711183859E+00  0.24291843799E+01  0.00000000000E+00 0. -1.
</event>
<event>
 7    1  0.5910662E-013  0.5052889E+02  0.7816164E-02  0.1300439E+00
        -11   -1    0    0    0    0  0.00000000000E+00  0.00000000000E+00  0.45593999997E+02  0.45594000000E+02  0.51100000000E-03 0.  1.
         11   -1    0    0    0    0 -0.00000000000E+00 -0.00000000000E+00 -0.45593999997E+02  0.45594000000E+02  0.51100000000E-03 0. -1.
    9900012    2    1    2    0    0  0.13755238941E+02  0.35116376955E+02  0.15191987628E+02  0.50528892572E+02  0.30000099460E+02 0.  0.
         12    1    1    2    0    0 -0.13755238941E+02 -0.35116376955E+02 -0.15191987628E+02  0.40659107428E+02  0.00000000000E+00 0. -1.
         11    1    3    3    0    0  0.13539898533E+02  0.29522961126E+02  0.15944632546E+01  0.32518862208E+02  0.51100000000E-03 0. -1.
        -11    1    3    3    0    0 -0.16779963594E+01 -0.27654060172E+01  0.39481855949E+01  0.51040485867E+01  0.51100000000E-03 0.  1.
        -12    1    3    3    0    0  0.18933367666E+01  0.83588218462E+01  0.96493387784E+01  0.12905981777E+02  0.00000000000E+00 0.  1.
</event>
<event>
 7    1  0.5910662E-013  0.5052886E+02  0.7816164E-02  0.1300439E+00
        -11   -1    0    0    0    0  0.00000000000E+00  0.00000000000E+00  0.45593999997E+02  0.45594000000E+02  0.51100000000E-03 0.  1.
         11   -1    0    0    0    0 -0.00000000000E+00 -0.00000000000E+00 -0.45593999997E+02  0.45594000000E+02  0.51100000000E-03 0. -1.
    9900012    2    1    2    0    0 -0.46310529012E+01 -0.25380831024E+02  0.31425028641E+02  0.50528860074E+02  0.30000000681E+02 0.  0.
         12    1    1    2    0    0  0.46310529012E+01  0.25380831024E+02 -0.31425028641E+02  0.40659139926E+02  0.00000000000E+00 0. -1.
         11    1    3    3    0    0 -0.26148853922E+00  0.16048440245E+01  0.20775544634E+01  0.26382064757E+01  0.51100000000E-03 0. -1.
        -11    1    3    3    0    0 -0.11075456745E+02 -0.22510635978E+02  0.30773099676E+02  0.39703628779E+02  0.51100000000E-03 0.  1.
        -12    1    3    3    0    0  0.67058923828E+01 -0.44750390703E+01 -0.14256254987E+01  0.81870248194E+01  0.00000000000E+00 0.  1.
</event>
<event>
 7    1  0.5910662E-013  0.5052882E+02  0.7816164E-02  0.1300439E+00
        -11   -1    0    0    0    0  0.00000000000E+00  0.00000000000E+00  0.45593999997E+02  0.45594000000E+02  0.51100000000E-03 0.  1.
         11   -1    0    0    0    0 -0.00000000000E+00 -0.00000000000E+00 -0.45593999997E+02  0.45594000000E+02  0.51100000000E-03 0. -1.
    9900012    2    1    2    0    0 -0.39110707621E+02 -0.10783461709E+02 -0.26904211504E+01  0.50528820679E+02  0.29999880936E+02 0.  0.
         12    1    1    2    0    0  0.39110707621E+02  0.10783461709E+02  0.26904211504E+01  0.40659179321E+02  0.00000000000E+00 0. -1.
         11    1    3    3    0    0 -0.13961325789E+02  0.60113088884E+01 -0.43868001138E+01  0.15820823868E+02  0.51100000000E-03 0. -1.
        -11    1    3    3    0    0 -0.23085738223E+02 -0.15362387247E+02 -0.44345707819E+01  0.28082372933E+02  0.51100000000E-03 0.  1.
         12    1    3    3    0    0 -0.20636436086E+01 -0.14323833504E+01  0.61309497453E+01  0.66256238789E+01  0.00000000000E+00 0. -1.
</event>
<event>
 7    1  0.5910662E-013  0.5052886E+02  0.7816164E-02  0.1300439E+00
        -11   -1    0    0    0    0  0.00000000000E+00  0.00000000000E+00  0.45593999997E+02  0.45594000000E+02  0.51100000000E-03 0.  1.
         11   -1    0    0    0    0 -0.00000000000E+00 -0.00000000000E+00 -0.45593999997E+02  0.45594000000E+02  0.51100000000E-03 0. -1.
    9900012    2    1    2    0    0 -0.12677925693E+02  0.70805664154E+00  0.38625569260E+02  0.50528859026E+02  0.29999997494E+02 0.  0.
         12    1    1    2    0    0  0.12677925693E+02 -0.70805664154E+00 -0.38625569260E+02  0.40659140974E+02  0.00000000000E+00 0. -1.
         11    1    3    3    0    0 -0.13695417157E+02 -0.35548839728E+01  0.27530089688E+02  0.30953311449E+02  0.51100000000E-03 0. -1.
        -11    1    3    3    0    0  0.51238062292E+01 -0.35284954362E+01  0.82239081785E+01  0.10311951140E+02  0.51100000000E-03 0.  1.
         12    1    3    3    0    0 -0.41063147656E+01  0.77914360506E+01  0.28715713942E+01  0.92635964375E+01  0.00000000000E+00 0. -1.
</event>
<event>
 7    1  0.5910662E-013  0.5052885E+02  0.7816164E-02  0.1300439E+00
        -11   -1    0    0    0    0  0.00000000000E+00  0.00000000000E+00  0.45593999997E+02  0.45594000000E+02  0.51100000000E-03 0.  1.
         11   -1    0    0    0    0 -0.00000000000E+00 -0.00000000000E+00 -0.45593999997E+02  0.45594000000E+02  0.51100000000E-03 0. -1.
    9900012    2    1    2    0    0  0.20770010692E+02  0.23389622048E+02  0.25974965153E+02  0.50528848774E+02  0.29999966335E+02 0.  0.
         12    1    1    2    0    0 -0.20770010692E+02 -0.23389622048E+02 -0.25974965153E+02  0.40659151226E+02  0.00000000000E+00 0. -1.
         11    1    3    3    0    0  0.12726705042E+02  0.24971458318E+02  0.25444269222E+02  0.37854373437E+02  0.51100000000E-03 0. -1.
        -11    1    3    3    0    0  0.65836007601E+00 -0.15527954259E+01  0.41284869114E+01  0.44597103116E+01  0.51100000000E-03 0.  1.
         12    1    3    3    0    0  0.73849455736E+01 -0.29040844286E-01 -0.35977909806E+01  0.82147650262E+01  0.00000000000E+00 0. -1.
</event>
<event>
 7    1  0.5910662E-013  0.5052888E+02  0.7816164E-02  0.1300439E+00
        -11   -1    0    0    0    0  0.00000000000E+00  0.00000000000E+00  0.45593999997E+02  0.45594000000E+02  0.51100000000E-03 0.  1.
         11   -1    0    0    0    0 -0.00000000000E+00 -0.00000000000E+00 -0.45593999997E+02  0.45594000000E+02  0.51100000000E-03 0. -1.
    9900012    2    1    2    0    0 -0.24494251179E+01 -0.16917137383E+02  0.36891395923E+02  0.50528876623E+02  0.30000050982E+02 0.  0.
         12    1    1    2    0    0  0.24494251179E+01  0.16917137383E+02 -0.36891395923E+02  0.40659123377E+02  0.00000000000E+00 0. -1.
         11    1    3    3    0    0 -0.77864472072E+01 -0.21599600520E+02  0.19639553801E+02  0.30213963271E+02  0.51100000000E-03 0. -1.
        -11    1    3    3    0    0  0.27428858129E+01 -0.14622031525E+01  0.99553358232E+01  0.10429293948E+02  0.51100000000E-03 0.  1.
         12    1    3    3    0    0  0.25941362764E+01  0.61446662898E+01  0.72965062986E+01  0.98856194039E+01  0.00000000000E+00 0. -1.
</event>
<event>
 7    1  0.5910662E-013  0.5052886E+02  0.7816164E-02  0.1300439E+00
        -11   -1    0    0    0    0  0.00000000000E+00  0.00000000000E+00  0.45593999997E+02  0.45594000000E+02  0.51100000000E-03 0.  1.
         11   -1    0    0    0    0 -0.00000000000E+00 -0.00000000000E+00 -0.45593999997E+02  0.45594000000E+02  0.51100000000E-03 0. -1.
    9900012    2    1    2    0    0 -0.27126942427E+02 -0.23968577199E+02 -0.18514909336E+02  0.50528861223E+02  0.30000004172E+02 0.  0.
         12    1    1    2    0    0  0.27126942427E+02  0.23968577199E+02  0.18514909336E+02  0.40659138777E+02  0.00000000000E+00 0. -1.
         11    1    3    3    0    0  0.61191836276E+01 -0.23240564287E+01 -0.48597262620E+00  0.65636739869E+01  0.51100000000E-03 0. -1.
        -11    1    3    3    0    0 -0.11011968745E+02 -0.71181663181E+01 -0.90395935360E+01  0.15926267577E+02  0.51100000000E-03 0.  1.
         12    1    3    3    0    0 -0.22234157310E+02 -0.14526354452E+02 -0.89893431742E+01  0.28038919659E+02  0.00000000000E+00 0. -1.
</event>
<event>
 7    1  0.5910662E-013  0.5052885E+02  0.7816164E-02  0.1300439E+00
        -11   -1    0    0    0    0  0.00000000000E+00  0.00000000000E+00  0.45593999997E+02  0.45594000000E+02  0.51100000000E-03 0.  1.
         11   -1    0    0    0    0 -0.00000000000E+00 -0.00000000000E+00 -0.45593999997E+02  0.45594000000E+02  0.51100000000E-03 0. -1.
    9900012    2    1    2    0    0 -0.30881308029E+01 -0.38852834233E+02  0.11579590127E+02  0.50528853583E+02  0.29999980952E+02 0.  0.
         12    1    1    2    0    0  0.30881308029E+01  0.38852834233E+02 -0.11579590127E+02  0.40659146417E+02  0.00000000000E+00 0. -1.
         11    1    3    3    0    0 -0.10970540410E+01 -0.25354655029E+02  0.16492865569E+02  0.30266758567E+02  0.51100000000E-03 0. -1.
        -11    1    3    3    0    0 -0.38151443918E+01 -0.36949124484E+01 -0.81940377878E+01  0.97647304244E+01  0.51100000000E-03 0.  1.
        -12    1    3    3    0    0  0.18240676300E+01 -0.98032667557E+01  0.32807623460E+01  0.10497364592E+02  0.00000000000E+00 0.  1.
</event>
<event>
 7    1  0.5910662E-013  0.5052880E+02  0.7816164E-02  0.1300439E+00
        -11   -1    0    0    0    0  0.00000000000E+00  0.00000000000E+00  0.45593999997E+02  0.45594000000E+02  0.51100000000E-03 0. -1.
         11   -1    0    0    0    0 -0.00000000000E+00 -0.00000000000E+00 -0.45593999997E+02  0.45594000000E+02  0.51100000000E-03 0.  1.
    9900012    2    1    2    0    0 -0.25423438157E+01 -0.89037928697E+01 -0.39590770435E+02  0.50528804937E+02  0.29999833085E+02 0.  0.
         12    1    1    2    0    0  0.25423438157E+01  0.89037928697E+01  0.39590770435E+02  0.40659195063E+02  0.00000000000E+00 0. -1.
         11    1    3    3    0    0 -0.25727509975E+01 -0.42611249511E+01  0.40796974015E+01  0.64358499588E+01  0.51100000000E-03 0. -1.
        -11    1    3    3    0    0  0.66835140754E+00 -0.44420159808E+01 -0.24347113859E+02  0.24758032093E+02  0.51100000000E-03 0.  1.
         12    1    3    3    0    0 -0.63794422577E+00 -0.20065193785E+00 -0.19323353977E+02  0.19334922885E+02  0.00000000000E+00 0. -1.
</event>
<event>
 7    1  0.5910662E-013  0.5052885E+02  0.7816164E-02  0.1300439E+00
        -11   -1    0    0    0    0  0.00000000000E+00  0.00000000000E+00  0.45593999997E+02  0.45594000000E+02  0.51100000000E-03 0.  1.
         11   -1    0    0    0    0 -0.00000000000E+00 -0.00000000000E+00 -0.45593999997E+02  0.45594000000E+02  0.51100000000E-03 0. -1.
    9900012    2    1    2    0    0 -0.16574979535E+02  0.20072390784E+02  0.31233561769E+02  0.50528853438E+02  0.29999980510E+02 0.  0.
         12    1    1    2    0    0  0.16574979535E+02 -0.20072390784E+02 -0.31233561769E+02  0.40659146562E+02  0.00000000000E+00 0. -1.
         11    1    3    3    0    0 -0.13052013922E+02  0.10643595221E+02  0.32136776865E+01  0.17145521607E+02  0.51100000000E-03 0. -1.
        -11    1    3    3    0    0 -0.94857046193E+01  0.64865656017E+01  0.18190981569E+02  0.21516643236E+02  0.51100000000E-03 0.  1.
         12    1    3    3    0    0  0.59627390058E+01  0.29422299617E+01  0.98289025129E+01  0.11866688595E+02  0.00000000000E+00 0. -1.
</event>
<event>
 7    1  0.5910662E-013  0.5052885E+02  0.7816164E-02  0.1300439E+00
        -11   -1    0    0    0    0  0.00000000000E+00  0.00000000000E+00  0.45593999997E+02  0.45594000000E+02  0.51100000000E-03 0. -1.
         11   -1    0    0    0    0 -0.00000000000E+00 -0.00000000000E+00 -0.45593999997E+02  0.45594000000E+02  0.51100000000E-03 0.  1.
    9900012    2    1    2    0    0  0.38563681186E+02 -0.12708966179E+02 -0.21192407993E+01  0.50528849621E+02  0.29999968908E+02 0.  0.
         12    1    1    2    0    0 -0.38563681186E+02  0.12708966179E+02  0.21192407993E+01  0.40659150379E+02  0.00000000000E+00 0. -1.
         11    1    3    3    0    0  0.89051476218E+01 -0.14272277828E+02 -0.91610416664E+01  0.19155266984E+02  0.51100000000E-03 0. -1.
        -11    1    3    3    0    0  0.16432517621E+02 -0.10109419624E+01  0.69195646775E+00  0.16478120131E+02  0.51100000000E-03 0.  1.
         12    1    3    3    0    0  0.13226015943E+02  0.25742536106E+01  0.63498443994E+01  0.14895462506E+02  0.00000000000E+00 0. -1.
</event>
<event>
 7    1  0.5910662E-013  0.5052888E+02  0.7816164E-02  0.1300439E+00
        -11   -1    0    0    0    0  0.00000000000E+00  0.00000000000E+00  0.45593999997E+02  0.45594000000E+02  0.51100000000E-03 0. -1.
         11   -1    0    0    0    0 -0.00000000000E+00 -0.00000000000E+00 -0.45593999997E+02  0.45594000000E+02  0.51100000000E-03 0.  1.
    9900012    2    1    2    0    0  0.27179747053E+02  0.27168276631E+02  0.13278177088E+02  0.50528881813E+02  0.30000066760E+02 0.  0.
         12    1    1    2    0    0 -0.27179747053E+02 -0.27168276631E+02 -0.13278177088E+02  0.40659118187E+02  0.00000000000E+00 0. -1.
         11    1    3    3    0    0 -0.23966639449E+01  0.45275821118E+01  0.76841850119E+00  0.51801028076E+01  0.51100000000E-03 0. -1.
        -11    1    3    3    0    0  0.19345721856E+02  0.72943160163E+01  0.16531146207E+02  0.26471546903E+02  0.51100000000E-03 0.  1.
        -12    1    3    3    0    0  0.10230689142E+02  0.15346378503E+02 -0.40213876201E+01  0.18877232102E+02  0.00000000000E+00 0.  1.
</event>
<event>
 7    1  0.5910662E-013  0.5052886E+02  0.7816164E-02  0.1300439E+00
        -11   -1    0    0    0    0  0.00000000000E+00  0.00000000000E+00  0.45593999997E+02  0.45594000000E+02  0.51100000000E-03 0.  1.
         11   -1    0    0    0    0 -0.00000000000E+00 -0.00000000000E+00 -0.45593999997E+02  0.45594000000E+02  0.51100000000E-03 0. -1.
    9900012    2    1    2    0    0  0.18533613359E+02  0.33890400484E+02  0.12692977827E+02  0.50528858897E+02  0.29999997104E+02 0.  0.
         12    1    1    2    0    0 -0.18533613359E+02 -0.33890400484E+02 -0.12692977827E+02  0.40659141103E+02  0.00000000000E+00 0. -1.
         11    1    3    3    0    0  0.11912990976E+01  0.21409046186E+02  0.16240797411E+02  0.26898512096E+02  0.51100000000E-03 0. -1.
        -11    1    3    3    0    0  0.82078876022E+01  0.10951054090E+02  0.73636830853E-01  0.13685774630E+02  0.51100000000E-03 0.  1.
         12    1    3    3    0    0  0.91344266591E+01  0.15303002075E+01 -0.36214564151E+01  0.99445721719E+01  0.00000000000E+00 0. -1.
</event>
<event>
 7    1  0.5910662E-013  0.5052891E+02  0.7816164E-02  0.1300439E+00
        -11   -1    0    0    0    0  0.00000000000E+00  0.00000000000E+00  0.45593999997E+02  0.45594000000E+02  0.51100000000E-03 0. -1.
         11   -1    0    0    0    0 -0.00000000000E+00 -0.00000000000E+00 -0.45593999997E+02  0.45594000000E+02  0.51100000000E-03 0.  1.
    9900012    2    1    2    0    0  0.28710276970E+02  0.26598311535E+02 -0.11018681234E+02  0.50528911025E+02  0.30000155550E+02 0.  0.
         12    1    1    2    0    0 -0.28710276970E+02 -0.26598311535E+02  0.11018681234E+02  0.40659088975E+02  0.00000000000E+00 0. -1.
         11    1    3    3    0    0  0.26750248467E+01  0.87387517500E+01 -0.85440944193E+01  0.12510918823E+02  0.51100000000E-03 0. -1.
        -11    1    3    3    0    0  0.23729909901E+02  0.22439971169E+02 -0.97081374854E+00  0.32674200978E+02  0.51100000000E-03 0.  1.
        -12    1    3    3    0    0  0.23053422218E+01 -0.45804113843E+01 -0.15037730667E+01  0.53437912240E+01  0.00000000000E+00 0.  1.
</event>
<event>
 7    1  0.5910662E-013  0.5052891E+02  0.7816164E-02  0.1300439E+00
        -11   -1    0    0    0    0  0.00000000000E+00  0.00000000000E+00  0.45593999997E+02  0.45594000000E+02  0.51100000000E-03 0. -1.
         11   -1    0    0    0    0 -0.00000000000E+00 -0.00000000000E+00 -0.45593999997E+02  0.45594000000E+02  0.51100000000E-03 0.  1.
    9900012    2    1    2    0    0 -0.13330408154E+02  0.18167115139E+02 -0.33844025453E+02  0.50528906148E+02  0.30000140727E+02 0.  0.
         12    1    1    2    0    0  0.13330408154E+02 -0.18167115139E+02  0.33844025453E+02  0.40659093852E+02  0.00000000000E+00 0. -1.
         11    1    3    3    0    0  0.36498469812E+01  0.13956998967E+02 -0.24789385687E+02  0.28681576772E+02  0.51100000000E-03 0. -1.
        -11    1    3    3    0    0 -0.10068102872E+02 -0.23553795056E+01 -0.43752768749E+01  0.11227535618E+02  0.51100000000E-03 0.  1.
         12    1    3    3    0    0 -0.69121522634E+01  0.65654956771E+01 -0.46793628913E+01  0.10619793758E+02  0.00000000000E+00 0. -1.
</event>
<event>
 7    1  0.5910662E-013  0.5052886E+02  0.7816164E-02  0.1300439E+00
        -11   -1    0    0    0    0  0.00000000000E+00  0.00000000000E+00  0.45593999997E+02  0.45594000000E+02  0.51100000000E-03 0. -1.
         11   -1    0    0    0    0 -0.00000000000E+00 -0.00000000000E+00 -0.45593999997E+02  0.45594000000E+02  0.51100000000E-03 0.  1.
    9900012    2    1    2    0    0 -0.35208263536E+02 -0.15298788305E+02  0.13397422820E+02  0.50528859785E+02  0.29999999803E+02 0.  0.
         12    1    1    2    0    0  0.35208263536E+02  0.15298788305E+02 -0.13397422820E+02  0.40659140215E+02  0.00000000000E+00 0. -1.
         11    1    3    3    0    0 -0.10605066699E+02  0.25161138846E-01  0.14766455950E+02  0.18180107106E+02  0.51100000000E-03 0. -1.
        -11    1    3    3    0    0 -0.84445390250E+01 -0.98148519865E+01 -0.65470309903E+01  0.14508796432E+02  0.51100000000E-03 0.  1.
        -12    1    3    3    0    0 -0.16158657812E+02 -0.55090974576E+01  0.51779978594E+01  0.17839956247E+02  0.00000000000E+00 0.  1.
</event>
<event>
 7    1  0.5910662E-013  0.5052883E+02  0.7816164E-02  0.1300439E+00
        -11   -1    0    0    0    0  0.00000000000E+00  0.00000000000E+00  0.45593999997E+02  0.45594000000E+02  0.51100000000E-03 0.  1.
         11   -1    0    0    0    0 -0.00000000000E+00 -0.00000000000E+00 -0.45593999997E+02  0.45594000000E+02  0.51100000000E-03 0. -1.
    9900012    2    1    2    0    0  0.31503847144E+02 -0.16318934063E+01  0.25651749689E+02  0.50528834698E+02  0.29999923549E+02 0.  0.
         12    1    1    2    0    0 -0.31503847144E+02  0.16318934063E+01 -0.25651749689E+02  0.40659165302E+02  0.00000000000E+00 0. -1.
         11    1    3    3    0    0 -0.36035889352E+01  0.27869923362E+01  0.54808912082E+01  0.71269452217E+01  0.51100000000E-03 0. -1.
        -11    1    3    3    0    0  0.18419090041E+02 -0.83445627709E+01  0.58136148320E+01  0.21040264339E+02  0.51100000000E-03 0.  1.
        -12    1    3    3    0    0  0.16688346038E+02  0.39256770284E+01  0.14357243649E+02  0.22361625138E+02  0.00000000000E+00 0.  1.
</event>
<event>
 7    1  0.5910662E-013  0.5052886E+02  0.7816164E-02  0.1300439E+00
        -11   -1    0    0    0    0  0.00000000000E+00  0.00000000000E+00  0.45593999997E+02  0.45594000000E+02  0.51100000000E-03 0. -1.
         11   -1    0    0    0    0 -0.00000000000E+00 -0.00000000000E+00 -0.45593999997E+02  0.45594000000E+02  0.51100000000E-03 0.  1.
    9900012    2    1    2    0    0  0.66480342128E+01 -0.38569274408E+02 -0.11017281512E+02  0.50528858602E+02  0.29999996208E+02 0.  0.
         12    1    1    2    0    0 -0.66480342128E+01  0.38569274408E+02  0.11017281512E+02  0.40659141398E+02  0.00000000000E+00 0. -1.
         11    1    3    3    0    0  0.97059068378E+01 -0.36621803385E+02 -0.17815136881E+02  0.41865740327E+02  0.51100000000E-03 0.  1.
        -11    1    3    3    0    0 -0.32007138022E+01  0.42942941482E-01  0.52019229725E+01  0.61078978227E+01  0.51100000000E-03 0. -1.
         12    1    3    3    0    0  0.14284117724E+00 -0.19904139642E+01  0.15959323963E+01  0.25552204532E+01  0.00000000000E+00 0. -1.
</event>
<event>
 7    1  0.5910662E-013  0.5052885E+02  0.7816164E-02  0.1300439E+00
        -11   -1    0    0    0    0  0.00000000000E+00  0.00000000000E+00  0.45593999997E+02  0.45594000000E+02  0.51100000000E-03 0. -1.
         11   -1    0    0    0    0 -0.00000000000E+00 -0.00000000000E+00 -0.45593999997E+02  0.45594000000E+02  0.51100000000E-03 0.  1.
    9900012    2    1    2    0    0 -0.23917762475E+02  0.14069758784E+02 -0.29717826952E+02  0.50528847122E+02  0.29999961311E+02 0.  0.
         12    1    1    2    0    0  0.23917762475E+02 -0.14069758784E+02  0.29717826952E+02  0.40659152878E+02  0.00000000000E+00 0. -1.
         11    1    3    3    0    0  0.41358439533E+01  0.62366681664E+01  0.15850172845E+01  0.76494127276E+01  0.51100000000E-03 0. -1.
        -11    1    3    3    0    0 -0.10578497994E+02  0.37981271038E+01 -0.10125057319E+02  0.15127695637E+02  0.51100000000E-03 0.  1.
         12    1    3    3    0    0 -0.17475108434E+02  0.40349635136E+01 -0.21177786917E+02  0.27751738757E+02  0.00000000000E+00 0. -1.
</event>
<event>
 7    1  0.5910662E-013  0.5052886E+02  0.7816164E-02  0.1300439E+00
        -11   -1    0    0    0    0  0.00000000000E+00  0.00000000000E+00  0.45593999997E+02  0.45594000000E+02  0.51100000000E-03 0. -1.
         11   -1    0    0    0    0 -0.00000000000E+00 -0.00000000000E+00 -0.45593999997E+02  0.45594000000E+02  0.51100000000E-03 0.  1.
    9900012    2    1    2    0    0 -0.63652494357E+01 -0.18441499739E+01 -0.40115436862E+02  0.50528861247E+02  0.30000004246E+02 0.  0.
         12    1    1    2    0    0  0.63652494357E+01  0.18441499739E+01  0.40115436862E+02  0.40659138753E+02  0.00000000000E+00 0. -1.
         11    1    3    3    0    0 -0.10878380497E+02  0.47979882544E+01 -0.18526443664E+02  0.22013381581E+02  0.51100000000E-03 0. -1.
        -11    1    3    3    0    0  0.48814732489E+01 -0.10836742537E+02 -0.21177371501E+02  0.24284662523E+02  0.51100000000E-03 0.  1.
        -12    1    3    3    0    0 -0.36834218715E+00  0.41946043091E+01 -0.41162169738E+00  0.42308171431E+01  0.00000000000E+00 0.  1.
</event>
<event>
 7    1  0.5910662E-013  0.5052887E+02  0.7816164E-02  0.1300439E+00
        -11   -1    0    0    0    0  0.00000000000E+00  0.00000000000E+00  0.45593999997E+02  0.45594000000E+02  0.51100000000E-03 0.  1.
         11   -1    0    0    0    0 -0.00000000000E+00 -0.00000000000E+00 -0.45593999997E+02  0.45594000000E+02  0.51100000000E-03 0. -1.
    9900012    2    1    2    0    0  0.22927843777E+02  0.93746524254E+01  0.32242751701E+02  0.50528866148E+02  0.30000019143E+02 0.  0.
         12    1    1    2    0    0 -0.22927843777E+02 -0.93746524254E+01 -0.32242751701E+02  0.40659133852E+02  0.00000000000E+00 0. -1.
         11    1    3    3    0    0  0.11054191773E+02  0.15116799283E+01 -0.13192169105E+01  0.11234797082E+02  0.51100000000E-03 0.  1.
        -11    1    3    3    0    0  0.11952481145E+02  0.33043261412E+00  0.26013268222E+02  0.28629724328E+02  0.51100000000E-03 0. -1.
        -12    1    3    3    0    0 -0.78829141283E-01  0.75325398830E+01  0.75487003893E+01  0.10664344738E+02  0.00000000000E+00 0.  1.
</event>
<event>
 7    1  0.5910662E-013  0.5052890E+02  0.7816164E-02  0.1300439E+00
        -11   -1    0    0    0    0  0.00000000000E+00  0.00000000000E+00  0.45593999997E+02  0.45594000000E+02  0.51100000000E-03 0. -1.
         11   -1    0    0    0    0 -0.00000000000E+00 -0.00000000000E+00 -0.45593999997E+02  0.45594000000E+02  0.51100000000E-03 0.  1.
    9900012    2    1    2    0    0 -0.18750340661E+02  0.30029956037E+02  0.19994728933E+02  0.50528896228E+02  0.30000110573E+02 0.  0.
         12    1    1    2    0    0  0.18750340661E+02 -0.30029956037E+02 -0.19994728933E+02  0.40659103772E+02  0.00000000000E+00 0. -1.
         11    1    3    3    0    0  0.53786297274E+01  0.75798500620E+01  0.15876083228E+01  0.94289068908E+01  0.51100000000E-03 0. -1.
        -11    1    3    3    0    0 -0.23817418646E+02  0.13272294580E+02  0.15972066223E+02  0.31599527435E+02  0.51100000000E-03 0.  1.
        -12    1    3    3    0    0 -0.31155174243E+00  0.91778113949E+01  0.24350543869E+01  0.95004619022E+01  0.00000000000E+00 0.  1.
</event>
<event>
 7    1  0.5910662E-013  0.5052886E+02  0.7816164E-02  0.1300439E+00
        -11   -1    0    0    0    0  0.00000000000E+00  0.00000000000E+00  0.45593999997E+02  0.45594000000E+02  0.51100000000E-03 0. -1.
         11   -1    0    0    0    0 -0.00000000000E+00 -0.00000000000E+00 -0.45593999997E+02  0.45594000000E+02  0.51100000000E-03 0.  1.
    9900012    2    1    2    0    0  0.63103218424E+01 -0.39091699671E+02  0.92295486212E+01  0.50528859421E+02  0.29999998696E+02 0.  0.
         12    1    1    2    0    0 -0.63103218424E+01  0.39091699671E+02 -0.92295486212E+01  0.40659140579E+02  0.00000000000E+00 0. -1.
         11    1    3    3    0    0  0.25686476420E+01  0.27821437482E+01  0.64217650472E+01  0.74550212023E+01  0.51100000000E-03 0. -1.
        -11    1    3    3    0    0  0.22856260145E+00 -0.17314389021E+02  0.53774532285E+01  0.18131665988E+02  0.51100000000E-03 0.  1.
         12    1    3    3    0    0  0.35131115990E+01 -0.24559454398E+02 -0.25696696544E+01  0.24942172230E+02  0.00000000000E+00 0. -1.
</event>
<event>
 7    1  0.5910662E-013  0.5052882E+02  0.7816164E-02  0.1300439E+00
        -11   -1    0    0    0    0  0.00000000000E+00  0.00000000000E+00  0.45593999997E+02  0.45594000000E+02  0.51100000000E-03 0. -1.
         11   -1    0    0    0    0 -0.00000000000E+00 -0.00000000000E+00 -0.45593999997E+02  0.45594000000E+02  0.51100000000E-03 0.  1.
    9900012    2    1    2    0    0 -0.37838661332E+02 -0.84778115608E+01 -0.12228306437E+02  0.50528818274E+02  0.29999873626E+02 0.  0.
         12    1    1    2    0    0  0.37838661332E+02  0.84778115608E+01  0.12228306437E+02  0.40659181726E+02  0.00000000000E+00 0. -1.
         11    1    3    3    0    0 -0.23207289799E+01 -0.53085495368E+01 -0.53892194911E+01  0.79126587294E+01  0.51100000000E-03 0. -1.
        -11    1    3    3    0    0 -0.17966775650E+02  0.95889724371E+01 -0.32877753232E+01  0.20629175614E+02  0.51100000000E-03 0.  1.
        -12    1    3    3    0    0 -0.17551156702E+02 -0.12758234461E+02 -0.35513116230E+01  0.21986983931E+02  0.00000000000E+00 0.  1.
</event>
<event>
 7    1  0.5910662E-013  0.5052887E+02  0.7816164E-02  0.1300439E+00
        -11   -1    0    0    0    0  0.00000000000E+00  0.00000000000E+00  0.45593999997E+02  0.45594000000E+02  0.51100000000E-03 0. -1.
         11   -1    0    0    0    0 -0.00000000000E+00 -0.00000000000E+00 -0.45593999997E+02  0.45594000000E+02  0.51100000000E-03 0.  1.
    9900012    2    1    2    0    0 -0.38673851705E+02  0.12073742458E+02  0.34238655876E+01  0.50528869190E+02  0.30000028390E+02 0.  0.
         12    1    1    2    0    0  0.38673851705E+02 -0.12073742458E+02 -0.34238655876E+01  0.40659130810E+02  0.00000000000E+00 0. -1.
         11    1    3    3    0    0 -0.16771485436E+02  0.14316996738E+02  0.11780067986E+02  0.25000582420E+02  0.51100000000E-03 0. -1.
        -11    1    3    3    0    0 -0.14157081916E+02 -0.38649331756E+01 -0.97594126724E+00  0.14707587785E+02  0.51100000000E-03 0.  1.
         12    1    3    3    0    0 -0.77452843525E+01  0.16216788956E+01 -0.73802611315E+01  0.10820698984E+02  0.00000000000E+00 0. -1.
</event>
<event>
 7    1  0.5910662E-013  0.5052886E+02  0.7816164E-02  0.1300439E+00
        -11   -1    0    0    0    0  0.00000000000E+00  0.00000000000E+00  0.45593999997E+02  0.45594000000E+02  0.51100000000E-03 0.  1.
         11   -1    0    0    0    0 -0.00000000000E+00 -0.00000000000E+00 -0.45593999997E+02  0.45594000000E+02  0.51100000000E-03 0. -1.
    9900012    2    1    2    0    0  0.21770540111E+02  0.34333025683E+02  0.67245422041E+00  0.50528864938E+02  0.30000015467E+02 0.  0.
         12    1    1    2    0    0 -0.21770540111E+02 -0.34333025683E+02 -0.67245422041E+00  0.40659135062E+02  0.00000000000E+00 0. -1.
         11    1    3    3    0    0  0.91646431808E+01  0.10903248460E+02  0.91037200588E+01  0.16904118752E+02  0.51100000000E-03 0. -1.
        -11    1    3    3    0    0  0.91866073771E+01  0.14185857207E+02 -0.14312994262E+02  0.22147101499E+02  0.51100000000E-03 0.  1.
        -12    1    3    3    0    0  0.34192895527E+01  0.92439200163E+01  0.58817284241E+01  0.11477644687E+02  0.00000000000E+00 0.  1.
</event>
<event>
 7    1  0.5910662E-013  0.5052886E+02  0.7816164E-02  0.1300439E+00
        -11   -1    0    0    0    0  0.00000000000E+00  0.00000000000E+00  0.45593999997E+02  0.45594000000E+02  0.51100000000E-03 0.  1.
         11   -1    0    0    0    0 -0.00000000000E+00 -0.00000000000E+00 -0.45593999997E+02  0.45594000000E+02  0.51100000000E-03 0. -1.
    9900012    2    1    2    0    0 -0.16026689759E+02 -0.93832502932E+01  0.36169957030E+02  0.50528856351E+02  0.29999989366E+02 0.  0.
         12    1    1    2    0    0  0.16026689759E+02  0.93832502932E+01 -0.36169957030E+02  0.40659143649E+02  0.00000000000E+00 0. -1.
         11    1    3    3    0    0 -0.13738919801E+02 -0.74286766703E+01  0.14669084978E+02  0.21427207208E+02  0.51100000000E-03 0. -1.
        -11    1    3    3    0    0 -0.16262953486E+01  0.59582302756E+01 -0.55564468300E-02  0.61761942743E+01  0.51100000000E-03 0.  1.
        -12    1    3    3    0    0 -0.66147460914E+00 -0.79128038985E+01  0.21506428499E+02  0.22925454870E+02  0.00000000000E+00 0.  1.
</event>
<event>
 7    1  0.5910662E-013  0.5052885E+02  0.7816164E-02  0.1300439E+00
        -11   -1    0    0    0    0  0.00000000000E+00  0.00000000000E+00  0.45593999997E+02  0.45594000000E+02  0.51100000000E-03 0.  1.
         11   -1    0    0    0    0 -0.00000000000E+00 -0.00000000000E+00 -0.45593999997E+02  0.45594000000E+02  0.51100000000E-03 0. -1.
    9900012    2    1    2    0    0 -0.33321589834E+00  0.40458608105E+02  0.40195469633E+01  0.50528846536E+02  0.29999959530E+02 0.  0.
         12    1    1    2    0    0  0.33321589834E+00 -0.40458608105E+02 -0.40195469633E+01  0.40659153464E+02  0.00000000000E+00 0. -1.
         11    1    3    3    0    0 -0.14749067708E+01 -0.25504049978E+01 -0.41188341948E+01  0.50640607244E+01  0.51100000000E-03 0. -1.
        -11    1    3    3    0    0  0.52705418269E+01  0.24266012237E+02  0.58252133055E+00  0.24838625010E+02  0.51100000000E-03 0.  1.
         12    1    3    3    0    0 -0.41288509545E+01  0.18743000866E+02  0.75558598275E+01  0.20626160801E+02  0.00000000000E+00 0. -1.
</event>
<event>
 7    1  0.5910662E-013  0.5052886E+02  0.7816164E-02  0.1300439E+00
        -11   -1    0    0    0    0  0.00000000000E+00  0.00000000000E+00  0.45593999997E+02  0.45594000000E+02  0.51100000000E-03 0.  1.
         11   -1    0    0    0    0 -0.00000000000E+00 -0.00000000000E+00 -0.45593999997E+02  0.45594000000E+02  0.51100000000E-03 0. -1.
    9900012    2    1    2    0    0 -0.64258716002E+01  0.57182816453E+01  0.39738837483E+02  0.50528858650E+02  0.29999996352E+02 0.  0.
         12    1    1    2    0    0  0.64258716002E+01 -0.57182816453E+01 -0.39738837483E+02  0.40659141350E+02  0.00000000000E+00 0. -1.
         11    1    3    3    0    0 -0.21131189681E+01 -0.73850313364E+01 -0.24367620529E-01  0.76814421599E+01  0.51100000000E-03 0. -1.
        -11    1    3    3    0    0 -0.39518036328E+00  0.52587171147E+01  0.61120389423E+01  0.80726261839E+01  0.51100000000E-03 0.  1.
         12    1    3    3    0    0 -0.39175722688E+01  0.78445958670E+01  0.33651166162E+02  0.34774790306E+02  0.00000000000E+00 0. -1.
</event>
<event>
 7    1  0.5910662E-013  0.5052886E+02  0.7816164E-02  0.1300439E+00
        -11   -1    0    0    0    0  0.00000000000E+00  0.00000000000E+00  0.45593999997E+02  0.45594000000E+02  0.51100000000E-03 0.  1.
         11   -1    0    0    0    0 -0.00000000000E+00 -0.00000000000E+00 -0.45593999997E+02  0.45594000000E+02  0.51100000000E-03 0. -1.
    9900012    2    1    2    0    0  0.65806354739E+01 -0.27987883541E+02  0.28749600521E+02  0.50528856890E+02  0.29999991003E+02 0.  0.
         12    1    1    2    0    0 -0.65806354739E+01  0.27987883541E+02 -0.28749600521E+02  0.40659143110E+02  0.00000000000E+00 0. -1.
         11    1    3    3    0    0 -0.21905932785E+01  0.22548131257E+01 -0.54789158007E+00  0.31910917549E+01  0.51100000000E-03 0. -1.
        -11    1    3    3    0    0  0.19092333196E+01 -0.17338832840E+02  0.27564721643E+02  0.32620456399E+02  0.51100000000E-03 0.  1.
        -12    1    3    3    0    0  0.68619954329E+01 -0.12903863827E+02  0.17327704572E+01  0.14717308736E+02  0.00000000000E+00 0.  1.
</event>
<event>
 7    1  0.5910662E-013  0.5052886E+02  0.7816164E-02  0.1300439E+00
        -11   -1    0    0    0    0  0.00000000000E+00  0.00000000000E+00  0.45593999997E+02  0.45594000000E+02  0.51100000000E-03 0. -1.
         11   -1    0    0    0    0 -0.00000000000E+00 -0.00000000000E+00 -0.45593999997E+02  0.45594000000E+02  0.51100000000E-03 0.  1.
    9900012    2    1    2    0    0  0.23212485804E+02  0.31943316390E+02  0.96938543834E+01  0.50528858691E+02  0.29999996477E+02 0.  0.
         12    1    1    2    0    0 -0.23212485804E+02 -0.31943316390E+02 -0.96938543834E+01  0.40659141309E+02  0.00000000000E+00 0. -1.
         11    1    3    3    0    0 -0.66237684133E+01  0.14566182637E+01  0.24662237940E+01  0.72165299710E+01  0.51100000000E-03 0. -1.
        -11    1    3    3    0    0  0.10266631445E+02  0.96201527408E+01  0.31232950867E+01  0.14412010007E+02  0.51100000000E-03 0.  1.
         12    1    3    3    0    0  0.19569622773E+02  0.20866545385E+02  0.41043355027E+01  0.28900318713E+02  0.00000000000E+00 0. -1.
</event>
<event>
 7    1  0.5910662E-013  0.5052886E+02  0.7816164E-02  0.1300439E+00
        -11   -1    0    0    0    0  0.00000000000E+00  0.00000000000E+00  0.45593999997E+02  0.45594000000E+02  0.51100000000E-03 0.  1.
         11   -1    0    0    0    0 -0.00000000000E+00 -0.00000000000E+00 -0.45593999997E+02  0.45594000000E+02  0.51100000000E-03 0. -1.
    9900012    2    1    2    0    0  0.38774800936E+00  0.16438815680E+02  0.37185760083E+02  0.50528858809E+02  0.29999996835E+02 0.  0.
         12    1    1    2    0    0 -0.38774800936E+00 -0.16438815680E+02 -0.37185760083E+02  0.40659141191E+02  0.00000000000E+00 0. -1.
         11    1    3    3    0    0 -0.49548192876E+01  0.41358219068E+01  0.19663230151E+01  0.67469758765E+01  0.51100000000E-03 0. -1.
        -11    1    3    3    0    0  0.69136006651E+01 -0.19265357527E+01  0.25468831995E+02  0.26460741063E+02  0.51100000000E-03 0.  1.
        -12    1    3    3    0    0 -0.15710333682E+01  0.14229529526E+02  0.97506050730E+01  0.17321141869E+02  0.00000000000E+00 0.  1.
</event>
<event>
 7    1  0.5910662E-013  0.5052886E+02  0.7816164E-02  0.1300439E+00
        -11   -1    0    0    0    0  0.00000000000E+00  0.00000000000E+00  0.45593999997E+02  0.45594000000E+02  0.51100000000E-03 0.  1.
         11   -1    0    0    0    0 -0.00000000000E+00 -0.00000000000E+00 -0.45593999997E+02  0.45594000000E+02  0.51100000000E-03 0. -1.
    9900012    2    1    2    0    0 -0.38843812205E+02 -0.10592815463E+02  0.56671080777E+01  0.50528860806E+02  0.30000002906E+02 0.  0.
         12    1    1    2    0    0  0.38843812205E+02  0.10592815463E+02 -0.56671080777E+01  0.40659139194E+02  0.00000000000E+00 0. -1.
         11    1    3    3    0    0 -0.17536620170E+02  0.70947181073E+01  0.89098703715E+01  0.20910616019E+02  0.51100000000E-03 0. -1.
        -11    1    3    3    0    0 -0.18878294460E+02 -0.11288141816E+02 -0.49884542289E+01  0.22554308308E+02  0.51100000000E-03 0.  1.
         12    1    3    3    0    0 -0.24288975752E+01 -0.63993917540E+01  0.17456919351E+01  0.70639364794E+01  0.00000000000E+00 0. -1.
</event>
<event>
 7    1  0.5910662E-013  0.5052886E+02  0.7816164E-02  0.1300439E+00
        -11   -1    0    0    0    0  0.00000000000E+00  0.00000000000E+00  0.45593999997E+02  0.45594000000E+02  0.51100000000E-03 0. -1.
         11   -1    0    0    0    0 -0.00000000000E+00 -0.00000000000E+00 -0.45593999997E+02  0.45594000000E+02  0.51100000000E-03 0.  1.
    9900012    2    1    2    0    0 -0.31900410486E+02  0.24345904642E+02  0.65426371362E+01  0.50528863724E+02  0.30000011777E+02 0.  0.
         12    1    1    2    0    0  0.31900410486E+02 -0.24345904642E+02 -0.65426371362E+01  0.40659136276E+02  0.00000000000E+00 0. -1.
         11    1    3    3    0    0 -0.49121901047E+01  0.16003650454E+01  0.95754388314E+01  0.10880248572E+02  0.51100000000E-03 0. -1.
        -11    1    3    3    0    0 -0.15848482187E+02  0.75561805850E+01 -0.92081742385E+01  0.19825759146E+02  0.51100000000E-03 0.  1.
         12    1    3    3    0    0 -0.11139738194E+02  0.15189359011E+02  0.61753725433E+01  0.19822856007E+02  0.00000000000E+00 0. -1.
</event>
<event>
 7    1  0.5910662E-013  0.5052885E+02  0.7816164E-02  0.1300439E+00
        -11   -1    0    0    0    0  0.00000000000E+00  0.00000000000E+00  0.45593999997E+02  0.45594000000E+02  0.51100000000E-03 0. -1.
         11   -1    0    0    0    0 -0.00000000000E+00 -0.00000000000E+00 -0.45593999997E+02  0.45594000000E+02  0.51100000000E-03 0.  1.
    9900012    2    1    2    0    0  0.32684561077E+02  0.12679410663E+02 -0.20594141463E+02  0.50528847891E+02  0.29999963651E+02 0.  0.
         12    1    1    2    0    0 -0.32684561077E+02 -0.12679410663E+02  0.20594141463E+02  0.40659152109E+02  0.00000000000E+00 0. -1.
         11    1    3    3    0    0  0.11473721110E+02  0.13522045162E+00 -0.97724343922E+00  0.11516056864E+02  0.51100000000E-03 0. -1.
        -11    1    3    3    0    0  0.29776171618E+01  0.14329209198E+02 -0.12871044714E+02  0.19489900782E+02  0.51100000000E-03 0.  1.
        -12    1    3    3    0    0  0.18233222805E+02 -0.17850189875E+01 -0.67458533104E+01  0.19522890246E+02  0.00000000000E+00 0.  1.
</event>
<event>
 7    1  0.5910662E-013  0.5052886E+02  0.7816164E-02  0.1300439E+00
        -11   -1    0    0    0    0  0.00000000000E+00  0.00000000000E+00  0.45593999997E+02  0.45594000000E+02  0.51100000000E-03 0. -1.
         11   -1    0    0    0    0 -0.00000000000E+00 -0.00000000000E+00 -0.45593999997E+02  0.45594000000E+02  0.51100000000E-03 0.  1.
    9900012    2    1    2    0    0 -0.22376297178E+02  0.76647613064E+01 -0.33071417553E+02  0.50528857114E+02  0.29999991684E+02 0.  0.
         12    1    1    2    0    0  0.22376297178E+02 -0.76647613064E+01  0.33071417553E+02  0.40659142886E+02  0.00000000000E+00 0. -1.
         11    1    3    3    0    0 -0.22883442878E+02  0.61696633816E+01 -0.28158956694E+02  0.36805482561E+02  0.51100000000E-03 0.  1.
        -11    1    3    3    0    0 -0.99181738204E+00  0.58167023733E+01  0.12669953760E+01  0.60351475345E+01  0.51100000000E-03 0. -1.
         12    1    3    3    0    0  0.14989630821E+01 -0.43216044485E+01 -0.61794562344E+01  0.76882270182E+01  0.00000000000E+00 0. -1.
</event>
<event>
 7    1  0.5910662E-013  0.5052884E+02  0.7816164E-02  0.1300439E+00
        -11   -1    0    0    0    0  0.00000000000E+00  0.00000000000E+00  0.45593999997E+02  0.45594000000E+02  0.51100000000E-03 0. -1.
         11   -1    0    0    0    0 -0.00000000000E+00 -0.00000000000E+00 -0.45593999997E+02  0.45594000000E+02  0.51100000000E-03 0.  1.
    9900012    2    1    2    0    0  0.39663852612E+02  0.44418963349E+01  0.77598772295E+01  0.50528839388E+02  0.29999937804E+02 0.  0.
         12    1    1    2    0    0 -0.39663852612E+02 -0.44418963349E+01 -0.77598772295E+01  0.40659160612E+02  0.00000000000E+00 0. -1.
         11    1    3    3    0    0  0.12594078068E+02 -0.12541324743E+01  0.10862186343E+02  0.16678451459E+02  0.51100000000E-03 0. -1.
        -11    1    3    3    0    0  0.29506789961E+02  0.65181673298E+01 -0.54447382341E+00  0.30223064225E+02  0.51100000000E-03 0.  1.
        -12    1    3    3    0    0 -0.24370154166E+01 -0.82213852053E+00 -0.25578352906E+01  0.36273237050E+01  0.00000000000E+00 0.  1.
</event>
<event>
 7    1  0.5910662E-013  0.5052887E+02  0.7816164E-02  0.1300439E+00
        -11   -1    0    0    0    0  0.00000000000E+00  0.00000000000E+00  0.45593999997E+02  0.45594000000E+02  0.51100000000E-03 0.  1.
         11   -1    0    0    0    0 -0.00000000000E+00 -0.00000000000E+00 -0.45593999997E+02  0.45594000000E+02  0.51100000000E-03 0. -1.
    9900012    2    1    2    0    0 -0.13833150494E+02 -0.27758528943E+02  0.26292075609E+02  0.50528865461E+02  0.30000017055E+02 0.  0.
         12    1    1    2    0    0  0.13833150494E+02  0.27758528943E+02 -0.26292075609E+02  0.40659134539E+02  0.00000000000E+00 0. -1.
         11    1    3    3    0    0 -0.89710259504E+00 -0.48178167108E+01 -0.20832016454E+01  0.53250239700E+01  0.51100000000E-03 0. -1.
        -11    1    3    3    0    0 -0.13049051664E+02 -0.88235564779E+00  0.11748600050E+02  0.17580839122E+02  0.51100000000E-03 0.  1.
        -12    1    3    3    0    0  0.11300376474E+00 -0.22058356584E+02  0.16626677204E+02  0.27623002369E+02  0.00000000000E+00 0.  1.
</event>
<event>
 7    1  0.5910662E-013  0.5052885E+02  0.7816164E-02  0.1300439E+00
        -11   -1    0    0    0    0  0.00000000000E+00  0.00000000000E+00  0.45593999997E+02  0.45594000000E+02  0.51100000000E-03 0.  1.
         11   -1    0    0    0    0 -0.00000000000E+00 -0.00000000000E+00 -0.45593999997E+02  0.45594000000E+02  0.51100000000E-03 0. -1.
    9900012    2    1    2    0    0 -0.18504315299E+02 -0.26747706744E+02  0.24399119012E+02  0.50528849624E+02  0.29999968918E+02 0.  0.
         12    1    1    2    0    0  0.18504315299E+02  0.26747706744E+02 -0.24399119012E+02  0.40659150376E+02  0.00000000000E+00 0. -1.
         11    1    3    3    0    0  0.27131458121E+01  0.26166687430E+01  0.39536016656E+00  0.37900429326E+01  0.51100000000E-03 0. -1.
        -11    1    3    3    0    0 -0.11115694453E+02 -0.11802164923E+02  0.20567633771E+02  0.26189259616E+02  0.51100000000E-03 0.  1.
         12    1    3    3    0    0 -0.10101766658E+02 -0.17562210564E+02  0.34361250744E+01  0.20549547076E+02  0.00000000000E+00 0. -1.
</event>
<event>
 7    1  0.5910662E-013  0.5052883E+02  0.7816164E-02  0.1300439E+00
        -11   -1    0    0    0    0  0.00000000000E+00  0.00000000000E+00  0.45593999997E+02  0.45594000000E+02  0.51100000000E-03 0. -1.
         11   -1    0    0    0    0 -0.00000000000E+00 -0.00000000000E+00 -0.45593999997E+02  0.45594000000E+02  0.51100000000E-03 0.  1.
    9900012    2    1    2    0    0 -0.23800802571E+02  0.32939038920E+02 -0.13073765525E+01  0.50528834718E+02  0.29999923608E+02 0.  0.
         12    1    1    2    0    0  0.23800802571E+02 -0.32939038920E+02  0.13073765525E+01  0.40659165282E+02  0.00000000000E+00 0. -1.
         11    1    3    3    0    0  0.27593515549E+01  0.14225968097E+02  0.51397644327E+01  0.15375609516E+02  0.51100000000E-03 0. -1.
        -11    1    3    3    0    0 -0.14696964544E+02  0.16305717552E+02 -0.12723779829E+01  0.21988545602E+02  0.51100000000E-03 0.  1.
         12    1    3    3    0    0 -0.11863189582E+02  0.24073532705E+01 -0.51747630023E+01  0.13164679599E+02  0.00000000000E+00 0. -1.
</event>
<event>
 7    1  0.5910662E-013  0.5052884E+02  0.7816164E-02  0.1300439E+00
        -11   -1    0    0    0    0  0.00000000000E+00  0.00000000000E+00  0.45593999997E+02  0.45594000000E+02  0.51100000000E-03 0.  1.
         11   -1    0    0    0    0 -0.00000000000E+00 -0.00000000000E+00 -0.45593999997E+02  0.45594000000E+02  0.51100000000E-03 0. -1.
    9900012    2    1    2    0    0  0.90282973211E+01 -0.87277557801E+01  0.38671479454E+02  0.50528841172E+02  0.29999943226E+02 0.  0.
         12    1    1    2    0    0 -0.90282973211E+01  0.87277557801E+01 -0.38671479454E+02  0.40659158828E+02  0.00000000000E+00 0. -1.
         11    1    3    3    0    0  0.29977786511E+01 -0.32506124610E+01  0.22097668969E+01  0.49433013475E+01  0.51100000000E-03 0. -1.
        -11    1    3    3    0    0 -0.50883457388E+01  0.78177158577E+00  0.31463793637E+02  0.31882169617E+02  0.51100000000E-03 0.  1.
        -12    1    3    3    0    0  0.11118864409E+02 -0.62589149049E+01  0.49979189196E+01  0.13703370208E+02  0.00000000000E+00 0.  1.
</event>
<event>
 7    1  0.5910662E-013  0.5052886E+02  0.7816164E-02  0.1300439E+00
        -11   -1    0    0    0    0  0.00000000000E+00  0.00000000000E+00  0.45593999997E+02  0.45594000000E+02  0.51100000000E-03 0. -1.
         11   -1    0    0    0    0 -0.00000000000E+00 -0.00000000000E+00 -0.45593999997E+02  0.45594000000E+02  0.51100000000E-03 0.  1.
    9900012    2    1    2    0    0 -0.37377973050E+02 -0.30533681277E+01 -0.15707628119E+02  0.50528861945E+02  0.30000006367E+02 0.  0.
         12    1    1    2    0    0  0.37377973050E+02  0.30533681277E+01  0.15707628119E+02  0.40659138055E+02  0.00000000000E+00 0. -1.
         11    1    3    3    0    0  0.35682820596E+01 -0.41098024637E+01 -0.61613178671E+01  0.82210067065E+01  0.51100000000E-03 0. -1.
        -11    1    3    3    0    0 -0.32332716296E+02 -0.90511286992E+00 -0.67541644829E+01  0.33043040273E+02  0.51100000000E-03 0.  1.
         12    1    3    3    0    0 -0.86135388139E+01  0.19615472059E+01 -0.27921457693E+01  0.92648149650E+01  0.00000000000E+00 0. -1.
</event>
<event>
 7    1  0.5910662E-013  0.5052886E+02  0.7816164E-02  0.1300439E+00
        -11   -1    0    0    0    0  0.00000000000E+00  0.00000000000E+00  0.45593999997E+02  0.45594000000E+02  0.51100000000E-03 0. -1.
         11   -1    0    0    0    0 -0.00000000000E+00 -0.00000000000E+00 -0.45593999997E+02  0.45594000000E+02  0.51100000000E-03 0.  1.
    9900012    2    1    2    0    0  0.26830836049E+02  0.22946090503E+02 -0.20168014080E+02  0.50528860506E+02  0.30000001993E+02 0.  0.
         12    1    1    2    0    0 -0.26830836049E+02 -0.22946090503E+02  0.20168014080E+02  0.40659139494E+02  0.00000000000E+00 0. -1.
         11    1    3    3    0    0  0.28299951015E+02  0.86475785048E+01 -0.80549177571E+01  0.30668380163E+02  0.51100000000E-03 0.  1.
        -11    1    3    3    0    0  0.80876976719E+00  0.13030734891E+02 -0.93284660627E+01  0.16046010086E+02  0.51100000000E-03 0. -1.
        -12    1    3    3    0    0 -0.22778847332E+01  0.12677771072E+01 -0.27846302606E+01  0.38144702567E+01  0.00000000000E+00 0.  1.
</event>
<event>
 7    1  0.5910662E-013  0.5052886E+02  0.7816164E-02  0.1300439E+00
        -11   -1    0    0    0    0  0.00000000000E+00  0.00000000000E+00  0.45593999997E+02  0.45594000000E+02  0.51100000000E-03 0. -1.
         11   -1    0    0    0    0 -0.00000000000E+00 -0.00000000000E+00 -0.45593999997E+02  0.45594000000E+02  0.51100000000E-03 0.  1.
    9900012    2    1    2    0    0  0.73487101231E+00 -0.37945612033E+02  0.14586174570E+02  0.50528855930E+02  0.29999988084E+02 0.  0.
         12    1    1    2    0    0 -0.73487101231E+00  0.37945612033E+02 -0.14586174570E+02  0.40659144070E+02  0.00000000000E+00 0. -1.
         11    1    3    3    0    0 -0.87735378795E+01 -0.11841714385E+02  0.71653003109E+01  0.16387272357E+02  0.51100000000E-03 0. -1.
        -11    1    3    3    0    0  0.12317961450E+02 -0.91989579146E+01  0.72653287943E+01  0.17004058449E+02  0.51100000000E-03 0.  1.
        -12    1    3    3    0    0 -0.28095525581E+01 -0.16904939733E+02  0.15554546510E+00  0.17137525123E+02  0.00000000000E+00 0.  1.
</event>
<event>
 7    1  0.5910662E-013  0.5052886E+02  0.7816164E-02  0.1300439E+00
        -11   -1    0    0    0    0  0.00000000000E+00  0.00000000000E+00  0.45593999997E+02  0.45594000000E+02  0.51100000000E-03 0. -1.
         11   -1    0    0    0    0 -0.00000000000E+00 -0.00000000000E+00 -0.45593999997E+02  0.45594000000E+02  0.51100000000E-03 0.  1.
    9900012    2    1    2    0    0 -0.28668940098E+02  0.26423956835E+02  0.11533960479E+02  0.50528857541E+02  0.29999992981E+02 0.  0.
         12    1    1    2    0    0  0.28668940098E+02 -0.26423956835E+02 -0.11533960479E+02  0.40659142459E+02  0.00000000000E+00 0. -1.
         11    1    3    3    0    0 -0.50153044006E+01  0.75637582498E+01  0.94251057934E+01  0.13084201793E+02  0.51100000000E-03 0. -1.
        -11    1    3    3    0    0 -0.14329313980E+02  0.16734244642E+02 -0.80842963153E+01  0.23467424870E+02  0.51100000000E-03 0.  1.
        -12    1    3    3    0    0 -0.93243217178E+01  0.21259539434E+01  0.10193151001E+02  0.13977230877E+02  0.00000000000E+00 0.  1.
</event>
<event>
 7    1  0.5910662E-013  0.5052886E+02  0.7816164E-02  0.1300439E+00
        -11   -1    0    0    0    0  0.00000000000E+00  0.00000000000E+00  0.45593999997E+02  0.45594000000E+02  0.51100000000E-03 0.  1.
         11   -1    0    0    0    0 -0.00000000000E+00 -0.00000000000E+00 -0.45593999997E+02  0.45594000000E+02  0.51100000000E-03 0. -1.
    9900012    2    1    2    0    0 -0.32487397381E+02  0.74226085583E+01  0.23294620189E+02  0.50528862820E+02  0.30000009029E+02 0.  0.
         12    1    1    2    0    0  0.32487397381E+02 -0.74226085583E+01 -0.23294620189E+02  0.40659137180E+02  0.00000000000E+00 0. -1.
         11    1    3    3    0    0 -0.14428076534E+02 -0.10589209966E+02  0.11309844583E+02  0.21171049689E+02  0.51100000000E-03 0. -1.
        -11    1    3    3    0    0 -0.19558310792E+01  0.43140029692E+01  0.54694437789E+01  0.72353792119E+01  0.51100000000E-03 0.  1.
         12    1    3    3    0    0 -0.16103489768E+02  0.13697815556E+02  0.65153318274E+01  0.22122433919E+02  0.00000000000E+00 0. -1.
</event>
<event>
 7    1  0.5910662E-013  0.5052885E+02  0.7816164E-02  0.1300439E+00
        -11   -1    0    0    0    0  0.00000000000E+00  0.00000000000E+00  0.45593999997E+02  0.45594000000E+02  0.51100000000E-03 0.  1.
         11   -1    0    0    0    0 -0.00000000000E+00 -0.00000000000E+00 -0.45593999997E+02  0.45594000000E+02  0.51100000000E-03 0. -1.
    9900012    2    1    2    0    0  0.13373997849E+02  0.28350960252E+02  0.25894505412E+02  0.50528853720E+02  0.29999981368E+02 0.  0.
         12    1    1    2    0    0 -0.13373997849E+02 -0.28350960252E+02 -0.25894505412E+02  0.40659146280E+02  0.00000000000E+00 0. -1.
         11    1    3    3    0    0  0.44441517885E+01  0.79375532728E+01 -0.21337000257E+01  0.93438703511E+01  0.51100000000E-03 0. -1.
        -11    1    3    3    0    0  0.49055019539E+01  0.15749463387E+02  0.30397463283E+02  0.34584900183E+02  0.51100000000E-03 0.  1.
        -12    1    3    3    0    0  0.40243441066E+01  0.46639435925E+01 -0.23692578453E+01  0.66000831859E+01  0.00000000000E+00 0.  1.
</event>
<event>
 7    1  0.5910662E-013  0.5052889E+02  0.7816164E-02  0.1300439E+00
        -11   -1    0    0    0    0  0.00000000000E+00  0.00000000000E+00  0.45593999997E+02  0.45594000000E+02  0.51100000000E-03 0. -1.
         11   -1    0    0    0    0 -0.00000000000E+00 -0.00000000000E+00 -0.45593999997E+02  0.45594000000E+02  0.51100000000E-03 0.  1.
    9900012    2    1    2    0    0  0.37818645097E+02 -0.12007467885E+02 -0.88732055136E+01  0.50528893048E+02  0.30000100910E+02 0.  0.
         12    1    1    2    0    0 -0.37818645097E+02  0.12007467885E+02  0.88732055136E+01  0.40659106952E+02  0.00000000000E+00 0. -1.
         11    1    3    3    0    0 -0.12077519015E+01  0.26870891831E+00  0.75340848817E+00  0.14486178756E+01  0.51100000000E-03 0. -1.
        -11    1    3    3    0    0  0.31209409020E+02 -0.20056056319E+02 -0.73778877119E+01  0.37824672290E+02  0.51100000000E-03 0.  1.
        -12    1    3    3    0    0  0.78169879788E+01  0.77798795157E+01 -0.22487262898E+01  0.11255602883E+02  0.00000000000E+00 0.  1.
</event>
<event>
 7    1  0.5910662E-013  0.5052887E+02  0.7816164E-02  0.1300439E+00
        -11   -1    0    0    0    0  0.00000000000E+00  0.00000000000E+00  0.45593999997E+02  0.45594000000E+02  0.51100000000E-03 0.  1.
         11   -1    0    0    0    0 -0.00000000000E+00 -0.00000000000E+00 -0.45593999997E+02  0.45594000000E+02  0.51100000000E-03 0. -1.
    9900012    2    1    2    0    0 -0.67909705738E+01 -0.11087992495E+02  0.38524071090E+02  0.50528869264E+02  0.30000028614E+02 0.  0.
         12    1    1    2    0    0  0.67909705738E+01  0.11087992495E+02 -0.38524071090E+02  0.40659130736E+02  0.00000000000E+00 0. -1.
         11    1    3    3    0    0  0.48096997990E+01 -0.34872117658E+01  0.17127895104E+02  0.18128945060E+02  0.51100000000E-03 0. -1.
        -11    1    3    3    0    0 -0.16506241508E+02 -0.70512858551E+01  0.20726711636E+02  0.27418483117E+02  0.51100000000E-03 0.  1.
        -12    1    3    3    0    0  0.49055711350E+01 -0.54949487431E+00  0.66946434958E+00  0.49814410860E+01  0.00000000000E+00 0.  1.
</event>
<event>
 7    1  0.5910662E-013  0.5052888E+02  0.7816164E-02  0.1300439E+00
        -11   -1    0    0    0    0  0.00000000000E+00  0.00000000000E+00  0.45593999997E+02  0.45594000000E+02  0.51100000000E-03 0.  1.
         11   -1    0    0    0    0 -0.00000000000E+00 -0.00000000000E+00 -0.45593999997E+02  0.45594000000E+02  0.51100000000E-03 0. -1.
    9900012    2    1    2    0    0 -0.30761087294E+01 -0.31372759443E+02  0.25679796202E+02  0.50528875403E+02  0.30000047276E+02 0.  0.
         12    1    1    2    0    0  0.30761087294E+01  0.31372759443E+02 -0.25679796202E+02  0.40659124597E+02  0.00000000000E+00 0. -1.
         11    1    3    3    0    0 -0.78546116532E+01 -0.22786174415E+01  0.33432215195E+00  0.81852790563E+01  0.51100000000E-03 0. -1.
        -11    1    3    3    0    0 -0.16828269737E+01 -0.27084501223E+02  0.20814123913E+02  0.34199851866E+02  0.51100000000E-03 0.  1.
        -12    1    3    3    0    0  0.64613298976E+01 -0.20096407779E+01  0.45313501370E+01  0.81437444806E+01  0.00000000000E+00 0.  1.
</event>
<event>
 7    1  0.5910662E-013  0.5052888E+02  0.7816164E-02  0.1300439E+00
        -11   -1    0    0    0    0  0.00000000000E+00  0.00000000000E+00  0.45593999997E+02  0.45594000000E+02  0.51100000000E-03 0.  1.
         11   -1    0    0    0    0 -0.00000000000E+00 -0.00000000000E+00 -0.45593999997E+02  0.45594000000E+02  0.51100000000E-03 0. -1.
    9900012    2    1    2    0    0  0.11476384539E+02  0.67641649059E+01  0.38414878554E+02  0.50528877736E+02  0.30000054366E+02 0.  0.
         12    1    1    2    0    0 -0.11476384539E+02 -0.67641649059E+01 -0.38414878554E+02  0.40659122264E+02  0.00000000000E+00 0. -1.
         11    1    3    3    0    0  0.10743855700E+02 -0.74741776534E+00  0.49329394055E+01  0.11845799258E+02  0.51100000000E-03 0.  1.
        -11    1    3    3    0    0  0.29729789891E+00  0.62540036736E+01  0.35619246902E+02  0.36165338352E+02  0.51100000000E-03 0. -1.
         12    1    3    3    0    0  0.43523094050E+00  0.12575789976E+01 -0.21373077540E+01  0.25177401260E+01  0.00000000000E+00 0. -1.
</event>
<event>
 7    1  0.5910662E-013  0.5052886E+02  0.7816164E-02  0.1300439E+00
        -11   -1    0    0    0    0  0.00000000000E+00  0.00000000000E+00  0.45593999997E+02  0.45594000000E+02  0.51100000000E-03 0. -1.
         11   -1    0    0    0    0 -0.00000000000E+00 -0.00000000000E+00 -0.45593999997E+02  0.45594000000E+02  0.51100000000E-03 0.  1.
    9900012    2    1    2    0    0  0.22341091251E+02 -0.32462610246E+02 -0.10011014766E+02  0.50528857868E+02  0.29999993975E+02 0.  0.
         12    1    1    2    0    0 -0.22341091251E+02  0.32462610246E+02  0.10011014766E+02  0.40659142132E+02  0.00000000000E+00 0. -1.
         11    1    3    3    0    0  0.22834502134E+01  0.40879232811E+01 -0.35887746076E+01  0.58995393951E+01  0.51100000000E-03 0. -1.
        -11    1    3    3    0    0  0.14499243752E+02 -0.11823806267E+02 -0.42996998151E+01  0.19196819601E+02  0.51100000000E-03 0.  1.
         12    1    3    3    0    0  0.55583972859E+01 -0.24726727260E+02 -0.21225403435E+01  0.25432498872E+02  0.00000000000E+00 0. -1.
</event>
<event>
 7    1  0.5910662E-013  0.5052887E+02  0.7816164E-02  0.1300439E+00
        -11   -1    0    0    0    0  0.00000000000E+00  0.00000000000E+00  0.45593999997E+02  0.45594000000E+02  0.51100000000E-03 0. -1.
         11   -1    0    0    0    0 -0.00000000000E+00 -0.00000000000E+00 -0.45593999997E+02  0.45594000000E+02  0.51100000000E-03 0.  1.
    9900012    2    1    2    0    0  0.36091594131E+02 -0.18541438481E+02  0.26031551461E+01  0.50528874031E+02  0.30000043105E+02 0.  0.
         12    1    1    2    0    0 -0.36091594131E+02  0.18541438481E+02 -0.26031551461E+01  0.40659125969E+02  0.00000000000E+00 0. -1.
         11    1    3    3    0    0 -0.24612625652E+01 -0.47718747976E+01 -0.62230782454E+01  0.82192034655E+01  0.51100000000E-03 0. -1.
        -11    1    3    3    0    0  0.43994116589E+01 -0.22240437010E+01 -0.80094221045E+00  0.49942669146E+01  0.51100000000E-03 0.  1.
         12    1    3    3    0    0  0.34153445037E+02 -0.11545519982E+02  0.96271756019E+01  0.37315403651E+02  0.00000000000E+00 0. -1.
</event>
<event>
 7    1  0.5910662E-013  0.5052887E+02  0.7816164E-02  0.1300439E+00
        -11   -1    0    0    0    0  0.00000000000E+00  0.00000000000E+00  0.45593999997E+02  0.45594000000E+02  0.51100000000E-03 0. -1.
         11   -1    0    0    0    0 -0.00000000000E+00 -0.00000000000E+00 -0.45593999997E+02  0.45594000000E+02  0.51100000000E-03 0.  1.
    9900012    2    1    2    0    0  0.51296365430E+01 -0.28401981188E+02 -0.28638770548E+02  0.50528869599E+02  0.30000029633E+02 0.  0.
         12    1    1    2    0    0 -0.51296365430E+01  0.28401981188E+02  0.28638770548E+02  0.40659130401E+02  0.00000000000E+00 0. -1.
         11    1    3    3    0    0  0.15738889526E+02 -0.19607600539E+02 -0.20126794411E+02  0.32206497729E+02  0.51100000000E-03 0. -1.
        -11    1    3    3    0    0 -0.69506687996E+01 -0.10063997348E+02 -0.73915271180E+01  0.14290924140E+02  0.51100000000E-03 0.  1.
         12    1    3    3    0    0 -0.36585841839E+01  0.12696166994E+01 -0.11204490185E+01  0.40314477297E+01  0.00000000000E+00 0. -1.
</event>
<event>
 7    1  0.5910662E-013  0.5052887E+02  0.7816164E-02  0.1300439E+00
        -11   -1    0    0    0    0  0.00000000000E+00  0.00000000000E+00  0.45593999997E+02  0.45594000000E+02  0.51100000000E-03 0.  1.
         11   -1    0    0    0    0 -0.00000000000E+00 -0.00000000000E+00 -0.45593999997E+02  0.45594000000E+02  0.51100000000E-03 0. -1.
    9900012    2    1    2    0    0 -0.77313662691E+01 -0.24113744607E+02  0.31810654984E+02  0.50528874654E+02  0.30000044998E+02 0.  0.
         12    1    1    2    0    0  0.77313662691E+01  0.24113744607E+02 -0.31810654984E+02  0.40659125346E+02  0.00000000000E+00 0. -1.
         11    1    3    3    0    0 -0.10166795333E+02 -0.13007581881E+01  0.13252530357E+01  0.10334988877E+02  0.51100000000E-03 0. -1.
        -11    1    3    3    0    0 -0.75966221983E+00 -0.22244846100E+01  0.12349817646E+02  0.12571531912E+02  0.51100000000E-03 0.  1.
         12    1    3    3    0    0  0.31950912842E+01 -0.20588501809E+02  0.18135584303E+02  0.27622353865E+02  0.00000000000E+00 0. -1.
</event>
<event>
 7    1  0.5910662E-013  0.5052886E+02  0.7816164E-02  0.1300439E+00
        -11   -1    0    0    0    0  0.00000000000E+00  0.00000000000E+00  0.45593999997E+02  0.45594000000E+02  0.51100000000E-03 0.  1.
         11   -1    0    0    0    0 -0.00000000000E+00 -0.00000000000E+00 -0.45593999997E+02  0.45594000000E+02  0.51100000000E-03 0. -1.
    9900012    2    1    2    0    0  0.91660357039E+01 -0.36984366452E+02  0.14188236453E+02  0.50528860486E+02  0.30000001932E+02 0.  0.
         12    1    1    2    0    0 -0.91660357039E+01  0.36984366452E+02 -0.14188236453E+02  0.40659139514E+02  0.00000000000E+00 0. -1.
         11    1    3    3    0    0  0.10495050620E+01 -0.43929797370E+01 -0.65632843552E+01  0.79672099027E+01  0.51100000000E-03 0. -1.
        -11    1    3    3    0    0  0.66101355442E+01 -0.28645561818E+02  0.10069620061E+02  0.31075059971E+02  0.51100000000E-03 0.  1.
         12    1    3    3    0    0  0.15063950977E+01 -0.39458248970E+01  0.10681900747E+02  0.11486590612E+02  0.00000000000E+00 0. -1.
</event>
<event>
 7    1  0.5910662E-013  0.5052886E+02  0.7816164E-02  0.1300439E+00
        -11   -1    0    0    0    0  0.00000000000E+00  0.00000000000E+00  0.45593999997E+02  0.45594000000E+02  0.51100000000E-03 0.  1.
         11   -1    0    0    0    0 -0.00000000000E+00 -0.00000000000E+00 -0.45593999997E+02  0.45594000000E+02  0.51100000000E-03 0. -1.
    9900012    2    1    2    0    0 -0.34491582995E+02  0.14218341181E+02 -0.16165870838E+02  0.50528857075E+02  0.29999991566E+02 0.  0.
         12    1    1    2    0    0  0.34491582995E+02 -0.14218341181E+02  0.16165870838E+02  0.40659142925E+02  0.00000000000E+00 0. -1.
         11    1    3    3    0    0  0.97896556434E+00  0.12790622098E+01  0.44699970587E+01  0.47513416714E+01  0.51100000000E-03 0. -1.
        -11    1    3    3    0    0 -0.13958995583E+02  0.13220090121E+02 -0.79667973961E+01  0.20810915441E+02  0.51100000000E-03 0.  1.
         12    1    3    3    0    0 -0.21511552976E+02 -0.28081115016E+00 -0.12669070501E+02  0.24966599963E+02  0.00000000000E+00 0. -1.
</event>
<event>
 7    1  0.5910662E-013  0.5052886E+02  0.7816164E-02  0.1300439E+00
        -11   -1    0    0    0    0  0.00000000000E+00  0.00000000000E+00  0.45593999997E+02  0.45594000000E+02  0.51100000000E-03 0.  1.
         11   -1    0    0    0    0 -0.00000000000E+00 -0.00000000000E+00 -0.45593999997E+02  0.45594000000E+02  0.51100000000E-03 0. -1.
    9900012    2    1    2    0    0 -0.98397122285E+01 -0.10444888705E+02  0.38042738641E+02  0.50528860804E+02  0.30000002901E+02 0.  0.
         12    1    1    2    0    0  0.98397122285E+01  0.10444888705E+02 -0.38042738641E+02  0.40659139196E+02  0.00000000000E+00 0. -1.
         11    1    3    3    0    0  0.57723086391E+01 -0.24700642328E+01  0.16560633948E+00  0.62807794151E+01  0.51100000000E-03 0.  1.
        -11    1    3    3    0    0 -0.13205878470E+02  0.55010158045E+00  0.16733193343E+02  0.21323639408E+02  0.51100000000E-03 0. -1.
        -12    1    3    3    0    0 -0.24061423981E+01 -0.85249260523E+01  0.21143938959E+02  0.22924441981E+02  0.00000000000E+00 0.  1.
</event>
<event>
 7    1  0.5910662E-013  0.5052887E+02  0.7816164E-02  0.1300439E+00
        -11   -1    0    0    0    0  0.00000000000E+00  0.00000000000E+00  0.45593999997E+02  0.45594000000E+02  0.51100000000E-03 0. -1.
         11   -1    0    0    0    0 -0.00000000000E+00 -0.00000000000E+00 -0.45593999997E+02  0.45594000000E+02  0.51100000000E-03 0.  1.
    9900012    2    1    2    0    0 -0.22645970366E+02  0.23947793242E+02 -0.23808154741E+02  0.50528868096E+02  0.30000025065E+02 0.  0.
         12    1    1    2    0    0  0.22645970366E+02 -0.23947793242E+02  0.23808154741E+02  0.40659131904E+02  0.00000000000E+00 0. -1.
         11    1    3    3    0    0 -0.28700205291E+00 -0.18905706393E+01  0.98046442364E+00  0.21489388701E+01  0.51100000000E-03 0. -1.
        -11    1    3    3    0    0 -0.21180904960E+02  0.21896517423E+02 -0.29304454345E+02  0.42271021456E+02  0.51100000000E-03 0.  1.
        -12    1    3    3    0    0 -0.11780633537E+01  0.39418464585E+01  0.45158351807E+01  0.61089077704E+01  0.00000000000E+00 0.  1.
</event>
<event>
 7    1  0.5910662E-013  0.5052886E+02  0.7816164E-02  0.1300439E+00
        -11   -1    0    0    0    0  0.00000000000E+00  0.00000000000E+00  0.45593999997E+02  0.45594000000E+02  0.51100000000E-03 0.  1.
         11   -1    0    0    0    0 -0.00000000000E+00 -0.00000000000E+00 -0.45593999997E+02  0.45594000000E+02  0.51100000000E-03 0. -1.
    9900012    2    1    2    0    0 -0.45868700395E+01 -0.29834729223E+01  0.40289269660E+02  0.50528859119E+02  0.29999997778E+02 0.  0.
         12    1    1    2    0    0  0.45868700395E+01  0.29834729223E+01 -0.40289269660E+02  0.40659140881E+02  0.00000000000E+00 0. -1.
         11    1    3    3    0    0 -0.93830487416E+01  0.29549814441E+01  0.85748091941E+01  0.13049937624E+02  0.51100000000E-03 0. -1.
        -11    1    3    3    0    0  0.11012048461E+02 -0.17548938046E+01  0.11963401225E+02  0.16354443821E+02  0.51100000000E-03 0.  1.
        -12    1    3    3    0    0 -0.62158697590E+01 -0.41835605618E+01  0.19751059241E+02  0.21124477674E+02  0.00000000000E+00 0.  1.
</event>
<event>
 7    1  0.5910662E-013  0.5052891E+02  0.7816164E-02  0.1300439E+00
        -11   -1    0    0    0    0  0.00000000000E+00  0.00000000000E+00  0.45593999997E+02  0.45594000000E+02  0.51100000000E-03 0. -1.
         11   -1    0    0    0    0 -0.00000000000E+00 -0.00000000000E+00 -0.45593999997E+02  0.45594000000E+02  0.51100000000E-03 0.  1.
    9900012    2    1    2    0    0  0.24076816788E+02  0.30612664372E+02 -0.11676188382E+02  0.50528908745E+02  0.30000148619E+02 0.  0.
         12    1    1    2    0    0 -0.24076816788E+02 -0.30612664372E+02  0.11676188382E+02  0.40659091255E+02  0.00000000000E+00 0. -1.
         11    1    3    3    0    0  0.12557002138E+02  0.12336954389E+02  0.83712420417E+01  0.19492471364E+02  0.51100000000E-03 0. -1.
        -11    1    3    3    0    0  0.94009403757E+01  0.60496108154E+01 -0.10966641976E+02  0.15660226928E+02  0.51100000000E-03 0.  1.
         12    1    3    3    0    0  0.21188742748E+01  0.12226099167E+02 -0.90807884477E+01  0.15376210452E+02  0.00000000000E+00 0. -1.
</event>
<event>
 7    1  0.5910662E-013  0.5052886E+02  0.7816164E-02  0.1300439E+00
        -11   -1    0    0    0    0  0.00000000000E+00  0.00000000000E+00  0.45593999997E+02  0.45594000000E+02  0.51100000000E-03 0. -1.
         11   -1    0    0    0    0 -0.00000000000E+00 -0.00000000000E+00 -0.45593999997E+02  0.45594000000E+02  0.51100000000E-03 0.  1.
    9900012    2    1    2    0    0  0.32061289338E+02 -0.22862886214E+02 -0.10125598292E+02  0.50528861042E+02  0.30000003623E+02 0.  0.
         12    1    1    2    0    0 -0.32061289338E+02  0.22862886214E+02  0.10125598292E+02  0.40659138958E+02  0.00000000000E+00 0. -1.
         11    1    3    3    0    0 -0.25068775754E+01 -0.12972689900E+01  0.36171562727E+01  0.45881545062E+01  0.51100000000E-03 0. -1.
        -11    1    3    3    0    0  0.19804792693E+02 -0.54617125896E+01 -0.12522148954E+02  0.24059599596E+02  0.51100000000E-03 0.  1.
        -12    1    3    3    0    0  0.14763374220E+02 -0.16103904634E+02 -0.12206056103E+01  0.21881106939E+02  0.00000000000E+00 0.  1.
</event>
<event>
 7    1  0.7544783E-013  0.5052886E+02  0.7816164E-02  0.1300439E+00
        -11   -1    0    0    0    0  0.00000000000E+00  0.00000000000E+00  0.45593999997E+02  0.45594000000E+02  0.51100000000E-03 0. -1.
         11   -1    0    0    0    0 -0.00000000000E+00 -0.00000000000E+00 -0.45593999997E+02  0.45594000000E+02  0.51100000000E-03 0.  1.
    9900012    2    1    2    0    0 -0.28309356563E+02  0.22586434898E+02 -0.18482390479E+02  0.50528862427E+02  0.30000007834E+02 0.  0.
         12    1    1    2    0    0  0.28309356563E+02 -0.22586434898E+02  0.18482390479E+02  0.40659137573E+02  0.00000000000E+00 0. -1.
         11    1    3    3    0    0 -0.42010370958E+01 -0.30182192655E+01  0.32385203126E+01  0.61029807710E+01  0.51100000000E-03 0. -1.
        -11    1    3    3    0    0 -0.14806733088E+02  0.13924329779E+02 -0.21366917742E+02  0.29490192922E+02  0.51100000000E-03 0.  1.
        -12    1    3    3    0    0 -0.93015863793E+01  0.11680324384E+02 -0.35399304913E+00  0.14935688734E+02  0.00000000000E+00 0.  1.
</event>
<event>
 7    1  0.5910662E-013  0.5052887E+02  0.7816164E-02  0.1300439E+00
        -11   -1    0    0    0    0  0.00000000000E+00  0.00000000000E+00  0.45593999997E+02  0.45594000000E+02  0.51100000000E-03 0.  1.
         11   -1    0    0    0    0 -0.00000000000E+00 -0.00000000000E+00 -0.45593999997E+02  0.45594000000E+02  0.51100000000E-03 0. -1.
    9900012    2    1    2    0    0 -0.86070507578E+00 -0.26312536503E+02  0.30985072837E+02  0.50528866596E+02  0.30000020504E+02 0.  0.
         12    1    1    2    0    0  0.86070507578E+00  0.26312536503E+02 -0.30985072837E+02  0.40659133404E+02  0.00000000000E+00 0. -1.
         11    1    3    3    0    0 -0.36161610271E+00 -0.20823598579E+00 -0.11018277364E+01  0.11781990720E+01  0.51100000000E-03 0. -1.
        -11    1    3    3    0    0 -0.15845473121E+01 -0.94117569859E+01 -0.33895701762E+01  0.10128235087E+02  0.51100000000E-03 0.  1.
        -12    1    3    3    0    0  0.10854583390E+01 -0.16692543532E+02  0.35476470750E+02  0.39222432436E+02  0.00000000000E+00 0.  1.
</event>
<event>
 7    1  0.5910662E-013  0.5052885E+02  0.7816164E-02  0.1300439E+00
        -11   -1    0    0    0    0  0.00000000000E+00  0.00000000000E+00  0.45593999997E+02  0.45594000000E+02  0.51100000000E-03 0.  1.
         11   -1    0    0    0    0 -0.00000000000E+00 -0.00000000000E+00 -0.45593999997E+02  0.45594000000E+02  0.51100000000E-03 0. -1.
    9900012    2    1    2    0    0 -0.22441562255E+02 -0.12717128463E+02  0.31429557058E+02  0.50528854293E+02  0.29999983109E+02 0.  0.
         12    1    1    2    0    0  0.22441562255E+02  0.12717128463E+02 -0.31429557058E+02  0.40659145707E+02  0.00000000000E+00 0. -1.
         11    1    3    3    0    0 -0.44343042796E+01  0.86514959323E+00  0.54089407070E+01  0.70475654020E+01  0.51100000000E-03 0. -1.
        -11    1    3    3    0    0 -0.16965490744E+02 -0.11915859723E+02  0.31471763797E+02  0.37686701976E+02  0.51100000000E-03 0.  1.
        -12    1    3    3    0    0 -0.10417672318E+01 -0.16664183338E+01 -0.54511474464E+01  0.57945869146E+01  0.00000000000E+00 0.  1.
</event>
<event>
 7    1  0.5910662E-013  0.5052887E+02  0.7816164E-02  0.1300439E+00
        -11   -1    0    0    0    0  0.00000000000E+00  0.00000000000E+00  0.45593999997E+02  0.45594000000E+02  0.51100000000E-03 0. -1.
         11   -1    0    0    0    0 -0.00000000000E+00 -0.00000000000E+00 -0.45593999997E+02  0.45594000000E+02  0.51100000000E-03 0.  1.
    9900012    2    1    2    0    0  0.37397974623E+02  0.13168773062E+02 -0.90077736220E+01  0.50528867256E+02  0.30000022512E+02 0.  0.
         12    1    1    2    0    0 -0.37397974623E+02 -0.13168773062E+02  0.90077736220E+01  0.40659132744E+02  0.00000000000E+00 0. -1.
         11    1    3    3    0    0  0.17724019625E+02  0.15459291055E+02 -0.97704791337E+01  0.25467485434E+02  0.51100000000E-03 0. -1.
        -11    1    3    3    0    0  0.22271510398E+02 -0.14524819592E+01  0.76656553100E+00  0.22331983840E+02  0.51100000000E-03 0.  1.
         12    1    3    3    0    0 -0.25975553996E+01 -0.83803603327E+00 -0.38600192686E-02  0.27293979825E+01  0.00000000000E+00 0. -1.
</event>
<event>
 7    1  0.5910662E-013  0.5052885E+02  0.7816164E-02  0.1300439E+00
        -11   -1    0    0    0    0  0.00000000000E+00  0.00000000000E+00  0.45593999997E+02  0.45594000000E+02  0.51100000000E-03 0. -1.
         11   -1    0    0    0    0 -0.00000000000E+00 -0.00000000000E+00 -0.45593999997E+02  0.45594000000E+02  0.51100000000E-03 0.  1.
    9900012    2    1    2    0    0  0.34724750587E+02 -0.20276872461E+02 -0.60172210373E+01  0.50528845937E+02  0.29999957709E+02 0.  0.
         12    1    1    2    0    0 -0.34724750587E+02  0.20276872461E+02  0.60172210373E+01  0.40659154063E+02  0.00000000000E+00 0. -1.
         11    1    3    3    0    0  0.15226154242E+02 -0.49627969274E+01  0.10355245831E+02  0.19070821766E+02  0.51100000000E-03 0. -1.
        -11    1    3    3    0    0  0.12137483660E+02 -0.12083945644E+02 -0.56053279580E+01  0.18021097461E+02  0.51100000000E-03 0.  1.
         12    1    3    3    0    0  0.73611126855E+01 -0.32301298896E+01 -0.10767138911E+02  0.13436926709E+02  0.00000000000E+00 0. -1.
</event>
<event>
 7    1  0.5910662E-013  0.5052885E+02  0.7816164E-02  0.1300439E+00
        -11   -1    0    0    0    0  0.00000000000E+00  0.00000000000E+00  0.45593999997E+02  0.45594000000E+02  0.51100000000E-03 0.  1.
         11   -1    0    0    0    0 -0.00000000000E+00 -0.00000000000E+00 -0.45593999997E+02  0.45594000000E+02  0.51100000000E-03 0. -1.
    9900012    2    1    2    0    0  0.83219180219E+01  0.33104479648E+02  0.22090844359E+02  0.50528852237E+02  0.29999976859E+02 0.  0.
         12    1    1    2    0    0 -0.83219180219E+01 -0.33104479648E+02 -0.22090844359E+02  0.40659147763E+02  0.00000000000E+00 0. -1.
         11    1    3    3    0    0 -0.62113488580E+01  0.12573957675E+02 -0.56551538551E+00  0.14035849606E+02  0.51100000000E-03 0. -1.
        -11    1    3    3    0    0  0.13232813931E+02  0.12216944748E+02  0.82511293687E+01  0.19810154962E+02  0.51100000000E-03 0.  1.
        -12    1    3    3    0    0  0.13004529488E+01  0.83135772253E+01  0.14405230376E+02  0.16682847668E+02  0.00000000000E+00 0.  1.
</event>
<event>
 7    1  0.5910662E-013  0.5052882E+02  0.7816164E-02  0.1300439E+00
        -11   -1    0    0    0    0  0.00000000000E+00  0.00000000000E+00  0.45593999997E+02  0.45594000000E+02  0.51100000000E-03 0.  1.
         11   -1    0    0    0    0 -0.00000000000E+00 -0.00000000000E+00 -0.45593999997E+02  0.45594000000E+02  0.51100000000E-03 0. -1.
    9900012    2    1    2    0    0  0.23226489683E+02 -0.27872045608E+02  0.18353421060E+02  0.50528821283E+02  0.29999882771E+02 0.  0.
         12    1    1    2    0    0 -0.23226489683E+02  0.27872045608E+02 -0.18353421060E+02  0.40659178717E+02  0.00000000000E+00 0. -1.
         11    1    3    3    0    0  0.55340434071E+01  0.44483991373E+01 -0.63601885470E+00  0.71287033577E+01  0.51100000000E-03 0. -1.
        -11    1    3    3    0    0  0.13540329927E+02 -0.15638425145E+02  0.15524773229E+02  0.25863477330E+02  0.51100000000E-03 0.  1.
         12    1    3    3    0    0  0.41521163490E+01 -0.16682019600E+02  0.34646666858E+01  0.17536640595E+02  0.00000000000E+00 0. -1.
</event>
<event>
 7    1  0.5910662E-013  0.5052886E+02  0.7816164E-02  0.1300439E+00
        -11   -1    0    0    0    0  0.00000000000E+00  0.00000000000E+00  0.45593999997E+02  0.45594000000E+02  0.51100000000E-03 0. -1.
         11   -1    0    0    0    0 -0.00000000000E+00 -0.00000000000E+00 -0.45593999997E+02  0.45594000000E+02  0.51100000000E-03 0.  1.
    9900012    2    1    2    0    0  0.23947633500E+02 -0.24288281538E+02 -0.22130429040E+02  0.50528860071E+02  0.30000000670E+02 0.  0.
         12    1    1    2    0    0 -0.23947633500E+02  0.24288281538E+02  0.22130429040E+02  0.40659139929E+02  0.00000000000E+00 0. -1.
         11    1    3    3    0    0  0.99187470164E+01 -0.20287865574E+02 -0.21748552342E+02  0.31352488915E+02  0.51100000000E-03 0.  1.
        -11    1    3    3    0    0  0.76526051632E+01 -0.68289366553E+01  0.39210248929E+01  0.10980490795E+02  0.51100000000E-03 0. -1.
        -12    1    3    3    0    0  0.63762813207E+01  0.28285206919E+01 -0.43029015906E+01  0.81958803605E+01  0.00000000000E+00 0.  1.
</event>
<event>
 7    1  0.5910662E-013  0.5052885E+02  0.7816164E-02  0.1300439E+00
        -11   -1    0    0    0    0  0.00000000000E+00  0.00000000000E+00  0.45593999997E+02  0.45594000000E+02  0.51100000000E-03 0. -1.
         11   -1    0    0    0    0 -0.00000000000E+00 -0.00000000000E+00 -0.45593999997E+02  0.45594000000E+02  0.51100000000E-03 0.  1.
    9900012    2    1    2    0    0 -0.10552100803E+02  0.25286427497E+02 -0.30040238668E+02  0.50528853598E+02  0.29999980996E+02 0.  0.
         12    1    1    2    0    0  0.10552100803E+02 -0.25286427497E+02  0.30040238668E+02  0.40659146402E+02  0.00000000000E+00 0. -1.
         11    1    3    3    0    0  0.46482810866E+00  0.52534792389E+01 -0.25517161779E+01  0.58588706248E+01  0.51100000000E-03 0. -1.
        -11    1    3    3    0    0 -0.17594541444E+02  0.13690016142E+02 -0.89898347780E+01  0.24037503202E+02  0.51100000000E-03 0.  1.
        -12    1    3    3    0    0  0.65776125319E+01  0.63429321170E+01 -0.18498687712E+02  0.20632479771E+02  0.00000000000E+00 0.  1.
</event>
<event>
 7    1  0.5910662E-013  0.5052886E+02  0.7816164E-02  0.1300439E+00
        -11   -1    0    0    0    0  0.00000000000E+00  0.00000000000E+00  0.45593999997E+02  0.45594000000E+02  0.51100000000E-03 0.  1.
         11   -1    0    0    0    0 -0.00000000000E+00 -0.00000000000E+00 -0.45593999997E+02  0.45594000000E+02  0.51100000000E-03 0. -1.
    9900012    2    1    2    0    0 -0.18471917296E+01 -0.24442710011E+02  0.32439291003E+02  0.50528858460E+02  0.29999995775E+02 0.  0.
         12    1    1    2    0    0  0.18471917296E+01  0.24442710011E+02 -0.32439291003E+02  0.40659141540E+02  0.00000000000E+00 0. -1.
         11    1    3    3    0    0  0.12481030922E+01 -0.24170836592E+01 -0.36945161167E+01  0.45879738821E+01  0.51100000000E-03 0. -1.
        -11    1    3    3    0    0 -0.77443605781E+01 -0.22102842818E+02  0.27391155957E+02  0.36038676534E+02  0.51100000000E-03 0.  1.
        -12    1    3    3    0    0  0.46490657563E+01  0.77216466325E-01  0.87426511633E+01  0.99022080443E+01  0.00000000000E+00 0.  1.
</event>
<event>
 7    1  0.5910662E-013  0.5052884E+02  0.7816164E-02  0.1300439E+00
        -11   -1    0    0    0    0  0.00000000000E+00  0.00000000000E+00  0.45593999997E+02  0.45594000000E+02  0.51100000000E-03 0. -1.
         11   -1    0    0    0    0 -0.00000000000E+00 -0.00000000000E+00 -0.45593999997E+02  0.45594000000E+02  0.51100000000E-03 0.  1.
    9900012    2    1    2    0    0 -0.95953011529E+01  0.36680503709E+02 -0.14684626434E+02  0.50528838547E+02  0.29999935247E+02 0.  0.
         12    1    1    2    0    0  0.95953011529E+01 -0.36680503709E+02  0.14684626434E+02  0.40659161453E+02  0.00000000000E+00 0. -1.
         11    1    3    3    0    0  0.21986697617E+01  0.22641666965E+02 -0.50957071390E+01  0.23311916764E+02  0.51100000000E-03 0. -1.
        -11    1    3    3    0    0 -0.15375948926E+02  0.96237099494E+01 -0.11186465334E+02  0.21311325757E+02  0.51100000000E-03 0.  1.
         12    1    3    3    0    0  0.35819780115E+01  0.44151267941E+01  0.15975460389E+01  0.59055960266E+01  0.00000000000E+00 0. -1.
</event>
<event>
 7    1  0.5910662E-013  0.5052885E+02  0.7816164E-02  0.1300439E+00
        -11   -1    0    0    0    0  0.00000000000E+00  0.00000000000E+00  0.45593999997E+02  0.45594000000E+02  0.51100000000E-03 0. -1.
         11   -1    0    0    0    0 -0.00000000000E+00 -0.00000000000E+00 -0.45593999997E+02  0.45594000000E+02  0.51100000000E-03 0.  1.
    9900012    2    1    2    0    0 -0.30769383180E+02  0.15162509921E+02 -0.21829096293E+02  0.50528854740E+02  0.29999984467E+02 0.  0.
         12    1    1    2    0    0  0.30769383180E+02 -0.15162509921E+02  0.21829096293E+02  0.40659145260E+02  0.00000000000E+00 0. -1.
         11    1    3    3    0    0 -0.73028880750E+01 -0.22802646349E+01  0.24814557573E+01  0.80429723348E+01  0.51100000000E-03 0. -1.
        -11    1    3    3    0    0 -0.24876255295E+02  0.18721304771E+02 -0.25498079779E+02  0.40242606806E+02  0.51100000000E-03 0.  1.
        -12    1    3    3    0    0  0.14097601906E+01 -0.12785302159E+01  0.11875277287E+01  0.22432755993E+01  0.00000000000E+00 0.  1.
</event>
<event>
 7    1  0.5910662E-013  0.5052886E+02  0.7816164E-02  0.1300439E+00
        -11   -1    0    0    0    0  0.00000000000E+00  0.00000000000E+00  0.45593999997E+02  0.45594000000E+02  0.51100000000E-03 0.  1.
         11   -1    0    0    0    0 -0.00000000000E+00 -0.00000000000E+00 -0.45593999997E+02  0.45594000000E+02  0.51100000000E-03 0. -1.
    9900012    2    1    2    0    0  0.23362887713E+02  0.19663623148E+01  0.33218585760E+02  0.50528861507E+02  0.30000005038E+02 0.  0.
         12    1    1    2    0    0 -0.23362887713E+02 -0.19663623148E+01 -0.33218585760E+02  0.40659138493E+02  0.00000000000E+00 0. -1.
         11    1    3    3    0    0 -0.60660832901E+01 -0.26003155113E+00  0.55084709384E+01  0.81980628950E+01  0.51100000000E-03 0. -1.
        -11    1    3    3    0    0  0.20641440935E+02  0.60916374670E+01  0.14302450073E+02  0.25840611627E+02  0.51100000000E-03 0.  1.
         12    1    3    3    0    0  0.87875300688E+01 -0.38652436011E+01  0.13407664749E+02  0.16490186986E+02  0.00000000000E+00 0. -1.
</event>
<event>
 7    1  0.5910662E-013  0.5052886E+02  0.7816164E-02  0.1300439E+00
        -11   -1    0    0    0    0  0.00000000000E+00  0.00000000000E+00  0.45593999997E+02  0.45594000000E+02  0.51100000000E-03 0.  1.
         11   -1    0    0    0    0 -0.00000000000E+00 -0.00000000000E+00 -0.45593999997E+02  0.45594000000E+02  0.51100000000E-03 0. -1.
    9900012    2    1    2    0    0  0.20221881119E+02 -0.32127508821E+02  0.14562427362E+02  0.50528860933E+02  0.30000003292E+02 0.  0.
         12    1    1    2    0    0 -0.20221881119E+02  0.32127508821E+02 -0.14562427362E+02  0.40659139067E+02  0.00000000000E+00 0. -1.
         11    1    3    3    0    0  0.11235456527E+02 -0.15176342590E+02 -0.81425936914E+01  0.20563528152E+02  0.51100000000E-03 0. -1.
        -11    1    3    3    0    0  0.73457108991E+01 -0.10348866820E+02  0.13630993541E+02  0.18624244904E+02  0.51100000000E-03 0.  1.
         12    1    3    3    0    0  0.16407136932E+01 -0.66022994102E+01  0.90740275127E+01  0.11341087877E+02  0.00000000000E+00 0. -1.
</event>
<event>
 7    1  0.5910662E-013  0.5052887E+02  0.7816164E-02  0.1300439E+00
        -11   -1    0    0    0    0  0.00000000000E+00  0.00000000000E+00  0.45593999997E+02  0.45594000000E+02  0.51100000000E-03 0.  1.
         11   -1    0    0    0    0 -0.00000000000E+00 -0.00000000000E+00 -0.45593999997E+02  0.45594000000E+02  0.51100000000E-03 0. -1.
    9900012    2    1    2    0    0 -0.75715821467E+00 -0.38060031673E+02 -0.14283762724E+02  0.50528866007E+02  0.30000018716E+02 0.  0.
         12    1    1    2    0    0  0.75715821467E+00  0.38060031673E+02  0.14283762724E+02  0.40659133993E+02  0.00000000000E+00 0. -1.
         11    1    3    3    0    0 -0.36085569707E+01  0.26696102897E+01  0.19383195127E+01  0.48893338304E+01  0.51100000000E-03 0. -1.
        -11    1    3    3    0    0  0.74986494704E+01 -0.21544358693E+02 -0.10305392740E+02  0.25031784897E+02  0.51100000000E-03 0.  1.
         12    1    3    3    0    0 -0.46472507143E+01 -0.19185283270E+02 -0.59166894971E+01  0.20607747280E+02  0.00000000000E+00 0. -1.
</event>
<event>
 7    1  0.5910662E-013  0.5052886E+02  0.7816164E-02  0.1300439E+00
        -11   -1    0    0    0    0  0.00000000000E+00  0.00000000000E+00  0.45593999997E+02  0.45594000000E+02  0.51100000000E-03 0. -1.
         11   -1    0    0    0    0 -0.00000000000E+00 -0.00000000000E+00 -0.45593999997E+02  0.45594000000E+02  0.51100000000E-03 0.  1.
    9900012    2    1    2    0    0 -0.39711861580E+02  0.30394766190E+01 -0.81789778488E+01  0.50528855310E+02  0.29999986201E+02 0.  0.
         12    1    1    2    0    0  0.39711861580E+02 -0.30394766190E+01  0.81789778488E+01  0.40659144690E+02  0.00000000000E+00 0. -1.
         11    1    3    3    0    0 -0.12237444591E+02 -0.59568059249E+01  0.74280726300E+01  0.15505316837E+02  0.51100000000E-03 0. -1.
        -11    1    3    3    0    0 -0.19609725892E+01  0.47249486483E+01 -0.47092063055E+01  0.69532134667E+01  0.51100000000E-03 0.  1.
         12    1    3    3    0    0 -0.25513444400E+02  0.42713338956E+01 -0.10897844173E+02  0.28070325007E+02  0.00000000000E+00 0. -1.
</event>
<event>
 7    1  0.5910662E-013  0.5052885E+02  0.7816164E-02  0.1300439E+00
        -11   -1    0    0    0    0  0.00000000000E+00  0.00000000000E+00  0.45593999997E+02  0.45594000000E+02  0.51100000000E-03 0. -1.
         11   -1    0    0    0    0 -0.00000000000E+00 -0.00000000000E+00 -0.45593999997E+02  0.45594000000E+02  0.51100000000E-03 0.  1.
    9900012    2    1    2    0    0  0.35391543428E+02 -0.51920618561E+01 -0.19329965443E+02  0.50528850765E+02  0.29999972384E+02 0.  0.
         12    1    1    2    0    0 -0.35391543428E+02  0.51920618561E+01  0.19329965443E+02  0.40659149235E+02  0.00000000000E+00 0. -1.
         11    1    3    3    0    0  0.12595957333E+02 -0.71309190325E+01 -0.10782455062E+02  0.18049085428E+02  0.51100000000E-03 0. -1.
        -11    1    3    3    0    0  0.11226820970E+02 -0.55555556319E+01  0.46835235126E+01  0.13373148479E+02  0.51100000000E-03 0.  1.
        -12    1    3    3    0    0  0.11568765125E+02  0.74944128083E+01 -0.13231033893E+02  0.19106616857E+02  0.00000000000E+00 0.  1.
</event>
<event>
 7    1  0.5910662E-013  0.5052886E+02  0.7816164E-02  0.1300439E+00
        -11   -1    0    0    0    0  0.00000000000E+00  0.00000000000E+00  0.45593999997E+02  0.45594000000E+02  0.51100000000E-03 0.  1.
         11   -1    0    0    0    0 -0.00000000000E+00 -0.00000000000E+00 -0.45593999997E+02  0.45594000000E+02  0.51100000000E-03 0. -1.
    9900012    2    1    2    0    0  0.40251247067E+02  0.13212154395E+01  0.55908251497E+01  0.50528858020E+02  0.29999994437E+02 0.  0.
         12    1    1    2    0    0 -0.40251247067E+02 -0.13212154395E+01 -0.55908251497E+01  0.40659141980E+02  0.00000000000E+00 0. -1.
         11    1    3    3    0    0  0.20670905060E+02  0.81537384565E+01 -0.64930206830E+01  0.23150142217E+02  0.51100000000E-03 0. -1.
        -11    1    3    3    0    0  0.21416450529E+02 -0.52537936595E+01  0.11573302941E+02  0.24903976436E+02  0.51100000000E-03 0.  1.
         12    1    3    3    0    0 -0.18361085224E+01 -0.15787293575E+01  0.51054289186E+00  0.24747393670E+01  0.00000000000E+00 0. -1.
</event>
<event>
 7    1  0.5910662E-013  0.5052887E+02  0.7816164E-02  0.1300439E+00
        -11   -1    0    0    0    0  0.00000000000E+00  0.00000000000E+00  0.45593999997E+02  0.45594000000E+02  0.51100000000E-03 0.  1.
         11   -1    0    0    0    0 -0.00000000000E+00 -0.00000000000E+00 -0.45593999997E+02  0.45594000000E+02  0.51100000000E-03 0. -1.
    9900012    2    1    2    0    0  0.30225887210E+02  0.27043214115E+02  0.28679955259E+01  0.50528867132E+02  0.30000022133E+02 0.  0.
         12    1    1    2    0    0 -0.30225887210E+02 -0.27043214115E+02 -0.28679955259E+01  0.40659132868E+02  0.00000000000E+00 0. -1.
         11    1    3    3    0    0  0.29145815486E+02  0.19833328263E+02 -0.53075824295E+01  0.35651225811E+02  0.51100000000E-03 0. -1.
        -11    1    3    3    0    0  0.11187509827E+01  0.67768625528E+01  0.18071088312E+00  0.68709625603E+01  0.51100000000E-03 0.  1.
         12    1    3    3    0    0 -0.38679259109E-01  0.43302329898E+00  0.79948670723E+01  0.80066787600E+01  0.00000000000E+00 0. -1.
</event>
<event>
 7    1  0.5910662E-013  0.5052885E+02  0.7816164E-02  0.1300439E+00
        -11   -1    0    0    0    0  0.00000000000E+00  0.00000000000E+00  0.45593999997E+02  0.45594000000E+02  0.51100000000E-03 0.  1.
         11   -1    0    0    0    0 -0.00000000000E+00 -0.00000000000E+00 -0.45593999997E+02  0.45594000000E+02  0.51100000000E-03 0. -1.
    9900012    2    1    2    0    0 -0.15036170066E+02  0.23580166676E+02  0.29513647730E+02  0.50528854988E+02  0.29999985223E+02 0.  0.
         12    1    1    2    0    0  0.15036170066E+02 -0.23580166676E+02 -0.29513647730E+02  0.40659145012E+02  0.00000000000E+00 0. -1.
         11    1    3    3    0    0 -0.41608733565E+01 -0.54448874976E+01  0.35352488757E+01  0.77108787971E+01  0.51100000000E-03 0. -1.
        -11    1    3    3    0    0 -0.16231490288E+01  0.16351477487E+02  0.20331317824E+02  0.26141306652E+02  0.51100000000E-03 0.  1.
         12    1    3    3    0    0 -0.92521476807E+01  0.12673576687E+02  0.56470810304E+01  0.16676669539E+02  0.00000000000E+00 0. -1.
</event>
<event>
 7    1  0.5910662E-013  0.5052887E+02  0.7816164E-02  0.1300439E+00
        -11   -1    0    0    0    0  0.00000000000E+00  0.00000000000E+00  0.45593999997E+02  0.45594000000E+02  0.51100000000E-03 0.  1.
         11   -1    0    0    0    0 -0.00000000000E+00 -0.00000000000E+00 -0.45593999997E+02  0.45594000000E+02  0.51100000000E-03 0. -1.
    9900012    2    1    2    0    0 -0.21640034022E+02  0.13682239871E+02  0.31585921789E+02  0.50528865532E+02  0.30000017272E+02 0.  0.
         12    1    1    2    0    0  0.21640034022E+02 -0.13682239871E+02 -0.31585921789E+02  0.40659134468E+02  0.00000000000E+00 0. -1.
         11    1    3    3    0    0  0.30925728307E+01 -0.11913165650E+01  0.47753427941E+01  0.58126707229E+01  0.51100000000E-03 0. -1.
        -11    1    3    3    0    0 -0.27981566400E+02  0.15074296812E+02  0.21121765305E+02  0.38161911017E+02  0.51100000000E-03 0.  1.
        -12    1    3    3    0    0  0.32489595469E+01 -0.20074037581E+00  0.56888136901E+01  0.65542837928E+01  0.00000000000E+00 0.  1.
</event>
<event>
 7    1  0.5910662E-013  0.5052878E+02  0.7816164E-02  0.1300439E+00
        -11   -1    0    0    0    0  0.00000000000E+00  0.00000000000E+00  0.45593999997E+02  0.45594000000E+02  0.51100000000E-03 0.  1.
         11   -1    0    0    0    0 -0.00000000000E+00 -0.00000000000E+00 -0.45593999997E+02  0.45594000000E+02  0.51100000000E-03 0. -1.
    9900012    2    1    2    0    0 -0.42628709018E+01 -0.33408799494E+02  0.22778321718E+02  0.50528783428E+02  0.29999767708E+02 0.  0.
         12    1    1    2    0    0  0.42628709018E+01  0.33408799494E+02 -0.22778321718E+02  0.40659216572E+02  0.00000000000E+00 0. -1.
         11    1    3    3    0    0 -0.40025812393E+01  0.18160832776E+01  0.74927695006E+01  0.86867951569E+01  0.51100000000E-03 0.  1.
        -11    1    3    3    0    0 -0.53478156365E+01 -0.32676012823E+02  0.14300891701E+02  0.36067110361E+02  0.51100000000E-03 0. -1.
         12    1    3    3    0    0  0.50875259739E+01 -0.25488699488E+01  0.98466051666E+00  0.57748779108E+01  0.00000000000E+00 0. -1.
</event>
<event>
 7    1  0.5910662E-013  0.5052886E+02  0.7816164E-02  0.1300439E+00
        -11   -1    0    0    0    0  0.00000000000E+00  0.00000000000E+00  0.45593999997E+02  0.45594000000E+02  0.51100000000E-03 0. -1.
         11   -1    0    0    0    0 -0.00000000000E+00 -0.00000000000E+00 -0.45593999997E+02  0.45594000000E+02  0.51100000000E-03 0.  1.
    9900012    2    1    2    0    0 -0.27046480222E+01  0.12281276940E+02 -0.38665503575E+02  0.50528855261E+02  0.29999986052E+02 0.  0.
         12    1    1    2    0    0  0.27046480222E+01 -0.12281276940E+02  0.38665503575E+02  0.40659144739E+02  0.00000000000E+00 0. -1.
         11    1    3    3    0    0  0.32682869212E+01  0.85815342874E+01 -0.15231442988E+01  0.93082973170E+01  0.51100000000E-03 0. -1.
        -11    1    3    3    0    0 -0.36477669497E+00  0.92294504009E+01 -0.25869034907E+02  0.27468578121E+02  0.51100000000E-03 0.  1.
         12    1    3    3    0    0 -0.56081582484E+01 -0.55297077483E+01 -0.11273324369E+02  0.13751979823E+02  0.00000000000E+00 0. -1.
</event>
<event>
 7    1  0.5910662E-013  0.5052886E+02  0.7816164E-02  0.1300439E+00
        -11   -1    0    0    0    0  0.00000000000E+00  0.00000000000E+00  0.45593999997E+02  0.45594000000E+02  0.51100000000E-03 0. -1.
         11   -1    0    0    0    0 -0.00000000000E+00 -0.00000000000E+00 -0.45593999997E+02  0.45594000000E+02  0.51100000000E-03 0.  1.
    9900012    2    1    2    0    0 -0.11108872270E+02 -0.16067495945E+02 -0.35659421296E+02  0.50528858393E+02  0.29999995571E+02 0.  0.
         12    1    1    2    0    0  0.11108872270E+02  0.16067495945E+02  0.35659421296E+02  0.40659141607E+02  0.00000000000E+00 0. -1.
         11    1    3    3    0    0 -0.58758765699E+01  0.30582550622E+01  0.23166259958E+01  0.70175213398E+01  0.51100000000E-03 0. -1.
        -11    1    3    3    0    0 -0.62485043138E+01 -0.17238264625E+02 -0.29217912339E+02  0.34494752864E+02  0.51100000000E-03 0.  1.
        -12    1    3    3    0    0  0.10155086136E+01 -0.18874863820E+01 -0.87581349529E+01  0.90165841891E+01  0.00000000000E+00 0.  1.
</event>
<event>
 7    1  0.5910662E-013  0.5052887E+02  0.7816164E-02  0.1300439E+00
        -11   -1    0    0    0    0  0.00000000000E+00  0.00000000000E+00  0.45593999997E+02  0.45594000000E+02  0.51100000000E-03 0. -1.
         11   -1    0    0    0    0 -0.00000000000E+00 -0.00000000000E+00 -0.45593999997E+02  0.45594000000E+02  0.51100000000E-03 0.  1.
    9900012    2    1    2    0    0  0.12667651919E+02  0.93920897634E+01 -0.37476449595E+02  0.50528867822E+02  0.30000024231E+02 0.  0.
         12    1    1    2    0    0 -0.12667651919E+02 -0.93920897634E+01  0.37476449595E+02  0.40659132178E+02  0.00000000000E+00 0. -1.
         11    1    3    3    0    0  0.44164926915E+01 -0.73154983276E+01 -0.95954131295E+01  0.12848886211E+02  0.51100000000E-03 0. -1.
        -11    1    3    3    0    0  0.13203820895E+02  0.15172698260E+02 -0.21202521479E+02  0.29224964945E+02  0.51100000000E-03 0.  1.
        -12    1    3    3    0    0 -0.49526616678E+01  0.15348898307E+01 -0.66785149862E+01  0.84550166652E+01  0.00000000000E+00 0.  1.
</event>
<event>
 7    1  0.5910662E-013  0.5052886E+02  0.7816164E-02  0.1300439E+00
        -11   -1    0    0    0    0  0.00000000000E+00  0.00000000000E+00  0.45593999997E+02  0.45594000000E+02  0.51100000000E-03 0.  1.
         11   -1    0    0    0    0 -0.00000000000E+00 -0.00000000000E+00 -0.45593999997E+02  0.45594000000E+02  0.51100000000E-03 0. -1.
    9900012    2    1    2    0    0 -0.25368438751E+01 -0.11632999499E+02  0.38876769894E+02  0.50528862139E+02  0.30000006959E+02 0.  0.
         12    1    1    2    0    0  0.25368438751E+01  0.11632999499E+02 -0.38876769894E+02  0.40659137861E+02  0.00000000000E+00 0. -1.
         11    1    3    3    0    0 -0.28508832486E+01  0.89181675426E+00  0.40291984005E+00  0.30141693845E+01  0.51100000000E-03 0. -1.
        -11    1    3    3    0    0  0.87237985334E+01 -0.15810838625E+02  0.19958785687E+02  0.26915430616E+02  0.51100000000E-03 0.  1.
        -12    1    3    3    0    0 -0.84097591599E+01  0.32860223718E+01  0.18515064367E+02  0.20599262139E+02  0.00000000000E+00 0.  1.
</event>
<event>
 7    1  0.5910662E-013  0.5052886E+02  0.7816164E-02  0.1300439E+00
        -11   -1    0    0    0    0  0.00000000000E+00  0.00000000000E+00  0.45593999997E+02  0.45594000000E+02  0.51100000000E-03 0.  1.
         11   -1    0    0    0    0 -0.00000000000E+00 -0.00000000000E+00 -0.45593999997E+02  0.45594000000E+02  0.51100000000E-03 0. -1.
    9900012    2    1    2    0    0  0.11645726120E+02  0.29519078102E+02  0.25419811354E+02  0.50528859353E+02  0.29999998490E+02 0.  0.
         12    1    1    2    0    0 -0.11645726120E+02 -0.29519078102E+02 -0.25419811354E+02  0.40659140647E+02  0.00000000000E+00 0. -1.
         11    1    3    3    0    0  0.88267692490E+01  0.34172824879E+02  0.23565709916E+02  0.42438620379E+02  0.51100000000E-03 0. -1.
        -11    1    3    3    0    0  0.33840236276E+01 -0.55307606446E+01  0.67980914493E+00  0.65194378558E+01  0.51100000000E-03 0.  1.
         12    1    3    3    0    0 -0.56506675676E+00  0.87701386810E+00  0.11742922927E+01  0.15708011183E+01  0.00000000000E+00 0. -1.
</event>
<event>
 7    1  0.5910662E-013  0.5052886E+02  0.7816164E-02  0.1300439E+00
        -11   -1    0    0    0    0  0.00000000000E+00  0.00000000000E+00  0.45593999997E+02  0.45594000000E+02  0.51100000000E-03 0. -1.
         11   -1    0    0    0    0 -0.00000000000E+00 -0.00000000000E+00 -0.45593999997E+02  0.45594000000E+02  0.51100000000E-03 0.  1.
    9900012    2    1    2    0    0  0.91248078593E+01 -0.13363997457E+02 -0.37300231315E+02  0.50528858313E+02  0.29999995329E+02 0.  0.
         12    1    1    2    0    0 -0.91248078593E+01  0.13363997457E+02  0.37300231315E+02  0.40659141687E+02  0.00000000000E+00 0. -1.
         11    1    3    3    0    0 -0.23996701191E+01 -0.92462993249E+01 -0.96278227045E-01  0.95531009438E+01  0.51100000000E-03 0. -1.
        -11    1    3    3    0    0  0.10009299122E+02 -0.63943187005E+00 -0.12714885375E+02  0.16194543908E+02  0.51100000000E-03 0.  1.
         12    1    3    3    0    0  0.15151788566E+01 -0.34782662624E+01 -0.24489067713E+02  0.24781213461E+02  0.00000000000E+00 0. -1.
</event>
<event>
 7    1  0.5910662E-013  0.5052886E+02  0.7816164E-02  0.1300439E+00
        -11   -1    0    0    0    0  0.00000000000E+00  0.00000000000E+00  0.45593999997E+02  0.45594000000E+02  0.51100000000E-03 0. -1.
         11   -1    0    0    0    0 -0.00000000000E+00 -0.00000000000E+00 -0.45593999997E+02  0.45594000000E+02  0.51100000000E-03 0.  1.
    9900012    2    1    2    0    0 -0.21281485633E+02 -0.93298933359E+00 -0.34632261879E+02  0.50528860034E+02  0.30000000561E+02 0.  0.
         12    1    1    2    0    0  0.21281485633E+02  0.93298933359E+00  0.34632261879E+02  0.40659139966E+02  0.00000000000E+00 0. -1.
         11    1    3    3    0    0  0.53729305146E+01  0.10137905709E+01 -0.13470139977E+02  0.14537565990E+02  0.51100000000E-03 0. -1.
        -11    1    3    3    0    0 -0.88629298020E+01 -0.47230160629E+01 -0.12426620594E+02  0.15977462410E+02  0.51100000000E-03 0.  1.
         12    1    3    3    0    0 -0.17791486346E+02  0.27762361583E+01 -0.87355013081E+01  0.20013831635E+02  0.00000000000E+00 0. -1.
</event>
<event>
 7    1  0.5910662E-013  0.5052889E+02  0.7816164E-02  0.1300439E+00
        -11   -1    0    0    0    0  0.00000000000E+00  0.00000000000E+00  0.45593999997E+02  0.45594000000E+02  0.51100000000E-03 0. -1.
         11   -1    0    0    0    0 -0.00000000000E+00 -0.00000000000E+00 -0.45593999997E+02  0.45594000000E+02  0.51100000000E-03 0.  1.
    9900012    2    1    2    0    0 -0.19857354522E+02 -0.87629705826E+01 -0.34381082126E+02  0.50528892900E+02  0.30000100459E+02 0.  0.
         12    1    1    2    0    0  0.19857354522E+02  0.87629705826E+01  0.34381082126E+02  0.40659107100E+02  0.00000000000E+00 0. -1.
         11    1    3    3    0    0  0.18636516117E+01 -0.13872301394E+01  0.14535418578E+01  0.27405088913E+01  0.51100000000E-03 0. -1.
        -11    1    3    3    0    0 -0.19550636134E+02 -0.27589952466E+01 -0.37534787579E+02  0.42411080001E+02  0.51100000000E-03 0.  1.
        -12    1    3    3    0    0 -0.21703699996E+01 -0.46167451966E+01  0.17001635951E+01  0.53773040081E+01  0.00000000000E+00 0.  1.
</event>
<event>
 7    1  0.5910662E-013  0.5052887E+02  0.7816164E-02  0.1300439E+00
        -11   -1    0    0    0    0  0.00000000000E+00  0.00000000000E+00  0.45593999997E+02  0.45594000000E+02  0.51100000000E-03 0.  1.
         11   -1    0    0    0    0 -0.00000000000E+00 -0.00000000000E+00 -0.45593999997E+02  0.45594000000E+02  0.51100000000E-03 0. -1.
    9900012    2    1    2    0    0  0.19943452955E+01 -0.37251002278E+02  0.16172520333E+02  0.50528868211E+02  0.30000025415E+02 0.  0.
         12    1    1    2    0    0 -0.19943452955E+01  0.37251002278E+02 -0.16172520333E+02  0.40659131789E+02  0.00000000000E+00 0. -1.
         11    1    3    3    0    0  0.91069470614E+01 -0.49344379598E+01 -0.20146684608E+01  0.10551969107E+02  0.51100000000E-03 0. -1.
        -11    1    3    3    0    0  0.23292170460E+00 -0.13012891840E+02  0.13590968754E+02  0.18817652311E+02  0.51100000000E-03 0.  1.
         12    1    3    3    0    0 -0.73455234705E+01 -0.19303672479E+02  0.45962200397E+01  0.21159246794E+02  0.00000000000E+00 0. -1.
</event>
<event>
 7    1  0.6189852E-013  0.5052886E+02  0.7816164E-02  0.1300439E+00
        -11   -1    0    0    0    0  0.00000000000E+00  0.00000000000E+00  0.45593999997E+02  0.45594000000E+02  0.51100000000E-03 0. -1.
         11   -1    0    0    0    0 -0.00000000000E+00 -0.00000000000E+00 -0.45593999997E+02  0.45594000000E+02  0.51100000000E-03 0.  1.
    9900012    2    1    2    0    0  0.36779981538E+02  0.11694894883E+02 -0.12791726310E+02  0.50528857483E+02  0.29999992805E+02 0.  0.
         12    1    1    2    0    0 -0.36779981538E+02 -0.11694894883E+02  0.12791726310E+02  0.40659142517E+02  0.00000000000E+00 0. -1.
         11    1    3    3    0    0  0.19990797813E+00  0.85187765778E+00  0.40781877540E+01  0.41710039992E+01  0.51100000000E-03 0. -1.
        -11    1    3    3    0    0  0.35136226095E+02  0.32063411971E+01 -0.12434111666E+02  0.37409118424E+02  0.51100000000E-03 0.  1.
        -12    1    3    3    0    0  0.14438474645E+01  0.76366760276E+01 -0.44358023979E+01  0.89487350595E+01  0.00000000000E+00 0.  1.
</event>
<event>
 7    1  0.5910662E-013  0.5052886E+02  0.7816164E-02  0.1300439E+00
        -11   -1    0    0    0    0  0.00000000000E+00  0.00000000000E+00  0.45593999997E+02  0.45594000000E+02  0.51100000000E-03 0.  1.
         11   -1    0    0    0    0 -0.00000000000E+00 -0.00000000000E+00 -0.45593999997E+02  0.45594000000E+02  0.51100000000E-03 0. -1.
    9900012    2    1    2    0    0  0.13805008830E+02 -0.21287777785E+02  0.31771340633E+02  0.50528857887E+02  0.29999994032E+02 0.  0.
         12    1    1    2    0    0 -0.13805008830E+02  0.21287777785E+02 -0.31771340633E+02  0.40659142113E+02  0.00000000000E+00 0. -1.
         11    1    3    3    0    0  0.28388980208E+01 -0.14852186429E+02  0.27973530590E+02  0.31798823840E+02  0.51100000000E-03 0.  1.
        -11    1    3    3    0    0  0.33068800775E+01 -0.87719264492E+01 -0.94692806330E+00  0.94222514557E+01  0.51100000000E-03 0. -1.
         12    1    3    3    0    0  0.76592307316E+01  0.23363350932E+01  0.47447381060E+01  0.93077825910E+01  0.00000000000E+00 0. -1.
</event>
<event>
 7    1  0.5910662E-013  0.5052890E+02  0.7816164E-02  0.1300439E+00
        -11   -1    0    0    0    0  0.00000000000E+00  0.00000000000E+00  0.45593999997E+02  0.45594000000E+02  0.51100000000E-03 0.  1.
         11   -1    0    0    0    0 -0.00000000000E+00 -0.00000000000E+00 -0.45593999997E+02  0.45594000000E+02  0.51100000000E-03 0. -1.
    9900012    2    1    2    0    0 -0.19614764653E+02 -0.32948015951E+02  0.13522251865E+02  0.50528904547E+02  0.30000135861E+02 0.  0.
         12    1    1    2    0    0  0.19614764653E+02  0.32948015951E+02 -0.13522251865E+02  0.40659095453E+02  0.00000000000E+00 0. -1.
         11    1    3    3    0    0 -0.97882559971E+01 -0.14966173307E+02  0.23313200984E+01  0.18034171802E+02  0.51100000000E-03 0. -1.
        -11    1    3    3    0    0 -0.92644132276E+01  0.28070584732E+01  0.28870789992E+01  0.10101690707E+02  0.51100000000E-03 0.  1.
        -12    1    3    3    0    0 -0.56209542865E+00 -0.20788901118E+02  0.83038527677E+01  0.22393042038E+02  0.00000000000E+00 0.  1.
</event>
<event>
 7    1  0.5910662E-013  0.5052887E+02  0.7816164E-02  0.1300439E+00
        -11   -1    0    0    0    0  0.00000000000E+00  0.00000000000E+00  0.45593999997E+02  0.45594000000E+02  0.51100000000E-03 0.  1.
         11   -1    0    0    0    0 -0.00000000000E+00 -0.00000000000E+00 -0.45593999997E+02  0.45594000000E+02  0.51100000000E-03 0. -1.
    9900012    2    1    2    0    0  0.25010508131E+01 -0.39581165616E+02 -0.89577332652E+01  0.50528869267E+02  0.30000028625E+02 0.  0.
         12    1    1    2    0    0 -0.25010508131E+01  0.39581165616E+02  0.89577332652E+01  0.40659130733E+02  0.00000000000E+00 0. -1.
         11    1    3    3    0    0  0.42403976360E+00  0.21292493240E+01  0.31112880060E+01  0.37938932144E+01  0.51100000000E-03 0. -1.
        -11    1    3    3    0    0 -0.12142930193E+01 -0.36667316608E+02 -0.43495085295E+01  0.36944347869E+02  0.51100000000E-03 0.  1.
        -12    1    3    3    0    0  0.32913040688E+01 -0.50430983319E+01 -0.77195127417E+01  0.97906281835E+01  0.00000000000E+00 0.  1.
</event>
<event>
 7    1  0.5910662E-013  0.5052886E+02  0.7816164E-02  0.1300439E+00
        -11   -1    0    0    0    0  0.00000000000E+00  0.00000000000E+00  0.45593999997E+02  0.45594000000E+02  0.51100000000E-03 0. -1.
         11   -1    0    0    0    0 -0.00000000000E+00 -0.00000000000E+00 -0.45593999997E+02  0.45594000000E+02  0.51100000000E-03 0.  1.
    9900012    2    1    2    0    0  0.29015600521E+02 -0.27921245602E+02  0.56271667104E+01  0.50528855460E+02  0.29999986655E+02 0.  0.
         12    1    1    2    0    0 -0.29015600521E+02  0.27921245602E+02 -0.56271667104E+01  0.40659144540E+02  0.00000000000E+00 0. -1.
         11    1    3    3    0    0  0.12314521131E+02 -0.10692779195E+02  0.12519679864E+02  0.20560285546E+02  0.51100000000E-03 0. -1.
        -11    1    3    3    0    0  0.20009633855E+02 -0.16024358574E+02 -0.63025654032E+01  0.26398633405E+02  0.51100000000E-03 0.  1.
        -12    1    3    3    0    0 -0.33085544651E+01 -0.12041078331E+01 -0.58994775049E+00  0.35699365079E+01  0.00000000000E+00 0.  1.
</event>
<event>
 7    1  0.5910662E-013  0.5052885E+02  0.7816164E-02  0.1300439E+00
        -11   -1    0    0    0    0  0.00000000000E+00  0.00000000000E+00  0.45593999997E+02  0.45594000000E+02  0.51100000000E-03 0.  1.
         11   -1    0    0    0    0 -0.00000000000E+00 -0.00000000000E+00 -0.45593999997E+02  0.45594000000E+02  0.51100000000E-03 0. -1.
    9900012    2    1    2    0    0  0.38498290846E+02 -0.60726879801E+01  0.11583191115E+02  0.50528852767E+02  0.29999978469E+02 0.  0.
         12    1    1    2    0    0 -0.38498290846E+02  0.60726879801E+01 -0.11583191115E+02  0.40659147233E+02  0.00000000000E+00 0. -1.
         11    1    3    3    0    0  0.36425154740E+02  0.38338604487E+00  0.76714470774E+01  0.37226200225E+02  0.51100000000E-03 0. -1.
        -11    1    3    3    0    0  0.55689420685E+01 -0.72144660301E+01  0.31704334368E+01  0.96495224907E+01  0.51100000000E-03 0.  1.
         12    1    3    3    0    0 -0.34958059625E+01  0.75839200510E+00  0.74131060034E+00  0.36531300506E+01  0.00000000000E+00 0. -1.
</event>
<event>
 7    1  0.5910662E-013  0.5052886E+02  0.7816164E-02  0.1300439E+00
        -11   -1    0    0    0    0  0.00000000000E+00  0.00000000000E+00  0.45593999997E+02  0.45594000000E+02  0.51100000000E-03 0.  1.
         11   -1    0    0    0    0 -0.00000000000E+00 -0.00000000000E+00 -0.45593999997E+02  0.45594000000E+02  0.51100000000E-03 0. -1.
    9900012    2    1    2    0    0 -0.47942099669E+01  0.42640397900E+01  0.40149713783E+02  0.50528855869E+02  0.29999987901E+02 0.  0.
         12    1    1    2    0    0  0.47942099669E+01 -0.42640397900E+01 -0.40149713783E+02  0.40659144131E+02  0.00000000000E+00 0. -1.
         11    1    3    3    0    0 -0.10549796655E+02  0.47325461224E+01  0.15516287724E+02  0.19350720587E+02  0.51100000000E-03 0. -1.
        -11    1    3    3    0    0  0.89297995821E+01  0.67582853638E+01  0.15146439628E+02  0.18836941772E+02  0.51100000000E-03 0.  1.
        -12    1    3    3    0    0 -0.31742128944E+01 -0.72267916962E+01  0.94869864316E+01  0.12341193511E+02  0.00000000000E+00 0.  1.
</event>
<event>
 7    1  0.5910662E-013  0.5052886E+02  0.7816164E-02  0.1300439E+00
        -11   -1    0    0    0    0  0.00000000000E+00  0.00000000000E+00  0.45593999997E+02  0.45594000000E+02  0.51100000000E-03 0.  1.
         11   -1    0    0    0    0 -0.00000000000E+00 -0.00000000000E+00 -0.45593999997E+02  0.45594000000E+02  0.51100000000E-03 0. -1.
    9900012    2    1    2    0    0 -0.31171433837E+02 -0.25657647840E+02 -0.48158975006E+01  0.50528855286E+02  0.29999986126E+02 0.  0.
         12    1    1    2    0    0  0.31171433837E+02  0.25657647840E+02  0.48158975006E+01  0.40659144714E+02  0.00000000000E+00 0. -1.
         11    1    3    3    0    0 -0.30741975714E+01 -0.18213677188E+02  0.69603462014E-01  0.18471425833E+02  0.51100000000E-03 0. -1.
        -11    1    3    3    0    0 -0.22130431734E+02 -0.10710367751E+02 -0.56061687090E+01  0.25217000494E+02  0.51100000000E-03 0.  1.
        -12    1    3    3    0    0 -0.59668045322E+01  0.32663970983E+01  0.72066774638E+00  0.68404289580E+01  0.00000000000E+00 0.  1.
</event>
<event>
 7    1  0.5910662E-013  0.5052886E+02  0.7816164E-02  0.1300439E+00
        -11   -1    0    0    0    0  0.00000000000E+00  0.00000000000E+00  0.45593999997E+02  0.45594000000E+02  0.51100000000E-03 0.  1.
         11   -1    0    0    0    0 -0.00000000000E+00 -0.00000000000E+00 -0.45593999997E+02  0.45594000000E+02  0.51100000000E-03 0. -1.
    9900012    2    1    2    0    0 -0.21745268535E+02  0.13039142548E+02  0.31785055361E+02  0.50528859744E+02  0.29999999677E+02 0.  0.
         12    1    1    2    0    0  0.21745268535E+02 -0.13039142548E+02 -0.31785055361E+02  0.40659140256E+02  0.00000000000E+00 0. -1.
         11    1    3    3    0    0 -0.17185920360E+02  0.10739893138E-01  0.50588963544E+01  0.17915032976E+02  0.51100000000E-03 0. -1.
        -11    1    3    3    0    0  0.12797407345E+01  0.99158314113E+01  0.22858756738E+02  0.24949633440E+02  0.51100000000E-03 0.  1.
        -12    1    3    3    0    0 -0.58390889102E+01  0.31125712439E+01  0.38674022681E+01  0.76641933270E+01  0.00000000000E+00 0.  1.
</event>
<event>
 7    1  0.5910662E-013  0.5052886E+02  0.7816164E-02  0.1300439E+00
        -11   -1    0    0    0    0  0.00000000000E+00  0.00000000000E+00  0.45593999997E+02  0.45594000000E+02  0.51100000000E-03 0. -1.
         11   -1    0    0    0    0 -0.00000000000E+00 -0.00000000000E+00 -0.45593999997E+02  0.45594000000E+02  0.51100000000E-03 0.  1.
    9900012    2    1    2    0    0 -0.29666521105E+02  0.19856247875E+02 -0.19462590907E+02  0.50528862048E+02  0.30000006683E+02 0.  0.
         12    1    1    2    0    0  0.29666521105E+02 -0.19856247875E+02  0.19462590907E+02  0.40659137952E+02  0.00000000000E+00 0. -1.
         11    1    3    3    0    0 -0.18948330439E+01 -0.35169938401E+01  0.21228962150E+01  0.45239724288E+01  0.51100000000E-03 0. -1.
        -11    1    3    3    0    0 -0.21638246139E+02  0.15622171354E+02 -0.56919855648E+01  0.27288544002E+02  0.51100000000E-03 0.  1.
        -12    1    3    3    0    0 -0.61334419222E+01  0.77510703607E+01 -0.15893501557E+02  0.18716345618E+02  0.00000000000E+00 0.  1.
</event>
<event>
 7    1  0.5910662E-013  0.5052886E+02  0.7816164E-02  0.1300439E+00
        -11   -1    0    0    0    0  0.00000000000E+00  0.00000000000E+00  0.45593999997E+02  0.45594000000E+02  0.51100000000E-03 0.  1.
         11   -1    0    0    0    0 -0.00000000000E+00 -0.00000000000E+00 -0.45593999997E+02  0.45594000000E+02  0.51100000000E-03 0. -1.
    9900012    2    1    2    0    0 -0.25009760694E+02  0.16678968991E+01  0.32013992190E+02  0.50528859502E+02  0.29999998943E+02 0.  0.
         12    1    1    2    0    0  0.25009760694E+02 -0.16678968991E+01 -0.32013992190E+02  0.40659140498E+02  0.00000000000E+00 0. -1.
         11    1    3    3    0    0  0.38351833634E+01 -0.26481784376E+01  0.81866628742E+01  0.94203465831E+01  0.51100000000E-03 0. -1.
        -11    1    3    3    0    0 -0.15574853205E+02  0.96412010911E+01  0.17958648623E+02  0.25652326824E+02  0.51100000000E-03 0.  1.
        -12    1    3    3    0    0 -0.13270090853E+02 -0.53251257543E+01  0.58686806926E+01  0.15456186095E+02  0.00000000000E+00 0.  1.
</event>
<event>
 7    1  0.5910662E-013  0.5052886E+02  0.7816164E-02  0.1300439E+00
        -11   -1    0    0    0    0  0.00000000000E+00  0.00000000000E+00  0.45593999997E+02  0.45594000000E+02  0.51100000000E-03 0. -1.
         11   -1    0    0    0    0 -0.00000000000E+00 -0.00000000000E+00 -0.45593999997E+02  0.45594000000E+02  0.51100000000E-03 0.  1.
    9900012    2    1    2    0    0 -0.38012665929E+02 -0.11866416861E+02 -0.82092078194E+01  0.50528859415E+02  0.29999998677E+02 0.  0.
         12    1    1    2    0    0  0.38012665929E+02  0.11866416861E+02  0.82092078194E+01  0.40659140585E+02  0.00000000000E+00 0. -1.
         11    1    3    3    0    0 -0.15679154194E+02  0.60165142176E+01 -0.60834364771E+01  0.17861761369E+02  0.51100000000E-03 0. -1.
        -11    1    3    3    0    0 -0.20758525786E+02 -0.20184982227E+02 -0.41093612216E+01  0.29244431098E+02  0.51100000000E-03 0.  1.
        -12    1    3    3    0    0 -0.15749859484E+01  0.23020511487E+01  0.19835898793E+01  0.34226669482E+01  0.00000000000E+00 0.  1.
</event>
<event>
 7    1  0.5910662E-013  0.5052888E+02  0.7816164E-02  0.1300439E+00
        -11   -1    0    0    0    0  0.00000000000E+00  0.00000000000E+00  0.45593999997E+02  0.45594000000E+02  0.51100000000E-03 0. -1.
         11   -1    0    0    0    0 -0.00000000000E+00 -0.00000000000E+00 -0.45593999997E+02  0.45594000000E+02  0.51100000000E-03 0.  1.
    9900012    2    1    2    0    0  0.49752029803E+01  0.33995459807E+02 -0.21742129435E+02  0.50528878950E+02  0.30000058057E+02 0.  0.
         12    1    1    2    0    0 -0.49752029803E+01 -0.33995459807E+02  0.21742129435E+02  0.40659121050E+02  0.00000000000E+00 0. -1.
         11    1    3    3    0    0  0.76293684487E+01  0.97445183278E+01  0.16397306377E+01  0.12484054517E+02  0.51100000000E-03 0. -1.
        -11    1    3    3    0    0  0.21249683570E+00  0.25850196897E+02 -0.17214482074E+02  0.31058271489E+02  0.51100000000E-03 0.  1.
         12    1    3    3    0    0 -0.28666623041E+01 -0.15992554184E+01 -0.61673779985E+01  0.69865529438E+01  0.00000000000E+00 0. -1.
</event>
<event>
 7    1  0.5910662E-013  0.5052887E+02  0.7816164E-02  0.1300439E+00
        -11   -1    0    0    0    0  0.00000000000E+00  0.00000000000E+00  0.45593999997E+02  0.45594000000E+02  0.51100000000E-03 0.  1.
         11   -1    0    0    0    0 -0.00000000000E+00 -0.00000000000E+00 -0.45593999997E+02  0.45594000000E+02  0.51100000000E-03 0. -1.
    9900012    2    1    2    0    0  0.14608419361E+00 -0.25616045817E+02  0.31574705531E+02  0.50528866054E+02  0.30000018857E+02 0.  0.
         12    1    1    2    0    0 -0.14608419361E+00  0.25616045817E+02 -0.31574705531E+02  0.40659133946E+02  0.00000000000E+00 0. -1.
         11    1    3    3    0    0 -0.95091911918E+01 -0.48316582072E+01  0.32841229343E+00  0.10671339796E+02  0.51100000000E-03 0. -1.
        -11    1    3    3    0    0  0.67619040989E+01 -0.82515932644E+01  0.81649766800E+01  0.13434246644E+02  0.51100000000E-03 0.  1.
         12    1    3    3    0    0  0.28933712865E+01 -0.12532794345E+02  0.23081316558E+02  0.26423279614E+02  0.00000000000E+00 0. -1.
</event>
<event>
 7    1  0.5910662E-013  0.5052891E+02  0.7816164E-02  0.1300439E+00
        -11   -1    0    0    0    0  0.00000000000E+00  0.00000000000E+00  0.45593999997E+02  0.45594000000E+02  0.51100000000E-03 0.  1.
         11   -1    0    0    0    0 -0.00000000000E+00 -0.00000000000E+00 -0.45593999997E+02  0.45594000000E+02  0.51100000000E-03 0. -1.
    9900012    2    1    2    0    0 -0.22476678414E+02 -0.90798092689E+01  0.32642268972E+02  0.50528908365E+02  0.30000147467E+02 0.  0.
         12    1    1    2    0    0  0.22476678414E+02  0.90798092689E+01 -0.32642268972E+02  0.40659091635E+02  0.00000000000E+00 0. -1.
         11    1    3    3    0    0  0.53207940175E+01  0.47845762587E+01  0.56374203318E+01  0.91095294724E+01  0.51100000000E-03 0. -1.
        -11    1    3    3    0    0 -0.12569539934E+02 -0.86913843956E+01  0.12100212146E+02  0.19492271061E+02  0.51100000000E-03 0.  1.
         12    1    3    3    0    0 -0.15227932497E+02 -0.51730011320E+01  0.14904636495E+02  0.21927107832E+02  0.00000000000E+00 0. -1.
</event>
<event>
 7    1  0.5910662E-013  0.5052886E+02  0.7816164E-02  0.1300439E+00
        -11   -1    0    0    0    0  0.00000000000E+00  0.00000000000E+00  0.45593999997E+02  0.45594000000E+02  0.51100000000E-03 0. -1.
         11   -1    0    0    0    0 -0.00000000000E+00 -0.00000000000E+00 -0.45593999997E+02  0.45594000000E+02  0.51100000000E-03 0.  1.
    9900012    2    1    2    0    0  0.38539969117E+00 -0.37210653333E+02 -0.16382430131E+02  0.50528864847E+02  0.30000015188E+02 0.  0.
         12    1    1    2    0    0 -0.38539969117E+00  0.37210653333E+02  0.16382430131E+02  0.40659135153E+02  0.00000000000E+00 0. -1.
         11    1    3    3    0    0  0.14590609901E+02 -0.17765256083E+02 -0.51878212603E+01  0.23567004703E+02  0.51100000000E-03 0. -1.
        -11    1    3    3    0    0 -0.98568614737E+01 -0.14484645695E+02 -0.58482504490E+01  0.18470644618E+02  0.51100000000E-03 0.  1.
         12    1    3    3    0    0 -0.43483487366E+01 -0.49607515552E+01 -0.53463584218E+01  0.84912155255E+01  0.00000000000E+00 0. -1.
</event>
<event>
 7    1  0.5910662E-013  0.5052885E+02  0.7816164E-02  0.1300439E+00
        -11   -1    0    0    0    0  0.00000000000E+00  0.00000000000E+00  0.45593999997E+02  0.45594000000E+02  0.51100000000E-03 0.  1.
         11   -1    0    0    0    0 -0.00000000000E+00 -0.00000000000E+00 -0.45593999997E+02  0.45594000000E+02  0.51100000000E-03 0. -1.
    9900012    2    1    2    0    0 -0.17105604769E+02  0.25433532723E+02  0.26715172328E+02  0.50528846863E+02  0.29999960525E+02 0.  0.
         12    1    1    2    0    0  0.17105604769E+02 -0.25433532723E+02 -0.26715172328E+02  0.40659153137E+02  0.00000000000E+00 0. -1.
         11    1    3    3    0    0 -0.15335595050E+02  0.10071604735E+02  0.90090917610E+01  0.20439702349E+02  0.51100000000E-03 0. -1.
        -11    1    3    3    0    0 -0.19764812041E-01  0.19533685753E+02  0.12494515590E+02  0.23187888861E+02  0.51100000000E-03 0.  1.
         12    1    3    3    0    0 -0.17502449068E+01 -0.41717577648E+01  0.52115649769E+01  0.69012556532E+01  0.00000000000E+00 0. -1.
</event>
<event>
 7    1  0.5910662E-013  0.5052887E+02  0.7816164E-02  0.1300439E+00
        -11   -1    0    0    0    0  0.00000000000E+00  0.00000000000E+00  0.45593999997E+02  0.45594000000E+02  0.51100000000E-03 0. -1.
         11   -1    0    0    0    0 -0.00000000000E+00 -0.00000000000E+00 -0.45593999997E+02  0.45594000000E+02  0.51100000000E-03 0.  1.
    9900012    2    1    2    0    0  0.36315742424E+02  0.14969365217E+02 -0.10499987509E+02  0.50528870884E+02  0.30000033539E+02 0.  0.
         12    1    1    2    0    0 -0.36315742424E+02 -0.14969365217E+02  0.10499987509E+02  0.40659129116E+02  0.00000000000E+00 0. -1.
         11    1    3    3    0    0  0.21426915485E+02 -0.55151102437E+01 -0.10469604198E+02  0.24477372419E+02  0.51100000000E-03 0. -1.
        -11    1    3    3    0    0  0.14278483802E+02  0.19061554669E+02  0.15142984814E+01  0.23864430985E+02  0.51100000000E-03 0.  1.
         12    1    3    3    0    0  0.61034313692E+00  0.14229207920E+01 -0.15446817920E+01  0.21870674804E+01  0.00000000000E+00 0. -1.
</event>
<event>
 7    1  0.5910662E-013  0.5052890E+02  0.7816164E-02  0.1300439E+00
        -11   -1    0    0    0    0  0.00000000000E+00  0.00000000000E+00  0.45593999997E+02  0.45594000000E+02  0.51100000000E-03 0. -1.
         11   -1    0    0    0    0 -0.00000000000E+00 -0.00000000000E+00 -0.45593999997E+02  0.45594000000E+02  0.51100000000E-03 0.  1.
    9900012    2    1    2    0    0 -0.17174306569E+02  0.36278482327E+02 -0.64867219349E+01  0.50528897113E+02  0.30000113265E+02 0.  0.
         12    1    1    2    0    0  0.17174306569E+02 -0.36278482327E+02  0.64867219349E+01  0.40659102887E+02  0.00000000000E+00 0. -1.
         11    1    3    3    0    0 -0.27107375904E+01  0.24171206665E+02  0.15234112510E+01  0.24370394170E+02  0.51100000000E-03 0. -1.
        -11    1    3    3    0    0 -0.33014802446E+00  0.43880052611E+01 -0.90061329776E+01  0.10023672948E+02  0.51100000000E-03 0.  1.
         12    1    3    3    0    0 -0.14133420954E+02  0.77192704015E+01  0.99599979169E+00  0.16134829995E+02  0.00000000000E+00 0. -1.
</event>
<event>
 7    1  0.5910662E-013  0.5052884E+02  0.7816164E-02  0.1300439E+00
        -11   -1    0    0    0    0  0.00000000000E+00  0.00000000000E+00  0.45593999997E+02  0.45594000000E+02  0.51100000000E-03 0.  1.
         11   -1    0    0    0    0 -0.00000000000E+00 -0.00000000000E+00 -0.45593999997E+02  0.45594000000E+02  0.51100000000E-03 0. -1.
    9900012    2    1    2    0    0  0.34692433116E+02 -0.21201350250E+02 -0.32413036075E+00  0.50528840780E+02  0.29999942036E+02 0.  0.
         12    1    1    2    0    0 -0.34692433116E+02  0.21201350250E+02  0.32413036075E+00  0.40659159220E+02  0.00000000000E+00 0. -1.
         11    1    3    3    0    0  0.14179867045E+02 -0.13474479103E+02  0.10627460910E+02  0.22261472147E+02  0.51100000000E-03 0. -1.
        -11    1    3    3    0    0  0.11689160421E+02 -0.11386881752E+02 -0.85266545049E+01  0.18411990243E+02  0.51100000000E-03 0.  1.
         12    1    3    3    0    0  0.88234056505E+01  0.36600106052E+01 -0.24249367656E+01  0.98553783905E+01  0.00000000000E+00 0. -1.
</event>
<event>
 7    1  0.5910662E-013  0.5052886E+02  0.7816164E-02  0.1300439E+00
        -11   -1    0    0    0    0  0.00000000000E+00  0.00000000000E+00  0.45593999997E+02  0.45594000000E+02  0.51100000000E-03 0. -1.
         11   -1    0    0    0    0 -0.00000000000E+00 -0.00000000000E+00 -0.45593999997E+02  0.45594000000E+02  0.51100000000E-03 0.  1.
    9900012    2    1    2    0    0  0.29940760446E+01 -0.30864149305E+02 -0.26298393710E+02  0.50528859387E+02  0.29999998592E+02 0.  0.
         12    1    1    2    0    0 -0.29940760446E+01  0.30864149305E+02  0.26298393710E+02  0.40659140613E+02  0.00000000000E+00 0. -1.
         11    1    3    3    0    0  0.31523180926E+01 -0.99582112979E+01 -0.12525331374E+02  0.16309108127E+02  0.51100000000E-03 0. -1.
        -11    1    3    3    0    0 -0.10038512579E+02 -0.30719218309E+01 -0.74529901199E+01  0.12874606810E+02  0.51100000000E-03 0.  1.
        -12    1    3    3    0    0  0.98802705309E+01 -0.17834016176E+02 -0.63200722161E+01  0.21345144449E+02  0.00000000000E+00 0.  1.
</event>
<event>
 7    1  0.5910662E-013  0.5052886E+02  0.7816164E-02  0.1300439E+00
        -11   -1    0    0    0    0  0.00000000000E+00  0.00000000000E+00  0.45593999997E+02  0.45594000000E+02  0.51100000000E-03 0. -1.
         11   -1    0    0    0    0 -0.00000000000E+00 -0.00000000000E+00 -0.45593999997E+02  0.45594000000E+02  0.51100000000E-03 0.  1.
    9900012    2    1    2    0    0 -0.38800857618E+02 -0.17690371870E+01  0.12022045931E+02  0.50528860403E+02  0.30000001680E+02 0.  0.
         12    1    1    2    0    0  0.38800857618E+02  0.17690371870E+01 -0.12022045931E+02  0.40659139597E+02  0.00000000000E+00 0. -1.
         11    1    3    3    0    0 -0.13718517041E+02  0.91350436966E+00  0.14875559923E+02  0.20256220855E+02  0.51100000000E-03 0. -1.
        -11    1    3    3    0    0 -0.25608421066E+02  0.16996649753E+01 -0.17571986610E+01  0.25724848647E+02  0.51100000000E-03 0.  1.
         12    1    3    3    0    0  0.52608048928E+00 -0.43822065320E+01 -0.10963153311E+01  0.45477909006E+01  0.00000000000E+00 0. -1.
</event>
<event>
 7    1  0.5910662E-013  0.5052886E+02  0.7816164E-02  0.1300439E+00
        -11   -1    0    0    0    0  0.00000000000E+00  0.00000000000E+00  0.45593999997E+02  0.45594000000E+02  0.51100000000E-03 0.  1.
         11   -1    0    0    0    0 -0.00000000000E+00 -0.00000000000E+00 -0.45593999997E+02  0.45594000000E+02  0.51100000000E-03 0. -1.
    9900012    2    1    2    0    0  0.99182247221E+01 -0.27205569491E+02  0.28542102294E+02  0.50528858392E+02  0.29999995567E+02 0.  0.
         12    1    1    2    0    0 -0.99182247221E+01  0.27205569491E+02 -0.28542102294E+02  0.40659141608E+02  0.00000000000E+00 0. -1.
         11    1    3    3    0    0  0.97814574335E+01 -0.10141916467E+02  0.49969085604E+01  0.14950066039E+02  0.51100000000E-03 0. -1.
        -11    1    3    3    0    0 -0.47924375763E+01 -0.67431223851E+01  0.22641984972E+02  0.24105946178E+02  0.51100000000E-03 0.  1.
        -12    1    3    3    0    0  0.49292048649E+01 -0.10320530639E+02  0.90320876181E+00  0.11472846174E+02  0.00000000000E+00 0.  1.
</event>
<event>
 7    1  0.5910662E-013  0.5052886E+02  0.7816164E-02  0.1300439E+00
        -11   -1    0    0    0    0  0.00000000000E+00  0.00000000000E+00  0.45593999997E+02  0.45594000000E+02  0.51100000000E-03 0.  1.
         11   -1    0    0    0    0 -0.00000000000E+00 -0.00000000000E+00 -0.45593999997E+02  0.45594000000E+02  0.51100000000E-03 0. -1.
    9900012    2    1    2    0    0  0.20815799207E+02  0.27740813623E+02  0.21220640830E+02  0.50528857924E+02  0.29999994147E+02 0.  0.
         12    1    1    2    0    0 -0.20815799207E+02 -0.27740813623E+02 -0.21220640830E+02  0.40659142076E+02  0.00000000000E+00 0. -1.
         11    1    3    3    0    0  0.19876729448E+02  0.10098445474E+02  0.22025890970E+01  0.22403445572E+02  0.51100000000E-03 0. -1.
        -11    1    3    3    0    0  0.20702074222E+01  0.10471317046E+02  0.17813161509E+02  0.20766390218E+02  0.51100000000E-03 0.  1.
         12    1    3    3    0    0 -0.11311376625E+01  0.71710511026E+01  0.12048902236E+01  0.73590221347E+01  0.00000000000E+00 0. -1.
</event>
<event>
 7    1  0.5910662E-013  0.5052886E+02  0.7816164E-02  0.1300439E+00
        -11   -1    0    0    0    0  0.00000000000E+00  0.00000000000E+00  0.45593999997E+02  0.45594000000E+02  0.51100000000E-03 0.  1.
         11   -1    0    0    0    0 -0.00000000000E+00 -0.00000000000E+00 -0.45593999997E+02  0.45594000000E+02  0.51100000000E-03 0. -1.
    9900012    2    1    2    0    0  0.15054467700E+02  0.16520503472E+02  0.33964707558E+02  0.50528863361E+02  0.30000010674E+02 0.  0.
         12    1    1    2    0    0 -0.15054467700E+02 -0.16520503472E+02 -0.33964707558E+02  0.40659136639E+02  0.00000000000E+00 0. -1.
         11    1    3    3    0    0 -0.25697421842E+01 -0.21919946912E+01  0.55766850897E+00  0.34233623890E+01  0.51100000000E-03 0. -1.
        -11    1    3    3    0    0  0.18729669961E+02  0.64827347146E+01  0.14487330157E+02  0.24550134858E+02  0.51100000000E-03 0.  1.
        -12    1    3    3    0    0 -0.11054600766E+01  0.12229763449E+02  0.18919708892E+02  0.22555366114E+02  0.00000000000E+00 0.  1.
</event>
<event>
 7    1  0.5910662E-013  0.5052886E+02  0.7816164E-02  0.1300439E+00
        -11   -1    0    0    0    0  0.00000000000E+00  0.00000000000E+00  0.45593999997E+02  0.45594000000E+02  0.51100000000E-03 0. -1.
         11   -1    0    0    0    0 -0.00000000000E+00 -0.00000000000E+00 -0.45593999997E+02  0.45594000000E+02  0.51100000000E-03 0.  1.
    9900012    2    1    2    0    0  0.11409922374E+02 -0.38813495009E+02 -0.40610259986E+01  0.50528860123E+02  0.30000000830E+02 0.  0.
         12    1    1    2    0    0 -0.11409922374E+02  0.38813495009E+02  0.40610259986E+01  0.40659139877E+02  0.00000000000E+00 0. -1.
         11    1    3    3    0    0  0.11612839926E+02 -0.17802571595E+01  0.37173642008E+01  0.12322587535E+02  0.51100000000E-03 0. -1.
        -11    1    3    3    0    0  0.18390510476E+01 -0.24241836737E+02 -0.34854740836E+01  0.24560075061E+02  0.51100000000E-03 0.  1.
        -12    1    3    3    0    0 -0.20419685992E+01 -0.12791401112E+02 -0.42929161159E+01  0.13646197527E+02  0.00000000000E+00 0.  1.
</event>
<event>
 7    1  0.5910662E-013  0.5052877E+02  0.7816164E-02  0.1300439E+00
        -11   -1    0    0    0    0  0.00000000000E+00  0.00000000000E+00  0.45593999997E+02  0.45594000000E+02  0.51100000000E-03 0.  1.
         11   -1    0    0    0    0 -0.00000000000E+00 -0.00000000000E+00 -0.45593999997E+02  0.45594000000E+02  0.51100000000E-03 0. -1.
    9900012    2    1    2    0    0  0.22673014686E+02  0.47945266957E+01  0.33408386406E+02  0.50528765336E+02  0.29999712714E+02 0.  0.
         12    1    1    2    0    0 -0.22673014686E+02 -0.47945266957E+01 -0.33408386406E+02  0.40659234664E+02  0.00000000000E+00 0. -1.
         11    1    3    3    0    0  0.40277154771E+01  0.96781779858E+00 -0.24504047571E+00  0.41496033969E+01  0.51100000000E-03 0. -1.
        -11    1    3    3    0    0  0.92320492215E+01  0.29361652516E+01  0.35454189737E+02  0.36753929985E+02  0.51100000000E-03 0.  1.
        -12    1    3    3    0    0  0.94132499874E+01  0.89054364546E+00 -0.18007628546E+01  0.96252319541E+01  0.00000000000E+00 0.  1.
</event>
<event>
 7    1  0.5910662E-013  0.5052875E+02  0.7816164E-02  0.1300439E+00
        -11   -1    0    0    0    0  0.00000000000E+00  0.00000000000E+00  0.45593999997E+02  0.45594000000E+02  0.51100000000E-03 0.  1.
         11   -1    0    0    0    0 -0.00000000000E+00 -0.00000000000E+00 -0.45593999997E+02  0.45594000000E+02  0.51100000000E-03 0. -1.
    9900012    2    1    2    0    0  0.24041120947E+02 -0.27381886603E+02  0.18039725444E+02  0.50528746386E+02  0.29999655113E+02 0.  0.
         12    1    1    2    0    0 -0.24041120947E+02  0.27381886603E+02 -0.18039725444E+02  0.40659253614E+02  0.00000000000E+00 0. -1.
         11    1    3    3    0    0 -0.15897834233E+01 -0.37104801505E+01  0.45687111062E+01  0.60965724562E+01  0.51100000000E-03 0. -1.
        -11    1    3    3    0    0  0.21233732689E+02 -0.26585386638E+02  0.49104357610E+01  0.34376831823E+02  0.51100000000E-03 0.  1.
        -12    1    3    3    0    0  0.43971716810E+01  0.29139801849E+01  0.85605785767E+01  0.10055342106E+02  0.00000000000E+00 0.  1.
</event>
<event>
 7    1  0.5910662E-013  0.5052886E+02  0.7816164E-02  0.1300439E+00
        -11   -1    0    0    0    0  0.00000000000E+00  0.00000000000E+00  0.45593999997E+02  0.45594000000E+02  0.51100000000E-03 0.  1.
         11   -1    0    0    0    0 -0.00000000000E+00 -0.00000000000E+00 -0.45593999997E+02  0.45594000000E+02  0.51100000000E-03 0. -1.
    9900012    2    1    2    0    0  0.30626538705E+02  0.25885143190E+02  0.67186372349E+01  0.50528860839E+02  0.30000003006E+02 0.  0.
         12    1    1    2    0    0 -0.30626538705E+02 -0.25885143190E+02 -0.67186372349E+01  0.40659139161E+02  0.00000000000E+00 0. -1.
         11    1    3    3    0    0  0.33497422376E+02  0.13821655945E+02  0.12272516597E+01  0.36257711260E+02  0.51100000000E-03 0. -1.
        -11    1    3    3    0    0 -0.65024305462E+00  0.92372074426E+01  0.24913704164E+01  0.95893557751E+01  0.51100000000E-03 0.  1.
         12    1    3    3    0    0 -0.22206406166E+01  0.28262798022E+01  0.30000151588E+01  0.46817938038E+01  0.00000000000E+00 0. -1.
</event>
<event>
 7    1  0.5910662E-013  0.5052886E+02  0.7816164E-02  0.1300439E+00
        -11   -1    0    0    0    0  0.00000000000E+00  0.00000000000E+00  0.45593999997E+02  0.45594000000E+02  0.51100000000E-03 0.  1.
         11   -1    0    0    0    0 -0.00000000000E+00 -0.00000000000E+00 -0.45593999997E+02  0.45594000000E+02  0.51100000000E-03 0. -1.
    9900012    2    1    2    0    0  0.35821427623E+02  0.82962574103E+01  0.17354060368E+02  0.50528856192E+02  0.29999988880E+02 0.  0.
         12    1    1    2    0    0 -0.35821427623E+02 -0.82962574103E+01 -0.17354060368E+02  0.40659143808E+02  0.00000000000E+00 0. -1.
         11    1    3    3    0    0  0.20797849864E+02  0.10753489014E+02 -0.13831269913E+01  0.23454234702E+02  0.51100000000E-03 0. -1.
        -11    1    3    3    0    0  0.33684657362E+00 -0.43316992253E+01  0.67362332531E+01  0.80158544457E+01  0.51100000000E-03 0.  1.
         12    1    3    3    0    0  0.14686731186E+02  0.18744676221E+01  0.12000954106E+02  0.19058767044E+02  0.00000000000E+00 0. -1.
</event>
<event>
 7    1  0.5910662E-013  0.5052887E+02  0.7816164E-02  0.1300439E+00
        -11   -1    0    0    0    0  0.00000000000E+00  0.00000000000E+00  0.45593999997E+02  0.45594000000E+02  0.51100000000E-03 0.  1.
         11   -1    0    0    0    0 -0.00000000000E+00 -0.00000000000E+00 -0.45593999997E+02  0.45594000000E+02  0.51100000000E-03 0. -1.
    9900012    2    1    2    0    0  0.11464997154E+02  0.30081013688E+02  0.24836487222E+02  0.50528872590E+02  0.30000038723E+02 0.  0.
         12    1    1    2    0    0 -0.11464997154E+02 -0.30081013688E+02 -0.24836487222E+02  0.40659127410E+02  0.00000000000E+00 0. -1.
         11    1    3    3    0    0  0.13536680008E+02  0.10842758916E+02 -0.14860507686E+01  0.17407339650E+02  0.51100000000E-03 0. -1.
        -11    1    3    3    0    0  0.25118193505E+00  0.16096730166E+02  0.22402526688E+02  0.27586971864E+02  0.51100000000E-03 0.  1.
         12    1    3    3    0    0 -0.23228647889E+01  0.31415246068E+01  0.39200113029E+01  0.55345610754E+01  0.00000000000E+00 0. -1.
</event>
<event>
 7    1  0.5910662E-013  0.5052886E+02  0.7816164E-02  0.1300439E+00
        -11   -1    0    0    0    0  0.00000000000E+00  0.00000000000E+00  0.45593999997E+02  0.45594000000E+02  0.51100000000E-03 0.  1.
         11   -1    0    0    0    0 -0.00000000000E+00 -0.00000000000E+00 -0.45593999997E+02  0.45594000000E+02  0.51100000000E-03 0. -1.
    9900012    2    1    2    0    0  0.64442186325E+01  0.31485405390E+02  0.24905960088E+02  0.50528861368E+02  0.30000004615E+02 0.  0.
         12    1    1    2    0    0 -0.64442186325E+01 -0.31485405390E+02 -0.24905960088E+02  0.40659138632E+02  0.00000000000E+00 0. -1.
         11    1    3    3    0    0  0.35179241735E+01 -0.35554055443E+01  0.11164415080E+02  0.12233595686E+02  0.51100000000E-03 0. -1.
        -11    1    3    3    0    0  0.46720402339E+01  0.23990738831E+02  0.79766324825E+01  0.25710118156E+02  0.51100000000E-03 0.  1.
        -12    1    3    3    0    0 -0.17457457749E+01  0.11050072104E+02  0.57649125255E+01  0.12585147526E+02  0.00000000000E+00 0.  1.
</event>
<event>
 7    1  0.5910662E-013  0.5052883E+02  0.7816164E-02  0.1300439E+00
        -11   -1    0    0    0    0  0.00000000000E+00  0.00000000000E+00  0.45593999997E+02  0.45594000000E+02  0.51100000000E-03 0.  1.
         11   -1    0    0    0    0 -0.00000000000E+00 -0.00000000000E+00 -0.45593999997E+02  0.45594000000E+02  0.51100000000E-03 0. -1.
    9900012    2    1    2    0    0  0.25921675769E+01 -0.24012452540E+01  0.40505341148E+02  0.50528831624E+02  0.29999914203E+02 0.  0.
         12    1    1    2    0    0 -0.25921675769E+01  0.24012452540E+01 -0.40505341148E+02  0.40659168376E+02  0.00000000000E+00 0. -1.
         11    1    3    3    0    0  0.19737210881E+01 -0.18508862164E+01  0.30218913519E+02  0.30339810303E+02  0.51100000000E-03 0. -1.
        -11    1    3    3    0    0  0.86789458494E+01  0.49003521315E+00  0.27825039793E+01  0.91272429694E+01  0.51100000000E-03 0.  1.
         12    1    3    3    0    0 -0.80604993606E+01 -0.10403942508E+01  0.75039236503E+01  0.11061778351E+02  0.00000000000E+00 0. -1.
</event>
<event>
 7    1  0.5910662E-013  0.5052892E+02  0.7816164E-02  0.1300439E+00
        -11   -1    0    0    0    0  0.00000000000E+00  0.00000000000E+00  0.45593999997E+02  0.45594000000E+02  0.51100000000E-03 0.  1.
         11   -1    0    0    0    0 -0.00000000000E+00 -0.00000000000E+00 -0.45593999997E+02  0.45594000000E+02  0.51100000000E-03 0. -1.
    9900012    2    1    2    0    0 -0.12774558377E+01 -0.27694621695E+02  0.29741163709E+02  0.50528920042E+02  0.30000182960E+02 0.  0.
         12    1    1    2    0    0  0.12774558377E+01  0.27694621695E+02 -0.29741163709E+02  0.40659079958E+02  0.00000000000E+00 0. -1.
         11    1    3    3    0    0 -0.12010679970E+02 -0.82427367122E+01  0.35821347596E+01  0.15001027683E+02  0.51100000000E-03 0. -1.
        -11    1    3    3    0    0  0.49071896598E+01 -0.12791614686E+02  0.21587155672E+02  0.25567776730E+02  0.51100000000E-03 0.  1.
         12    1    3    3    0    0  0.58260344722E+01 -0.66602702970E+01  0.45718732767E+01  0.99601156298E+01  0.00000000000E+00 0. -1.
</event>
<event>
 7    1  0.5910662E-013  0.5052885E+02  0.7816164E-02  0.1300439E+00
        -11   -1    0    0    0    0  0.00000000000E+00  0.00000000000E+00  0.45593999997E+02  0.45594000000E+02  0.51100000000E-03 0.  1.
         11   -1    0    0    0    0 -0.00000000000E+00 -0.00000000000E+00 -0.45593999997E+02  0.45594000000E+02  0.51100000000E-03 0. -1.
    9900012    2    1    2    0    0 -0.20150476390E+02 -0.35111521382E+02 -0.37822758267E+01  0.50528852900E+02  0.29999978874E+02 0.  0.
         12    1    1    2    0    0  0.20150476390E+02  0.35111521382E+02  0.37822758267E+01  0.40659147100E+02  0.00000000000E+00 0. -1.
         11    1    3    3    0    0  0.30288256998E+01 -0.21385399885E+02  0.17292622065E+01  0.21667936251E+02  0.51100000000E-03 0. -1.
        -11    1    3    3    0    0 -0.13506860262E+02 -0.11341005832E+02 -0.34813806603E+00  0.17640149880E+02  0.51100000000E-03 0.  1.
         12    1    3    3    0    0 -0.96724418274E+01 -0.23851156653E+01 -0.51633999672E+01  0.11220766768E+02  0.00000000000E+00 0. -1.
</event>
<event>
 7    1  0.5910662E-013  0.5052888E+02  0.7816164E-02  0.1300439E+00
        -11   -1    0    0    0    0  0.00000000000E+00  0.00000000000E+00  0.45593999997E+02  0.45594000000E+02  0.51100000000E-03 0.  1.
         11   -1    0    0    0    0 -0.00000000000E+00 -0.00000000000E+00 -0.45593999997E+02  0.45594000000E+02  0.51100000000E-03 0. -1.
    9900012    2    1    2    0    0  0.16324424000E+02  0.99261779798E+01  0.35890786241E+02  0.50528875990E+02  0.30000049060E+02 0.  0.
         12    1    1    2    0    0 -0.16324424000E+02 -0.99261779798E+01 -0.35890786241E+02  0.40659124010E+02  0.00000000000E+00 0. -1.
         11    1    3    3    0    0  0.45565377316E+01  0.16240953251E+00  0.30658699629E+01  0.54943581833E+01  0.51100000000E-03 0. -1.
        -11    1    3    3    0    0  0.85280791039E+01  0.46264760037E+01  0.36612845662E+02  0.37876547904E+02  0.51100000000E-03 0.  1.
        -12    1    3    3    0    0  0.32398071646E+01  0.51372924437E+01 -0.37879293835E+01  0.71579699028E+01  0.00000000000E+00 0.  1.
</event>
<event>
 7    1  0.5910662E-013  0.5052886E+02  0.7816164E-02  0.1300439E+00
        -11   -1    0    0    0    0  0.00000000000E+00  0.00000000000E+00  0.45593999997E+02  0.45594000000E+02  0.51100000000E-03 0.  1.
         11   -1    0    0    0    0 -0.00000000000E+00 -0.00000000000E+00 -0.45593999997E+02  0.45594000000E+02  0.51100000000E-03 0. -1.
    9900012    2    1    2    0    0  0.14379751677E+02  0.38029742536E+02  0.35635250255E+00  0.50528861264E+02  0.30000004299E+02 0.  0.
         12    1    1    2    0    0 -0.14379751677E+02 -0.38029742536E+02 -0.35635250255E+00  0.40659138736E+02  0.00000000000E+00 0. -1.
         11    1    3    3    0    0 -0.61009447655E+01  0.18209931470E+02 -0.38026675663E+01  0.19577625292E+02  0.51100000000E-03 0. -1.
        -11    1    3    3    0    0  0.18982890469E+02  0.13252691785E+02  0.22830345277E+00  0.23152453279E+02  0.51100000000E-03 0.  1.
         12    1    3    3    0    0  0.14978059730E+01  0.65671192809E+01  0.39307166160E+01  0.77987826933E+01  0.00000000000E+00 0. -1.
</event>
<event>
 7    1  0.5910662E-013  0.5052885E+02  0.7816164E-02  0.1300439E+00
        -11   -1    0    0    0    0  0.00000000000E+00  0.00000000000E+00  0.45593999997E+02  0.45594000000E+02  0.51100000000E-03 0.  1.
         11   -1    0    0    0    0 -0.00000000000E+00 -0.00000000000E+00 -0.45593999997E+02  0.45594000000E+02  0.51100000000E-03 0. -1.
    9900012    2    1    2    0    0  0.16479298783E+02  0.36646367035E+02  0.62163443367E+01  0.50528850449E+02  0.29999971426E+02 0.  0.
         12    1    1    2    0    0 -0.16479298783E+02 -0.36646367035E+02 -0.62163443367E+01  0.40659149551E+02  0.00000000000E+00 0. -1.
         11    1    3    3    0    0  0.26844468851E+01 -0.13685595292E+01  0.22088308774E+01  0.37360600062E+01  0.51100000000E-03 0. -1.
        -11    1    3    3    0    0  0.18332077543E+02  0.32404087893E+02 -0.21706325149E+01  0.37293452844E+02  0.51100000000E-03 0.  1.
        -12    1    3    3    0    0 -0.45372256451E+01  0.56108386715E+01  0.61781459742E+01  0.94993375996E+01  0.00000000000E+00 0.  1.
</event>
<event>
 7    1  0.5910662E-013  0.5052887E+02  0.7816164E-02  0.1300439E+00
        -11   -1    0    0    0    0  0.00000000000E+00  0.00000000000E+00  0.45593999997E+02  0.45594000000E+02  0.51100000000E-03 0. -1.
         11   -1    0    0    0    0 -0.00000000000E+00 -0.00000000000E+00 -0.45593999997E+02  0.45594000000E+02  0.51100000000E-03 0.  1.
    9900012    2    1    2    0    0  0.25298772998E+02 -0.13959252795E+02 -0.28605520596E+02  0.50528874796E+02  0.30000045430E+02 0.  0.
         12    1    1    2    0    0 -0.25298772998E+02  0.13959252795E+02  0.28605520596E+02  0.40659125204E+02  0.00000000000E+00 0. -1.
         11    1    3    3    0    0  0.25450110838E+02 -0.26115226014E+01 -0.19110205613E+02  0.31933182597E+02  0.51100000000E-03 0. -1.
        -11    1    3    3    0    0 -0.24700948104E+01 -0.12721377780E+02 -0.62806535674E+01  0.14400744095E+02  0.51100000000E-03 0.  1.
        -12    1    3    3    0    0  0.23187569704E+01  0.13736475860E+01 -0.32146614159E+01  0.41949481042E+01  0.00000000000E+00 0.  1.
</event>
<event>
 7    1  0.5910662E-013  0.5052888E+02  0.7816164E-02  0.1300439E+00
        -11   -1    0    0    0    0  0.00000000000E+00  0.00000000000E+00  0.45593999997E+02  0.45594000000E+02  0.51100000000E-03 0. -1.
         11   -1    0    0    0    0 -0.00000000000E+00 -0.00000000000E+00 -0.45593999997E+02  0.45594000000E+02  0.51100000000E-03 0.  1.
    9900012    2    1    2    0    0 -0.42135169286E+01 -0.13051142490E+02 -0.38276341005E+02  0.50528876474E+02  0.30000050529E+02 0.  0.
         12    1    1    2    0    0  0.42135169286E+01  0.13051142490E+02  0.38276341005E+02  0.40659123526E+02  0.00000000000E+00 0. -1.
         11    1    3    3    0    0  0.50782850428E+01 -0.87488885092E+00 -0.12188587445E+02  0.13233143000E+02  0.51100000000E-03 0. -1.
        -11    1    3    3    0    0 -0.15912035497E+02 -0.12141933490E+02 -0.19010167617E+02  0.27604454272E+02  0.51100000000E-03 0.  1.
        -12    1    3    3    0    0  0.66202335255E+01 -0.34320149305E-01 -0.70775859425E+01  0.96912792024E+01  0.00000000000E+00 0.  1.
</event>
<event>
 7    1  0.5910662E-013  0.5052886E+02  0.7816164E-02  0.1300439E+00
        -11   -1    0    0    0    0  0.00000000000E+00  0.00000000000E+00  0.45593999997E+02  0.45594000000E+02  0.51100000000E-03 0.  1.
         11   -1    0    0    0    0 -0.00000000000E+00 -0.00000000000E+00 -0.45593999997E+02  0.45594000000E+02  0.51100000000E-03 0. -1.
    9900012    2    1    2    0    0  0.66191406869E+01  0.19296657913E+02  0.35170890292E+02  0.50528861372E+02  0.30000004627E+02 0.  0.
         12    1    1    2    0    0 -0.66191406869E+01 -0.19296657913E+02 -0.35170890292E+02  0.40659138628E+02  0.00000000000E+00 0. -1.
         11    1    3    3    0    0  0.49633401686E+01  0.28383961768E+01  0.14882836263E+02  0.15943338859E+02  0.51100000000E-03 0. -1.
        -11    1    3    3    0    0 -0.74233867511E+01  0.69856947401E+01 -0.27008536609E+00  0.10197036247E+02  0.51100000000E-03 0.  1.
        -12    1    3    3    0    0  0.90791872694E+01  0.94725669957E+01  0.20558139395E+02  0.24388486266E+02  0.00000000000E+00 0.  1.
</event>
<event>
 7    1  0.5910662E-013  0.5052887E+02  0.7816164E-02  0.1300439E+00
        -11   -1    0    0    0    0  0.00000000000E+00  0.00000000000E+00  0.45593999997E+02  0.45594000000E+02  0.51100000000E-03 0.  1.
         11   -1    0    0    0    0 -0.00000000000E+00 -0.00000000000E+00 -0.45593999997E+02  0.45594000000E+02  0.51100000000E-03 0. -1.
    9900012    2    1    2    0    0  0.17960814783E+02  0.32534177275E+02  0.16495503849E+02  0.50528865653E+02  0.30000017639E+02 0.  0.
         12    1    1    2    0    0 -0.17960814783E+02 -0.32534177275E+02 -0.16495503849E+02  0.40659134347E+02  0.00000000000E+00 0. -1.
         11    1    3    3    0    0 -0.70984621090E+00  0.25312161398E+01  0.62473263806E+01  0.67779070484E+01  0.51100000000E-03 0. -1.
        -11    1    3    3    0    0  0.13888903912E+02  0.24481041316E+02 -0.33198880559E+01  0.28341571812E+02  0.51100000000E-03 0.  1.
        -12    1    3    3    0    0  0.47817570814E+01  0.55219198193E+01  0.13568065524E+02  0.15409386793E+02  0.00000000000E+00 0.  1.
</event>
<event>
 7    1  0.5910662E-013  0.5052885E+02  0.7816164E-02  0.1300439E+00
        -11   -1    0    0    0    0  0.00000000000E+00  0.00000000000E+00  0.45593999997E+02  0.45594000000E+02  0.51100000000E-03 0.  1.
         11   -1    0    0    0    0 -0.00000000000E+00 -0.00000000000E+00 -0.45593999997E+02  0.45594000000E+02  0.51100000000E-03 0. -1.
    9900012    2    1    2    0    0 -0.23435210975E+02  0.89068096880E+01  0.32009786822E+02  0.50528845746E+02  0.29999957129E+02 0.  0.
         12    1    1    2    0    0  0.23435210975E+02 -0.89068096880E+01 -0.32009786822E+02  0.40659154254E+02  0.00000000000E+00 0. -1.
         11    1    3    3    0    0  0.35487456323E+01  0.48150147246E+01  0.80415401712E+00  0.60352817917E+01  0.51100000000E-03 0. -1.
        -11    1    3    3    0    0 -0.10122546130E+02 -0.38402146275E+01  0.20020586992E+02  0.22760428211E+02  0.51100000000E-03 0.  1.
        -12    1    3    3    0    0 -0.16861410477E+02  0.79320095909E+01  0.11185045812E+02  0.21733135744E+02  0.00000000000E+00 0.  1.
</event>
<event>
 7    1  0.5910662E-013  0.5052889E+02  0.7816164E-02  0.1300439E+00
        -11   -1    0    0    0    0  0.00000000000E+00  0.00000000000E+00  0.45593999997E+02  0.45594000000E+02  0.51100000000E-03 0. -1.
         11   -1    0    0    0    0 -0.00000000000E+00 -0.00000000000E+00 -0.45593999997E+02  0.45594000000E+02  0.51100000000E-03 0.  1.
    9900012    2    1    2    0    0  0.34493596328E+02 -0.20670209410E+02  0.60081493417E+01  0.50528885361E+02  0.30000077545E+02 0.  0.
         12    1    1    2    0    0 -0.34493596328E+02  0.20670209410E+02 -0.60081493417E+01  0.40659114639E+02  0.00000000000E+00 0. -1.
         11    1    3    3    0    0 -0.43983407244E+01 -0.18492770887E+00  0.28975454093E+00  0.44117521849E+01  0.51100000000E-03 0. -1.
        -11    1    3    3    0    0  0.32261694123E+02 -0.21754246070E+02  0.37821729348E+01  0.39094359723E+02  0.51100000000E-03 0.  1.
        -12    1    3    3    0    0  0.66302429290E+01  0.12689643689E+01  0.19362218660E+01  0.70227734537E+01  0.00000000000E+00 0.  1.
</event>
<event>
 7    1  0.5910662E-013  0.5052886E+02  0.7816164E-02  0.1300439E+00
        -11   -1    0    0    0    0  0.00000000000E+00  0.00000000000E+00  0.45593999997E+02  0.45594000000E+02  0.51100000000E-03 0. -1.
         11   -1    0    0    0    0 -0.00000000000E+00 -0.00000000000E+00 -0.45593999997E+02  0.45594000000E+02  0.51100000000E-03 0.  1.
    9900012    2    1    2    0    0 -0.25173020848E+02 -0.13087414556E+02 -0.29123943692E+02  0.50528862103E+02  0.30000006848E+02 0.  0.
         12    1    1    2    0    0  0.25173020848E+02  0.13087414556E+02  0.29123943692E+02  0.40659137897E+02  0.00000000000E+00 0. -1.
         11    1    3    3    0    0 -0.10239333397E+02  0.72650795874E+01 -0.41833863221E+01  0.13233519985E+02  0.51100000000E-03 0. -1.
        -11    1    3    3    0    0 -0.34115305354E+01 -0.93880024043E+01 -0.34678904806E+01  0.10573523272E+02  0.51100000000E-03 0.  1.
         12    1    3    3    0    0 -0.11522156916E+02 -0.10964491739E+02 -0.21472666889E+02  0.26721818846E+02  0.00000000000E+00 0. -1.
</event>
<event>
 7    1  0.5910662E-013  0.5052886E+02  0.7816164E-02  0.1300439E+00
        -11   -1    0    0    0    0  0.00000000000E+00  0.00000000000E+00  0.45593999997E+02  0.45594000000E+02  0.51100000000E-03 0.  1.
         11   -1    0    0    0    0 -0.00000000000E+00 -0.00000000000E+00 -0.45593999997E+02  0.45594000000E+02  0.51100000000E-03 0. -1.
    9900012    2    1    2    0    0 -0.48715894841E+01 -0.30888058521E+02  0.25987705349E+02  0.50528863602E+02  0.30000011405E+02 0.  0.
         12    1    1    2    0    0  0.48715894841E+01  0.30888058521E+02 -0.25987705349E+02  0.40659136398E+02  0.00000000000E+00 0. -1.
         11    1    3    3    0    0  0.44142268382E+01 -0.32325091518E+01 -0.54436026621E+00  0.54982581202E+01  0.51100000000E-03 0. -1.
        -11    1    3    3    0    0 -0.28463002071E+01 -0.28945841059E+02  0.24838963915E+02  0.38248362947E+02  0.51100000000E-03 0.  1.
        -12    1    3    3    0    0 -0.64395161152E+01  0.12902916889E+01  0.16931016999E+01  0.67822425352E+01  0.00000000000E+00 0.  1.
</event>
<event>
 7    1  0.5910662E-013  0.5052886E+02  0.7816164E-02  0.1300439E+00
        -11   -1    0    0    0    0  0.00000000000E+00  0.00000000000E+00  0.45593999997E+02  0.45594000000E+02  0.51100000000E-03 0. -1.
         11   -1    0    0    0    0 -0.00000000000E+00 -0.00000000000E+00 -0.45593999997E+02  0.45594000000E+02  0.51100000000E-03 0.  1.
    9900012    2    1    2    0    0  0.18247668510E+02 -0.61149542457E+01 -0.35816135811E+02  0.50528860118E+02  0.30000000816E+02 0.  0.
         12    1    1    2    0    0 -0.18247668510E+02  0.61149542457E+01  0.35816135811E+02  0.40659139882E+02  0.00000000000E+00 0. -1.
         11    1    3    3    0    0 -0.60543291717E+01 -0.21586487238E+01 -0.34800267401E+01  0.73092579927E+01  0.51100000000E-03 0. -1.
        -11    1    3    3    0    0  0.15789054570E+02 -0.90143157756E+01 -0.24923967153E+02  0.30850547354E+02  0.51100000000E-03 0.  1.
        -12    1    3    3    0    0  0.85129431111E+01  0.50580102537E+01 -0.74121419185E+01  0.12369054772E+02  0.00000000000E+00 0.  1.
</event>
<event>
 7    1  0.5910662E-013  0.5052888E+02  0.7816164E-02  0.1300439E+00
        -11   -1    0    0    0    0  0.00000000000E+00  0.00000000000E+00  0.45593999997E+02  0.45594000000E+02  0.51100000000E-03 0.  1.
         11   -1    0    0    0    0 -0.00000000000E+00 -0.00000000000E+00 -0.45593999997E+02  0.45594000000E+02  0.51100000000E-03 0. -1.
    9900012    2    1    2    0    0  0.17732815040E+02 -0.11012392262E+00  0.36588241364E+02  0.50528877252E+02  0.30000052895E+02 0.  0.
         12    1    1    2    0    0 -0.17732815040E+02  0.11012392262E+00 -0.36588241364E+02  0.40659122748E+02  0.00000000000E+00 0. -1.
         11    1    3    3    0    0 -0.29586799226E+01  0.36340212834E+01  0.15860377885E+02  0.16538182623E+02  0.51100000000E-03 0. -1.
        -11    1    3    3    0    0  0.16847415088E+02 -0.69652474883E+01  0.72662523561E+01  0.19625200414E+02  0.51100000000E-03 0.  1.
         12    1    3    3    0    0  0.38440798744E+01  0.32211022823E+01  0.13461611123E+02  0.14365494215E+02  0.00000000000E+00 0. -1.
</event>
<event>
 7    1  0.5910662E-013  0.5052883E+02  0.7816164E-02  0.1300439E+00
        -11   -1    0    0    0    0  0.00000000000E+00  0.00000000000E+00  0.45593999997E+02  0.45594000000E+02  0.51100000000E-03 0. -1.
         11   -1    0    0    0    0 -0.00000000000E+00 -0.00000000000E+00 -0.45593999997E+02  0.45594000000E+02  0.51100000000E-03 0.  1.
    9900012    2    1    2    0    0 -0.12317214934E+02  0.25911691465E+02 -0.28810385625E+02  0.50528833037E+02  0.29999918498E+02 0.  0.
         12    1    1    2    0    0  0.12317214934E+02 -0.25911691465E+02  0.28810385625E+02  0.40659166963E+02  0.00000000000E+00 0. -1.
         11    1    3    3    0    0 -0.79251760428E+00 -0.42659815838E+00 -0.67054133019E+01  0.67655478678E+01  0.51100000000E-03 0. -1.
        -11    1    3    3    0    0 -0.15905677979E+02  0.13610983926E+02 -0.41807733760E+01  0.21347794774E+02  0.51100000000E-03 0.  1.
        -12    1    3    3    0    0  0.43809806499E+01  0.12727305697E+02 -0.17924198947E+02  0.22415490395E+02  0.00000000000E+00 0.  1.
</event>
<event>
 7    1  0.5910662E-013  0.5052886E+02  0.7816164E-02  0.1300439E+00
        -11   -1    0    0    0    0  0.00000000000E+00  0.00000000000E+00  0.45593999997E+02  0.45594000000E+02  0.51100000000E-03 0. -1.
         11   -1    0    0    0    0 -0.00000000000E+00 -0.00000000000E+00 -0.45593999997E+02  0.45594000000E+02  0.51100000000E-03 0.  1.
    9900012    2    1    2    0    0  0.47042685473E-01  0.72796668941E+01 -0.40002124225E+02  0.50528859507E+02  0.29999998957E+02 0.  0.
         12    1    1    2    0    0 -0.47042685473E-01 -0.72796668941E+01  0.40002124225E+02  0.40659140493E+02  0.00000000000E+00 0. -1.
         11    1    3    3    0    0 -0.84948180512E+00 -0.12830042300E-01  0.25653318133E+01  0.27023529600E+01  0.51100000000E-03 0. -1.
        -11    1    3    3    0    0 -0.20368702703E+01  0.11188355570E+02 -0.41230101371E+02  0.42769725276E+02  0.51100000000E-03 0.  1.
        -12    1    3    3    0    0  0.29333947609E+01 -0.38958586334E+01 -0.13373546679E+01  0.50567812710E+01  0.00000000000E+00 0.  1.
</event>
<event>
 7    1  0.5910662E-013  0.5052886E+02  0.7816164E-02  0.1300439E+00
        -11   -1    0    0    0    0  0.00000000000E+00  0.00000000000E+00  0.45593999997E+02  0.45594000000E+02  0.51100000000E-03 0.  1.
         11   -1    0    0    0    0 -0.00000000000E+00 -0.00000000000E+00 -0.45593999997E+02  0.45594000000E+02  0.51100000000E-03 0. -1.
    9900012    2    1    2    0    0 -0.32413677670E+02 -0.23215143361E+02  0.79734877845E+01  0.50528857254E+02  0.29999992110E+02 0.  0.
         12    1    1    2    0    0  0.32413677670E+02  0.23215143361E+02 -0.79734877845E+01  0.40659142746E+02  0.00000000000E+00 0. -1.
         11    1    3    3    0    0 -0.60867151016E+01  0.58273339359E+01  0.67244000036E+01  0.10780699291E+02  0.51100000000E-03 0. -1.
        -11    1    3    3    0    0 -0.14219652875E+02 -0.18648006259E+02 -0.17323097099E+01  0.23514837072E+02  0.51100000000E-03 0.  1.
         12    1    3    3    0    0 -0.12107309694E+02 -0.10394471038E+02  0.29813974908E+01  0.16233320892E+02  0.00000000000E+00 0. -1.
</event>
<event>
 7    1  0.5910662E-013  0.5052886E+02  0.7816164E-02  0.1300439E+00
        -11   -1    0    0    0    0  0.00000000000E+00  0.00000000000E+00  0.45593999997E+02  0.45594000000E+02  0.51100000000E-03 0.  1.
         11   -1    0    0    0    0 -0.00000000000E+00 -0.00000000000E+00 -0.45593999997E+02  0.45594000000E+02  0.51100000000E-03 0. -1.
    9900012    2    1    2    0    0 -0.12380729200E+02  0.27735047273E+02  0.27030538643E+02  0.50528864223E+02  0.30000013293E+02 0.  0.
         12    1    1    2    0    0  0.12380729200E+02 -0.27735047273E+02 -0.27030538643E+02  0.40659135777E+02  0.00000000000E+00 0. -1.
         11    1    3    3    0    0 -0.20520158815E+01  0.50528390382E+01 -0.29278261305E+01  0.61898398715E+01  0.51100000000E-03 0. -1.
        -11    1    3    3    0    0  0.55081622635E+01  0.11107967582E+02  0.16104729091E+02  0.20324593346E+02  0.51100000000E-03 0.  1.
        -12    1    3    3    0    0 -0.15836875582E+02  0.11574240653E+02  0.13853635683E+02  0.24014431005E+02  0.00000000000E+00 0.  1.
</event>
<event>
 7    1  0.5910662E-013  0.5052886E+02  0.7816164E-02  0.1300439E+00
        -11   -1    0    0    0    0  0.00000000000E+00  0.00000000000E+00  0.45593999997E+02  0.45594000000E+02  0.51100000000E-03 0.  1.
         11   -1    0    0    0    0 -0.00000000000E+00 -0.00000000000E+00 -0.45593999997E+02  0.45594000000E+02  0.51100000000E-03 0. -1.
    9900012    2    1    2    0    0  0.25590651250E+02  0.25044281388E+02  0.19263131186E+02  0.50528859764E+02  0.29999999738E+02 0.  0.
         12    1    1    2    0    0 -0.25590651250E+02 -0.25044281388E+02 -0.19263131186E+02  0.40659140236E+02  0.00000000000E+00 0. -1.
         11    1    3    3    0    0  0.29527294117E+02  0.26572289320E+02  0.13725766070E+02  0.42027899211E+02  0.51100000000E-03 0. -1.
        -11    1    3    3    0    0 -0.38476752049E+01 -0.16614102682E+01  0.14864063152E+01  0.44468294949E+01  0.51100000000E-03 0.  1.
         12    1    3    3    0    0 -0.88967662561E-01  0.13340233610E+00  0.40509588011E+01  0.40541310582E+01  0.00000000000E+00 0. -1.
</event>
<event>
 7    1  0.5910662E-013  0.5052888E+02  0.7816164E-02  0.1300439E+00
        -11   -1    0    0    0    0  0.00000000000E+00  0.00000000000E+00  0.45593999997E+02  0.45594000000E+02  0.51100000000E-03 0.  1.
         11   -1    0    0    0    0 -0.00000000000E+00 -0.00000000000E+00 -0.45593999997E+02  0.45594000000E+02  0.51100000000E-03 0. -1.
    9900012    2    1    2    0    0  0.23873780890E+02 -0.82338194463E+01  0.31865514233E+02  0.50528878096E+02  0.30000055461E+02 0.  0.
         12    1    1    2    0    0 -0.23873780890E+02  0.82338194463E+01 -0.31865514233E+02  0.40659121904E+02  0.00000000000E+00 0. -1.
         11    1    3    3    0    0  0.81598369829E+01  0.10502137952E+02  0.10739542272E+02  0.17094315126E+02  0.51100000000E-03 0. -1.
        -11    1    3    3    0    0  0.16614619392E+02 -0.18651420174E+02  0.20668717476E+02  0.32420933583E+02  0.51100000000E-03 0.  1.
        -12    1    3    3    0    0 -0.90067548451E+00 -0.84537224123E-01  0.45725448427E+00  0.10136293869E+01  0.00000000000E+00 0.  1.
</event>
<event>
 7    1  0.5910662E-013  0.5052886E+02  0.7816164E-02  0.1300439E+00
        -11   -1    0    0    0    0  0.00000000000E+00  0.00000000000E+00  0.45593999997E+02  0.45594000000E+02  0.51100000000E-03 0.  1.
         11   -1    0    0    0    0 -0.00000000000E+00 -0.00000000000E+00 -0.45593999997E+02  0.45594000000E+02  0.51100000000E-03 0. -1.
    9900012    2    1    2    0    0  0.34972752444E+02 -0.19668192027E+02  0.65752840768E+01  0.50528861399E+02  0.30000004708E+02 0.  0.
         12    1    1    2    0    0 -0.34972752444E+02  0.19668192027E+02 -0.65752840768E+01  0.40659138601E+02  0.00000000000E+00 0. -1.
         11    1    3    3    0    0  0.25339453763E+02 -0.12339888038E+02  0.14346478170E+02  0.31625657147E+02  0.51100000000E-03 0.  1.
        -11    1    3    3    0    0  0.10162355259E+02 -0.95735421379E+01 -0.86621082872E+01  0.16430407594E+02  0.51100000000E-03 0. -1.
        -12    1    3    3    0    0 -0.52905657833E+00  0.22452381494E+01  0.89091419362E+00  0.24727966579E+01  0.00000000000E+00 0.  1.
</event>
<event>
 7    1  0.5910662E-013  0.5052886E+02  0.7816164E-02  0.1300439E+00
        -11   -1    0    0    0    0  0.00000000000E+00  0.00000000000E+00  0.45593999997E+02  0.45594000000E+02  0.51100000000E-03 0. -1.
         11   -1    0    0    0    0 -0.00000000000E+00 -0.00000000000E+00 -0.45593999997E+02  0.45594000000E+02  0.51100000000E-03 0.  1.
    9900012    2    1    2    0    0  0.14908852918E+02 -0.12916131379E+01 -0.37805071451E+02  0.50528860963E+02  0.30000003382E+02 0.  0.
         12    1    1    2    0    0 -0.14908852918E+02  0.12916131379E+01  0.37805071451E+02  0.40659139037E+02  0.00000000000E+00 0. -1.
         11    1    3    3    0    0  0.16715759691E+01  0.13183149095E+02 -0.12924339028E+02  0.18537209225E+02  0.51100000000E-03 0. -1.
        -11    1    3    3    0    0  0.56220845024E+01 -0.32903929486E+01 -0.69082949429E+01  0.94952124351E+01  0.51100000000E-03 0.  1.
         12    1    3    3    0    0  0.76151924462E+01 -0.11184369285E+02 -0.17972437480E+02  0.22496439302E+02  0.00000000000E+00 0. -1.
</event>
<event>
 7    1  0.5910662E-013  0.5052886E+02  0.7816164E-02  0.1300439E+00
        -11   -1    0    0    0    0  0.00000000000E+00  0.00000000000E+00  0.45593999997E+02  0.45594000000E+02  0.51100000000E-03 0.  1.
         11   -1    0    0    0    0 -0.00000000000E+00 -0.00000000000E+00 -0.45593999997E+02  0.45594000000E+02  0.51100000000E-03 0. -1.
    9900012    2    1    2    0    0  0.15755836248E+02 -0.37443296999E+02  0.17084503009E+01  0.50528859964E+02  0.30000000347E+02 0.  0.
         12    1    1    2    0    0 -0.15755836248E+02  0.37443296999E+02 -0.17084503009E+01  0.40659140036E+02  0.00000000000E+00 0. -1.
         11    1    3    3    0    0 -0.54534485226E+01 -0.56671125574E+01  0.30692762884E+01  0.84425542771E+01  0.51100000000E-03 0. -1.
        -11    1    3    3    0    0  0.16934728647E+02 -0.28064386528E+02 -0.76145165697E+01  0.33650790308E+02  0.51100000000E-03 0.  1.
        -12    1    3    3    0    0  0.42745561235E+01 -0.37117979142E+01  0.62536905822E+01  0.84355153788E+01  0.00000000000E+00 0.  1.
</event>
<event>
 7    1  0.5910662E-013  0.5052886E+02  0.7816164E-02  0.1300439E+00
        -11   -1    0    0    0    0  0.00000000000E+00  0.00000000000E+00  0.45593999997E+02  0.45594000000E+02  0.51100000000E-03 0. -1.
         11   -1    0    0    0    0 -0.00000000000E+00 -0.00000000000E+00 -0.45593999997E+02  0.45594000000E+02  0.51100000000E-03 0.  1.
    9900012    2    1    2    0    0  0.10528195635E+02  0.35148830391E+02 -0.17518056459E+02  0.50528862241E+02  0.30000007268E+02 0.  0.
         12    1    1    2    0    0 -0.10528195635E+02 -0.35148830391E+02  0.17518056459E+02  0.40659137759E+02  0.00000000000E+00 0. -1.
         11    1    3    3    0    0  0.67373395207E+01 -0.31490315616E+01 -0.10987287083E+01  0.75176690954E+01  0.51100000000E-03 0. -1.
        -11    1    3    3    0    0  0.64168619997E+01  0.28282330083E+02 -0.14704860070E+02  0.32516137882E+02  0.51100000000E-03 0.  1.
        -12    1    3    3    0    0 -0.26260058855E+01  0.10015531870E+02 -0.17144676810E+01  0.10495055263E+02  0.00000000000E+00 0.  1.
</event>
<event>
 7    1  0.5910662E-013  0.5052886E+02  0.7816164E-02  0.1300439E+00
        -11   -1    0    0    0    0  0.00000000000E+00  0.00000000000E+00  0.45593999997E+02  0.45594000000E+02  0.51100000000E-03 0. -1.
         11   -1    0    0    0    0 -0.00000000000E+00 -0.00000000000E+00 -0.45593999997E+02  0.45594000000E+02  0.51100000000E-03 0.  1.
    9900012    2    1    2    0    0  0.13496462133E+02 -0.16371076960E+02 -0.34684271908E+02  0.50528863650E+02  0.30000011550E+02 0.  0.
         12    1    1    2    0    0 -0.13496462133E+02  0.16371076960E+02  0.34684271908E+02  0.40659136350E+02  0.00000000000E+00 0. -1.
         11    1    3    3    0    0  0.14356258090E+02  0.16464382740E+01 -0.18255021067E+02  0.23282154105E+02  0.51100000000E-03 0. -1.
        -11    1    3    3    0    0 -0.13038848447E+01 -0.16211981540E+02 -0.18386049096E+02  0.24547408473E+02  0.51100000000E-03 0.  1.
         12    1    3    3    0    0  0.44408888762E+00 -0.18055336947E+01  0.19567982554E+01  0.26993010716E+01  0.00000000000E+00 0. -1.
</event>
<event>
 7    1  0.5910662E-013  0.5052885E+02  0.7816164E-02  0.1300439E+00
        -11   -1    0    0    0    0  0.00000000000E+00  0.00000000000E+00  0.45593999997E+02  0.45594000000E+02  0.51100000000E-03 0. -1.
         11   -1    0    0    0    0 -0.00000000000E+00 -0.00000000000E+00 -0.45593999997E+02  0.45594000000E+02  0.51100000000E-03 0.  1.
    9900012    2    1    2    0    0  0.30658167163E+02  0.26706578097E+02 -0.41338359804E-01  0.50528852981E+02  0.29999979121E+02 0.  0.
         12    1    1    2    0    0 -0.30658167163E+02 -0.26706578097E+02  0.41338359804E-01  0.40659147019E+02  0.00000000000E+00 0. -1.
         11    1    3    3    0    0 -0.25249346550E+01 -0.32966581131E+01  0.51925615758E+00  0.41848389390E+01  0.51100000000E-03 0. -1.
        -11    1    3    3    0    0  0.25983480742E+02  0.29214871897E+02 -0.46010681218E+00  0.39100661247E+02  0.51100000000E-03 0.  1.
         12    1    3    3    0    0  0.71996210761E+01  0.78836431322E+00 -0.10048770521E+00  0.72433527947E+01  0.00000000000E+00 0. -1.
</event>
<event>
 7    1  0.5910662E-013  0.5052887E+02  0.7816164E-02  0.1300439E+00
        -11   -1    0    0    0    0  0.00000000000E+00  0.00000000000E+00  0.45593999997E+02  0.45594000000E+02  0.51100000000E-03 0.  1.
         11   -1    0    0    0    0 -0.00000000000E+00 -0.00000000000E+00 -0.45593999997E+02  0.45594000000E+02  0.51100000000E-03 0. -1.
    9900012    2    1    2    0    0 -0.19997170639E+02 -0.25310512249E+02  0.24751896303E+02  0.50528865301E+02  0.30000016570E+02 0.  0.
         12    1    1    2    0    0  0.19997170639E+02  0.25310512249E+02 -0.24751896303E+02  0.40659134699E+02  0.00000000000E+00 0. -1.
         11    1    3    3    0    0 -0.72386904565E+00  0.55564564327E+01  0.98574183503E+00  0.56894535511E+01  0.51100000000E-03 0. -1.
        -11    1    3    3    0    0 -0.95590259674E+01 -0.65709845934E+01  0.97661526360E+01  0.15163461133E+02  0.51100000000E-03 0.  1.
         12    1    3    3    0    0 -0.97142756259E+01 -0.24295984088E+02  0.14000001832E+02  0.29675950617E+02  0.00000000000E+00 0. -1.
</event>
<event>
 7    1  0.5910662E-013  0.5052888E+02  0.7816164E-02  0.1300439E+00
        -11   -1    0    0    0    0  0.00000000000E+00  0.00000000000E+00  0.45593999997E+02  0.45594000000E+02  0.51100000000E-03 0.  1.
         11   -1    0    0    0    0 -0.00000000000E+00 -0.00000000000E+00 -0.45593999997E+02  0.45594000000E+02  0.51100000000E-03 0. -1.
    9900012    2    1    2    0    0 -0.29340840019E+02 -0.18352013716E+02  0.21342041617E+02  0.50528879980E+02  0.30000061188E+02 0.  0.
         12    1    1    2    0    0  0.29340840019E+02  0.18352013716E+02 -0.21342041617E+02  0.40659120020E+02  0.00000000000E+00 0. -1.
         11    1    3    3    0    0 -0.43066911175E+01 -0.44959919800E+01 -0.72518222025E+01  0.95577433416E+01  0.51100000000E-03 0. -1.
        -11    1    3    3    0    0 -0.10723658169E+02 -0.77111608998E+01  0.17139751935E+02  0.21638621573E+02  0.51100000000E-03 0.  1.
         12    1    3    3    0    0 -0.14310490732E+02 -0.61448608358E+01  0.11454111884E+02  0.19332515065E+02  0.00000000000E+00 0. -1.
</event>
<event>
 7    1  0.5910662E-013  0.5052888E+02  0.7816164E-02  0.1300439E+00
        -11   -1    0    0    0    0  0.00000000000E+00  0.00000000000E+00  0.45593999997E+02  0.45594000000E+02  0.51100000000E-03 0. -1.
         11   -1    0    0    0    0 -0.00000000000E+00 -0.00000000000E+00 -0.45593999997E+02  0.45594000000E+02  0.51100000000E-03 0.  1.
    9900012    2    1    2    0    0  0.38919327847E+02 -0.21466853828E+01 -0.11568998700E+02  0.50528879632E+02  0.30000060129E+02 0.  0.
         12    1    1    2    0    0 -0.38919327847E+02  0.21466853828E+01  0.11568998700E+02  0.40659120368E+02  0.00000000000E+00 0. -1.
         11    1    3    3    0    0  0.24911855222E+02  0.11077298134E+02 -0.12561352774E+02  0.30018238594E+02  0.51100000000E-03 0.  1.
        -11    1    3    3    0    0  0.11254369350E+02 -0.65620992142E+01 -0.89767304905E+00  0.13058629052E+02  0.51100000000E-03 0. -1.
         12    1    3    3    0    0  0.27531032754E+01 -0.66618843025E+01  0.18900271231E+01  0.74520119854E+01  0.00000000000E+00 0. -1.
</event>
<event>
 7    1  0.5910662E-013  0.5052885E+02  0.7816164E-02  0.1300439E+00
        -11   -1    0    0    0    0  0.00000000000E+00  0.00000000000E+00  0.45593999997E+02  0.45594000000E+02  0.51100000000E-03 0. -1.
         11   -1    0    0    0    0 -0.00000000000E+00 -0.00000000000E+00 -0.45593999997E+02  0.45594000000E+02  0.51100000000E-03 0.  1.
    9900012    2    1    2    0    0 -0.38169657678E+02  0.11817998430E+02  0.75218494914E+01  0.50528854979E+02  0.29999985193E+02 0.  0.
         12    1    1    2    0    0  0.38169657678E+02 -0.11817998430E+02 -0.75218494914E+01  0.40659145021E+02  0.00000000000E+00 0. -1.
         11    1    3    3    0    0 -0.16607403025E+02  0.12820853484E+02  0.20766857952E+01  0.21082996548E+02  0.51100000000E-03 0. -1.
        -11    1    3    3    0    0 -0.72670570193E+01 -0.93118166734E+01 -0.63476679255E+00  0.11828904287E+02  0.51100000000E-03 0.  1.
        -12    1    3    3    0    0 -0.14295197633E+02  0.83089616196E+01  0.60799304887E+01  0.17616954144E+02  0.00000000000E+00 0.  1.
</event>
<event>
 7    1  0.5910662E-013  0.5052886E+02  0.7816164E-02  0.1300439E+00
        -11   -1    0    0    0    0  0.00000000000E+00  0.00000000000E+00  0.45593999997E+02  0.45594000000E+02  0.51100000000E-03 0. -1.
         11   -1    0    0    0    0 -0.00000000000E+00 -0.00000000000E+00 -0.45593999997E+02  0.45594000000E+02  0.51100000000E-03 0.  1.
    9900012    2    1    2    0    0 -0.41188307977E+01 -0.30438178951E+02 -0.26640541202E+02  0.50528856619E+02  0.29999990178E+02 0.  0.
         12    1    1    2    0    0  0.41188307977E+01  0.30438178951E+02  0.26640541202E+02  0.40659143381E+02  0.00000000000E+00 0. -1.
         11    1    3    3    0    0  0.74773277017E+00 -0.19821956236E+02  0.73891993947E+00  0.19849812499E+02  0.51100000000E-03 0. -1.
        -11    1    3    3    0    0 -0.37705003397E+01 -0.11274606921E+02 -0.20636516832E+02  0.23815945525E+02  0.51100000000E-03 0.  1.
         12    1    3    3    0    0 -0.10960632282E+01  0.65838420610E+00 -0.67429443086E+01  0.68630985941E+01  0.00000000000E+00 0. -1.
</event>
<event>
 7    1  0.5910662E-013  0.5052886E+02  0.7816164E-02  0.1300439E+00
        -11   -1    0    0    0    0  0.00000000000E+00  0.00000000000E+00  0.45593999997E+02  0.45594000000E+02  0.51100000000E-03 0.  1.
         11   -1    0    0    0    0 -0.00000000000E+00 -0.00000000000E+00 -0.45593999997E+02  0.45594000000E+02  0.51100000000E-03 0. -1.
    9900012    2    1    2    0    0 -0.38556321932E+02  0.58824541282E+01  0.11487937668E+02  0.50528856633E+02  0.29999990221E+02 0.  0.
         12    1    1    2    0    0  0.38556321932E+02 -0.58824541282E+01 -0.11487937668E+02  0.40659143367E+02  0.00000000000E+00 0. -1.
         11    1    3    3    0    0  0.31927862037E+01  0.28433407491E+01 -0.37211911594E+01  0.56679567980E+01  0.51100000000E-03 0. -1.
        -11    1    3    3    0    0 -0.26496113664E+02  0.99922001839E-01  0.11537502613E+02  0.28899273183E+02  0.51100000000E-03 0.  1.
         12    1    3    3    0    0 -0.15252994472E+02  0.29391913772E+01  0.36716262150E+01  0.15961626652E+02  0.00000000000E+00 0. -1.
</event>
<event>
 7    1  0.5910662E-013  0.5052886E+02  0.7816164E-02  0.1300439E+00
        -11   -1    0    0    0    0  0.00000000000E+00  0.00000000000E+00  0.45593999997E+02  0.45594000000E+02  0.51100000000E-03 0.  1.
         11   -1    0    0    0    0 -0.00000000000E+00 -0.00000000000E+00 -0.45593999997E+02  0.45594000000E+02  0.51100000000E-03 0. -1.
    9900012    2    1    2    0    0  0.19236822815E+02  0.32675418325E+02  0.14677431512E+02  0.50528864366E+02  0.30000013726E+02 0.  0.
         12    1    1    2    0    0 -0.19236822815E+02 -0.32675418325E+02 -0.14677431512E+02  0.40659135634E+02  0.00000000000E+00 0. -1.
         11    1    3    3    0    0  0.12591274866E+02  0.15851233786E+02  0.18345979717E+02  0.27319897279E+02  0.51100000000E-03 0.  1.
        -11    1    3    3    0    0  0.16891444803E+01  0.21705054939E+01 -0.68804957198E+01  0.74098262318E+01  0.51100000000E-03 0. -1.
        -12    1    3    3    0    0  0.49564034688E+01  0.14653679046E+02  0.32119475146E+01  0.15799140855E+02  0.00000000000E+00 0.  1.
</event>
<event>
 7    1  0.5910662E-013  0.5052886E+02  0.7816164E-02  0.1300439E+00
        -11   -1    0    0    0    0  0.00000000000E+00  0.00000000000E+00  0.45593999997E+02  0.45594000000E+02  0.51100000000E-03 0.  1.
         11   -1    0    0    0    0 -0.00000000000E+00 -0.00000000000E+00 -0.45593999997E+02  0.45594000000E+02  0.51100000000E-03 0. -1.
    9900012    2    1    2    0    0  0.15351670256E+02 -0.31731275833E+02  0.20263712527E+02  0.50528859687E+02  0.29999999504E+02 0.  0.
         12    1    1    2    0    0 -0.15351670256E+02  0.31731275833E+02 -0.20263712527E+02  0.40659140313E+02  0.00000000000E+00 0. -1.
         11    1    3    3    0    0  0.90278871482E+01 -0.57008396649E+01  0.16504130173E+02  0.19656770647E+02  0.51100000000E-03 0. -1.
        -11    1    3    3    0    0  0.80358929626E+01 -0.91372679730E+01 -0.31036252942E+01  0.12557775756E+02  0.51100000000E-03 0.  1.
         12    1    3    3    0    0 -0.17121098551E+01 -0.16893168195E+02  0.68632076479E+01  0.18314313283E+02  0.00000000000E+00 0. -1.
</event>
<event>
 7    1  0.5910662E-013  0.5052886E+02  0.7816164E-02  0.1300439E+00
        -11   -1    0    0    0    0  0.00000000000E+00  0.00000000000E+00  0.45593999997E+02  0.45594000000E+02  0.51100000000E-03 0.  1.
         11   -1    0    0    0    0 -0.00000000000E+00 -0.00000000000E+00 -0.45593999997E+02  0.45594000000E+02  0.51100000000E-03 0. -1.
    9900012    2    1    2    0    0 -0.10410951540E+02 -0.35507939044E+02  0.16851240178E+02  0.50528856592E+02  0.29999990097E+02 0.  0.
         12    1    1    2    0    0  0.10410951540E+02  0.35507939044E+02 -0.16851240178E+02  0.40659143408E+02  0.00000000000E+00 0. -1.
         11    1    3    3    0    0 -0.21549550092E+01 -0.39070516235E+01  0.95724557321E+00  0.45634639068E+01  0.51100000000E-03 0. -1.
        -11    1    3    3    0    0  0.31160254666E+01 -0.27684380094E+02  0.18778083806E+02  0.33596888957E+02  0.51100000000E-03 0.  1.
        -12    1    3    3    0    0 -0.11372021998E+02 -0.39165073268E+01 -0.28840892014E+01  0.12368503728E+02  0.00000000000E+00 0.  1.
</event>
<event>
 7    1  0.5910662E-013  0.5052886E+02  0.7816164E-02  0.1300439E+00
        -11   -1    0    0    0    0  0.00000000000E+00  0.00000000000E+00  0.45593999997E+02  0.45594000000E+02  0.51100000000E-03 0. -1.
         11   -1    0    0    0    0 -0.00000000000E+00 -0.00000000000E+00 -0.45593999997E+02  0.45594000000E+02  0.51100000000E-03 0.  1.
    9900012    2    1    2    0    0  0.15006712343E+02  0.36678199197E+02  0.90925187576E+01  0.50528860695E+02  0.30000002568E+02 0.  0.
         12    1    1    2    0    0 -0.15006712343E+02 -0.36678199197E+02 -0.90925187576E+01  0.40659139305E+02  0.00000000000E+00 0. -1.
         11    1    3    3    0    0 -0.70289255808E+01  0.13236607024E+02  0.60031706364E+01  0.16144708677E+02  0.51100000000E-03 0. -1.
        -11    1    3    3    0    0  0.17512849145E+02  0.20644650460E+02  0.67836099224E+01  0.27909117536E+02  0.51100000000E-03 0.  1.
        -12    1    3    3    0    0  0.45227887788E+01  0.27969417132E+01 -0.36942618013E+01  0.64750344818E+01  0.00000000000E+00 0.  1.
</event>
<event>
 7    1  0.5910662E-013  0.5052886E+02  0.7816164E-02  0.1300439E+00
        -11   -1    0    0    0    0  0.00000000000E+00  0.00000000000E+00  0.45593999997E+02  0.45594000000E+02  0.51100000000E-03 0.  1.
         11   -1    0    0    0    0 -0.00000000000E+00 -0.00000000000E+00 -0.45593999997E+02  0.45594000000E+02  0.51100000000E-03 0. -1.
    9900012    2    1    2    0    0  0.17946070404E+02 -0.19271690212E+02  0.30979121887E+02  0.50528862288E+02  0.30000007410E+02 0.  0.
         12    1    1    2    0    0 -0.17946070404E+02  0.19271690212E+02 -0.30979121887E+02  0.40659137712E+02  0.00000000000E+00 0. -1.
         11    1    3    3    0    0  0.41080853625E+00  0.14665933242E+00 -0.28249379588E+01  0.28584169299E+01  0.51100000000E-03 0. -1.
        -11    1    3    3    0    0  0.15648876355E+02 -0.18538853174E+02  0.36766814577E+02  0.44049688564E+02  0.51100000000E-03 0.  1.
        -12    1    3    3    0    0  0.18863855129E+01 -0.87949637068E+00 -0.29627547307E+01  0.36207567943E+01  0.00000000000E+00 0.  1.
</event>
<event>
 7    1  0.5910662E-013  0.5052886E+02  0.7816164E-02  0.1300439E+00
        -11   -1    0    0    0    0  0.00000000000E+00  0.00000000000E+00  0.45593999997E+02  0.45594000000E+02  0.51100000000E-03 0. -1.
         11   -1    0    0    0    0 -0.00000000000E+00 -0.00000000000E+00 -0.45593999997E+02  0.45594000000E+02  0.51100000000E-03 0.  1.
    9900012    2    1    2    0    0  0.64636625741E+01 -0.35324972691E+02 -0.19066546445E+02  0.50528858066E+02  0.29999994577E+02 0.  0.
         12    1    1    2    0    0 -0.64636625741E+01  0.35324972691E+02  0.19066546445E+02  0.40659141934E+02  0.00000000000E+00 0. -1.
         11    1    3    3    0    0  0.63831610170E+01  0.21139542387E+01 -0.74728961238E+01  0.10052747079E+02  0.51100000000E-03 0. -1.
        -11    1    3    3    0    0  0.48936337768E+01 -0.18683973841E+02 -0.72655705472E+01  0.20635577183E+02  0.51100000000E-03 0.  1.
         12    1    3    3    0    0 -0.48131322197E+01 -0.18754953088E+02 -0.43280797740E+01  0.19840533804E+02  0.00000000000E+00 0. -1.
</event>
<event>
 7    1  0.5910662E-013  0.5052886E+02  0.7816164E-02  0.1300439E+00
        -11   -1    0    0    0    0  0.00000000000E+00  0.00000000000E+00  0.45593999997E+02  0.45594000000E+02  0.51100000000E-03 0.  1.
         11   -1    0    0    0    0 -0.00000000000E+00 -0.00000000000E+00 -0.45593999997E+02  0.45594000000E+02  0.51100000000E-03 0. -1.
    9900012    2    1    2    0    0 -0.24719442720E+02 -0.16124566514E+02  0.27966291143E+02  0.50528856699E+02  0.29999990423E+02 0.  0.
         12    1    1    2    0    0  0.24719442720E+02  0.16124566514E+02 -0.27966291143E+02  0.40659143301E+02  0.00000000000E+00 0. -1.
         11    1    3    3    0    0  0.59791570074E+01 -0.16068126310E+01  0.40978868000E+01  0.74246105511E+01  0.51100000000E-03 0. -1.
        -11    1    3    3    0    0 -0.30366384561E+02 -0.11916046334E+02  0.23968339835E+02  0.40479510697E+02  0.51100000000E-03 0.  1.
        -12    1    3    3    0    0 -0.33221516542E+00 -0.26017075491E+01 -0.99935491210E-01  0.26247354514E+01  0.00000000000E+00 0.  1.
</event>
<event>
 7    1  0.5910662E-013  0.5052885E+02  0.7816164E-02  0.1300439E+00
        -11   -1    0    0    0    0  0.00000000000E+00  0.00000000000E+00  0.45593999997E+02  0.45594000000E+02  0.51100000000E-03 0.  1.
         11   -1    0    0    0    0 -0.00000000000E+00 -0.00000000000E+00 -0.45593999997E+02  0.45594000000E+02  0.51100000000E-03 0. -1.
    9900012    2    1    2    0    0  0.29235540835E+02  0.24916809150E+02 -0.13326738107E+02  0.50528853738E+02  0.29999981422E+02 0.  0.
         12    1    1    2    0    0 -0.29235540835E+02 -0.24916809150E+02  0.13326738107E+02  0.40659146262E+02  0.00000000000E+00 0. -1.
         11    1    3    3    0    0  0.89302491161E+01  0.25738953387E+02 -0.49121538810E+01  0.27683430545E+02  0.51100000000E-03 0. -1.
        -11    1    3    3    0    0  0.92693403652E+01 -0.17635664351E+00 -0.71713150900E+01  0.11720901538E+02  0.51100000000E-03 0.  1.
         12    1    3    3    0    0  0.11035951354E+02 -0.64578759364E+00 -0.12432691365E+01  0.11124521655E+02  0.00000000000E+00 0. -1.
</event>
<event>
 7    1  0.5910662E-013  0.5052889E+02  0.7816164E-02  0.1300439E+00
        -11   -1    0    0    0    0  0.00000000000E+00  0.00000000000E+00  0.45593999997E+02  0.45594000000E+02  0.51100000000E-03 0.  1.
         11   -1    0    0    0    0 -0.00000000000E+00 -0.00000000000E+00 -0.45593999997E+02  0.45594000000E+02  0.51100000000E-03 0. -1.
    9900012    2    1    2    0    0 -0.12717833549E+02  0.97959908355E+01  0.37355839718E+02  0.50528886782E+02  0.30000081863E+02 0.  0.
         12    1    1    2    0    0  0.12717833549E+02 -0.97959908355E+01 -0.37355839718E+02  0.40659113218E+02  0.00000000000E+00 0. -1.
         11    1    3    3    0    0  0.17067888848E+01 -0.20056672003E+01  0.19416270134E+02  0.19594064800E+02  0.51100000000E-03 0. -1.
        -11    1    3    3    0    0 -0.15260900451E+02  0.48197962728E+01  0.60259577727E+01  0.17100809513E+02  0.51100000000E-03 0.  1.
        -12    1    3    3    0    0  0.83627801656E+00  0.69818617631E+01  0.11913611811E+02  0.13834012469E+02  0.00000000000E+00 0.  1.
</event>
<event>
 7    1  0.5910662E-013  0.5052887E+02  0.7816164E-02  0.1300439E+00
        -11   -1    0    0    0    0  0.00000000000E+00  0.00000000000E+00  0.45593999997E+02  0.45594000000E+02  0.51100000000E-03 0.  1.
         11   -1    0    0    0    0 -0.00000000000E+00 -0.00000000000E+00 -0.45593999997E+02  0.45594000000E+02  0.51100000000E-03 0. -1.
    9900012    2    1    2    0    0  0.16556783134E+02  0.25646216649E+02  0.26857210297E+02  0.50528865220E+02  0.30000016322E+02 0.  0.
         12    1    1    2    0    0 -0.16556783134E+02 -0.25646216649E+02 -0.26857210297E+02  0.40659134780E+02  0.00000000000E+00 0. -1.
         11    1    3    3    0    0  0.61381185441E+01  0.93967193569E+01  0.30592335601E-01  0.11223892822E+02  0.51100000000E-03 0. -1.
        -11    1    3    3    0    0  0.10691062579E+02  0.13111083804E+02  0.30245960568E+02  0.34655698933E+02  0.51100000000E-03 0.  1.
        -12    1    3    3    0    0 -0.27239798876E+00  0.31384134878E+01 -0.34193426070E+01  0.46492734646E+01  0.00000000000E+00 0.  1.
</event>
<event>
 7    1  0.5910662E-013  0.5052886E+02  0.7816164E-02  0.1300439E+00
        -11   -1    0    0    0    0  0.00000000000E+00  0.00000000000E+00  0.45593999997E+02  0.45594000000E+02  0.51100000000E-03 0.  1.
         11   -1    0    0    0    0 -0.00000000000E+00 -0.00000000000E+00 -0.45593999997E+02  0.45594000000E+02  0.51100000000E-03 0. -1.
    9900012    2    1    2    0    0 -0.31993357647E+02 -0.24924834978E+02  0.28885091035E+01  0.50528858136E+02  0.29999994792E+02 0.  0.
         12    1    1    2    0    0  0.31993357647E+02  0.24924834978E+02 -0.28885091035E+01  0.40659141864E+02  0.00000000000E+00 0. -1.
         11    1    3    3    0    0 -0.99390297740E+01 -0.14944127446E+01 -0.43397406818E+01  0.10947645032E+02  0.51100000000E-03 0. -1.
        -11    1    3    3    0    0 -0.21825595412E+02 -0.23855436016E+02 -0.36343605149E-02  0.32333240729E+02  0.51100000000E-03 0.  1.
        -12    1    3    3    0    0 -0.22873246147E+00  0.42501378216E+00  0.72318841458E+01  0.72479723753E+01  0.00000000000E+00 0.  1.
</event>
<event>
 7    1  0.5910662E-013  0.5052886E+02  0.7816164E-02  0.1300439E+00
        -11   -1    0    0    0    0  0.00000000000E+00  0.00000000000E+00  0.45593999997E+02  0.45594000000E+02  0.51100000000E-03 0. -1.
         11   -1    0    0    0    0 -0.00000000000E+00 -0.00000000000E+00 -0.45593999997E+02  0.45594000000E+02  0.51100000000E-03 0.  1.
    9900012    2    1    2    0    0 -0.13878403721E+02 -0.36494097301E+02  0.11346212698E+02  0.50528858713E+02  0.29999996543E+02 0.  0.
         12    1    1    2    0    0  0.13878403721E+02  0.36494097301E+02 -0.11346212698E+02  0.40659141287E+02  0.00000000000E+00 0. -1.
         11    1    3    3    0    0 -0.20094796384E+01  0.10912879379E+01 -0.54099596242E+01  0.58733790255E+01  0.51100000000E-03 0. -1.
        -11    1    3    3    0    0 -0.11252389335E+02 -0.28854543174E+02  0.73984103602E+01  0.31842383762E+02  0.51100000000E-03 0.  1.
        -12    1    3    3    0    0 -0.61653474784E+00 -0.87308420650E+01  0.93577619621E+01  0.12813095926E+02  0.00000000000E+00 0.  1.
</event>
<event>
 7    1  0.5910662E-013  0.5052887E+02  0.7816164E-02  0.1300439E+00
        -11   -1    0    0    0    0  0.00000000000E+00  0.00000000000E+00  0.45593999997E+02  0.45594000000E+02  0.51100000000E-03 0.  1.
         11   -1    0    0    0    0 -0.00000000000E+00 -0.00000000000E+00 -0.45593999997E+02  0.45594000000E+02  0.51100000000E-03 0. -1.
    9900012    2    1    2    0    0  0.14332513333E+02  0.84848653340E+01  0.37091119637E+02  0.50528867765E+02  0.30000024059E+02 0.  0.
         12    1    1    2    0    0 -0.14332513333E+02 -0.84848653340E+01 -0.37091119637E+02  0.40659132235E+02  0.00000000000E+00 0. -1.
         11    1    3    3    0    0  0.15421726372E+02 -0.21157565670E+01  0.71105652907E+01  0.17113334250E+02  0.51100000000E-03 0. -1.
        -11    1    3    3    0    0 -0.16072230883E+01  0.51140388835E+01  0.26174974229E+02  0.26718267831E+02  0.51100000000E-03 0.  1.
         12    1    3    3    0    0  0.51801004962E+00  0.54865830174E+01  0.38055801171E+01  0.66972656843E+01  0.00000000000E+00 0. -1.
</event>
<event>
 7    1  0.5910662E-013  0.5052885E+02  0.7816164E-02  0.1300439E+00
        -11   -1    0    0    0    0  0.00000000000E+00  0.00000000000E+00  0.45593999997E+02  0.45594000000E+02  0.51100000000E-03 0. -1.
         11   -1    0    0    0    0 -0.00000000000E+00 -0.00000000000E+00 -0.45593999997E+02  0.45594000000E+02  0.51100000000E-03 0.  1.
    9900012    2    1    2    0    0 -0.10843502714E+02  0.34649572211E+02 -0.18302794578E+02  0.50528847342E+02  0.29999961980E+02 0.  0.
         12    1    1    2    0    0  0.10843502714E+02 -0.34649572211E+02  0.18302794578E+02  0.40659152658E+02  0.00000000000E+00 0. -1.
         11    1    3    3    0    0  0.69737626609E+01  0.23830456536E+02 -0.10100052520E+02  0.26805504762E+02  0.51100000000E-03 0.  1.
        -11    1    3    3    0    0 -0.61968200225E+01  0.68933197329E+00  0.54677642232E-01  0.62352824207E+01  0.51100000000E-03 0. -1.
        -12    1    3    3    0    0 -0.11620445352E+02  0.10129783701E+02 -0.82574197005E+01  0.17488060159E+02  0.00000000000E+00 0.  1.
</event>
<event>
 7    1  0.5910662E-013  0.5052886E+02  0.7816164E-02  0.1300439E+00
        -11   -1    0    0    0    0  0.00000000000E+00  0.00000000000E+00  0.45593999997E+02  0.45594000000E+02  0.51100000000E-03 0. -1.
         11   -1    0    0    0    0 -0.00000000000E+00 -0.00000000000E+00 -0.45593999997E+02  0.45594000000E+02  0.51100000000E-03 0.  1.
    9900012    2    1    2    0    0 -0.10704390142E+02  0.16263176018E+02 -0.35694409921E+02  0.50528858813E+02  0.29999996847E+02 0.  0.
         12    1    1    2    0    0  0.10704390142E+02 -0.16263176018E+02  0.35694409921E+02  0.40659141187E+02  0.00000000000E+00 0. -1.
         11    1    3    3    0    0 -0.43566831462E+01  0.14886287419E+02 -0.74677184695E+01  0.17214791912E+02  0.51100000000E-03 0. -1.
        -11    1    3    3    0    0 -0.40985465079E+01  0.55931636733E+01 -0.27643540644E+02  0.28499945666E+02  0.51100000000E-03 0.  1.
         12    1    3    3    0    0 -0.22491604878E+01 -0.42162750747E+01 -0.58315080762E+00  0.48141212354E+01  0.00000000000E+00 0. -1.
</event>
<event>
 7    1  0.5910662E-013  0.5052886E+02  0.7816164E-02  0.1300439E+00
        -11   -1    0    0    0    0  0.00000000000E+00  0.00000000000E+00  0.45593999997E+02  0.45594000000E+02  0.51100000000E-03 0.  1.
         11   -1    0    0    0    0 -0.00000000000E+00 -0.00000000000E+00 -0.45593999997E+02  0.45594000000E+02  0.51100000000E-03 0. -1.
    9900012    2    1    2    0    0 -0.85747572492E+01 -0.24946010597E+01  0.39666305803E+02  0.50528864343E+02  0.30000013657E+02 0.  0.
         12    1    1    2    0    0  0.85747572492E+01  0.24946010597E+01 -0.39666305803E+02  0.40659135657E+02  0.00000000000E+00 0. -1.
         11    1    3    3    0    0  0.15607714713E+01 -0.39803903158E+01  0.20913273031E+02  0.21345831063E+02  0.51100000000E-03 0. -1.
        -11    1    3    3    0    0 -0.15949782925E+02  0.41909027389E+00  0.10771627437E+02  0.19250952442E+02  0.51100000000E-03 0.  1.
        -12    1    3    3    0    0  0.58142542041E+01  0.10666989822E+01  0.79814053347E+01  0.99320808387E+01  0.00000000000E+00 0.  1.
</event>
<event>
 7    1  0.5910662E-013  0.5052887E+02  0.7816164E-02  0.1300439E+00
        -11   -1    0    0    0    0  0.00000000000E+00  0.00000000000E+00  0.45593999997E+02  0.45594000000E+02  0.51100000000E-03 0.  1.
         11   -1    0    0    0    0 -0.00000000000E+00 -0.00000000000E+00 -0.45593999997E+02  0.45594000000E+02  0.51100000000E-03 0. -1.
    9900012    2    1    2    0    0 -0.33683771704E+02  0.63795661621E+01  0.21860235939E+02  0.50528865037E+02  0.30000015766E+02 0.  0.
         12    1    1    2    0    0  0.33683771704E+02 -0.63795661621E+01 -0.21860235939E+02  0.40659134963E+02  0.00000000000E+00 0. -1.
         11    1    3    3    0    0 -0.80257131151E+01  0.55550508742E+01 -0.44729703664E+01  0.10736765126E+02  0.51100000000E-03 0. -1.
        -11    1    3    3    0    0 -0.19682379796E+02  0.33834485644E+01  0.26627817387E+02  0.33284898343E+02  0.51100000000E-03 0.  1.
        -12    1    3    3    0    0 -0.59756787933E+01 -0.25589332765E+01 -0.29461108147E+00  0.65072015678E+01  0.00000000000E+00 0.  1.
</event>
<event>
 7    1  0.5910662E-013  0.5052884E+02  0.7816164E-02  0.1300439E+00
        -11   -1    0    0    0    0  0.00000000000E+00  0.00000000000E+00  0.45593999997E+02  0.45594000000E+02  0.51100000000E-03 0.  1.
         11   -1    0    0    0    0 -0.00000000000E+00 -0.00000000000E+00 -0.45593999997E+02  0.45594000000E+02  0.51100000000E-03 0. -1.
    9900012    2    1    2    0    0  0.33423595930E+02  0.19900684154E+02  0.11831870590E+02  0.50528841667E+02  0.29999944730E+02 0.  0.
         12    1    1    2    0    0 -0.33423595930E+02 -0.19900684154E+02 -0.11831870590E+02  0.40659158333E+02  0.00000000000E+00 0. -1.
         11    1    3    3    0    0  0.19690666196E+02 -0.17562308958E+01  0.90169120944E+01  0.21728124313E+02  0.51100000000E-03 0. -1.
        -11    1    3    3    0    0  0.58094111699E+01  0.19584990567E+02  0.12826074574E+01  0.20468663752E+02  0.51100000000E-03 0.  1.
        -12    1    3    3    0    0  0.79235185643E+01  0.20719244831E+01  0.15323510384E+01  0.83320536008E+01  0.00000000000E+00 0.  1.
</event>
<event>
 7    1  0.5910662E-013  0.5052886E+02  0.7816164E-02  0.1300439E+00
        -11   -1    0    0    0    0  0.00000000000E+00  0.00000000000E+00  0.45593999997E+02  0.45594000000E+02  0.51100000000E-03 0.  1.
         11   -1    0    0    0    0 -0.00000000000E+00 -0.00000000000E+00 -0.45593999997E+02  0.45594000000E+02  0.51100000000E-03 0. -1.
    9900012    2    1    2    0    0 -0.12233699284E+02 -0.95351351174E+00  0.38763298521E+02  0.50528857136E+02  0.29999991750E+02 0.  0.
         12    1    1    2    0    0  0.12233699284E+02  0.95351351174E+00 -0.38763298521E+02  0.40659142864E+02  0.00000000000E+00 0. -1.
         11    1    3    3    0    0 -0.57570178665E+01 -0.10551269565E+02  0.14488767292E+02  0.18825432852E+02  0.51100000000E-03 0. -1.
        -11    1    3    3    0    0  0.49678708245E+00  0.12437842639E+02  0.11916666639E+02  0.17232343745E+02  0.51100000000E-03 0.  1.
         12    1    3    3    0    0 -0.69734684996E+01 -0.28400865851E+01  0.12357864590E+02  0.14471080539E+02  0.00000000000E+00 0. -1.
</event>
<event>
 7    1  0.5910662E-013  0.5052886E+02  0.7816164E-02  0.1300439E+00
        -11   -1    0    0    0    0  0.00000000000E+00  0.00000000000E+00  0.45593999997E+02  0.45594000000E+02  0.51100000000E-03 0.  1.
         11   -1    0    0    0    0 -0.00000000000E+00 -0.00000000000E+00 -0.45593999997E+02  0.45594000000E+02  0.51100000000E-03 0. -1.
    9900012    2    1    2    0    0 -0.19117785684E+02 -0.25504861531E+02  0.25242376972E+02  0.50528864663E+02  0.30000014628E+02 0.  0.
         12    1    1    2    0    0  0.19117785684E+02  0.25504861531E+02 -0.25242376972E+02  0.40659135337E+02  0.00000000000E+00 0. -1.
         11    1    3    3    0    0 -0.12019122660E+02 -0.17827878614E+02 -0.84618481970E+00  0.21517634498E+02  0.51100000000E-03 0. -1.
        -11    1    3    3    0    0 -0.57041532853E+01 -0.89894115477E+01  0.20433314110E+02  0.23040555775E+02  0.51100000000E-03 0.  1.
         12    1    3    3    0    0 -0.13945097390E+01  0.13124286298E+01  0.56552476818E+01  0.59706743893E+01  0.00000000000E+00 0. -1.
</event>
<event>
 7    1  0.5910662E-013  0.5052886E+02  0.7816164E-02  0.1300439E+00
        -11   -1    0    0    0    0  0.00000000000E+00  0.00000000000E+00  0.45593999997E+02  0.45594000000E+02  0.51100000000E-03 0. -1.
         11   -1    0    0    0    0 -0.00000000000E+00 -0.00000000000E+00 -0.45593999997E+02  0.45594000000E+02  0.51100000000E-03 0.  1.
    9900012    2    1    2    0    0  0.16366085418E+02  0.59531585957E+01 -0.36740672558E+02  0.50528857496E+02  0.29999992845E+02 0.  0.
         12    1    1    2    0    0 -0.16366085418E+02 -0.59531585957E+01  0.36740672558E+02  0.40659142504E+02  0.00000000000E+00 0. -1.
         11    1    3    3    0    0  0.73793173630E+01 -0.98200827755E+00  0.14676047466E+01  0.75876563545E+01  0.51100000000E-03 0. -1.
        -11    1    3    3    0    0 -0.29559489196E+01  0.67992380481E+01 -0.11481483793E+02  0.13667177558E+02  0.51100000000E-03 0.  1.
        -12    1    3    3    0    0  0.11942716975E+02  0.13592882518E+00 -0.26726793511E+02  0.29274023583E+02  0.00000000000E+00 0.  1.
</event>
<event>
 7    1  0.5910662E-013  0.5052886E+02  0.7816164E-02  0.1300439E+00
        -11   -1    0    0    0    0  0.00000000000E+00  0.00000000000E+00  0.45593999997E+02  0.45594000000E+02  0.51100000000E-03 0.  1.
         11   -1    0    0    0    0 -0.00000000000E+00 -0.00000000000E+00 -0.45593999997E+02  0.45594000000E+02  0.51100000000E-03 0. -1.
    9900012    2    1    2    0    0  0.15310816805E+02 -0.36351807377E+02 -0.98636070522E+01  0.50528858901E+02  0.29999997115E+02 0.  0.
         12    1    1    2    0    0 -0.15310816805E+02  0.36351807377E+02  0.98636070522E+01  0.40659141099E+02  0.00000000000E+00 0. -1.
         11    1    3    3    0    0  0.19849417252E+00 -0.18000044662E+02 -0.25172025144E+01  0.18176284453E+02  0.51100000000E-03 0. -1.
        -11    1    3    3    0    0  0.19268672323E+02 -0.11169050718E+02 -0.87635505033E+01  0.23933851439E+02  0.51100000000E-03 0.  1.
        -12    1    3    3    0    0 -0.41563496913E+01 -0.71827119981E+01  0.14171459655E+01  0.84187230084E+01  0.00000000000E+00 0.  1.
</event>
<event>
 7    1  0.5910662E-013  0.5052886E+02  0.7816164E-02  0.1300439E+00
        -11   -1    0    0    0    0  0.00000000000E+00  0.00000000000E+00  0.45593999997E+02  0.45594000000E+02  0.51100000000E-03 0.  1.
         11   -1    0    0    0    0 -0.00000000000E+00 -0.00000000000E+00 -0.45593999997E+02  0.45594000000E+02  0.51100000000E-03 0. -1.
    9900012    2    1    2    0    0  0.38273584878E+02  0.13443862748E+02 -0.27497118339E+01  0.50528860066E+02  0.30000000657E+02 0.  0.
         12    1    1    2    0    0 -0.38273584878E+02 -0.13443862748E+02  0.27497118339E+01  0.40659139934E+02  0.00000000000E+00 0. -1.
         11    1    3    3    0    0  0.14039148632E+02  0.17730202722E+02  0.45089566392E+01  0.23060539307E+02  0.51100000000E-03 0. -1.
        -11    1    3    3    0    0  0.86084656187E+01  0.12366113816E+01  0.13362980729E+01  0.87988965682E+01  0.51100000000E-03 0.  1.
         12    1    3    3    0    0  0.15625970627E+02 -0.55229513552E+01 -0.85949665460E+01  0.18669424191E+02  0.00000000000E+00 0. -1.
</event>
<event>
 7    1  0.5910662E-013  0.5052886E+02  0.7816164E-02  0.1300439E+00
        -11   -1    0    0    0    0  0.00000000000E+00  0.00000000000E+00  0.45593999997E+02  0.45594000000E+02  0.51100000000E-03 0. -1.
         11   -1    0    0    0    0 -0.00000000000E+00 -0.00000000000E+00 -0.45593999997E+02  0.45594000000E+02  0.51100000000E-03 0.  1.
    9900012    2    1    2    0    0  0.25775930721E+02 -0.49898897966E+00 -0.31440710939E+02  0.50528857131E+02  0.29999991735E+02 0.  0.
         12    1    1    2    0    0 -0.25775930721E+02  0.49898897966E+00  0.31440710939E+02  0.40659142869E+02  0.00000000000E+00 0. -1.
         11    1    3    3    0    0 -0.38275742213E+01  0.97184778430E+00 -0.10023025272E+02  0.10772921999E+02  0.51100000000E-03 0. -1.
        -11    1    3    3    0    0  0.14613171205E+02 -0.24548421117E+01 -0.19677619886E+02  0.24632899689E+02  0.51100000000E-03 0.  1.
         12    1    3    3    0    0  0.14990333737E+02  0.98400534776E+00 -0.17400657811E+01  0.15123035443E+02  0.00000000000E+00 0. -1.
</event>
<event>
 7    1  0.5910662E-013  0.5052885E+02  0.7816164E-02  0.1300439E+00
        -11   -1    0    0    0    0  0.00000000000E+00  0.00000000000E+00  0.45593999997E+02  0.45594000000E+02  0.51100000000E-03 0.  1.
         11   -1    0    0    0    0 -0.00000000000E+00 -0.00000000000E+00 -0.45593999997E+02  0.45594000000E+02  0.51100000000E-03 0. -1.
    9900012    2    1    2    0    0  0.29731346914E+02 -0.40826984992E+01  0.27432551637E+02  0.50528852128E+02  0.29999976528E+02 0.  0.
         12    1    1    2    0    0 -0.29731346914E+02  0.40826984992E+01 -0.27432551637E+02  0.40659147872E+02  0.00000000000E+00 0. -1.
         11    1    3    3    0    0  0.48891100984E+01 -0.68812448749E+01  0.30681504199E+01  0.89815631069E+01  0.51100000000E-03 0. -1.
        -11    1    3    3    0    0  0.58949189666E+01  0.52724729559E+01  0.20607908402E+02  0.22073398688E+02  0.51100000000E-03 0.  1.
        -12    1    3    3    0    0  0.18947317849E+02 -0.24739265803E+01  0.37564928151E+01  0.19473890332E+02  0.00000000000E+00 0.  1.
</event>
<event>
 7    1  0.5910662E-013  0.5052887E+02  0.7816164E-02  0.1300439E+00
        -11   -1    0    0    0    0  0.00000000000E+00  0.00000000000E+00  0.45593999997E+02  0.45594000000E+02  0.51100000000E-03 0.  1.
         11   -1    0    0    0    0 -0.00000000000E+00 -0.00000000000E+00 -0.45593999997E+02  0.45594000000E+02  0.51100000000E-03 0. -1.
    9900012    2    1    2    0    0 -0.21825464229E+02  0.34259608163E+02 -0.17587640877E+01  0.50528869520E+02  0.30000029394E+02 0.  0.
         12    1    1    2    0    0  0.21825464229E+02 -0.34259608163E+02  0.17587640877E+01  0.40659130480E+02  0.00000000000E+00 0. -1.
         11    1    3    3    0    0  0.33589054495E+01  0.93243941552E+01 -0.57372302768E+00  0.99275238884E+01  0.51100000000E-03 0. -1.
        -11    1    3    3    0    0 -0.22343634687E+02  0.19068394053E+02 -0.87171325683E+01  0.30640333928E+02  0.51100000000E-03 0.  1.
        -12    1    3    3    0    0 -0.28407349913E+01  0.58668199548E+01  0.75320915083E+01  0.99610117037E+01  0.00000000000E+00 0.  1.
</event>
<event>
 7    1  0.5910662E-013  0.5052898E+02  0.7816164E-02  0.1300438E+00
        -11   -1    0    0    0    0  0.00000000000E+00  0.00000000000E+00  0.45593999997E+02  0.45594000000E+02  0.51100000000E-03 0.  1.
         11   -1    0    0    0    0 -0.00000000000E+00 -0.00000000000E+00 -0.45593999997E+02  0.45594000000E+02  0.51100000000E-03 0. -1.
    9900012    2    1    2    0    0 -0.30096124270E+02  0.13490747026E+02  0.23777691196E+02  0.50528984394E+02  0.30000378562E+02 0.  0.
         12    1    1    2    0    0  0.30096124270E+02 -0.13490747026E+02 -0.23777691196E+02  0.40659015606E+02  0.00000000000E+00 0. -1.
         11    1    3    3    0    0  0.61520961268E+00  0.33274323538E+01  0.39793825200E+01  0.52235787003E+01  0.51100000000E-03 0. -1.
        -11    1    3    3    0    0 -0.31107833348E+02  0.15853523051E+02  0.15702226149E+02  0.38283043179E+02  0.51100000000E-03 0.  1.
        -12    1    3    3    0    0  0.39649946474E+00 -0.56902083791E+01  0.40960825277E+01  0.70223625154E+01  0.00000000000E+00 0.  1.
</event>
<event>
 7    1  0.5910662E-013  0.5052886E+02  0.7816164E-02  0.1300439E+00
        -11   -1    0    0    0    0  0.00000000000E+00  0.00000000000E+00  0.45593999997E+02  0.45594000000E+02  0.51100000000E-03 0.  1.
         11   -1    0    0    0    0 -0.00000000000E+00 -0.00000000000E+00 -0.45593999997E+02  0.45594000000E+02  0.51100000000E-03 0. -1.
    9900012    2    1    2    0    0  0.38599975999E+01 -0.20958477092E+02  0.34626704141E+02  0.50528856095E+02  0.29999988585E+02 0.  0.
         12    1    1    2    0    0 -0.38599975999E+01  0.20958477092E+02 -0.34626704141E+02  0.40659143905E+02  0.00000000000E+00 0. -1.
         11    1    3    3    0    0  0.13650204389E+02 -0.12044689326E+02  0.13855484977E+02  0.22877436155E+02  0.51100000000E-03 0. -1.
        -11    1    3    3    0    0 -0.59073509614E+01 -0.11421030873E+02  0.18424684197E+02  0.22467882179E+02  0.51100000000E-03 0.  1.
         12    1    3    3    0    0 -0.38828558274E+01  0.25072431067E+01  0.23465349665E+01  0.51835377611E+01  0.00000000000E+00 0. -1.
</event>
<event>
 7    1  0.5910662E-013  0.5052885E+02  0.7816164E-02  0.1300439E+00
        -11   -1    0    0    0    0  0.00000000000E+00  0.00000000000E+00  0.45593999997E+02  0.45594000000E+02  0.51100000000E-03 0. -1.
         11   -1    0    0    0    0 -0.00000000000E+00 -0.00000000000E+00 -0.45593999997E+02  0.45594000000E+02  0.51100000000E-03 0.  1.
    9900012    2    1    2    0    0  0.30812986975E+02  0.22424702947E+02 -0.14172467397E+02  0.50528852189E+02  0.29999976713E+02 0.  0.
         12    1    1    2    0    0 -0.30812986975E+02 -0.22424702947E+02  0.14172467397E+02  0.40659147811E+02  0.00000000000E+00 0. -1.
         11    1    3    3    0    0  0.22298072326E+02  0.20909517262E+02  0.19936609921E+00  0.30568802539E+02  0.51100000000E-03 0. -1.
        -11    1    3    3    0    0  0.10124319158E+02 -0.15977315543E+01 -0.96300616528E+01  0.14063878279E+02  0.51100000000E-03 0.  1.
         12    1    3    3    0    0 -0.16094045093E+01  0.31129172396E+01 -0.47417718437E+01  0.58961713707E+01  0.00000000000E+00 0. -1.
</event>
<event>
 7    1  0.5910662E-013  0.5052880E+02  0.7816164E-02  0.1300439E+00
        -11   -1    0    0    0    0  0.00000000000E+00  0.00000000000E+00  0.45593999997E+02  0.45594000000E+02  0.51100000000E-03 0.  1.
         11   -1    0    0    0    0 -0.00000000000E+00 -0.00000000000E+00 -0.45593999997E+02  0.45594000000E+02  0.51100000000E-03 0. -1.
    9900012    2    1    2    0    0 -0.11033676876E+02  0.69586602570E+01  0.38509810269E+02  0.50528800981E+02  0.29999821060E+02 0.  0.
         12    1    1    2    0    0  0.11033676876E+02 -0.69586602570E+01 -0.38509810269E+02  0.40659199019E+02  0.00000000000E+00 0. -1.
         11    1    3    3    0    0 -0.15254625522E+02  0.96502665636E+01  0.20754786241E+02  0.27506224691E+02  0.51100000000E-03 0. -1.
        -11    1    3    3    0    0  0.92532089049E+01 -0.10588273224E+01  0.10375215560E+02  0.13942312883E+02  0.51100000000E-03 0.  1.
        -12    1    3    3    0    0 -0.50322602593E+01 -0.16327789842E+01  0.73798084673E+01  0.90802634071E+01  0.00000000000E+00 0.  1.
</event>
<event>
 7    1  0.5910662E-013  0.5052886E+02  0.7816164E-02  0.1300439E+00
        -11   -1    0    0    0    0  0.00000000000E+00  0.00000000000E+00  0.45593999997E+02  0.45594000000E+02  0.51100000000E-03 0. -1.
         11   -1    0    0    0    0 -0.00000000000E+00 -0.00000000000E+00 -0.45593999997E+02  0.45594000000E+02  0.51100000000E-03 0.  1.
    9900012    2    1    2    0    0  0.18839887243E+02 -0.20068272557E+02 -0.29924718449E+02  0.50528859711E+02  0.29999999578E+02 0.  0.
         12    1    1    2    0    0 -0.18839887243E+02  0.20068272557E+02  0.29924718449E+02  0.40659140289E+02  0.00000000000E+00 0. -1.
         11    1    3    3    0    0  0.25116309269E+02 -0.16934950531E+02 -0.17630143956E+02  0.35049158577E+02  0.51100000000E-03 0. -1.
        -11    1    3    3    0    0 -0.52671402813E+01 -0.13964766112E+00 -0.40349274512E+01  0.66364831055E+01  0.51100000000E-03 0.  1.
         12    1    3    3    0    0 -0.10092817447E+01 -0.29936743647E+01 -0.82596470420E+01  0.88432180285E+01  0.00000000000E+00 0. -1.
</event>
<event>
 7    1  0.5910662E-013  0.5052888E+02  0.7816164E-02  0.1300439E+00
        -11   -1    0    0    0    0  0.00000000000E+00  0.00000000000E+00  0.45593999997E+02  0.45594000000E+02  0.51100000000E-03 0.  1.
         11   -1    0    0    0    0 -0.00000000000E+00 -0.00000000000E+00 -0.45593999997E+02  0.45594000000E+02  0.51100000000E-03 0. -1.
    9900012    2    1    2    0    0  0.15469944365E+02 -0.37366345204E+01  0.37415000078E+02  0.50528882363E+02  0.30000068430E+02 0.  0.
         12    1    1    2    0    0 -0.15469944365E+02  0.37366345204E+01 -0.37415000078E+02  0.40659117637E+02  0.00000000000E+00 0. -1.
         11    1    3    3    0    0 -0.47581571673E+01 -0.46322915246E+01  0.88836662614E+00  0.66998044689E+01  0.51100000000E-03 0. -1.
        -11    1    3    3    0    0  0.21597876396E+02  0.14145450722E+01  0.29141500496E+02  0.36300086143E+02  0.51100000000E-03 0.  1.
        -12    1    3    3    0    0 -0.13697748638E+01 -0.51888806792E+00  0.73851329559E+01  0.75289917506E+01  0.00000000000E+00 0.  1.
</event>
<event>
 7    1  0.5910662E-013  0.5052886E+02  0.7816164E-02  0.1300439E+00
        -11   -1    0    0    0    0  0.00000000000E+00  0.00000000000E+00  0.45593999997E+02  0.45594000000E+02  0.51100000000E-03 0.  1.
         11   -1    0    0    0    0 -0.00000000000E+00 -0.00000000000E+00 -0.45593999997E+02  0.45594000000E+02  0.51100000000E-03 0. -1.
    9900012    2    1    2    0    0 -0.37112326345E+02  0.13570880318E+02 -0.95745602465E+01  0.50528858798E+02  0.29999996804E+02 0.  0.
         12    1    1    2    0    0  0.37112326345E+02 -0.13570880318E+02  0.95745602465E+01  0.40659141202E+02  0.00000000000E+00 0. -1.
         11    1    3    3    0    0  0.15112257831E+01 -0.14152316532E+01  0.23011683289E+01  0.30954902582E+01  0.51100000000E-03 0. -1.
        -11    1    3    3    0    0 -0.40570135230E+02  0.11931070072E+02 -0.10643086901E+02  0.43606898590E+02  0.51100000000E-03 0.  1.
        -12    1    3    3    0    0  0.19465831017E+01  0.30550418998E+01 -0.12326416745E+01  0.38264699501E+01  0.00000000000E+00 0.  1.
</event>
<event>
 7    1  0.5910662E-013  0.5052886E+02  0.7816164E-02  0.1300439E+00
        -11   -1    0    0    0    0  0.00000000000E+00  0.00000000000E+00  0.45593999997E+02  0.45594000000E+02  0.51100000000E-03 0.  1.
         11   -1    0    0    0    0 -0.00000000000E+00 -0.00000000000E+00 -0.45593999997E+02  0.45594000000E+02  0.51100000000E-03 0. -1.
    9900012    2    1    2    0    0 -0.24307297842E+02  0.10165746657E+02  0.30967375979E+02  0.50528861931E+02  0.30000006326E+02 0.  0.
         12    1    1    2    0    0  0.24307297842E+02 -0.10165746657E+02 -0.30967375979E+02  0.40659138069E+02  0.00000000000E+00 0. -1.
         11    1    3    3    0    0 -0.14082005224E+02 -0.66691437638E+01  0.12862917195E+02  0.20204825876E+02  0.51100000000E-03 0. -1.
        -11    1    3    3    0    0 -0.68692221435E+01  0.11456476433E+02  0.26479939570E+01  0.13617963775E+02  0.51100000000E-03 0.  1.
        -12    1    3    3    0    0 -0.33560704742E+01  0.53784139872E+01  0.15456464828E+02  0.16706072280E+02  0.00000000000E+00 0.  1.
</event>
<event>
 7    1  0.5910662E-013  0.5052886E+02  0.7816164E-02  0.1300439E+00
        -11   -1    0    0    0    0  0.00000000000E+00  0.00000000000E+00  0.45593999997E+02  0.45594000000E+02  0.51100000000E-03 0.  1.
         11   -1    0    0    0    0 -0.00000000000E+00 -0.00000000000E+00 -0.45593999997E+02  0.45594000000E+02  0.51100000000E-03 0. -1.
    9900012    2    1    2    0    0 -0.37496112859E+02 -0.82434540284E+01 -0.13388517664E+02  0.50528863031E+02  0.30000009668E+02 0.  0.
         12    1    1    2    0    0  0.37496112859E+02  0.82434540284E+01  0.13388517664E+02  0.40659136969E+02  0.00000000000E+00 0. -1.
         11    1    3    3    0    0 -0.80313359591E+01  0.91016448742E+01  0.20071398738E+00  0.12140122861E+02  0.51100000000E-03 0. -1.
        -11    1    3    3    0    0 -0.25738849509E+02 -0.13211012913E+02 -0.70044777228E+01  0.29767128593E+02  0.51100000000E-03 0.  1.
         12    1    3    3    0    0 -0.37259273910E+01 -0.41340859896E+01 -0.65847539283E+01  0.86216115772E+01  0.00000000000E+00 0. -1.
</event>
<event>
 7    1  0.5910662E-013  0.5052886E+02  0.7816164E-02  0.1300439E+00
        -11   -1    0    0    0    0  0.00000000000E+00  0.00000000000E+00  0.45593999997E+02  0.45594000000E+02  0.51100000000E-03 0.  1.
         11   -1    0    0    0    0 -0.00000000000E+00 -0.00000000000E+00 -0.45593999997E+02  0.45594000000E+02  0.51100000000E-03 0. -1.
    9900012    2    1    2    0    0 -0.35119251667E+02 -0.16710934734E+02  0.11855308735E+02  0.50528861759E+02  0.30000005801E+02 0.  0.
         12    1    1    2    0    0  0.35119251667E+02  0.16710934734E+02 -0.11855308735E+02  0.40659138241E+02  0.00000000000E+00 0. -1.
         11    1    3    3    0    0 -0.19368939775E+01 -0.62427332900E+01  0.31178090470E+00  0.65437363030E+01  0.51100000000E-03 0. -1.
        -11    1    3    3    0    0 -0.30843457979E+02 -0.95690474417E+01  0.12406996118E+00  0.32293977189E+02  0.51100000000E-03 0.  1.
        -12    1    3    3    0    0 -0.23388997102E+01 -0.89915400233E+00  0.11419457869E+02  0.11691148266E+02  0.00000000000E+00 0.  1.
</event>
<event>
 7    1  0.5910662E-013  0.5052886E+02  0.7816164E-02  0.1300439E+00
        -11   -1    0    0    0    0  0.00000000000E+00  0.00000000000E+00  0.45593999997E+02  0.45594000000E+02  0.51100000000E-03 0. -1.
         11   -1    0    0    0    0 -0.00000000000E+00 -0.00000000000E+00 -0.45593999997E+02  0.45594000000E+02  0.51100000000E-03 0.  1.
    9900012    2    1    2    0    0  0.38285932081E+02  0.13562833199E+01 -0.13620340243E+02  0.50528858738E+02  0.29999996621E+02 0.  0.
         12    1    1    2    0    0 -0.38285932081E+02 -0.13562833199E+01  0.13620340243E+02  0.40659141262E+02  0.00000000000E+00 0. -1.
         11    1    3    3    0    0 -0.67231312728E+00 -0.26133598091E+01 -0.77425910288E+01  0.81993518362E+01  0.51100000000E-03 0. -1.
        -11    1    3    3    0    0  0.37474889574E+02 -0.18009170136E+00 -0.47070903660E+01  0.37769782652E+02  0.51100000000E-03 0.  1.
        -12    1    3    3    0    0  0.14833556351E+01  0.41497348304E+01 -0.11706588485E+01  0.45597242507E+01  0.00000000000E+00 0.  1.
</event>
<event>
 7    1  0.5910662E-013  0.5052886E+02  0.7816164E-02  0.1300439E+00
        -11   -1    0    0    0    0  0.00000000000E+00  0.00000000000E+00  0.45593999997E+02  0.45594000000E+02  0.51100000000E-03 0.  1.
         11   -1    0    0    0    0 -0.00000000000E+00 -0.00000000000E+00 -0.45593999997E+02  0.45594000000E+02  0.51100000000E-03 0. -1.
    9900012    2    1    2    0    0  0.37794900871E+02 -0.27981777107E+01  0.14726902304E+02  0.50528856110E+02  0.29999988633E+02 0.  0.
         12    1    1    2    0    0 -0.37794900871E+02  0.27981777107E+01 -0.14726902304E+02  0.40659143890E+02  0.00000000000E+00 0. -1.
         11    1    3    3    0    0  0.29164577354E+01  0.43518282120E+01 -0.64947253291E+01  0.83441951002E+01  0.51100000000E-03 0. -1.
        -11    1    3    3    0    0  0.21047914996E+02 -0.27529298578E+01  0.84318927243E+01  0.22840537727E+02  0.51100000000E-03 0.  1.
         12    1    3    3    0    0  0.13830528140E+02 -0.43970760649E+01  0.12789734909E+02  0.19344123283E+02  0.00000000000E+00 0. -1.
</event>
<event>
 7    1  0.5910662E-013  0.5052887E+02  0.7816164E-02  0.1300439E+00
        -11   -1    0    0    0    0  0.00000000000E+00  0.00000000000E+00  0.45593999997E+02  0.45594000000E+02  0.51100000000E-03 0.  1.
         11   -1    0    0    0    0 -0.00000000000E+00 -0.00000000000E+00 -0.45593999997E+02  0.45594000000E+02  0.51100000000E-03 0. -1.
    9900012    2    1    2    0    0  0.40467140934E+02  0.28518293779E+00  0.39362817813E+01  0.50528866476E+02  0.30000020140E+02 0.  0.
         12    1    1    2    0    0 -0.40467140934E+02 -0.28518293779E+00 -0.39362817813E+01  0.40659133524E+02  0.00000000000E+00 0. -1.
         11    1    3    3    0    0  0.47765190271E+01  0.13826081877E+01  0.46286886727E+01  0.67934894205E+01  0.51100000000E-03 0. -1.
        -11    1    3    3    0    0  0.25293999182E+02  0.70085192234E+01 -0.94635208361E+01  0.27900967066E+02  0.51100000000E-03 0.  1.
        -12    1    3    3    0    0  0.10396622724E+02 -0.81059444733E+01  0.87711139447E+01  0.15834409989E+02  0.00000000000E+00 0.  1.
</event>
<event>
 7    1  0.5910662E-013  0.5052884E+02  0.7816164E-02  0.1300439E+00
        -11   -1    0    0    0    0  0.00000000000E+00  0.00000000000E+00  0.45593999997E+02  0.45594000000E+02  0.51100000000E-03 0. -1.
         11   -1    0    0    0    0 -0.00000000000E+00 -0.00000000000E+00 -0.45593999997E+02  0.45594000000E+02  0.51100000000E-03 0.  1.
    9900012    2    1    2    0    0  0.18439711891E+00 -0.25334618565E+02 -0.31800792404E+02  0.50528839929E+02  0.29999939449E+02 0.  0.
         12    1    1    2    0    0 -0.18439711891E+00  0.25334618565E+02  0.31800792404E+02  0.40659160071E+02  0.00000000000E+00 0. -1.
         11    1    3    3    0    0  0.98578230959E+01 -0.14153784166E+02 -0.29152918286E+01  0.17493004576E+02  0.51100000000E-03 0. -1.
        -11    1    3    3    0    0 -0.17905442597E+01 -0.31783370016E+01 -0.13511863666E+02  0.13995654141E+02  0.51100000000E-03 0.  1.
         12    1    3    3    0    0 -0.78828817172E+01 -0.80024973971E+01 -0.15373636910E+02  0.19040181212E+02  0.00000000000E+00 0. -1.
</event>
<event>
 7    1  0.5910662E-013  0.5052886E+02  0.7816164E-02  0.1300439E+00
        -11   -1    0    0    0    0  0.00000000000E+00  0.00000000000E+00  0.45593999997E+02  0.45594000000E+02  0.51100000000E-03 0.  1.
         11   -1    0    0    0    0 -0.00000000000E+00 -0.00000000000E+00 -0.45593999997E+02  0.45594000000E+02  0.51100000000E-03 0. -1.
    9900012    2    1    2    0    0 -0.30045355917E+02 -0.15454310498E+02  0.22618713105E+02  0.50528864401E+02  0.30000013833E+02 0.  0.
         12    1    1    2    0    0  0.30045355917E+02  0.15454310498E+02 -0.22618713105E+02  0.40659135599E+02  0.00000000000E+00 0. -1.
         11    1    3    3    0    0 -0.69242241635E+01  0.51975275753E+01  0.10481736396E+02  0.13595071581E+02  0.51100000000E-03 0. -1.
        -11    1    3    3    0    0 -0.29962009591E+01 -0.12754558009E+02  0.28701777140E+01  0.13412452817E+02  0.51100000000E-03 0.  1.
        -12    1    3    3    0    0 -0.20124930795E+02 -0.78972800643E+01  0.92667989943E+01  0.23521340002E+02  0.00000000000E+00 0.  1.
</event>
<event>
 7    1  0.5910662E-013  0.5052887E+02  0.7816164E-02  0.1300439E+00
        -11   -1    0    0    0    0  0.00000000000E+00  0.00000000000E+00  0.45593999997E+02  0.45594000000E+02  0.51100000000E-03 0.  1.
         11   -1    0    0    0    0 -0.00000000000E+00 -0.00000000000E+00 -0.45593999997E+02  0.45594000000E+02  0.51100000000E-03 0. -1.
    9900012    2    1    2    0    0  0.39764042022E+02  0.84250227888E+01 -0.10025466069E+01  0.50528866381E+02  0.30000019852E+02 0.  0.
         12    1    1    2    0    0 -0.39764042022E+02 -0.84250227888E+01  0.10025466069E+01  0.40659133619E+02  0.00000000000E+00 0. -1.
         11    1    3    3    0    0  0.52151139923E+01  0.73435131979E+01  0.74041276067E+01  0.11659575718E+02  0.51100000000E-03 0. -1.
        -11    1    3    3    0    0  0.25890697906E+02  0.77416363379E+01 -0.57850317337E+01  0.27635624901E+02  0.51100000000E-03 0.  1.
         12    1    3    3    0    0  0.86582301241E+01 -0.66601267469E+01 -0.26216424799E+01  0.11233665762E+02  0.00000000000E+00 0. -1.
</event>
<event>
 7    1  0.5910662E-013  0.5052885E+02  0.7816164E-02  0.1300439E+00
        -11   -1    0    0    0    0  0.00000000000E+00  0.00000000000E+00  0.45593999997E+02  0.45594000000E+02  0.51100000000E-03 0. -1.
         11   -1    0    0    0    0 -0.00000000000E+00 -0.00000000000E+00 -0.45593999997E+02  0.45594000000E+02  0.51100000000E-03 0.  1.
    9900012    2    1    2    0    0 -0.70538217700E+01 -0.39803383293E+02 -0.43704031199E+01  0.50528854085E+02  0.29999982476E+02 0.  0.
         12    1    1    2    0    0  0.70538217700E+01  0.39803383293E+02  0.43704031199E+01  0.40659145915E+02  0.00000000000E+00 0. -1.
         11    1    3    3    0    0 -0.11404006166E+02 -0.43175647366E+01 -0.12636068671E+01  0.12259258724E+02  0.51100000000E-03 0. -1.
        -11    1    3    3    0    0  0.90682051600E+01 -0.20878302190E+02 -0.11090373256E+01  0.22789598751E+02  0.51100000000E-03 0.  1.
         12    1    3    3    0    0 -0.47180207638E+01 -0.14607516366E+02 -0.19977589272E+01  0.15479996610E+02  0.00000000000E+00 0. -1.
</event>
<event>
 7    1  0.5910662E-013  0.5052887E+02  0.7816164E-02  0.1300439E+00
        -11   -1    0    0    0    0  0.00000000000E+00  0.00000000000E+00  0.45593999997E+02  0.45594000000E+02  0.51100000000E-03 0.  1.
         11   -1    0    0    0    0 -0.00000000000E+00 -0.00000000000E+00 -0.45593999997E+02  0.45594000000E+02  0.51100000000E-03 0. -1.
    9900012    2    1    2    0    0 -0.12722772964E+02  0.92494292553E+01  0.37493255089E+02  0.50528867316E+02  0.30000022694E+02 0.  0.
         12    1    1    2    0    0  0.12722772964E+02 -0.92494292553E+01 -0.37493255089E+02  0.40659132684E+02  0.00000000000E+00 0. -1.
         11    1    3    3    0    0 -0.17355451158E+01  0.76525122330E+01 -0.17812919445E+01  0.80464937443E+01  0.51100000000E-03 0. -1.
        -11    1    3    3    0    0 -0.35443402397E+01  0.48399016600E+01  0.27713913448E+02  0.28355740066E+02  0.51100000000E-03 0.  1.
        -12    1    3    3    0    0 -0.74428876083E+01 -0.32429846377E+01  0.11560633585E+02  0.14126633505E+02  0.00000000000E+00 0.  1.
</event>
<event>
 7    1  0.5910662E-013  0.5052888E+02  0.7816164E-02  0.1300439E+00
        -11   -1    0    0    0    0  0.00000000000E+00  0.00000000000E+00  0.45593999997E+02  0.45594000000E+02  0.51100000000E-03 0. -1.
         11   -1    0    0    0    0 -0.00000000000E+00 -0.00000000000E+00 -0.45593999997E+02  0.45594000000E+02  0.51100000000E-03 0.  1.
    9900012    2    1    2    0    0  0.18814008879E+02  0.19105093682E+02 -0.30564561916E+02  0.50528880730E+02  0.30000063466E+02 0.  0.
         12    1    1    2    0    0 -0.18814008879E+02 -0.19105093682E+02  0.30564561916E+02  0.40659119270E+02  0.00000000000E+00 0. -1.
         11    1    3    3    0    0  0.15982647781E+02  0.17390726151E+02 -0.73483298451E+01  0.24736215109E+02  0.51100000000E-03 0. -1.
        -11    1    3    3    0    0  0.36036078245E+01  0.59147415899E+01 -0.15398872846E+02  0.16884769546E+02  0.51100000000E-03 0.  1.
         12    1    3    3    0    0 -0.77224672613E+00 -0.42003740582E+01 -0.78173592245E+01  0.89078960748E+01  0.00000000000E+00 0. -1.
</event>
<event>
 7    1  0.5910662E-013  0.5052886E+02  0.7816164E-02  0.1300439E+00
        -11   -1    0    0    0    0  0.00000000000E+00  0.00000000000E+00  0.45593999997E+02  0.45594000000E+02  0.51100000000E-03 0. -1.
         11   -1    0    0    0    0 -0.00000000000E+00 -0.00000000000E+00 -0.45593999997E+02  0.45594000000E+02  0.51100000000E-03 0.  1.
    9900012    2    1    2    0    0  0.53983416318E+01  0.57464418264E+01 -0.39887370183E+02  0.50528856057E+02  0.29999988472E+02 0.  0.
         12    1    1    2    0    0 -0.53983416318E+01 -0.57464418264E+01  0.39887370183E+02  0.40659143943E+02  0.00000000000E+00 0. -1.
         11    1    3    3    0    0 -0.23339654272E+01 -0.91326621506E+01 -0.84812137411E+01  0.12680059123E+02  0.51100000000E-03 0. -1.
        -11    1    3    3    0    0  0.81723350422E+01  0.11058829553E+02 -0.12590478723E+02  0.18644166000E+02  0.51100000000E-03 0.  1.
        -12    1    3    3    0    0 -0.44002798322E+00  0.38202744243E+01 -0.18815677719E+02  0.19204630934E+02  0.00000000000E+00 0.  1.
</event>
<event>
 7    1  0.5910662E-013  0.5052886E+02  0.7816164E-02  0.1300439E+00
        -11   -1    0    0    0    0  0.00000000000E+00  0.00000000000E+00  0.45593999997E+02  0.45594000000E+02  0.51100000000E-03 0.  1.
         11   -1    0    0    0    0 -0.00000000000E+00 -0.00000000000E+00 -0.45593999997E+02  0.45594000000E+02  0.51100000000E-03 0. -1.
    9900012    2    1    2    0    0  0.20412140244E+02  0.53547727214E+01  0.34753939828E+02  0.50528863342E+02  0.30000010614E+02 0.  0.
         12    1    1    2    0    0 -0.20412140244E+02 -0.53547727214E+01 -0.34753939828E+02  0.40659136658E+02  0.00000000000E+00 0. -1.
         11    1    3    3    0    0  0.31737473412E+01  0.70792870963E+01  0.24522979841E+02  0.25720915974E+02  0.51100000000E-03 0. -1.
        -11    1    3    3    0    0  0.17111846475E+02  0.33224704969E+01  0.89715432495E+01  0.19604659868E+02  0.51100000000E-03 0.  1.
        -12    1    3    3    0    0  0.12654642750E+00 -0.50469848718E+01  0.12594167373E+01  0.52032875005E+01  0.00000000000E+00 0.  1.
</event>
<event>
 7    1  0.5910662E-013  0.5052887E+02  0.7816164E-02  0.1300439E+00
        -11   -1    0    0    0    0  0.00000000000E+00  0.00000000000E+00  0.45593999997E+02  0.45594000000E+02  0.51100000000E-03 0.  1.
         11   -1    0    0    0    0 -0.00000000000E+00 -0.00000000000E+00 -0.45593999997E+02  0.45594000000E+02  0.51100000000E-03 0. -1.
    9900012    2    1    2    0    0  0.32978024185E+02 -0.66206232438E+01  0.22842551001E+02  0.50528869813E+02  0.30000030285E+02 0.  0.
         12    1    1    2    0    0 -0.32978024185E+02  0.66206232438E+01 -0.22842551001E+02  0.40659130187E+02  0.00000000000E+00 0. -1.
         11    1    3    3    0    0  0.18838490561E+02  0.23413824726E+01  0.25012845911E+02  0.31400848067E+02  0.51100000000E-03 0. -1.
        -11    1    3    3    0    0 -0.89366527177E+00 -0.13144032459E+01 -0.15947862447E+01  0.22515854277E+01  0.51100000000E-03 0.  1.
         12    1    3    3    0    0  0.15033198896E+02 -0.76476024705E+01 -0.57550866531E+00  0.16876436319E+02  0.00000000000E+00 0. -1.
</event>
<event>
 7    1  0.5910662E-013  0.5052885E+02  0.7816164E-02  0.1300439E+00
        -11   -1    0    0    0    0  0.00000000000E+00  0.00000000000E+00  0.45593999997E+02  0.45594000000E+02  0.51100000000E-03 0.  1.
         11   -1    0    0    0    0 -0.00000000000E+00 -0.00000000000E+00 -0.45593999997E+02  0.45594000000E+02  0.51100000000E-03 0. -1.
    9900012    2    1    2    0    0 -0.34574789603E+02 -0.16616376385E+02  0.13477613323E+02  0.50528854643E+02  0.29999984173E+02 0.  0.
         12    1    1    2    0    0  0.34574789603E+02  0.16616376385E+02 -0.13477613323E+02  0.40659145357E+02  0.00000000000E+00 0. -1.
         11    1    3    3    0    0 -0.15484840087E+02 -0.18317156577E+02  0.17872865710E+02  0.29912168536E+02  0.51100000000E-03 0. -1.
        -11    1    3    3    0    0 -0.11924884435E+02  0.44708606722E+00 -0.57032439876E+01  0.13226100974E+02  0.51100000000E-03 0.  1.
         12    1    3    3    0    0 -0.71650650814E+01  0.12536941246E+01  0.13079916012E+01  0.73905851329E+01  0.00000000000E+00 0. -1.
</event>
<event>
 7    1  0.5910662E-013  0.5052884E+02  0.7816164E-02  0.1300439E+00
        -11   -1    0    0    0    0  0.00000000000E+00  0.00000000000E+00  0.45593999997E+02  0.45594000000E+02  0.51100000000E-03 0.  1.
         11   -1    0    0    0    0 -0.00000000000E+00 -0.00000000000E+00 -0.45593999997E+02  0.45594000000E+02  0.51100000000E-03 0. -1.
    9900012    2    1    2    0    0  0.28014643870E+02 -0.22307523518E+02  0.19254116762E+02  0.50528844956E+02  0.29999954727E+02 0.  0.
         12    1    1    2    0    0 -0.28014643870E+02  0.22307523518E+02 -0.19254116762E+02  0.40659155044E+02  0.00000000000E+00 0. -1.
         11    1    3    3    0    0  0.83800648180E+00 -0.10771420632E+01 -0.25175030657E+01  0.28636186609E+01  0.51100000000E-03 0. -1.
        -11    1    3    3    0    0  0.14378102931E+02 -0.19152396161E+02  0.24666418170E+02  0.34379882319E+02  0.51100000000E-03 0.  1.
        -12    1    3    3    0    0  0.12798534457E+02 -0.20779852934E+01 -0.28947983427E+01  0.13285343976E+02  0.00000000000E+00 0.  1.
</event>
<event>
 7    1  0.5910662E-013  0.5052887E+02  0.7816164E-02  0.1300439E+00
        -11   -1    0    0    0    0  0.00000000000E+00  0.00000000000E+00  0.45593999997E+02  0.45594000000E+02  0.51100000000E-03 0.  1.
         11   -1    0    0    0    0 -0.00000000000E+00 -0.00000000000E+00 -0.45593999997E+02  0.45594000000E+02  0.51100000000E-03 0. -1.
    9900012    2    1    2    0    0  0.80453419131E+01  0.36457398541E+02  0.16102652916E+02  0.50528869835E+02  0.30000030349E+02 0.  0.
         12    1    1    2    0    0 -0.80453419131E+01 -0.36457398541E+02 -0.16102652916E+02  0.40659130165E+02  0.00000000000E+00 0. -1.
         11    1    3    3    0    0 -0.66550468150E+01  0.17319657988E+02 -0.51616518309E+00  0.18561428493E+02  0.51100000000E-03 0. -1.
        -11    1    3    3    0    0  0.16914199884E+02  0.15119389756E+02  0.13216428419E+02  0.26255667669E+02  0.51100000000E-03 0.  1.
        -12    1    3    3    0    0 -0.22138111561E+01  0.40183507968E+01  0.34023896797E+01  0.57117736732E+01  0.00000000000E+00 0.  1.
</event>
<event>
 7    1  0.5910662E-013  0.5052887E+02  0.7816164E-02  0.1300439E+00
        -11   -1    0    0    0    0  0.00000000000E+00  0.00000000000E+00  0.45593999997E+02  0.45594000000E+02  0.51100000000E-03 0.  1.
         11   -1    0    0    0    0 -0.00000000000E+00 -0.00000000000E+00 -0.45593999997E+02  0.45594000000E+02  0.51100000000E-03 0. -1.
    9900012    2    1    2    0    0 -0.26689646615E+02  0.40787589272E+01 -0.30400514314E+02  0.50528870873E+02  0.30000033505E+02 0.  0.
         12    1    1    2    0    0  0.26689646615E+02 -0.40787589272E+01  0.30400514314E+02  0.40659129127E+02  0.00000000000E+00 0. -1.
         11    1    3    3    0    0  0.10526075646E+01  0.15330138633E+01  0.48125199826E+00  0.19208638518E+01  0.51100000000E-03 0. -1.
        -11    1    3    3    0    0 -0.28378578906E+02 -0.59643260257E+01 -0.24189871858E+02  0.37763299994E+02  0.51100000000E-03 0.  1.
        -12    1    3    3    0    0  0.63632472639E+00  0.85100710896E+01 -0.66918944539E+01  0.10844707026E+02  0.00000000000E+00 0.  1.
</event>
<event>
 7    1  0.5910662E-013  0.5052887E+02  0.7816164E-02  0.1300439E+00
        -11   -1    0    0    0    0  0.00000000000E+00  0.00000000000E+00  0.45593999997E+02  0.45594000000E+02  0.51100000000E-03 0. -1.
         11   -1    0    0    0    0 -0.00000000000E+00 -0.00000000000E+00 -0.45593999997E+02  0.45594000000E+02  0.51100000000E-03 0.  1.
    9900012    2    1    2    0    0  0.37617206391E+02 -0.15426512325E+02  0.36570647712E+00  0.50528865228E+02  0.30000016348E+02 0.  0.
         12    1    1    2    0    0 -0.37617206391E+02  0.15426512325E+02 -0.36570647712E+00  0.40659134772E+02  0.00000000000E+00 0. -1.
         11    1    3    3    0    0  0.81525145236E+01  0.75789370734E+01 -0.47485196284E+01  0.12101744467E+02  0.51100000000E-03 0. -1.
        -11    1    3    3    0    0  0.85163346138E+01 -0.97673174418E+01 -0.68537395287E+00  0.12976832548E+02  0.51100000000E-03 0.  1.
         12    1    3    3    0    0  0.20948357253E+02 -0.13238131957E+02  0.57996000584E+01  0.25450288213E+02  0.00000000000E+00 0. -1.
</event>
<event>
 7    1  0.5910662E-013  0.5052887E+02  0.7816164E-02  0.1300439E+00
        -11   -1    0    0    0    0  0.00000000000E+00  0.00000000000E+00  0.45593999997E+02  0.45594000000E+02  0.51100000000E-03 0. -1.
         11   -1    0    0    0    0 -0.00000000000E+00 -0.00000000000E+00 -0.45593999997E+02  0.45594000000E+02  0.51100000000E-03 0.  1.
    9900012    2    1    2    0    0 -0.11897319307E+02  0.20361386334E+02 -0.33121488054E+02  0.50528865343E+02  0.30000016697E+02 0.  0.
         12    1    1    2    0    0  0.11897319307E+02 -0.20361386334E+02  0.33121488054E+02  0.40659134657E+02  0.00000000000E+00 0. -1.
         11    1    3    3    0    0  0.28900607522E+01 -0.33553450611E-01  0.23767432570E+01  0.37419895452E+01  0.51100000000E-03 0. -1.
        -11    1    3    3    0    0 -0.47846743178E+01  0.19780349564E+02 -0.25571467657E+02  0.32681115275E+02  0.51100000000E-03 0.  1.
        -12    1    3    3    0    0 -0.10002705741E+02  0.61459022026E+00 -0.99267636541E+01  0.14105760523E+02  0.00000000000E+00 0.  1.
</event>
<event>
 7    1  0.5910662E-013  0.5052898E+02  0.7816164E-02  0.1300438E+00
        -11   -1    0    0    0    0  0.00000000000E+00  0.00000000000E+00  0.45593999997E+02  0.45594000000E+02  0.51100000000E-03 0.  1.
         11   -1    0    0    0    0 -0.00000000000E+00 -0.00000000000E+00 -0.45593999997E+02  0.45594000000E+02  0.51100000000E-03 0. -1.
    9900012    2    1    2    0    0 -0.13208712014E+02 -0.15441938228E+02  0.35216932724E+02  0.50528980339E+02  0.30000366236E+02 0.  0.
         12    1    1    2    0    0  0.13208712014E+02  0.15441938228E+02 -0.35216932724E+02  0.40659019661E+02  0.00000000000E+00 0. -1.
         11    1    3    3    0    0 -0.81784628646E+01 -0.32899547838E+00 -0.12310019125E+01  0.82771286580E+01  0.51100000000E-03 0. -1.
        -11    1    3    3    0    0 -0.42719514332E+01 -0.10430504397E+02  0.90742144332E+01  0.14470188626E+02  0.51100000000E-03 0.  1.
         12    1    3    3    0    0 -0.75829771652E+00 -0.46824383529E+01  0.27373720203E+02  0.27781663055E+02  0.00000000000E+00 0. -1.
</event>
<event>
 7    1  0.5910662E-013  0.5052887E+02  0.7816164E-02  0.1300439E+00
        -11   -1    0    0    0    0  0.00000000000E+00  0.00000000000E+00  0.45593999997E+02  0.45594000000E+02  0.51100000000E-03 0.  1.
         11   -1    0    0    0    0 -0.00000000000E+00 -0.00000000000E+00 -0.45593999997E+02  0.45594000000E+02  0.51100000000E-03 0. -1.
    9900012    2    1    2    0    0 -0.29971054551E+02  0.26834963495E+02  0.58979184161E+01  0.50528870418E+02  0.30000032123E+02 0.  0.
         12    1    1    2    0    0  0.29971054551E+02 -0.26834963495E+02 -0.58979184161E+01  0.40659129582E+02  0.00000000000E+00 0. -1.
         11    1    3    3    0    0 -0.11047097491E+02  0.48374055961E+01  0.12276857760E+02  0.17209302502E+02  0.51100000000E-03 0. -1.
        -11    1    3    3    0    0 -0.17723996743E+02  0.21187291660E+02 -0.10033222072E+02  0.29388891334E+02  0.51100000000E-03 0.  1.
        -12    1    3    3    0    0 -0.11999603168E+01  0.81026623942E+00  0.36542827276E+01  0.39306765822E+01  0.00000000000E+00 0.  1.
</event>
<event>
 7    1  0.5910662E-013  0.5052886E+02  0.7816164E-02  0.1300439E+00
        -11   -1    0    0    0    0  0.00000000000E+00  0.00000000000E+00  0.45593999997E+02  0.45594000000E+02  0.51100000000E-03 0.  1.
         11   -1    0    0    0    0 -0.00000000000E+00 -0.00000000000E+00 -0.45593999997E+02  0.45594000000E+02  0.51100000000E-03 0. -1.
    9900012    2    1    2    0    0  0.29479099145E+02  0.23153689013E+02  0.15749757930E+02  0.50528862329E+02  0.30000007535E+02 0.  0.
         12    1    1    2    0    0 -0.29479099145E+02 -0.23153689013E+02 -0.15749757930E+02  0.40659137671E+02  0.00000000000E+00 0. -1.
         11    1    3    3    0    0  0.59657578961E+01  0.15909438152E+02  0.74166140840E+01  0.18539327235E+02  0.51100000000E-03 0. -1.
        -11    1    3    3    0    0  0.16210700396E+02  0.66682845123E+01 -0.36879147711E+01  0.17912385137E+02  0.51100000000E-03 0.  1.
         12    1    3    3    0    0  0.73026408524E+01  0.57596634894E+00  0.12021058617E+02  0.14077149957E+02  0.00000000000E+00 0. -1.
</event>
<event>
 7    1  0.5910662E-013  0.5052887E+02  0.7816164E-02  0.1300439E+00
        -11   -1    0    0    0    0  0.00000000000E+00  0.00000000000E+00  0.45593999997E+02  0.45594000000E+02  0.51100000000E-03 0.  1.
         11   -1    0    0    0    0 -0.00000000000E+00 -0.00000000000E+00 -0.45593999997E+02  0.45594000000E+02  0.51100000000E-03 0. -1.
    9900012    2    1    2    0    0  0.34592074386E+02 -0.15099855690E+01  0.21313689277E+02  0.50528867972E+02  0.30000024687E+02 0.  0.
         12    1    1    2    0    0 -0.34592074386E+02  0.15099855690E+01 -0.21313689277E+02  0.40659132028E+02  0.00000000000E+00 0. -1.
         11    1    3    3    0    0 -0.32454574878E+01  0.84833286754E+00 -0.11218532689E+01  0.35371200117E+01  0.51100000000E-03 0. -1.
        -11    1    3    3    0    0  0.10557966656E+02  0.45823623152E+01  0.12861599326E+02  0.17259473971E+02  0.51100000000E-03 0.  1.
         12    1    3    3    0    0  0.27279565217E+02 -0.69406807517E+01  0.95739432199E+01  0.29732273989E+02  0.00000000000E+00 0. -1.
</event>
<event>
 7    1  0.5910662E-013  0.5052884E+02  0.7816164E-02  0.1300439E+00
        -11   -1    0    0    0    0  0.00000000000E+00  0.00000000000E+00  0.45593999997E+02  0.45594000000E+02  0.51100000000E-03 0.  1.
         11   -1    0    0    0    0 -0.00000000000E+00 -0.00000000000E+00 -0.45593999997E+02  0.45594000000E+02  0.51100000000E-03 0. -1.
    9900012    2    1    2    0    0  0.25112474320E+02  0.67569600399E+01  0.31254993883E+02  0.50528837219E+02  0.29999931209E+02 0.  0.
         12    1    1    2    0    0 -0.25112474320E+02 -0.67569600399E+01 -0.31254993883E+02  0.40659162781E+02  0.00000000000E+00 0. -1.
         11    1    3    3    0    0  0.43464897684E+01  0.83498244866E+01 -0.21784650297E+01  0.96621556814E+01  0.51100000000E-03 0. -1.
        -11    1    3    3    0    0  0.13700774665E+02 -0.39223669872E+01  0.28715616972E+02  0.32057492846E+02  0.51100000000E-03 0.  1.
        -12    1    3    3    0    0  0.70652098860E+01  0.23295025405E+01  0.47178419408E+01  0.88091886913E+01  0.00000000000E+00 0.  1.
</event>
<event>
 7    1  0.5910662E-013  0.5052888E+02  0.7816164E-02  0.1300439E+00
        -11   -1    0    0    0    0  0.00000000000E+00  0.00000000000E+00  0.45593999997E+02  0.45594000000E+02  0.51100000000E-03 0.  1.
         11   -1    0    0    0    0 -0.00000000000E+00 -0.00000000000E+00 -0.45593999997E+02  0.45594000000E+02  0.51100000000E-03 0. -1.
    9900012    2    1    2    0    0 -0.23142393810E+02  0.27226816491E+02  0.19398306443E+02  0.50528877772E+02  0.30000054476E+02 0.  0.
         12    1    1    2    0    0  0.23142393810E+02 -0.27226816491E+02 -0.19398306443E+02  0.40659122228E+02  0.00000000000E+00 0. -1.
         11    1    3    3    0    0  0.42737233123E+01  0.75292555339E+01  0.18313199130E+01  0.88491882526E+01  0.51100000000E-03 0. -1.
        -11    1    3    3    0    0 -0.20631675258E+02  0.22315118717E+02  0.12752093059E+02  0.32958252759E+02  0.51100000000E-03 0.  1.
        -12    1    3    3    0    0 -0.67844418640E+01 -0.26175577596E+01  0.48148934704E+01  0.87214367601E+01  0.00000000000E+00 0.  1.
</event>
<event>
 7    1  0.5910662E-013  0.5052885E+02  0.7816164E-02  0.1300439E+00
        -11   -1    0    0    0    0  0.00000000000E+00  0.00000000000E+00  0.45593999997E+02  0.45594000000E+02  0.51100000000E-03 0.  1.
         11   -1    0    0    0    0 -0.00000000000E+00 -0.00000000000E+00 -0.45593999997E+02  0.45594000000E+02  0.51100000000E-03 0. -1.
    9900012    2    1    2    0    0 -0.96585586101E+01  0.39307230424E+02  0.38496727343E+01  0.50528854680E+02  0.29999984284E+02 0.  0.
         12    1    1    2    0    0  0.96585586101E+01 -0.39307230424E+02 -0.38496727343E+01  0.40659145320E+02  0.00000000000E+00 0. -1.
         11    1    3    3    0    0  0.36256198760E+01  0.25308327463E+02 -0.10534506223E+01  0.25588402000E+02  0.51100000000E-03 0. -1.
        -11    1    3    3    0    0 -0.95268014928E+01  0.16523050105E+02  0.12322596399E+01  0.19112550733E+02  0.51100000000E-03 0.  1.
         12    1    3    3    0    0 -0.37573769933E+01 -0.25241471434E+01  0.36708637168E+01  0.58279019465E+01  0.00000000000E+00 0. -1.
</event>
<event>
 7    1  0.5910662E-013  0.5052885E+02  0.7816164E-02  0.1300439E+00
        -11   -1    0    0    0    0  0.00000000000E+00  0.00000000000E+00  0.45593999997E+02  0.45594000000E+02  0.51100000000E-03 0. -1.
         11   -1    0    0    0    0 -0.00000000000E+00 -0.00000000000E+00 -0.45593999997E+02  0.45594000000E+02  0.51100000000E-03 0.  1.
    9900012    2    1    2    0    0 -0.33833808480E+02 -0.22525093389E+02  0.10297410397E+01  0.50528846110E+02  0.29999958237E+02 0.  0.
         12    1    1    2    0    0  0.33833808480E+02  0.22525093389E+02 -0.10297410397E+01  0.40659153890E+02  0.00000000000E+00 0. -1.
         11    1    3    3    0    0 -0.19422777882E+01  0.17663672570E+01  0.40403078486E-01  0.26256673367E+01  0.51100000000E-03 0. -1.
        -11    1    3    3    0    0 -0.30917460710E+02 -0.17067833800E+02  0.96237440653E+01  0.36603507721E+02  0.51100000000E-03 0.  1.
        -12    1    3    3    0    0 -0.97406998184E+00 -0.72236268458E+01 -0.86344061041E+01  0.11299671053E+02  0.00000000000E+00 0.  1.
</event>
<event>
 7    1  0.5910662E-013  0.5052887E+02  0.7816164E-02  0.1300439E+00
        -11   -1    0    0    0    0  0.00000000000E+00  0.00000000000E+00  0.45593999997E+02  0.45594000000E+02  0.51100000000E-03 0.  1.
         11   -1    0    0    0    0 -0.00000000000E+00 -0.00000000000E+00 -0.45593999997E+02  0.45594000000E+02  0.51100000000E-03 0. -1.
    9900012    2    1    2    0    0 -0.10781981922E+02  0.15703890044E+02 -0.35920763381E+02  0.50528873859E+02  0.30000042582E+02 0.  0.
         12    1    1    2    0    0  0.10781981922E+02 -0.15703890044E+02  0.35920763381E+02  0.40659126141E+02  0.00000000000E+00 0. -1.
         11    1    3    3    0    0 -0.15508904758E+01  0.58978663248E+01 -0.36385503114E+02  0.36893020011E+02  0.51100000000E-03 0. -1.
        -11    1    3    3    0    0 -0.37191612661E+01  0.52052771889E+01 -0.36805506376E+00  0.64080056123E+01  0.51100000000E-03 0.  1.
         12    1    3    3    0    0 -0.55119301799E+01  0.46007465300E+01  0.83279479670E+00  0.72278482354E+01  0.00000000000E+00 0. -1.
</event>
<event>
 7    1  0.5910662E-013  0.5052885E+02  0.7816164E-02  0.1300439E+00
        -11   -1    0    0    0    0  0.00000000000E+00  0.00000000000E+00  0.45593999997E+02  0.45594000000E+02  0.51100000000E-03 0. -1.
         11   -1    0    0    0    0 -0.00000000000E+00 -0.00000000000E+00 -0.45593999997E+02  0.45594000000E+02  0.51100000000E-03 0.  1.
    9900012    2    1    2    0    0  0.15949452282E+02 -0.15526314431E+02 -0.34025216127E+02  0.50528846044E+02  0.29999958037E+02 0.  0.
         12    1    1    2    0    0 -0.15949452282E+02  0.15526314431E+02  0.34025216127E+02  0.40659153956E+02  0.00000000000E+00 0. -1.
         11    1    3    3    0    0 -0.69520893828E+01 -0.49604901712E+01 -0.74742452815E+01  0.11349112402E+02  0.51100000000E-03 0. -1.
        -11    1    3    3    0    0  0.23478102625E+02 -0.11761946600E+02 -0.21443945447E+02  0.33902912667E+02  0.51100000000E-03 0.  1.
        -12    1    3    3    0    0 -0.57656095994E+00  0.11961223400E+01 -0.51070253982E+01  0.52768209759E+01  0.00000000000E+00 0.  1.
</event>
<event>
 7    1  0.5910662E-013  0.5052885E+02  0.7816164E-02  0.1300439E+00
        -11   -1    0    0    0    0  0.00000000000E+00  0.00000000000E+00  0.45593999997E+02  0.45594000000E+02  0.51100000000E-03 0. -1.
         11   -1    0    0    0    0 -0.00000000000E+00 -0.00000000000E+00 -0.45593999997E+02  0.45594000000E+02  0.51100000000E-03 0.  1.
    9900012    2    1    2    0    0  0.33511810240E+02 -0.61520462023E+00 -0.23016216234E+02  0.50528854510E+02  0.29999983769E+02 0.  0.
         12    1    1    2    0    0 -0.33511810240E+02  0.61520462023E+00  0.23016216234E+02  0.40659145490E+02  0.00000000000E+00 0. -1.
         11    1    3    3    0    0 -0.80755854271E+00  0.71392269891E+01 -0.10902766958E+02  0.13057221772E+02  0.51100000000E-03 0. -1.
        -11    1    3    3    0    0  0.22976565572E+02 -0.68526684807E+01 -0.68594272125E+01  0.24938592036E+02  0.51100000000E-03 0.  1.
         12    1    3    3    0    0  0.11342803211E+02 -0.90176312865E+00 -0.52540220635E+01  0.12533040703E+02  0.00000000000E+00 0. -1.
</event>
<event>
 7    1  0.5910662E-013  0.5052887E+02  0.7816164E-02  0.1300439E+00
        -11   -1    0    0    0    0  0.00000000000E+00  0.00000000000E+00  0.45593999997E+02  0.45594000000E+02  0.51100000000E-03 0.  1.
         11   -1    0    0    0    0 -0.00000000000E+00 -0.00000000000E+00 -0.45593999997E+02  0.45594000000E+02  0.51100000000E-03 0. -1.
    9900012    2    1    2    0    0 -0.33652116114E+02  0.38390214885E+01  0.22493596231E+02  0.50528869705E+02  0.30000029956E+02 0.  0.
         12    1    1    2    0    0  0.33652116114E+02 -0.38390214885E+01 -0.22493596231E+02  0.40659130295E+02  0.00000000000E+00 0. -1.
         11    1    3    3    0    0 -0.12900890212E+02 -0.11236658087E+02  0.13637449744E+02  0.21878653730E+02  0.51100000000E-03 0. -1.
        -11    1    3    3    0    0 -0.11594134929E+02  0.78363545653E+01 -0.63634661506E-02  0.13994015091E+02  0.51100000000E-03 0.  1.
        -12    1    3    3    0    0 -0.91570909731E+01  0.72393250104E+01  0.88625099529E+01  0.14656200884E+02  0.00000000000E+00 0.  1.
</event>
<event>
 7    1  0.5910662E-013  0.5052886E+02  0.7816164E-02  0.1300439E+00
        -11   -1    0    0    0    0  0.00000000000E+00  0.00000000000E+00  0.45593999997E+02  0.45594000000E+02  0.51100000000E-03 0. -1.
         11   -1    0    0    0    0 -0.00000000000E+00 -0.00000000000E+00 -0.45593999997E+02  0.45594000000E+02  0.51100000000E-03 0.  1.
    9900012    2    1    2    0    0  0.24276617171E+02 -0.30198034027E+02 -0.12324367084E+02  0.50528862966E+02  0.30000009471E+02 0.  0.
         12    1    1    2    0    0 -0.24276617171E+02  0.30198034027E+02  0.12324367084E+02  0.40659137034E+02  0.00000000000E+00 0. -1.
         11    1    3    3    0    0 -0.11033904174E+01 -0.11846600682E+02  0.37021496214E+01  0.12460550960E+02  0.51100000000E-03 0. -1.
        -11    1    3    3    0    0  0.19154057549E+02 -0.81547159650E+01 -0.41598355460E+01  0.21229261530E+02  0.51100000000E-03 0.  1.
         12    1    3    3    0    0  0.62259500389E+01 -0.10196717380E+02 -0.11866681159E+02  0.16839050476E+02  0.00000000000E+00 0. -1.
</event>
<event>
 7    1  0.5910662E-013  0.5052889E+02  0.7816164E-02  0.1300439E+00
        -11   -1    0    0    0    0  0.00000000000E+00  0.00000000000E+00  0.45593999997E+02  0.45594000000E+02  0.51100000000E-03 0. -1.
         11   -1    0    0    0    0 -0.00000000000E+00 -0.00000000000E+00 -0.45593999997E+02  0.45594000000E+02  0.51100000000E-03 0.  1.
    9900012    2    1    2    0    0  0.13395883853E+02  0.41007341424E+01 -0.38169326228E+02  0.50528890450E+02  0.30000093011E+02 0.  0.
         12    1    1    2    0    0 -0.13395883853E+02 -0.41007341424E+01  0.38169326228E+02  0.40659109550E+02  0.00000000000E+00 0. -1.
         11    1    3    3    0    0  0.46560915928E+01  0.63293259309E+01  0.21213421635E+01  0.81387743854E+01  0.51100000000E-03 0. -1.
        -11    1    3    3    0    0  0.95775872970E+00  0.33509659707E+01 -0.84422349450E+01  0.91333239212E+01  0.51100000000E-03 0.  1.
         12    1    3    3    0    0  0.77820335303E+01 -0.55795577592E+01 -0.31848433447E+02  0.33256792143E+02  0.00000000000E+00 0. -1.
</event>
<event>
 7    1  0.5910662E-013  0.5052886E+02  0.7816164E-02  0.1300439E+00
        -11   -1    0    0    0    0  0.00000000000E+00  0.00000000000E+00  0.45593999997E+02  0.45594000000E+02  0.51100000000E-03 0.  1.
         11   -1    0    0    0    0 -0.00000000000E+00 -0.00000000000E+00 -0.45593999997E+02  0.45594000000E+02  0.51100000000E-03 0. -1.
    9900012    2    1    2    0    0  0.44000065976E+01 -0.12719371949E+02  0.38366957708E+02  0.50528856814E+02  0.29999990772E+02 0.  0.
         12    1    1    2    0    0 -0.44000065976E+01  0.12719371949E+02 -0.38366957708E+02  0.40659143186E+02  0.00000000000E+00 0. -1.
         11    1    3    3    0    0  0.12038812456E+02  0.22653738142E-01  0.17747430847E+02  0.21445391590E+02  0.51100000000E-03 0. -1.
        -11    1    3    3    0    0 -0.45435067808E+01 -0.15470384146E+02  0.18138208164E+02  0.24268721333E+02  0.51100000000E-03 0.  1.
         12    1    3    3    0    0 -0.30952990776E+01  0.27283584580E+01  0.24813186972E+01  0.48147438906E+01  0.00000000000E+00 0. -1.
</event>
<event>
 7    1  0.5910662E-013  0.5052886E+02  0.7816164E-02  0.1300439E+00
        -11   -1    0    0    0    0  0.00000000000E+00  0.00000000000E+00  0.45593999997E+02  0.45594000000E+02  0.51100000000E-03 0.  1.
         11   -1    0    0    0    0 -0.00000000000E+00 -0.00000000000E+00 -0.45593999997E+02  0.45594000000E+02  0.51100000000E-03 0. -1.
    9900012    2    1    2    0    0  0.93292103376E+01  0.15684443216E+02  0.36333584883E+02  0.50528864311E+02  0.30000013561E+02 0.  0.
         12    1    1    2    0    0 -0.93292103376E+01 -0.15684443216E+02 -0.36333584883E+02  0.40659135689E+02  0.00000000000E+00 0. -1.
         11    1    3    3    0    0 -0.99493472241E+01  0.47816636541E+01  0.83379159198E+01  0.13833823030E+02  0.51100000000E-03 0. -1.
        -11    1    3    3    0    0  0.16126822188E+02  0.12200771559E+02  0.22740909760E+02  0.30431598668E+02  0.51100000000E-03 0.  1.
        -12    1    3    3    0    0  0.31517353734E+01 -0.12979919970E+01  0.52547592028E+01  0.62634426131E+01  0.00000000000E+00 0.  1.
</event>
<event>
 7    1  0.5910662E-013  0.5052887E+02  0.7816164E-02  0.1300439E+00
        -11   -1    0    0    0    0  0.00000000000E+00  0.00000000000E+00  0.45593999997E+02  0.45594000000E+02  0.51100000000E-03 0.  1.
         11   -1    0    0    0    0 -0.00000000000E+00 -0.00000000000E+00 -0.45593999997E+02  0.45594000000E+02  0.51100000000E-03 0. -1.
    9900012    2    1    2    0    0  0.26335933134E+01  0.34719952811E+02  0.20994141184E+02  0.50528869402E+02  0.30000029035E+02 0.  0.
         12    1    1    2    0    0 -0.26335933134E+01 -0.34719952811E+02 -0.20994141184E+02  0.40659130598E+02  0.00000000000E+00 0. -1.
         11    1    3    3    0    0 -0.85548694940E+00 -0.44746740833E+01  0.27141454294E+00  0.45637958092E+01  0.51100000000E-03 0. -1.
        -11    1    3    3    0    0 -0.32832876121E+01  0.78888353821E+01  0.17004479236E+01  0.87123604512E+01  0.51100000000E-03 0.  1.
         12    1    3    3    0    0  0.67723678749E+01  0.31305791512E+02  0.19022278717E+02  0.37252713142E+02  0.00000000000E+00 0. -1.
</event>
<event>
 7    1  0.5910662E-013  0.5052886E+02  0.7816164E-02  0.1300439E+00
        -11   -1    0    0    0    0  0.00000000000E+00  0.00000000000E+00  0.45593999997E+02  0.45594000000E+02  0.51100000000E-03 0.  1.
         11   -1    0    0    0    0 -0.00000000000E+00 -0.00000000000E+00 -0.45593999997E+02  0.45594000000E+02  0.51100000000E-03 0. -1.
    9900012    2    1    2    0    0  0.39963962282E+01  0.12013840240E+01  0.40444418627E+02  0.50528861981E+02  0.30000006478E+02 0.  0.
         12    1    1    2    0    0 -0.39963962282E+01 -0.12013840240E+01 -0.40444418627E+02  0.40659138019E+02  0.00000000000E+00 0. -1.
         11    1    3    3    0    0  0.99069377910E+01 -0.61199725126E+01  0.68447526379E+01  0.13507483810E+02  0.51100000000E-03 0. -1.
        -11    1    3    3    0    0 -0.35245994007E+01  0.91882062775E+01  0.13563752744E+02  0.16757724317E+02  0.51100000000E-03 0.  1.
         12    1    3    3    0    0 -0.23859421621E+01 -0.18668497409E+01  0.20035913245E+02  0.20263653854E+02  0.00000000000E+00 0. -1.
</event>
<event>
 7    1  0.5910662E-013  0.5052886E+02  0.7816164E-02  0.1300439E+00
        -11   -1    0    0    0    0  0.00000000000E+00  0.00000000000E+00  0.45593999997E+02  0.45594000000E+02  0.51100000000E-03 0. -1.
         11   -1    0    0    0    0 -0.00000000000E+00 -0.00000000000E+00 -0.45593999997E+02  0.45594000000E+02  0.51100000000E-03 0.  1.
    9900012    2    1    2    0    0 -0.31506313233E+02  0.34752913078E+01 -0.25464489962E+02  0.50528859918E+02  0.30000000206E+02 0.  0.
         12    1    1    2    0    0  0.31506313233E+02 -0.34752913078E+01  0.25464489962E+02  0.40659140082E+02  0.00000000000E+00 0. -1.
         11    1    3    3    0    0  0.13466755811E+01 -0.51201793901E+01  0.83084704502E+00  0.53591117903E+01  0.51100000000E-03 0. -1.
        -11    1    3    3    0    0 -0.20338093463E+02  0.66381696868E+01 -0.78394719226E+01  0.22785097383E+02  0.51100000000E-03 0.  1.
         12    1    3    3    0    0 -0.12514895351E+02  0.19573010111E+01 -0.18455865085E+02  0.22384650744E+02  0.00000000000E+00 0. -1.
</event>
<event>
 7    1  0.5910662E-013  0.5052885E+02  0.7816164E-02  0.1300439E+00
        -11   -1    0    0    0    0  0.00000000000E+00  0.00000000000E+00  0.45593999997E+02  0.45594000000E+02  0.51100000000E-03 0.  1.
         11   -1    0    0    0    0 -0.00000000000E+00 -0.00000000000E+00 -0.45593999997E+02  0.45594000000E+02  0.51100000000E-03 0. -1.
    9900012    2    1    2    0    0 -0.11997473539E+01  0.76911871598E+01  0.39907048182E+02  0.50528852835E+02  0.29999978676E+02 0.  0.
         12    1    1    2    0    0  0.11997473539E+01 -0.76911871598E+01 -0.39907048182E+02  0.40659147165E+02  0.00000000000E+00 0. -1.
         11    1    3    3    0    0  0.44558115633E+01  0.34896763522E+01 -0.21296616266E+01  0.60471114291E+01  0.51100000000E-03 0. -1.
        -11    1    3    3    0    0 -0.59912196872E+01  0.82509019889E+01  0.33677508825E+02  0.35187308762E+02  0.51100000000E-03 0.  1.
         12    1    3    3    0    0  0.33566076997E+00 -0.40493911814E+01  0.83592009833E+01  0.92944326438E+01  0.00000000000E+00 0. -1.
</event>
<event>
 7    1  0.5910662E-013  0.5052886E+02  0.7816164E-02  0.1300439E+00
        -11   -1    0    0    0    0  0.00000000000E+00  0.00000000000E+00  0.45593999997E+02  0.45594000000E+02  0.51100000000E-03 0.  1.
         11   -1    0    0    0    0 -0.00000000000E+00 -0.00000000000E+00 -0.45593999997E+02  0.45594000000E+02  0.51100000000E-03 0. -1.
    9900012    2    1    2    0    0 -0.18636571741E+02 -0.40583798304E+01  0.35907842549E+02  0.50528863147E+02  0.30000010021E+02 0.  0.
         12    1    1    2    0    0  0.18636571741E+02  0.40583798304E+01 -0.35907842549E+02  0.40659136853E+02  0.00000000000E+00 0. -1.
         11    1    3    3    0    0 -0.90228212971E+01 -0.56551917177E+01  0.55755912023E+01  0.12019971507E+02  0.51100000000E-03 0. -1.
        -11    1    3    3    0    0 -0.12848029174E+02  0.34183068690E+01  0.31838612450E+02  0.34502955214E+02  0.51100000000E-03 0.  1.
        -12    1    3    3    0    0  0.32342787300E+01 -0.18214949817E+01 -0.15063611030E+01  0.40059364254E+01  0.00000000000E+00 0.  1.
</event>
<event>
 7    1  0.5910662E-013  0.5052885E+02  0.7816164E-02  0.1300439E+00
        -11   -1    0    0    0    0  0.00000000000E+00  0.00000000000E+00  0.45593999997E+02  0.45594000000E+02  0.51100000000E-03 0. -1.
         11   -1    0    0    0    0 -0.00000000000E+00 -0.00000000000E+00 -0.45593999997E+02  0.45594000000E+02  0.51100000000E-03 0.  1.
    9900012    2    1    2    0    0  0.10232955506E+02 -0.16066267302E+02 -0.35921139483E+02  0.50528848691E+02  0.29999966082E+02 0.  0.
         12    1    1    2    0    0 -0.10232955506E+02  0.16066267302E+02  0.35921139483E+02  0.40659151309E+02  0.00000000000E+00 0. -1.
         11    1    3    3    0    0 -0.50117307001E+01  0.25591550464E+01  0.90711360285E+00  0.56999626763E+01  0.51100000000E-03 0. -1.
        -11    1    3    3    0    0  0.11021991639E+02 -0.18220468330E+02 -0.31396688209E+02  0.37937076807E+02  0.51100000000E-03 0.  1.
         12    1    3    3    0    0  0.42226945665E+01 -0.40495401934E+00 -0.54315648762E+01  0.68918092083E+01  0.00000000000E+00 0. -1.
</event>
<event>
 7    1  0.5910662E-013  0.5052886E+02  0.7816164E-02  0.1300439E+00
        -11   -1    0    0    0    0  0.00000000000E+00  0.00000000000E+00  0.45593999997E+02  0.45594000000E+02  0.51100000000E-03 0.  1.
         11   -1    0    0    0    0 -0.00000000000E+00 -0.00000000000E+00 -0.45593999997E+02  0.45594000000E+02  0.51100000000E-03 0. -1.
    9900012    2    1    2    0    0 -0.27362996851E+02  0.25399836001E+02  0.16102197154E+02  0.50528855657E+02  0.29999987254E+02 0.  0.
         12    1    1    2    0    0  0.27362996851E+02 -0.25399836001E+02 -0.16102197154E+02  0.40659144343E+02  0.00000000000E+00 0. -1.
         11    1    3    3    0    0  0.27466315089E+01  0.61990855303E+01  0.26800109661E+01  0.72907547687E+01  0.51100000000E-03 0. -1.
        -11    1    3    3    0    0 -0.25143766169E+02  0.51148301866E+01  0.11710467956E+02  0.28204707497E+02  0.51100000000E-03 0.  1.
        -12    1    3    3    0    0 -0.49658621914E+01  0.14085920284E+02  0.17117182322E+01  0.15033393391E+02  0.00000000000E+00 0.  1.
</event>
<event>
 7    1  0.5910662E-013  0.5052886E+02  0.7816164E-02  0.1300439E+00
        -11   -1    0    0    0    0  0.00000000000E+00  0.00000000000E+00  0.45593999997E+02  0.45594000000E+02  0.51100000000E-03 0.  1.
         11   -1    0    0    0    0 -0.00000000000E+00 -0.00000000000E+00 -0.45593999997E+02  0.45594000000E+02  0.51100000000E-03 0. -1.
    9900012    2    1    2    0    0  0.10351336465E+02 -0.51080630914E+01  0.38986188473E+02  0.50528863674E+02  0.30000011623E+02 0.  0.
         12    1    1    2    0    0 -0.10351336465E+02  0.51080630914E+01 -0.38986188473E+02  0.40659136326E+02  0.00000000000E+00 0. -1.
         11    1    3    3    0    0  0.11693293666E+02 -0.52167360494E+01  0.27724594459E+01  0.13100915365E+02  0.51100000000E-03 0. -1.
        -11    1    3    3    0    0 -0.36756076794E+01 -0.35491446203E+01  0.20337091589E+02  0.20969115716E+02  0.51100000000E-03 0.  1.
         12    1    3    3    0    0  0.23336504790E+01  0.36578175783E+01  0.15876637438E+02  0.16458832593E+02  0.00000000000E+00 0. -1.
</event>
<event>
 7    1  0.5910662E-013  0.5052886E+02  0.7816164E-02  0.1300439E+00
        -11   -1    0    0    0    0  0.00000000000E+00  0.00000000000E+00  0.45593999997E+02  0.45594000000E+02  0.51100000000E-03 0. -1.
         11   -1    0    0    0    0 -0.00000000000E+00 -0.00000000000E+00 -0.45593999997E+02  0.45594000000E+02  0.51100000000E-03 0.  1.
    9900012    2    1    2    0    0 -0.13584346390E+02 -0.11651407229E+02 -0.36508568261E+02  0.50528864327E+02  0.30000013607E+02 0.  0.
         12    1    1    2    0    0  0.13584346390E+02  0.11651407229E+02  0.36508568261E+02  0.40659135673E+02  0.00000000000E+00 0. -1.
         11    1    3    3    0    0 -0.80546248171E+01 -0.11501260684E+02 -0.63504744568E+01  0.15410532254E+02  0.51100000000E-03 0. -1.
        -11    1    3    3    0    0 -0.11656127883E+02  0.11396637830E+01 -0.20462204812E+02  0.23576810149E+02  0.51100000000E-03 0.  1.
        -12    1    3    3    0    0  0.61264063105E+01 -0.12898103279E+01 -0.96958889917E+01  0.11541521923E+02  0.00000000000E+00 0.  1.
</event>
<event>
 7    1  0.5910662E-013  0.5052883E+02  0.7816164E-02  0.1300439E+00
        -11   -1    0    0    0    0  0.00000000000E+00  0.00000000000E+00  0.45593999997E+02  0.45594000000E+02  0.51100000000E-03 0.  1.
         11   -1    0    0    0    0 -0.00000000000E+00 -0.00000000000E+00 -0.45593999997E+02  0.45594000000E+02  0.51100000000E-03 0. -1.
    9900012    2    1    2    0    0 -0.31526538818E+02  0.98045203245E+01  0.23730077573E+02  0.50528833134E+02  0.29999918794E+02 0.  0.
         12    1    1    2    0    0  0.31526538818E+02 -0.98045203245E+01 -0.23730077573E+02  0.40659166866E+02  0.00000000000E+00 0. -1.
         11    1    3    3    0    0 -0.19705938138E+02 -0.67301333413E+01  0.61383983682E+01  0.21709413338E+02  0.51100000000E-03 0. -1.
        -11    1    3    3    0    0 -0.75208911672E+01  0.13278868658E+02  0.17769465127E+02  0.23423194657E+02  0.51100000000E-03 0.  1.
        -12    1    3    3    0    0 -0.42997095126E+01  0.32557850083E+01 -0.17778592294E+00  0.53962251387E+01  0.00000000000E+00 0.  1.
</event>
<event>
 7    1  0.5910662E-013  0.5052883E+02  0.7816164E-02  0.1300439E+00
        -11   -1    0    0    0    0  0.00000000000E+00  0.00000000000E+00  0.45593999997E+02  0.45594000000E+02  0.51100000000E-03 0.  1.
         11   -1    0    0    0    0 -0.00000000000E+00 -0.00000000000E+00 -0.45593999997E+02  0.45594000000E+02  0.51100000000E-03 0. -1.
    9900012    2    1    2    0    0 -0.23830840219E+01 -0.37942985065E+02  0.14415928828E+02  0.50528828722E+02  0.29999905382E+02 0.  0.
         12    1    1    2    0    0  0.23830840219E+01  0.37942985065E+02 -0.14415928828E+02  0.40659171278E+02  0.00000000000E+00 0. -1.
         11    1    3    3    0    0 -0.39624907398E+01 -0.47072803839E+01  0.14852143326E+02  0.16076255258E+02  0.51100000000E-03 0. -1.
        -11    1    3    3    0    0  0.14715296926E+01 -0.16537095571E+02  0.41932228745E+01  0.17123786027E+02  0.51100000000E-03 0.  1.
         12    1    3    3    0    0  0.10787702529E+00 -0.16698609110E+02 -0.46294373722E+01  0.17328787437E+02  0.00000000000E+00 0. -1.
</event>
<event>
 7    1  0.5910662E-013  0.5052886E+02  0.7816164E-02  0.1300439E+00
        -11   -1    0    0    0    0  0.00000000000E+00  0.00000000000E+00  0.45593999997E+02  0.45594000000E+02  0.51100000000E-03 0.  1.
         11   -1    0    0    0    0 -0.00000000000E+00 -0.00000000000E+00 -0.45593999997E+02  0.45594000000E+02  0.51100000000E-03 0. -1.
    9900012    2    1    2    0    0 -0.80635060548E+01  0.15197346253E+02  0.36840009496E+02  0.50528858805E+02  0.29999996824E+02 0.  0.
         12    1    1    2    0    0  0.80635060548E+01 -0.15197346253E+02 -0.36840009496E+02  0.40659141195E+02  0.00000000000E+00 0. -1.
         11    1    3    3    0    0  0.10259203434E+02  0.92247533922E+01  0.13573974153E+02  0.19354588727E+02  0.51100000000E-03 0. -1.
        -11    1    3    3    0    0 -0.15115102280E+02  0.18298460617E+01  0.19409046543E+02  0.24668314525E+02  0.51100000000E-03 0.  1.
         12    1    3    3    0    0 -0.32076072090E+01  0.41427467990E+01  0.38569888000E+01  0.65059555525E+01  0.00000000000E+00 0. -1.
</event>
<event>
 7    1  0.5910662E-013  0.5052886E+02  0.7816164E-02  0.1300439E+00
        -11   -1    0    0    0    0  0.00000000000E+00  0.00000000000E+00  0.45593999997E+02  0.45594000000E+02  0.51100000000E-03 0. -1.
         11   -1    0    0    0    0 -0.00000000000E+00 -0.00000000000E+00 -0.45593999997E+02  0.45594000000E+02  0.51100000000E-03 0.  1.
    9900012    2    1    2    0    0  0.23074116935E+01  0.36523752927E+02 -0.17716006471E+02  0.50528861275E+02  0.30000004331E+02 0.  0.
         12    1    1    2    0    0 -0.23074116935E+01 -0.36523752927E+02  0.17716006471E+02  0.40659138725E+02  0.00000000000E+00 0. -1.
         11    1    3    3    0    0 -0.95567485395E+01  0.21058699524E+02  0.51197756862E+00  0.23131415642E+02  0.51100000000E-03 0.  1.
        -11    1    3    3    0    0  0.84439399902E+01  0.11123148798E+02 -0.89159882212E+01  0.16568627220E+02  0.51100000000E-03 0. -1.
        -12    1    3    3    0    0  0.34202202428E+01  0.43419046050E+01 -0.93119958184E+01  0.10828818413E+02  0.00000000000E+00 0.  1.
</event>
<event>
 7    1  0.5910662E-013  0.5052886E+02  0.7816164E-02  0.1300439E+00
        -11   -1    0    0    0    0  0.00000000000E+00  0.00000000000E+00  0.45593999997E+02  0.45594000000E+02  0.51100000000E-03 0. -1.
         11   -1    0    0    0    0 -0.00000000000E+00 -0.00000000000E+00 -0.45593999997E+02  0.45594000000E+02  0.51100000000E-03 0.  1.
    9900012    2    1    2    0    0  0.22011563395E+02 -0.52139050652E+00 -0.34181643730E+02  0.50528861553E+02  0.30000005177E+02 0.  0.
         12    1    1    2    0    0 -0.22011563395E+02  0.52139050652E+00  0.34181643730E+02  0.40659138447E+02  0.00000000000E+00 0. -1.
         11    1    3    3    0    0  0.13959147940E+02  0.42322453391E+01 -0.27848917592E+01  0.14850095427E+02  0.51100000000E-03 0. -1.
        -11    1    3    3    0    0  0.30539463868E+01  0.23750502201E+01 -0.23835010354E+02  0.24146949516E+02  0.51100000000E-03 0.  1.
         12    1    3    3    0    0  0.49984690679E+01 -0.71286860657E+01 -0.75617416172E+01  0.11531816610E+02  0.00000000000E+00 0. -1.
</event>
<event>
 7    1  0.5910662E-013  0.5052884E+02  0.7816164E-02  0.1300439E+00
        -11   -1    0    0    0    0  0.00000000000E+00  0.00000000000E+00  0.45593999997E+02  0.45594000000E+02  0.51100000000E-03 0.  1.
         11   -1    0    0    0    0 -0.00000000000E+00 -0.00000000000E+00 -0.45593999997E+02  0.45594000000E+02  0.51100000000E-03 0. -1.
    9900012    2    1    2    0    0 -0.93992921768E+01  0.91167334637E+01  0.38492929623E+02  0.50528841702E+02  0.29999944839E+02 0.  0.
         12    1    1    2    0    0  0.93992921768E+01 -0.91167334637E+01 -0.38492929623E+02  0.40659158298E+02  0.00000000000E+00 0. -1.
         11    1    3    3    0    0  0.65168891714E+01 -0.63857229963E+01  0.13765170654E+02  0.16514455064E+02  0.51100000000E-03 0. -1.
        -11    1    3    3    0    0 -0.63183322296E+01  0.94715407556E+01  0.16329541439E+02  0.19906916645E+02  0.51100000000E-03 0.  1.
         12    1    3    3    0    0 -0.95978491186E+01  0.60309157043E+01  0.83982175310E+01  0.14107469994E+02  0.00000000000E+00 0. -1.
</event>
<event>
 7    1  0.5910662E-013  0.5052881E+02  0.7816164E-02  0.1300439E+00
        -11   -1    0    0    0    0  0.00000000000E+00  0.00000000000E+00  0.45593999997E+02  0.45594000000E+02  0.51100000000E-03 0.  1.
         11   -1    0    0    0    0 -0.00000000000E+00 -0.00000000000E+00 -0.45593999997E+02  0.45594000000E+02  0.51100000000E-03 0. -1.
    9900012    2    1    2    0    0 -0.32590122314E+02  0.23232131834E+02  0.71639401715E+01  0.50528805950E+02  0.29999836166E+02 0.  0.
         12    1    1    2    0    0  0.32590122314E+02 -0.23232131834E+02 -0.71639401715E+01  0.40659194050E+02  0.00000000000E+00 0. -1.
         11    1    3    3    0    0 -0.95279062588E+01 -0.37614448629E+01 -0.35457286413E+01  0.10839818125E+02  0.51100000000E-03 0. -1.
        -11    1    3    3    0    0 -0.18960352002E+02  0.21400751163E+02  0.21505748746E+01  0.28672496768E+02  0.51100000000E-03 0.  1.
         12    1    3    3    0    0 -0.41018640533E+01  0.55928255342E+01  0.85590939382E+01  0.11016491057E+02  0.00000000000E+00 0. -1.
</event>
<event>
 7    1  0.5910662E-013  0.5052886E+02  0.7816164E-02  0.1300439E+00
        -11   -1    0    0    0    0  0.00000000000E+00  0.00000000000E+00  0.45593999997E+02  0.45594000000E+02  0.51100000000E-03 0.  1.
         11   -1    0    0    0    0 -0.00000000000E+00 -0.00000000000E+00 -0.45593999997E+02  0.45594000000E+02  0.51100000000E-03 0. -1.
    9900012    2    1    2    0    0 -0.17709683251E+02  0.72872501018E+01  0.35866818817E+02  0.50528860967E+02  0.30000003395E+02 0.  0.
         12    1    1    2    0    0  0.17709683251E+02 -0.72872501018E+01 -0.35866818817E+02  0.40659139033E+02  0.00000000000E+00 0. -1.
         11    1    3    3    0    0 -0.16003542130E+02 -0.41367238604E+01  0.92284162791E+01  0.18931178312E+02  0.51100000000E-03 0. -1.
        -11    1    3    3    0    0  0.50177850180E+01  0.43296706515E+01  0.15002205287E+02  0.16400926137E+02  0.51100000000E-03 0.  1.
        -12    1    3    3    0    0 -0.67239261386E+01  0.70943033107E+01  0.11636197251E+02  0.15196756517E+02  0.00000000000E+00 0.  1.
</event>
<event>
 7    1  0.5910662E-013  0.5052885E+02  0.7816164E-02  0.1300439E+00
        -11   -1    0    0    0    0  0.00000000000E+00  0.00000000000E+00  0.45593999997E+02  0.45594000000E+02  0.51100000000E-03 0. -1.
         11   -1    0    0    0    0 -0.00000000000E+00 -0.00000000000E+00 -0.45593999997E+02  0.45594000000E+02  0.51100000000E-03 0.  1.
    9900012    2    1    2    0    0 -0.36977579481E+02 -0.16884368523E+02 -0.86197608119E+00  0.50528852352E+02  0.29999977210E+02 0.  0.
         12    1    1    2    0    0  0.36977579481E+02  0.16884368523E+02  0.86197608119E+00  0.40659147648E+02  0.00000000000E+00 0. -1.
         11    1    3    3    0    0 -0.87529558967E+01 -0.18904858480E+00  0.93709348252E+01  0.12824367277E+02  0.51100000000E-03 0. -1.
        -11    1    3    3    0    0 -0.17440229799E+02 -0.83974919788E+01 -0.13636896200E+02  0.23677931185E+02  0.51100000000E-03 0.  1.
        -12    1    3    3    0    0 -0.10784393785E+02 -0.82978279593E+01  0.34039852938E+01  0.14026553890E+02  0.00000000000E+00 0.  1.
</event>
<event>
 7    1  0.5910662E-013  0.5052886E+02  0.7816164E-02  0.1300439E+00
        -11   -1    0    0    0    0  0.00000000000E+00  0.00000000000E+00  0.45593999997E+02  0.45594000000E+02  0.51100000000E-03 0.  1.
         11   -1    0    0    0    0 -0.00000000000E+00 -0.00000000000E+00 -0.45593999997E+02  0.45594000000E+02  0.51100000000E-03 0. -1.
    9900012    2    1    2    0    0 -0.39575499431E+02  0.85672404786E+01  0.36807085793E+01  0.50528863508E+02  0.30000011120E+02 0.  0.
         12    1    1    2    0    0  0.39575499431E+02 -0.85672404786E+01 -0.36807085793E+01  0.40659136492E+02  0.00000000000E+00 0. -1.
         11    1    3    3    0    0 -0.29532005405E+02  0.62874268732E+01  0.10447842173E+02  0.31950406668E+02  0.51100000000E-03 0. -1.
        -11    1    3    3    0    0 -0.11335371260E+02 -0.28756580132E+01 -0.61919716079E+01  0.13232556944E+02  0.51100000000E-03 0.  1.
         12    1    3    3    0    0  0.12918772341E+01  0.51554716187E+01 -0.57516198540E+00  0.53458998969E+01  0.00000000000E+00 0. -1.
</event>
<event>
 7    1  0.5910662E-013  0.5052886E+02  0.7816164E-02  0.1300439E+00
        -11   -1    0    0    0    0  0.00000000000E+00  0.00000000000E+00  0.45593999997E+02  0.45594000000E+02  0.51100000000E-03 0. -1.
         11   -1    0    0    0    0 -0.00000000000E+00 -0.00000000000E+00 -0.45593999997E+02  0.45594000000E+02  0.51100000000E-03 0.  1.
    9900012    2    1    2    0    0 -0.37264384754E+02 -0.11142155869E+02 -0.11848370099E+02  0.50528857332E+02  0.29999992347E+02 0.  0.
         12    1    1    2    0    0  0.37264384754E+02  0.11142155869E+02  0.11848370099E+02  0.40659142668E+02  0.00000000000E+00 0. -1.
         11    1    3    3    0    0 -0.80720310269E-01  0.11189868307E+01  0.52920813435E+01  0.54096924592E+01  0.51100000000E-03 0. -1.
        -11    1    3    3    0    0 -0.21176021564E+02 -0.42158912765E+01 -0.20386012883E+01  0.21687635279E+02  0.51100000000E-03 0.  1.
         12    1    3    3    0    0 -0.16007642880E+02 -0.80452514236E+01 -0.15101850154E+02  0.23431529594E+02  0.00000000000E+00 0. -1.
</event>
<event>
 7    1  0.5910662E-013  0.5052887E+02  0.7816164E-02  0.1300439E+00
        -11   -1    0    0    0    0  0.00000000000E+00  0.00000000000E+00  0.45593999997E+02  0.45594000000E+02  0.51100000000E-03 0. -1.
         11   -1    0    0    0    0 -0.00000000000E+00 -0.00000000000E+00 -0.45593999997E+02  0.45594000000E+02  0.51100000000E-03 0.  1.
    9900012    2    1    2    0    0  0.18412781768E+02  0.41430427240E+01 -0.36013465005E+02  0.50528868220E+02  0.30000025442E+02 0.  0.
         12    1    1    2    0    0 -0.18412781768E+02 -0.41430427240E+01  0.36013465005E+02  0.40659131780E+02  0.00000000000E+00 0. -1.
         11    1    3    3    0    0  0.33528923811E+01  0.46704927393E+01 -0.50846666561E+01  0.76752345249E+01  0.51100000000E-03 0. -1.
        -11    1    3    3    0    0  0.10074742516E+02 -0.11641250212E+02 -0.24869443821E+02  0.29249074848E+02  0.51100000000E-03 0.  1.
        -12    1    3    3    0    0  0.49851468708E+01  0.11113800196E+02 -0.60593545278E+01  0.13604558847E+02  0.00000000000E+00 0.  1.
</event>
<event>
 7    1  0.5910662E-013  0.5052884E+02  0.7816164E-02  0.1300439E+00
        -11   -1    0    0    0    0  0.00000000000E+00  0.00000000000E+00  0.45593999997E+02  0.45594000000E+02  0.51100000000E-03 0.  1.
         11   -1    0    0    0    0 -0.00000000000E+00 -0.00000000000E+00 -0.45593999997E+02  0.45594000000E+02  0.51100000000E-03 0. -1.
    9900012    2    1    2    0    0 -0.15727620174E+02  0.34440579022E+02 -0.14820784092E+02  0.50528841612E+02  0.29999944564E+02 0.  0.
         12    1    1    2    0    0  0.15727620174E+02 -0.34440579022E+02  0.14820784092E+02  0.40659158388E+02  0.00000000000E+00 0. -1.
         11    1    3    3    0    0 -0.87895074205E+01 -0.18876438761E+01  0.65809639086E+00  0.90139742189E+01  0.51100000000E-03 0. -1.
        -11    1    3    3    0    0 -0.88538439886E+01  0.18900297499E+02 -0.67972298744E+01  0.21950264990E+02  0.51100000000E-03 0.  1.
         12    1    3    3    0    0  0.19157312354E+01  0.17427925399E+02 -0.86816506087E+01  0.19564602403E+02  0.00000000000E+00 0. -1.
</event>
<event>
 7    1  0.5910662E-013  0.5052887E+02  0.7816164E-02  0.1300439E+00
        -11   -1    0    0    0    0  0.00000000000E+00  0.00000000000E+00  0.45593999997E+02  0.45594000000E+02  0.51100000000E-03 0.  1.
         11   -1    0    0    0    0 -0.00000000000E+00 -0.00000000000E+00 -0.45593999997E+02  0.45594000000E+02  0.51100000000E-03 0. -1.
    9900012    2    1    2    0    0 -0.12382027334E+02 -0.23914576185E+02  0.30462164272E+02  0.50528868097E+02  0.30000025067E+02 0.  0.
         12    1    1    2    0    0  0.12382027334E+02  0.23914576185E+02 -0.30462164272E+02  0.40659131903E+02  0.00000000000E+00 0. -1.
         11    1    3    3    0    0 -0.99946449785E+01 -0.10555053010E+01  0.96227031102E+01  0.13914145144E+02  0.51100000000E-03 0. -1.
        -11    1    3    3    0    0  0.83536013556E+01 -0.12753475985E+02  0.12171399781E+02  0.19508377129E+02  0.51100000000E-03 0.  1.
        -12    1    3    3    0    0 -0.10740983711E+02 -0.10105594899E+02  0.86680613805E+01  0.17106345824E+02  0.00000000000E+00 0.  1.
</event>
<event>
 7    1  0.5910662E-013  0.5052886E+02  0.7816164E-02  0.1300439E+00
        -11   -1    0    0    0    0  0.00000000000E+00  0.00000000000E+00  0.45593999997E+02  0.45594000000E+02  0.51100000000E-03 0.  1.
         11   -1    0    0    0    0 -0.00000000000E+00 -0.00000000000E+00 -0.45593999997E+02  0.45594000000E+02  0.51100000000E-03 0. -1.
    9900012    2    1    2    0    0  0.76158617670E+01 -0.22776900594E+02  0.32808190231E+02  0.50528857149E+02  0.29999991790E+02 0.  0.
         12    1    1    2    0    0 -0.76158617670E+01  0.22776900594E+02 -0.32808190231E+02  0.40659142851E+02  0.00000000000E+00 0. -1.
         11    1    3    3    0    0  0.67089839274E+01 -0.27645721017E+01 -0.10942585708E+01  0.73383054124E+01  0.51100000000E-03 0. -1.
        -11    1    3    3    0    0  0.26216708826E+01 -0.10274344943E+02  0.31181625076E+02  0.32935225289E+02  0.51100000000E-03 0.  1.
        -12    1    3    3    0    0 -0.17147930430E+01 -0.97379835496E+01  0.27208237261E+01  0.10255326447E+02  0.00000000000E+00 0.  1.
</event>
<event>
 7    1  0.5910662E-013  0.5052886E+02  0.7816164E-02  0.1300439E+00
        -11   -1    0    0    0    0  0.00000000000E+00  0.00000000000E+00  0.45593999997E+02  0.45594000000E+02  0.51100000000E-03 0.  1.
         11   -1    0    0    0    0 -0.00000000000E+00 -0.00000000000E+00 -0.45593999997E+02  0.45594000000E+02  0.51100000000E-03 0. -1.
    9900012    2    1    2    0    0  0.78097186511E+01  0.16638509472E+02  0.36267530211E+02  0.50528862645E+02  0.30000008495E+02 0.  0.
         12    1    1    2    0    0 -0.78097186511E+01 -0.16638509472E+02 -0.36267530211E+02  0.40659137355E+02  0.00000000000E+00 0. -1.
         11    1    3    3    0    0  0.17090221409E+01  0.25981475116E+01  0.31993737229E+02  0.32144522851E+02  0.51100000000E-03 0. -1.
        -11    1    3    3    0    0  0.14956776179E+00  0.80956951501E+01 -0.14284706731E+01  0.82221152512E+01  0.51100000000E-03 0.  1.
         12    1    3    3    0    0  0.59511287484E+01  0.59446668103E+01  0.57022636556E+01  0.10162224543E+02  0.00000000000E+00 0. -1.
</event>
<event>
 7    1  0.5910662E-013  0.5052886E+02  0.7816164E-02  0.1300439E+00
        -11   -1    0    0    0    0  0.00000000000E+00  0.00000000000E+00  0.45593999997E+02  0.45594000000E+02  0.51100000000E-03 0. -1.
         11   -1    0    0    0    0 -0.00000000000E+00 -0.00000000000E+00 -0.45593999997E+02  0.45594000000E+02  0.51100000000E-03 0.  1.
    9900012    2    1    2    0    0 -0.24555911494E+01  0.57950825622E+01 -0.40169053422E+02  0.50528858806E+02  0.29999996828E+02 0.  0.
         12    1    1    2    0    0  0.24555911494E+01 -0.57950825622E+01  0.40169053422E+02  0.40659141194E+02  0.00000000000E+00 0. -1.
         11    1    3    3    0    0  0.17961600428E+01  0.89366890655E+01 -0.41600956233E+02  0.42587910985E+02  0.51100000000E-03 0.  1.
        -11    1    3    3    0    0 -0.53525848168E+00 -0.13278027555E+00  0.28897332792E+01  0.29418856078E+01  0.51100000000E-03 0. -1.
         12    1    3    3    0    0 -0.37164927105E+01 -0.30088262277E+01 -0.14578304682E+01  0.49990622131E+01  0.00000000000E+00 0. -1.
</event>
<event>
 7    1  0.5910662E-013  0.5052886E+02  0.7816164E-02  0.1300439E+00
        -11   -1    0    0    0    0  0.00000000000E+00  0.00000000000E+00  0.45593999997E+02  0.45594000000E+02  0.51100000000E-03 0. -1.
         11   -1    0    0    0    0 -0.00000000000E+00 -0.00000000000E+00 -0.45593999997E+02  0.45594000000E+02  0.51100000000E-03 0.  1.
    9900012    2    1    2    0    0 -0.34158328830E+02  0.21511323776E+02  0.48617890891E+01  0.50528862377E+02  0.30000007683E+02 0.  0.
         12    1    1    2    0    0  0.34158328830E+02 -0.21511323776E+02 -0.48617890891E+01  0.40659137623E+02  0.00000000000E+00 0. -1.
         11    1    3    3    0    0  0.50330305367E+01  0.45565261244E+00 -0.17879554203E+00  0.50567760276E+01  0.51100000000E-03 0. -1.
        -11    1    3    3    0    0 -0.22944415550E+02  0.11636159847E+02 -0.99611792291E+00  0.25745653460E+02  0.51100000000E-03 0.  1.
         12    1    3    3    0    0 -0.16246943817E+02  0.94195113164E+01  0.60367025540E+01  0.19726432890E+02  0.00000000000E+00 0. -1.
</event>
<event>
 7    1  0.5910662E-013  0.5052888E+02  0.7816164E-02  0.1300439E+00
        -11   -1    0    0    0    0  0.00000000000E+00  0.00000000000E+00  0.45593999997E+02  0.45594000000E+02  0.51100000000E-03 0. -1.
         11   -1    0    0    0    0 -0.00000000000E+00 -0.00000000000E+00 -0.45593999997E+02  0.45594000000E+02  0.51100000000E-03 0.  1.
    9900012    2    1    2    0    0  0.27369680484E+02 -0.53180229300E+01 -0.29593631834E+02  0.50528882661E+02  0.30000069336E+02 0.  0.
         12    1    1    2    0    0 -0.27369680484E+02  0.53180229300E+01  0.29593631834E+02  0.40659117339E+02  0.00000000000E+00 0. -1.
         11    1    3    3    0    0  0.10527344790E+02  0.28413440858E+01  0.34015000179E+01  0.11422277670E+02  0.51100000000E-03 0. -1.
        -11    1    3    3    0    0  0.42273073846E+01 -0.55174830465E+00 -0.16268032731E+02  0.16817355413E+02  0.51100000000E-03 0.  1.
        -12    1    3    3    0    0  0.12615028309E+02 -0.76076187111E+01 -0.16727099122E+02  0.22289249577E+02  0.00000000000E+00 0.  1.
</event>
<event>
 7    1  0.5910662E-013  0.5052886E+02  0.7816164E-02  0.1300439E+00
        -11   -1    0    0    0    0  0.00000000000E+00  0.00000000000E+00  0.45593999997E+02  0.45594000000E+02  0.51100000000E-03 0. -1.
         11   -1    0    0    0    0 -0.00000000000E+00 -0.00000000000E+00 -0.45593999997E+02  0.45594000000E+02  0.51100000000E-03 0.  1.
    9900012    2    1    2    0    0 -0.39376722775E+02  0.80570323405E+01 -0.61419798420E+01  0.50528856096E+02  0.29999988589E+02 0.  0.
         12    1    1    2    0    0  0.39376722775E+02 -0.80570323405E+01  0.61419798420E+01  0.40659143904E+02  0.00000000000E+00 0. -1.
         11    1    3    3    0    0  0.28634854772E+01 -0.27406349751E+01 -0.51886131608E+00  0.39974800151E+01  0.51100000000E-03 0. -1.
        -11    1    3    3    0    0 -0.29145751508E+02  0.71454655444E+01  0.34213923869E+01  0.30203285168E+02  0.51100000000E-03 0.  1.
         12    1    3    3    0    0 -0.13094456744E+02  0.36522017712E+01 -0.90445109128E+01  0.16328090913E+02  0.00000000000E+00 0. -1.
</event>
<event>
 7    1  0.5910662E-013  0.5052888E+02  0.7816164E-02  0.1300439E+00
        -11   -1    0    0    0    0  0.00000000000E+00  0.00000000000E+00  0.45593999997E+02  0.45594000000E+02  0.51100000000E-03 0.  1.
         11   -1    0    0    0    0 -0.00000000000E+00 -0.00000000000E+00 -0.45593999997E+02  0.45594000000E+02  0.51100000000E-03 0. -1.
    9900012    2    1    2    0    0 -0.36558924586E+02 -0.14004589669E+02  0.10976351064E+02  0.50528883170E+02  0.30000070884E+02 0.  0.
         12    1    1    2    0    0  0.36558924586E+02  0.14004589669E+02 -0.10976351064E+02  0.40659116830E+02  0.00000000000E+00 0. -1.
         11    1    3    3    0    0 -0.13088479830E+01 -0.32292564738E+01  0.95796827538E+01  0.10193699149E+02  0.51100000000E-03 0.  1.
        -11    1    3    3    0    0 -0.33036840058E+02 -0.41659411674E+01  0.18543561896E+01  0.33350060030E+02  0.51100000000E-03 0. -1.
        -12    1    3    3    0    0 -0.22132365448E+01 -0.66093920279E+01 -0.45768787960E+00  0.69851239915E+01  0.00000000000E+00 0.  1.
</event>
<event>
 7    1  0.5910662E-013  0.5052880E+02  0.7816164E-02  0.1300439E+00
        -11   -1    0    0    0    0  0.00000000000E+00  0.00000000000E+00  0.45593999997E+02  0.45594000000E+02  0.51100000000E-03 0. -1.
         11   -1    0    0    0    0 -0.00000000000E+00 -0.00000000000E+00 -0.45593999997E+02  0.45594000000E+02  0.51100000000E-03 0.  1.
    9900012    2    1    2    0    0 -0.55779919063E+01 -0.36873052285E+02 -0.16199835907E+02  0.50528798557E+02  0.29999813695E+02 0.  0.
         12    1    1    2    0    0  0.55779919063E+01  0.36873052285E+02  0.16199835907E+02  0.40659201443E+02  0.00000000000E+00 0. -1.
         11    1    3    3    0    0  0.90124165747E+01 -0.44065924994E+01 -0.20399012409E+01  0.10237329110E+02  0.51100000000E-03 0. -1.
        -11    1    3    3    0    0 -0.13736434003E+02 -0.17507130367E+02 -0.11585921547E+02  0.25088300284E+02  0.51100000000E-03 0.  1.
        -12    1    3    3    0    0 -0.85397447842E+00 -0.14959329419E+02 -0.25740131193E+01  0.15203169164E+02  0.00000000000E+00 0.  1.
</event>
<event>
 7    1  0.5910662E-013  0.5052886E+02  0.7816164E-02  0.1300439E+00
        -11   -1    0    0    0    0  0.00000000000E+00  0.00000000000E+00  0.45593999997E+02  0.45594000000E+02  0.51100000000E-03 0. -1.
         11   -1    0    0    0    0 -0.00000000000E+00 -0.00000000000E+00 -0.45593999997E+02  0.45594000000E+02  0.51100000000E-03 0.  1.
    9900012    2    1    2    0    0  0.26199140286E+02  0.27478699081E+02  0.14549631923E+02  0.50528860264E+02  0.30000001260E+02 0.  0.
         12    1    1    2    0    0 -0.26199140286E+02 -0.27478699081E+02 -0.14549631923E+02  0.40659139736E+02  0.00000000000E+00 0. -1.
         11    1    3    3    0    0  0.20337060616E+02  0.16780871221E+02  0.19300955812E+02  0.32675993771E+02  0.51100000000E-03 0. -1.
        -11    1    3    3    0    0 -0.76187026091E+00  0.91484889452E+01 -0.59577977225E+01  0.10943977807E+02  0.51100000000E-03 0.  1.
        -12    1    3    3    0    0  0.66239499317E+01  0.15493389145E+01  0.12064738343E+01  0.69088886865E+01  0.00000000000E+00 0.  1.
</event>
<event>
 7    1  0.5910662E-013  0.5052898E+02  0.7816164E-02  0.1300438E+00
        -11   -1    0    0    0    0  0.00000000000E+00  0.00000000000E+00  0.45593999997E+02  0.45594000000E+02  0.51100000000E-03 0.  1.
         11   -1    0    0    0    0 -0.00000000000E+00 -0.00000000000E+00 -0.45593999997E+02  0.45594000000E+02  0.51100000000E-03 0. -1.
    9900012    2    1    2    0    0 -0.37227808304E+02  0.12535499207E+02  0.10493222012E+02  0.50528976897E+02  0.30000355773E+02 0.  0.
         12    1    1    2    0    0  0.37227808304E+02 -0.12535499207E+02 -0.10493222012E+02  0.40659023103E+02  0.00000000000E+00 0. -1.
         11    1    3    3    0    0  0.28605811273E+01 -0.32347433993E+01  0.38766925400E+01  0.58030366667E+01  0.51100000000E-03 0. -1.
        -11    1    3    3    0    0 -0.10684756799E+02  0.48805118351E+01  0.63847913856E+01  0.13369703995E+02  0.51100000000E-03 0.  1.
         12    1    3    3    0    0 -0.29403632633E+02  0.10889730772E+02  0.23173808639E+00  0.31356236235E+02  0.00000000000E+00 0. -1.
</event>
<event>
 7    1  0.5910662E-013  0.5052886E+02  0.7816164E-02  0.1300439E+00
        -11   -1    0    0    0    0  0.00000000000E+00  0.00000000000E+00  0.45593999997E+02  0.45594000000E+02  0.51100000000E-03 0.  1.
         11   -1    0    0    0    0 -0.00000000000E+00 -0.00000000000E+00 -0.45593999997E+02  0.45594000000E+02  0.51100000000E-03 0. -1.
    9900012    2    1    2    0    0  0.16545523199E+02  0.22052291092E+02  0.29884907269E+02  0.50528861264E+02  0.30000004297E+02 0.  0.
         12    1    1    2    0    0 -0.16545523199E+02 -0.22052291092E+02 -0.29884907269E+02  0.40659138736E+02  0.00000000000E+00 0. -1.
         11    1    3    3    0    0 -0.53075046807E+01  0.66428427557E+00  0.12243006161E+02  0.13360467045E+02  0.51100000000E-03 0. -1.
        -11    1    3    3    0    0  0.18557135904E+02  0.22456981246E+02  0.16693091325E+02  0.33575922890E+02  0.51100000000E-03 0.  1.
         12    1    3    3    0    0  0.32958919753E+01 -0.10689744302E+01  0.94880978240E+00  0.35924713288E+01  0.00000000000E+00 0. -1.
</event>
<event>
 7    1  0.5910662E-013  0.5052886E+02  0.7816164E-02  0.1300439E+00
        -11   -1    0    0    0    0  0.00000000000E+00  0.00000000000E+00  0.45593999997E+02  0.45594000000E+02  0.51100000000E-03 0.  1.
         11   -1    0    0    0    0 -0.00000000000E+00 -0.00000000000E+00 -0.45593999997E+02  0.45594000000E+02  0.51100000000E-03 0. -1.
    9900012    2    1    2    0    0  0.19978837056E+02 -0.98274185773E+01  0.34021077178E+02  0.50528858612E+02  0.29999996238E+02 0.  0.
         12    1    1    2    0    0 -0.19978837056E+02  0.98274185773E+01 -0.34021077178E+02  0.40659141388E+02  0.00000000000E+00 0. -1.
         11    1    3    3    0    0  0.13710774542E+02 -0.45693335708E+01 -0.98225660154E+00  0.14485474660E+02  0.51100000000E-03 0. -1.
        -11    1    3    3    0    0  0.39067926614E+01 -0.16362863150E+01  0.18991230019E+02  0.19457833376E+02  0.51100000000E-03 0.  1.
         12    1    3    3    0    0  0.23612698527E+01 -0.36217986915E+01  0.16012103761E+02  0.16585550576E+02  0.00000000000E+00 0. -1.
</event>
<event>
 7    1  0.5910662E-013  0.5052885E+02  0.7816164E-02  0.1300439E+00
        -11   -1    0    0    0    0  0.00000000000E+00  0.00000000000E+00  0.45593999997E+02  0.45594000000E+02  0.51100000000E-03 0. -1.
         11   -1    0    0    0    0 -0.00000000000E+00 -0.00000000000E+00 -0.45593999997E+02  0.45594000000E+02  0.51100000000E-03 0.  1.
    9900012    2    1    2    0    0 -0.36056939609E+02  0.51076863086E+01 -0.18082444190E+02  0.50528854150E+02  0.29999982673E+02 0.  0.
         12    1    1    2    0    0  0.36056939609E+02 -0.51076863086E+01  0.18082444190E+02  0.40659145850E+02  0.00000000000E+00 0. -1.
         11    1    3    3    0    0  0.67775560827E+00  0.15749324377E+01 -0.11266340805E+02  0.11396060734E+02  0.51100000000E-03 0. -1.
        -11    1    3    3    0    0 -0.20754975424E+02  0.61104848503E+01 -0.75887584846E+01  0.22928067637E+02  0.51100000000E-03 0.  1.
         12    1    3    3    0    0 -0.15979719793E+02 -0.25777309794E+01  0.77265509983E+00  0.16204725779E+02  0.00000000000E+00 0. -1.
</event>
<event>
 7    1  0.5910662E-013  0.5052886E+02  0.7816164E-02  0.1300439E+00
        -11   -1    0    0    0    0  0.00000000000E+00  0.00000000000E+00  0.45593999997E+02  0.45594000000E+02  0.51100000000E-03 0. -1.
         11   -1    0    0    0    0 -0.00000000000E+00 -0.00000000000E+00 -0.45593999997E+02  0.45594000000E+02  0.51100000000E-03 0.  1.
    9900012    2    1    2    0    0  0.18439450923E+02  0.12347988099E+02 -0.34068749089E+02  0.50528858039E+02  0.29999994497E+02 0.  0.
         12    1    1    2    0    0 -0.18439450923E+02 -0.12347988099E+02  0.34068749089E+02  0.40659141961E+02  0.00000000000E+00 0. -1.
         11    1    3    3    0    0  0.22883634502E+01  0.22457110850E+01  0.13119439050E+01  0.34642492157E+01  0.51100000000E-03 0. -1.
        -11    1    3    3    0    0  0.14019823212E+02  0.11672351798E+02 -0.38720612074E+02  0.42802862510E+02  0.51100000000E-03 0.  1.
        -12    1    3    3    0    0  0.21312642614E+01 -0.15700747841E+01  0.33399190800E+01  0.42617463135E+01  0.00000000000E+00 0.  1.
</event>
<event>
 7    1  0.5910662E-013  0.5052883E+02  0.7816164E-02  0.1300439E+00
        -11   -1    0    0    0    0  0.00000000000E+00  0.00000000000E+00  0.45593999997E+02  0.45594000000E+02  0.51100000000E-03 0.  1.
         11   -1    0    0    0    0 -0.00000000000E+00 -0.00000000000E+00 -0.45593999997E+02  0.45594000000E+02  0.51100000000E-03 0. -1.
    9900012    2    1    2    0    0  0.99195055508E+01  0.10549544360E+02  0.37993137901E+02  0.50528831242E+02  0.29999913042E+02 0.  0.
         12    1    1    2    0    0 -0.99195055508E+01 -0.10549544360E+02 -0.37993137901E+02  0.40659168758E+02  0.00000000000E+00 0. -1.
         11    1    3    3    0    0  0.25473613354E+01  0.87574631117E+01 -0.32342675249E+00  0.91261610248E+01  0.51100000000E-03 0. -1.
        -11    1    3    3    0    0  0.98132056966E-01  0.65693224067E+00  0.31054545317E+02  0.31061647976E+02  0.51100000000E-03 0.  1.
        -12    1    3    3    0    0  0.72740121583E+01  0.11351490073E+01  0.72620193360E+01  0.10341022241E+02  0.00000000000E+00 0.  1.
</event>
<event>
 7    1  0.5910662E-013  0.5052885E+02  0.7816164E-02  0.1300439E+00
        -11   -1    0    0    0    0  0.00000000000E+00  0.00000000000E+00  0.45593999997E+02  0.45594000000E+02  0.51100000000E-03 0.  1.
         11   -1    0    0    0    0 -0.00000000000E+00 -0.00000000000E+00 -0.45593999997E+02  0.45594000000E+02  0.51100000000E-03 0. -1.
    9900012    2    1    2    0    0  0.19474306918E+02  0.10843658341E+02  0.34004899309E+02  0.50528846871E+02  0.29999960550E+02 0.  0.
         12    1    1    2    0    0 -0.19474306918E+02 -0.10843658341E+02 -0.34004899309E+02  0.40659153129E+02  0.00000000000E+00 0. -1.
         11    1    3    3    0    0  0.11995864799E+02 -0.63185774056E+01  0.72852609531E+01  0.15391563277E+02  0.51100000000E-03 0. -1.
        -11    1    3    3    0    0  0.10355643206E+02  0.13273493033E+02  0.24707854164E+02  0.29898211003E+02  0.51100000000E-03 0.  1.
         12    1    3    3    0    0 -0.28772010866E+01  0.38887427133E+01  0.20117841915E+01  0.52390725913E+01  0.00000000000E+00 0. -1.
</event>
<event>
 7    1  0.5910662E-013  0.5052886E+02  0.7816164E-02  0.1300439E+00
        -11   -1    0    0    0    0  0.00000000000E+00  0.00000000000E+00  0.45593999997E+02  0.45594000000E+02  0.51100000000E-03 0.  1.
         11   -1    0    0    0    0 -0.00000000000E+00 -0.00000000000E+00 -0.45593999997E+02  0.45594000000E+02  0.51100000000E-03 0. -1.
    9900012    2    1    2    0    0 -0.32611592187E+02 -0.59994006118E+01  0.23529910038E+02  0.50528863030E+02  0.30000009667E+02 0.  0.
         12    1    1    2    0    0  0.32611592187E+02  0.59994006118E+01 -0.23529910038E+02  0.40659136970E+02  0.00000000000E+00 0. -1.
         11    1    3    3    0    0 -0.42655764503E+01  0.64285282775E+01  0.94927493256E+01  0.12232473515E+02  0.51100000000E-03 0. -1.
        -11    1    3    3    0    0 -0.16885020527E+02 -0.11903656225E+02  0.65522428837E+00  0.20669549314E+02  0.51100000000E-03 0.  1.
        -12    1    3    3    0    0 -0.11460995210E+02 -0.52427266425E+00  0.13381936424E+02  0.17626840202E+02  0.00000000000E+00 0.  1.
</event>
<event>
 7    1  0.5910662E-013  0.5052887E+02  0.7816164E-02  0.1300439E+00
        -11   -1    0    0    0    0  0.00000000000E+00  0.00000000000E+00  0.45593999997E+02  0.45594000000E+02  0.51100000000E-03 0.  1.
         11   -1    0    0    0    0 -0.00000000000E+00 -0.00000000000E+00 -0.45593999997E+02  0.45594000000E+02  0.51100000000E-03 0. -1.
    9900012    2    1    2    0    0 -0.19984192918E+02  0.26504688800E+02  0.23479738596E+02  0.50528872863E+02  0.30000039555E+02 0.  0.
         12    1    1    2    0    0  0.19984192918E+02 -0.26504688800E+02 -0.23479738596E+02  0.40659127137E+02  0.00000000000E+00 0. -1.
         11    1    3    3    0    0 -0.25321355896E+02  0.14057798391E+02  0.12686596599E+02  0.31618704805E+02  0.51100000000E-03 0. -1.
        -11    1    3    3    0    0  0.22952418745E+01  0.10925525780E+02  0.10765258355E+02  0.15508901849E+02  0.51100000000E-03 0.  1.
         12    1    3    3    0    0  0.30419211034E+01  0.15213646286E+01  0.27883642520E-01  0.34012662098E+01  0.00000000000E+00 0. -1.
</event>
<event>
 7    1  0.5910662E-013  0.5052885E+02  0.7816164E-02  0.1300439E+00
        -11   -1    0    0    0    0  0.00000000000E+00  0.00000000000E+00  0.45593999997E+02  0.45594000000E+02  0.51100000000E-03 0. -1.
         11   -1    0    0    0    0 -0.00000000000E+00 -0.00000000000E+00 -0.45593999997E+02  0.45594000000E+02  0.51100000000E-03 0.  1.
    9900012    2    1    2    0    0 -0.14165580035E+02 -0.19340827392E+02  0.32839532650E+02  0.50528853839E+02  0.29999981728E+02 0.  0.
         12    1    1    2    0    0  0.14165580035E+02  0.19340827392E+02 -0.32839532650E+02  0.40659146161E+02  0.00000000000E+00 0. -1.
         11    1    3    3    0    0  0.96008705953E+00 -0.14295555592E+02  0.14567286343E+01  0.14401622666E+02  0.51100000000E-03 0.  1.
        -11    1    3    3    0    0 -0.12505539544E+02 -0.35854062373E+00  0.21230492557E+02  0.24642461020E+02  0.51100000000E-03 0. -1.
         12    1    3    3    0    0 -0.26201275505E+01 -0.46867311758E+01  0.10152311459E+02  0.11484770152E+02  0.00000000000E+00 0. -1.
</event>
<event>
 7    1  0.5910662E-013  0.5052886E+02  0.7816164E-02  0.1300439E+00
        -11   -1    0    0    0    0  0.00000000000E+00  0.00000000000E+00  0.45593999997E+02  0.45594000000E+02  0.51100000000E-03 0.  1.
         11   -1    0    0    0    0 -0.00000000000E+00 -0.00000000000E+00 -0.45593999997E+02  0.45594000000E+02  0.51100000000E-03 0. -1.
    9900012    2    1    2    0    0 -0.26623696105E+02  0.29889984353E+02  0.71367854327E+01  0.50528855085E+02  0.29999985517E+02 0.  0.
         12    1    1    2    0    0  0.26623696105E+02 -0.29889984353E+02 -0.71367854327E+01  0.40659144915E+02  0.00000000000E+00 0. -1.
         11    1    3    3    0    0 -0.50665096666E+01  0.24723562559E+02  0.92844722231E+01  0.26890992740E+02  0.51100000000E-03 0. -1.
        -11    1    3    3    0    0 -0.13565045803E+02 -0.29352539557E-01  0.99258678082E+00  0.13601343977E+02  0.51100000000E-03 0.  1.
         12    1    3    3    0    0 -0.79921406356E+01  0.51957743334E+01 -0.31402735712E+01  0.10036518369E+02  0.00000000000E+00 0. -1.
</event>
<event>
 7    1  0.5910662E-013  0.5052887E+02  0.7816164E-02  0.1300439E+00
        -11   -1    0    0    0    0  0.00000000000E+00  0.00000000000E+00  0.45593999997E+02  0.45594000000E+02  0.51100000000E-03 0.  1.
         11   -1    0    0    0    0 -0.00000000000E+00 -0.00000000000E+00 -0.45593999997E+02  0.45594000000E+02  0.51100000000E-03 0. -1.
    9900012    2    1    2    0    0 -0.21925166334E+02 -0.12743422490E+02  0.31781398703E+02  0.50528867704E+02  0.30000023874E+02 0.  0.
         12    1    1    2    0    0  0.21925166334E+02  0.12743422490E+02 -0.31781398703E+02  0.40659132296E+02  0.00000000000E+00 0. -1.
         11    1    3    3    0    0  0.19848194963E+01 -0.75418182445E+01 -0.23275814593E+00  0.78020963518E+01  0.51100000000E-03 0. -1.
        -11    1    3    3    0    0 -0.25754080264E+02 -0.53977246811E+01  0.28760516108E+02  0.38981731221E+02  0.51100000000E-03 0.  1.
         12    1    3    3    0    0  0.18440944343E+01  0.19612043542E+00  0.32536407416E+01  0.37450401311E+01  0.00000000000E+00 0. -1.
</event>
<event>
 7    1  0.5910662E-013  0.5052887E+02  0.7816164E-02  0.1300439E+00
        -11   -1    0    0    0    0  0.00000000000E+00  0.00000000000E+00  0.45593999997E+02  0.45594000000E+02  0.51100000000E-03 0. -1.
         11   -1    0    0    0    0 -0.00000000000E+00 -0.00000000000E+00 -0.45593999997E+02  0.45594000000E+02  0.51100000000E-03 0.  1.
    9900012    2    1    2    0    0 -0.10878560903E+02  0.35974798569E+02 -0.15512447875E+02  0.50528865006E+02  0.30000015671E+02 0.  0.
         12    1    1    2    0    0  0.10878560903E+02 -0.35974798569E+02  0.15512447875E+02  0.40659134994E+02  0.00000000000E+00 0. -1.
         11    1    3    3    0    0  0.99214596583E+01  0.69422996994E+01 -0.25138570955E+01  0.12367310323E+02  0.51100000000E-03 0. -1.
        -11    1    3    3    0    0 -0.91484822668E+01  0.12112759379E+02 -0.72928365316E+01  0.16840401791E+02  0.51100000000E-03 0.  1.
         12    1    3    3    0    0 -0.11651538295E+02  0.16919739491E+02 -0.57057542481E+01  0.21321152891E+02  0.00000000000E+00 0. -1.
</event>
<event>
 7    1  0.5910662E-013  0.5052887E+02  0.7816164E-02  0.1300439E+00
        -11   -1    0    0    0    0  0.00000000000E+00  0.00000000000E+00  0.45593999997E+02  0.45594000000E+02  0.51100000000E-03 0.  1.
         11   -1    0    0    0    0 -0.00000000000E+00 -0.00000000000E+00 -0.45593999997E+02  0.45594000000E+02  0.51100000000E-03 0. -1.
    9900012    2    1    2    0    0  0.12739084284E+02 -0.35381416681E+02  0.15460798037E+02  0.50528865839E+02  0.30000018206E+02 0.  0.
         12    1    1    2    0    0 -0.12739084284E+02  0.35381416681E+02 -0.15460798037E+02  0.40659134161E+02  0.00000000000E+00 0. -1.
         11    1    3    3    0    0 -0.42243805443E+01 -0.19876286812E+01  0.11056743980E+02  0.12001985105E+02  0.51100000000E-03 0. -1.
        -11    1    3    3    0    0  0.11472245471E+02 -0.21357714749E+02  0.65768690714E+01  0.25120103553E+02  0.51100000000E-03 0.  1.
         12    1    3    3    0    0  0.54912193572E+01 -0.12036073251E+02 -0.21728150144E+01  0.13406777182E+02  0.00000000000E+00 0. -1.
</event>
<event>
 7    1  0.5910662E-013  0.5052886E+02  0.7816164E-02  0.1300439E+00
        -11   -1    0    0    0    0  0.00000000000E+00  0.00000000000E+00  0.45593999997E+02  0.45594000000E+02  0.51100000000E-03 0.  1.
         11   -1    0    0    0    0 -0.00000000000E+00 -0.00000000000E+00 -0.45593999997E+02  0.45594000000E+02  0.51100000000E-03 0. -1.
    9900012    2    1    2    0    0  0.61319801856E+01 -0.40152662846E+02  0.18243338148E+01  0.50528859471E+02  0.29999998849E+02 0.  0.
         12    1    1    2    0    0 -0.61319801856E+01  0.40152662846E+02 -0.18243338148E+01  0.40659140529E+02  0.00000000000E+00 0. -1.
         11    1    3    3    0    0 -0.57476100665E+01 -0.31675291892E+02  0.87964152318E+01  0.33372684326E+02  0.51100000000E-03 0. -1.
        -11    1    3    3    0    0  0.35135748286E+01 -0.59085204610E+01 -0.23916779332E+01  0.72784576465E+01  0.51100000000E-03 0.  1.
         12    1    3    3    0    0  0.83660154234E+01 -0.25688504937E+01 -0.45804034838E+01  0.98777174994E+01  0.00000000000E+00 0. -1.
</event>
<event>
 7    1  0.5910662E-013  0.5052889E+02  0.7816164E-02  0.1300439E+00
        -11   -1    0    0    0    0  0.00000000000E+00  0.00000000000E+00  0.45593999997E+02  0.45594000000E+02  0.51100000000E-03 0.  1.
         11   -1    0    0    0    0 -0.00000000000E+00 -0.00000000000E+00 -0.45593999997E+02  0.45594000000E+02  0.51100000000E-03 0. -1.
    9900012    2    1    2    0    0 -0.14448165378E+02 -0.38005300836E+02 -0.10353550956E+00  0.50528891623E+02  0.30000096577E+02 0.  0.
         12    1    1    2    0    0  0.14448165378E+02  0.38005300836E+02  0.10353550956E+00  0.40659108377E+02  0.00000000000E+00 0. -1.
         11    1    3    3    0    0 -0.49271149634E+01 -0.22473850135E+01 -0.24015138761E+01  0.59240586104E+01  0.51100000000E-03 0. -1.
        -11    1    3    3    0    0 -0.16192194597E+01 -0.21458027781E+02  0.12936855514E+02  0.25108386224E+02  0.51100000000E-03 0.  1.
        -12    1    3    3    0    0 -0.79018309551E+01 -0.14299888041E+02 -0.10638877147E+02  0.19496446789E+02  0.00000000000E+00 0.  1.
</event>
<event>
 7    1  0.5910662E-013  0.5052879E+02  0.7816164E-02  0.1300439E+00
        -11   -1    0    0    0    0  0.00000000000E+00  0.00000000000E+00  0.45593999997E+02  0.45594000000E+02  0.51100000000E-03 0. -1.
         11   -1    0    0    0    0 -0.00000000000E+00 -0.00000000000E+00 -0.45593999997E+02  0.45594000000E+02  0.51100000000E-03 0.  1.
    9900012    2    1    2    0    0  0.87804659948E+00  0.32983039656E+02 -0.23759621073E+02  0.50528788691E+02  0.29999783704E+02 0.  0.
         12    1    1    2    0    0 -0.87804659948E+00 -0.32983039656E+02  0.23759621073E+02  0.40659211309E+02  0.00000000000E+00 0. -1.
         11    1    3    3    0    0  0.42804230675E+01  0.10483614513E+01  0.36225570685E+01  0.57047351687E+01  0.51100000000E-03 0. -1.
        -11    1    3    3    0    0 -0.80574233604E+01  0.14744036354E+02 -0.18259921604E+02  0.24813976232E+02  0.51100000000E-03 0.  1.
        -12    1    3    3    0    0  0.46550468924E+01  0.17190641851E+02 -0.91222565370E+01  0.20010077290E+02  0.00000000000E+00 0.  1.
</event>
<event>
 7    1  0.5910662E-013  0.5052886E+02  0.7816164E-02  0.1300439E+00
        -11   -1    0    0    0    0  0.00000000000E+00  0.00000000000E+00  0.45593999997E+02  0.45594000000E+02  0.51100000000E-03 0.  1.
         11   -1    0    0    0    0 -0.00000000000E+00 -0.00000000000E+00 -0.45593999997E+02  0.45594000000E+02  0.51100000000E-03 0. -1.
    9900012    2    1    2    0    0  0.12081088845E+01 -0.40589611292E+02 -0.20468225936E+01  0.50528861363E+02  0.30000004600E+02 0.  0.
         12    1    1    2    0    0 -0.12081088845E+01  0.40589611292E+02  0.20468225936E+01  0.40659138637E+02  0.00000000000E+00 0. -1.
         11    1    3    3    0    0  0.83244933197E+01 -0.26075587838E+02 -0.12301112024E+02  0.30009179053E+02  0.51100000000E-03 0. -1.
        -11    1    3    3    0    0 -0.47917274328E+01 -0.14652145833E+02  0.84980465324E+01  0.17602920906E+02  0.51100000000E-03 0.  1.
         12    1    3    3    0    0 -0.23246570024E+01  0.13812237923E+00  0.17562428982E+01  0.29167614041E+01  0.00000000000E+00 0. -1.
</event>
<event>
 7    1  0.5910662E-013  0.5052879E+02  0.7816164E-02  0.1300439E+00
        -11   -1    0    0    0    0  0.00000000000E+00  0.00000000000E+00  0.45593999997E+02  0.45594000000E+02  0.51100000000E-03 0. -1.
         11   -1    0    0    0    0 -0.00000000000E+00 -0.00000000000E+00 -0.45593999997E+02  0.45594000000E+02  0.51100000000E-03 0.  1.
    9900012    2    1    2    0    0  0.39137790318E+02 -0.93538492827E+01  0.58232651236E+01  0.50528787709E+02  0.29999780720E+02 0.  0.
         12    1    1    2    0    0 -0.39137790318E+02  0.93538492827E+01 -0.58232651236E+01  0.40659212291E+02  0.00000000000E+00 0. -1.
         11    1    3    3    0    0 -0.14560674064E+01 -0.13916202282E+01 -0.26845314027E+01  0.33561061164E+01  0.51100000000E-03 0. -1.
        -11    1    3    3    0    0  0.32277497839E+02  0.19797079258E+01  0.13507364866E+01  0.32366349803E+02  0.51100000000E-03 0.  1.
        -12    1    3    3    0    0  0.83163598858E+01 -0.99419369802E+01  0.71570600397E+01  0.14806331790E+02  0.00000000000E+00 0.  1.
</event>
<event>
 7    1  0.5910662E-013  0.5052886E+02  0.7816164E-02  0.1300439E+00
        -11   -1    0    0    0    0  0.00000000000E+00  0.00000000000E+00  0.45593999997E+02  0.45594000000E+02  0.51100000000E-03 0.  1.
         11   -1    0    0    0    0 -0.00000000000E+00 -0.00000000000E+00 -0.45593999997E+02  0.45594000000E+02  0.51100000000E-03 0. -1.
    9900012    2    1    2    0    0 -0.24496439041E+01  0.15437303501E+02  0.37534713921E+02  0.50528857808E+02  0.29999993793E+02 0.  0.
         12    1    1    2    0    0  0.24496439041E+01 -0.15437303501E+02 -0.37534713921E+02  0.40659142192E+02  0.00000000000E+00 0. -1.
         11    1    3    3    0    0  0.41537671667E+01  0.15850474402E+02  0.13390781981E+02  0.21161388489E+02  0.51100000000E-03 0. -1.
        -11    1    3    3    0    0 -0.70652245683E+01 -0.46157664533E+01  0.23650196818E+02  0.25110844429E+02  0.51100000000E-03 0.  1.
        -12    1    3    3    0    0  0.46181349751E+00  0.42025955519E+01  0.49373512207E+00  0.42566248896E+01  0.00000000000E+00 0.  1.
</event>
<event>
 7    1  0.5910662E-013  0.5052883E+02  0.7816164E-02  0.1300439E+00
        -11   -1    0    0    0    0  0.00000000000E+00  0.00000000000E+00  0.45593999997E+02  0.45594000000E+02  0.51100000000E-03 0. -1.
         11   -1    0    0    0    0 -0.00000000000E+00 -0.00000000000E+00 -0.45593999997E+02  0.45594000000E+02  0.51100000000E-03 0.  1.
    9900012    2    1    2    0    0  0.36354045319E+02  0.13828972579E+02  0.11845305502E+02  0.50528826913E+02  0.29999899884E+02 0.  0.
         12    1    1    2    0    0 -0.36354045319E+02 -0.13828972579E+02 -0.11845305502E+02  0.40659173087E+02  0.00000000000E+00 0. -1.
         11    1    3    3    0    0  0.18599215516E+02 -0.67289307796E+01  0.40644929645E+01  0.20192311175E+02  0.51100000000E-03 0. -1.
        -11    1    3    3    0    0  0.49648322182E+00  0.78850785128E+01  0.17547319421E+01  0.80932096965E+01  0.51100000000E-03 0.  1.
         12    1    3    3    0    0  0.17258346581E+02  0.12672824846E+02  0.60260805957E+01  0.22243306041E+02  0.00000000000E+00 0. -1.
</event>
<event>
 7    1  0.5910662E-013  0.5052887E+02  0.7816164E-02  0.1300439E+00
        -11   -1    0    0    0    0  0.00000000000E+00  0.00000000000E+00  0.45593999997E+02  0.45594000000E+02  0.51100000000E-03 0. -1.
         11   -1    0    0    0    0 -0.00000000000E+00 -0.00000000000E+00 -0.45593999997E+02  0.45594000000E+02  0.51100000000E-03 0.  1.
    9900012    2    1    2    0    0  0.28835972684E+02  0.28606532572E+02  0.18215402085E+01  0.50528867752E+02  0.30000024018E+02 0.  0.
         12    1    1    2    0    0 -0.28835972684E+02 -0.28606532572E+02 -0.18215402085E+01  0.40659132248E+02  0.00000000000E+00 0. -1.
         11    1    3    3    0    0  0.16982874641E+01  0.62629595198E+01  0.85504295291E+01  0.10733996816E+02  0.51100000000E-03 0. -1.
        -11    1    3    3    0    0  0.79831027458E+01  0.14253481043E+02 -0.93726595867E+01  0.18834500240E+02  0.51100000000E-03 0.  1.
        -12    1    3    3    0    0  0.19154582474E+02  0.80900920093E+01  0.26437702662E+01  0.20960370696E+02  0.00000000000E+00 0.  1.
</event>
<event>
 7    1  0.5910662E-013  0.5052884E+02  0.7816164E-02  0.1300439E+00
        -11   -1    0    0    0    0  0.00000000000E+00  0.00000000000E+00  0.45593999997E+02  0.45594000000E+02  0.51100000000E-03 0.  1.
         11   -1    0    0    0    0 -0.00000000000E+00 -0.00000000000E+00 -0.45593999997E+02  0.45594000000E+02  0.51100000000E-03 0. -1.
    9900012    2    1    2    0    0  0.15985631752E+02  0.11172783914E+02  0.35676258346E+02  0.50528844420E+02  0.29999953099E+02 0.  0.
         12    1    1    2    0    0 -0.15985631752E+02 -0.11172783914E+02 -0.35676258346E+02  0.40659155580E+02  0.00000000000E+00 0. -1.
         11    1    3    3    0    0  0.97352480826E+01  0.14894833203E+02  0.11192602037E+02  0.21021547326E+02  0.51100000000E-03 0. -1.
        -11    1    3    3    0    0 -0.23953035855E+01 -0.50404690292E+01  0.30537970751E+01  0.63615630264E+01  0.51100000000E-03 0.  1.
         12    1    3    3    0    0  0.86456872553E+01  0.13184197405E+01  0.21429859234E+02  0.23145734067E+02  0.00000000000E+00 0. -1.
</event>
<event>
 7    1  0.5910662E-013  0.5052889E+02  0.7816164E-02  0.1300439E+00
        -11   -1    0    0    0    0  0.00000000000E+00  0.00000000000E+00  0.45593999997E+02  0.45594000000E+02  0.51100000000E-03 0. -1.
         11   -1    0    0    0    0 -0.00000000000E+00 -0.00000000000E+00 -0.45593999997E+02  0.45594000000E+02  0.51100000000E-03 0.  1.
    9900012    2    1    2    0    0 -0.20111551511E+02  0.30011039933E+02  0.18655450578E+02  0.50528894522E+02  0.30000105389E+02 0.  0.
         12    1    1    2    0    0  0.20111551511E+02 -0.30011039933E+02 -0.18655450578E+02  0.40659105478E+02  0.00000000000E+00 0. -1.
         11    1    3    3    0    0 -0.92736176525E+01  0.22385511302E+02  0.57801094932E+01  0.24910254246E+02  0.51100000000E-03 0. -1.
        -11    1    3    3    0    0 -0.11052802281E+02  0.14671496097E+01 -0.21350106951E+00  0.11151795784E+02  0.51100000000E-03 0.  1.
        -12    1    3    3    0    0  0.21486842257E+00  0.61583790211E+01  0.13088842154E+02  0.14466844491E+02  0.00000000000E+00 0.  1.
</event>
<event>
 7    1  0.5910662E-013  0.5052884E+02  0.7816164E-02  0.1300439E+00
        -11   -1    0    0    0    0  0.00000000000E+00  0.00000000000E+00  0.45593999997E+02  0.45594000000E+02  0.51100000000E-03 0.  1.
         11   -1    0    0    0    0 -0.00000000000E+00 -0.00000000000E+00 -0.45593999997E+02  0.45594000000E+02  0.51100000000E-03 0. -1.
    9900012    2    1    2    0    0 -0.32321987375E+02 -0.52163974656E+01  0.24109038859E+02  0.50528838362E+02  0.29999934685E+02 0.  0.
         12    1    1    2    0    0  0.32321987375E+02  0.52163974656E+01 -0.24109038859E+02  0.40659161638E+02  0.00000000000E+00 0. -1.
         11    1    3    3    0    0 -0.31233716939E+02 -0.80947219075E+01  0.89596679529E+01  0.33486493496E+02  0.51100000000E-03 0. -1.
        -11    1    3    3    0    0  0.13088851266E+01 -0.19887969936E+01  0.46171987610E+01  0.51949031190E+01  0.51100000000E-03 0.  1.
         12    1    3    3    0    0 -0.23971555633E+01  0.48671214354E+01  0.10532172145E+02  0.11847441747E+02  0.00000000000E+00 0. -1.
</event>
<event>
 7    1  0.5910662E-013  0.5052886E+02  0.7816164E-02  0.1300439E+00
        -11   -1    0    0    0    0  0.00000000000E+00  0.00000000000E+00  0.45593999997E+02  0.45594000000E+02  0.51100000000E-03 0.  1.
         11   -1    0    0    0    0 -0.00000000000E+00 -0.00000000000E+00 -0.45593999997E+02  0.45594000000E+02  0.51100000000E-03 0. -1.
    9900012    2    1    2    0    0  0.44966291200E+00  0.40066890352E+02 -0.68998297605E+01  0.50528861421E+02  0.30000004776E+02 0.  0.
         12    1    1    2    0    0 -0.44966291200E+00 -0.40066890352E+02  0.68998297605E+01  0.40659138579E+02  0.00000000000E+00 0. -1.
         11    1    3    3    0    0  0.90687832007E+01  0.29607474995E+02  0.14188783603E+01  0.30997719599E+02  0.51100000000E-03 0. -1.
        -11    1    3    3    0    0 -0.73573351746E+01  0.45817516153E+01  0.69664330636E+00  0.86952941809E+01  0.51100000000E-03 0.  1.
         12    1    3    3    0    0 -0.12617851141E+01  0.58776637426E+01 -0.90153514271E+01  0.10835847641E+02  0.00000000000E+00 0. -1.
</event>
<event>
 7    1  0.5910662E-013  0.5052886E+02  0.7816164E-02  0.1300439E+00
        -11   -1    0    0    0    0  0.00000000000E+00  0.00000000000E+00  0.45593999997E+02  0.45594000000E+02  0.51100000000E-03 0.  1.
         11   -1    0    0    0    0 -0.00000000000E+00 -0.00000000000E+00 -0.45593999997E+02  0.45594000000E+02  0.51100000000E-03 0. -1.
    9900012    2    1    2    0    0  0.84782684392E+01 -0.41553801116E+01  0.39547658749E+02  0.50528861641E+02  0.30000005443E+02 0.  0.
         12    1    1    2    0    0 -0.84782684392E+01  0.41553801116E+01 -0.39547658749E+02  0.40659138359E+02  0.00000000000E+00 0. -1.
         11    1    3    3    0    0  0.58489945285E+01 -0.24773056730E+01  0.16222261330E+01  0.65558674696E+01  0.51100000000E-03 0. -1.
        -11    1    3    3    0    0 -0.42616478038E+01 -0.82699398136E+00  0.36659022653E+02  0.36915166303E+02  0.51100000000E-03 0.  1.
        -12    1    3    3    0    0  0.68909217145E+01 -0.85108045722E+00  0.12664099625E+01  0.70578278679E+01  0.00000000000E+00 0.  1.
</event>
<event>
 7    1  0.5910662E-013  0.5052887E+02  0.7816164E-02  0.1300439E+00
        -11   -1    0    0    0    0  0.00000000000E+00  0.00000000000E+00  0.45593999997E+02  0.45594000000E+02  0.51100000000E-03 0.  1.
         11   -1    0    0    0    0 -0.00000000000E+00 -0.00000000000E+00 -0.45593999997E+02  0.45594000000E+02  0.51100000000E-03 0. -1.
    9900012    2    1    2    0    0 -0.87729608571E+01  0.78371365125E+00  0.39693649162E+02  0.50528870237E+02  0.30000031572E+02 0.  0.
         12    1    1    2    0    0  0.87729608571E+01 -0.78371365125E+00 -0.39693649162E+02  0.40659129763E+02  0.00000000000E+00 0. -1.
         11    1    3    3    0    0 -0.52299012405E+01  0.10699221592E+02  0.13266838920E+02  0.17827905790E+02  0.51100000000E-03 0. -1.
        -11    1    3    3    0    0  0.24601072536E+01 -0.54562488070E+01  0.24154790045E+02  0.24885269963E+02  0.51100000000E-03 0.  1.
         12    1    3    3    0    0 -0.60031668702E+01 -0.44592591339E+01  0.22720201969E+01  0.78156944841E+01  0.00000000000E+00 0. -1.
</event>
<event>
 7    1  0.5910662E-013  0.5052886E+02  0.7816164E-02  0.1300439E+00
        -11   -1    0    0    0    0  0.00000000000E+00  0.00000000000E+00  0.45593999997E+02  0.45594000000E+02  0.51100000000E-03 0.  1.
         11   -1    0    0    0    0 -0.00000000000E+00 -0.00000000000E+00 -0.45593999997E+02  0.45594000000E+02  0.51100000000E-03 0. -1.
    9900012    2    1    2    0    0  0.27506359791E+01 -0.20370640573E+02  0.35080430898E+02  0.50528860466E+02  0.30000001873E+02 0.  0.
         12    1    1    2    0    0 -0.27506359791E+01  0.20370640573E+02 -0.35080430898E+02  0.40659139534E+02  0.00000000000E+00 0. -1.
         11    1    3    3    0    0  0.80608502529E+01 -0.32633287318E+01  0.10727513510E+02  0.13809640385E+02  0.51100000000E-03 0. -1.
        -11    1    3    3    0    0 -0.49815323550E+01 -0.78623491600E+01 -0.13474227678E+01  0.94046662511E+01  0.51100000000E-03 0.  1.
        -12    1    3    3    0    0 -0.32868191882E+00 -0.92449626816E+01  0.25700340156E+02  0.27314553830E+02  0.00000000000E+00 0.  1.
</event>
<event>
 7    1  0.5910662E-013  0.5052886E+02  0.7816164E-02  0.1300439E+00
        -11   -1    0    0    0    0  0.00000000000E+00  0.00000000000E+00  0.45593999997E+02  0.45594000000E+02  0.51100000000E-03 0.  1.
         11   -1    0    0    0    0 -0.00000000000E+00 -0.00000000000E+00 -0.45593999997E+02  0.45594000000E+02  0.51100000000E-03 0. -1.
    9900012    2    1    2    0    0 -0.37715705610E+02  0.10558558866E+02  0.10918231405E+02  0.50528863364E+02  0.30000010681E+02 0.  0.
         12    1    1    2    0    0  0.37715705610E+02 -0.10558558866E+02 -0.10918231405E+02  0.40659136636E+02  0.00000000000E+00 0. -1.
         11    1    3    3    0    0 -0.96778460678E+01  0.16829115680E+02 -0.15616589478E+00  0.19414021406E+02  0.51100000000E-03 0. -1.
        -11    1    3    3    0    0 -0.88597393924E+01 -0.41201261724E+01  0.40708831406E+01  0.10585013537E+02  0.51100000000E-03 0.  1.
         12    1    3    3    0    0 -0.19178120150E+02 -0.21504306425E+01  0.70035141588E+01  0.20529828421E+02  0.00000000000E+00 0. -1.
</event>
<event>
 7    1  0.5910662E-013  0.5052887E+02  0.7816164E-02  0.1300439E+00
        -11   -1    0    0    0    0  0.00000000000E+00  0.00000000000E+00  0.45593999997E+02  0.45594000000E+02  0.51100000000E-03 0.  1.
         11   -1    0    0    0    0 -0.00000000000E+00 -0.00000000000E+00 -0.45593999997E+02  0.45594000000E+02  0.51100000000E-03 0. -1.
    9900012    2    1    2    0    0 -0.82634314969E+01  0.25299955389E+02  0.30737487708E+02  0.50528865807E+02  0.30000018106E+02 0.  0.
         12    1    1    2    0    0  0.82634314969E+01 -0.25299955389E+02 -0.30737487708E+02  0.40659134193E+02  0.00000000000E+00 0. -1.
         11    1    3    3    0    0 -0.94354091114E+01  0.19466115855E+02  0.14687082320E+02  0.26147026579E+02  0.51100000000E-03 0. -1.
        -11    1    3    3    0    0 -0.28119576499E+01  0.27392766710E+01  0.18401985427E+02  0.18816051935E+02  0.51100000000E-03 0.  1.
         12    1    3    3    0    0  0.39839352644E+01  0.30945628630E+01 -0.23515800397E+01  0.55657872927E+01  0.00000000000E+00 0. -1.
</event>
<event>
 7    1  0.5910662E-013  0.5052885E+02  0.7816164E-02  0.1300439E+00
        -11   -1    0    0    0    0  0.00000000000E+00  0.00000000000E+00  0.45593999997E+02  0.45594000000E+02  0.51100000000E-03 0.  1.
         11   -1    0    0    0    0 -0.00000000000E+00 -0.00000000000E+00 -0.45593999997E+02  0.45594000000E+02  0.51100000000E-03 0. -1.
    9900012    2    1    2    0    0  0.18221347391E+02  0.33442363088E+02  0.14239274470E+02  0.50528854816E+02  0.29999984700E+02 0.  0.
         12    1    1    2    0    0 -0.18221347391E+02 -0.33442363088E+02 -0.14239274470E+02  0.40659145184E+02  0.00000000000E+00 0. -1.
         11    1    3    3    0    0  0.14260509921E+01  0.73810621948E+01  0.11432520887E+02  0.13682698369E+02  0.51100000000E-03 0. -1.
        -11    1    3    3    0    0  0.17295789398E+02  0.27942312215E+02 -0.66182160821E+00  0.32868756456E+02  0.51100000000E-03 0.  1.
         12    1    3    3    0    0 -0.50049299953E+00 -0.18810113222E+01  0.34685751915E+01  0.39773999920E+01  0.00000000000E+00 0. -1.
</event>
<event>
 7    1  0.5910662E-013  0.5052888E+02  0.7816164E-02  0.1300439E+00
        -11   -1    0    0    0    0  0.00000000000E+00  0.00000000000E+00  0.45593999997E+02  0.45594000000E+02  0.51100000000E-03 0.  1.
         11   -1    0    0    0    0 -0.00000000000E+00 -0.00000000000E+00 -0.45593999997E+02  0.45594000000E+02  0.51100000000E-03 0. -1.
    9900012    2    1    2    0    0 -0.17697313928E+02 -0.33452367977E+02  0.14862987573E+02  0.50528877492E+02  0.30000053625E+02 0.  0.
         12    1    1    2    0    0  0.17697313928E+02  0.33452367977E+02 -0.14862987573E+02  0.40659122508E+02  0.00000000000E+00 0. -1.
         11    1    3    3    0    0 -0.30342292313E+01  0.47073448509E+01  0.62169968496E+01  0.83675977832E+01  0.51100000000E-03 0. -1.
        -11    1    3    3    0    0 -0.10286659011E+02 -0.31733524512E+02  0.56767523765E+01  0.33838697513E+02  0.51100000000E-03 0.  1.
         12    1    3    3    0    0 -0.43764256853E+01 -0.64261883160E+01  0.29692383467E+01  0.83225821961E+01  0.00000000000E+00 0. -1.
</event>
<event>
 7    1  0.5910662E-013  0.5052887E+02  0.7816164E-02  0.1300439E+00
        -11   -1    0    0    0    0  0.00000000000E+00  0.00000000000E+00  0.45593999997E+02  0.45594000000E+02  0.51100000000E-03 0.  1.
         11   -1    0    0    0    0 -0.00000000000E+00 -0.00000000000E+00 -0.45593999997E+02  0.45594000000E+02  0.51100000000E-03 0. -1.
    9900012    2    1    2    0    0  0.77596170624E+01 -0.36757115809E+02  0.15552093288E+02  0.50528870334E+02  0.30000031868E+02 0.  0.
         12    1    1    2    0    0 -0.77596170624E+01  0.36757115809E+02 -0.15552093288E+02  0.40659129666E+02  0.00000000000E+00 0. -1.
         11    1    3    3    0    0 -0.52385006863E+01 -0.20393254502E+02 -0.40708854477E+01  0.21445251857E+02  0.51100000000E-03 0. -1.
        -11    1    3    3    0    0  0.20568689304E+01 -0.49597558665E+01  0.71992578731E+01  0.89810468341E+01  0.51100000000E-03 0.  1.
         12    1    3    3    0    0  0.10941248818E+02 -0.11404105441E+02  0.12423720862E+02  0.20102571643E+02  0.00000000000E+00 0. -1.
</event>
<event>
 7    1  0.5910662E-013  0.5052886E+02  0.7816164E-02  0.1300439E+00
        -11   -1    0    0    0    0  0.00000000000E+00  0.00000000000E+00  0.45593999997E+02  0.45594000000E+02  0.51100000000E-03 0. -1.
         11   -1    0    0    0    0 -0.00000000000E+00 -0.00000000000E+00 -0.45593999997E+02  0.45594000000E+02  0.51100000000E-03 0.  1.
    9900012    2    1    2    0    0 -0.19907413087E+02 -0.25737168287E+02 -0.24381519236E+02  0.50528863173E+02  0.30000010102E+02 0.  0.
         12    1    1    2    0    0  0.19907413087E+02  0.25737168287E+02  0.24381519236E+02  0.40659136827E+02  0.00000000000E+00 0. -1.
         11    1    3    3    0    0 -0.61616637722E+00 -0.72122127668E+01 -0.11709272214E+02  0.13765999057E+02  0.51100000000E-03 0.  1.
        -11    1    3    3    0    0 -0.16453694253E+02 -0.26573700249E+01 -0.12167356716E+02  0.20635654575E+02  0.51100000000E-03 0. -1.
        -12    1    3    3    0    0 -0.28375524572E+01 -0.15867585495E+02 -0.50489030599E+00  0.16127209542E+02  0.00000000000E+00 0.  1.
</event>
<event>
 7    1  0.5910662E-013  0.5052885E+02  0.7816164E-02  0.1300439E+00
        -11   -1    0    0    0    0  0.00000000000E+00  0.00000000000E+00  0.45593999997E+02  0.45594000000E+02  0.51100000000E-03 0.  1.
         11   -1    0    0    0    0 -0.00000000000E+00 -0.00000000000E+00 -0.45593999997E+02  0.45594000000E+02  0.51100000000E-03 0. -1.
    9900012    2    1    2    0    0  0.27153152012E+02 -0.86560536902E+01  0.28999056404E+02  0.50528853403E+02  0.29999980405E+02 0.  0.
         12    1    1    2    0    0 -0.27153152012E+02  0.86560536902E+01 -0.28999056404E+02  0.40659146597E+02  0.00000000000E+00 0. -1.
         11    1    3    3    0    0  0.15145857265E+02  0.23238483297E+01  0.62066052432E+00  0.15335660504E+02  0.51100000000E-03 0. -1.
        -11    1    3    3    0    0  0.10001393720E+02 -0.46430556030E+00  0.12025238310E+02  0.15647677549E+02  0.51100000000E-03 0.  1.
         12    1    3    3    0    0  0.20059010265E+01 -0.10515596460E+02  0.16353157569E+02  0.19545515350E+02  0.00000000000E+00 0. -1.
</event>
<event>
 7    1  0.5910662E-013  0.5052887E+02  0.7816164E-02  0.1300439E+00
        -11   -1    0    0    0    0  0.00000000000E+00  0.00000000000E+00  0.45593999997E+02  0.45594000000E+02  0.51100000000E-03 0.  1.
         11   -1    0    0    0    0 -0.00000000000E+00 -0.00000000000E+00 -0.45593999997E+02  0.45594000000E+02  0.51100000000E-03 0. -1.
    9900012    2    1    2    0    0  0.21972856301E+01 -0.91242576955E+01  0.39561156285E+02  0.50528865365E+02  0.30000016763E+02 0.  0.
         12    1    1    2    0    0 -0.21972856301E+01  0.91242576955E+01 -0.39561156285E+02  0.40659134635E+02  0.00000000000E+00 0. -1.
         11    1    3    3    0    0  0.17861875007E+01  0.55854613724E+01  0.26442844772E+02  0.27085270618E+02  0.51100000000E-03 0. -1.
        -11    1    3    3    0    0 -0.30408120417E+01 -0.88141042534E+01  0.80067501869E+00  0.93582077562E+01  0.51100000000E-03 0.  1.
        -12    1    3    3    0    0  0.34519101711E+01 -0.58956148146E+01  0.12317636494E+02  0.14085386991E+02  0.00000000000E+00 0.  1.
</event>
<event>
 7    1  0.5910662E-013  0.5052886E+02  0.7816164E-02  0.1300439E+00
        -11   -1    0    0    0    0  0.00000000000E+00  0.00000000000E+00  0.45593999997E+02  0.45594000000E+02  0.51100000000E-03 0. -1.
         11   -1    0    0    0    0 -0.00000000000E+00 -0.00000000000E+00 -0.45593999997E+02  0.45594000000E+02  0.51100000000E-03 0.  1.
    9900012    2    1    2    0    0  0.26662289631E+02  0.13084594357E+02 -0.27768355706E+02  0.50528857406E+02  0.29999992572E+02 0.  0.
         12    1    1    2    0    0 -0.26662289631E+02 -0.13084594357E+02  0.27768355706E+02  0.40659142594E+02  0.00000000000E+00 0. -1.
         11    1    3    3    0    0  0.13084866131E+01  0.79805099652E+01  0.28397152183E+01  0.85711527407E+01  0.51100000000E-03 0. -1.
        -11    1    3    3    0    0  0.18648588973E+02  0.19054439439E+01 -0.28713426291E+02  0.34290836049E+02  0.51100000000E-03 0.  1.
         12    1    3    3    0    0  0.67052140443E+01  0.31986404475E+01 -0.18946446330E+01  0.76668686162E+01  0.00000000000E+00 0. -1.
</event>
<event>
 7    1  0.5910662E-013  0.5052886E+02  0.7816164E-02  0.1300439E+00
        -11   -1    0    0    0    0  0.00000000000E+00  0.00000000000E+00  0.45593999997E+02  0.45594000000E+02  0.51100000000E-03 0.  1.
         11   -1    0    0    0    0 -0.00000000000E+00 -0.00000000000E+00 -0.45593999997E+02  0.45594000000E+02  0.51100000000E-03 0. -1.
    9900012    2    1    2    0    0  0.59392597770E+01  0.17115942966E+02  0.36399666838E+02  0.50528855195E+02  0.29999985852E+02 0.  0.
         12    1    1    2    0    0 -0.59392597770E+01 -0.17115942966E+02 -0.36399666838E+02  0.40659144805E+02  0.00000000000E+00 0. -1.
         11    1    3    3    0    0  0.81930962375E+01 -0.37094347019E+01  0.16855584745E+01  0.91502917656E+01  0.51100000000E-03 0. -1.
        -11    1    3    3    0    0  0.26007232725E+01  0.50048904903E+01  0.12161897913E+02  0.13406134844E+02  0.51100000000E-03 0.  1.
         12    1    3    3    0    0 -0.48545597330E+01  0.15820487178E+02  0.22552210451E+02  0.27972428585E+02  0.00000000000E+00 0. -1.
</event>
<event>
 7    1  0.5910662E-013  0.5052886E+02  0.7816164E-02  0.1300439E+00
        -11   -1    0    0    0    0  0.00000000000E+00  0.00000000000E+00  0.45593999997E+02  0.45594000000E+02  0.51100000000E-03 0.  1.
         11   -1    0    0    0    0 -0.00000000000E+00 -0.00000000000E+00 -0.45593999997E+02  0.45594000000E+02  0.51100000000E-03 0. -1.
    9900012    2    1    2    0    0  0.14034071835E+01  0.36247425120E+02  0.18366277164E+02  0.50528861834E+02  0.30000006030E+02 0.  0.
         12    1    1    2    0    0 -0.14034071835E+01 -0.36247425120E+02 -0.18366277164E+02  0.40659138166E+02  0.00000000000E+00 0. -1.
         11    1    3    3    0    0 -0.25582427105E+01  0.17402569924E+02 -0.54565409025E+01  0.18416511195E+02  0.51100000000E-03 0. -1.
        -11    1    3    3    0    0  0.15674391410E+01  0.17821496530E+02  0.16488921841E+02  0.24329963990E+02  0.51100000000E-03 0.  1.
         12    1    3    3    0    0  0.23942107530E+01  0.10233586657E+01  0.73338962263E+01  0.77823866485E+01  0.00000000000E+00 0. -1.
</event>
<event>
 7    1  0.5910662E-013  0.5052886E+02  0.7816164E-02  0.1300439E+00
        -11   -1    0    0    0    0  0.00000000000E+00  0.00000000000E+00  0.45593999997E+02  0.45594000000E+02  0.51100000000E-03 0.  1.
         11   -1    0    0    0    0 -0.00000000000E+00 -0.00000000000E+00 -0.45593999997E+02  0.45594000000E+02  0.51100000000E-03 0. -1.
    9900012    2    1    2    0    0 -0.52218304181E+01 -0.24243187797E+02  0.32220581367E+02  0.50528861653E+02  0.30000005481E+02 0.  0.
         12    1    1    2    0    0  0.52218304181E+01  0.24243187797E+02 -0.32220581367E+02  0.40659138347E+02  0.00000000000E+00 0. -1.
         11    1    3    3    0    0 -0.58244636605E+01  0.85278511310E+00  0.20601654309E+02  0.21426147109E+02  0.51100000000E-03 0. -1.
        -11    1    3    3    0    0  0.15979895209E+01 -0.16835466786E+02  0.12059807010E+02  0.20770783754E+02  0.51100000000E-03 0.  1.
         12    1    3    3    0    0 -0.99535627849E+00 -0.82605061247E+01 -0.44087995241E+00  0.83319307901E+01  0.00000000000E+00 0. -1.
</event>
<event>
 7    1  0.5910662E-013  0.5052886E+02  0.7816164E-02  0.1300439E+00
        -11   -1    0    0    0    0  0.00000000000E+00  0.00000000000E+00  0.45593999997E+02  0.45594000000E+02  0.51100000000E-03 0. -1.
         11   -1    0    0    0    0 -0.00000000000E+00 -0.00000000000E+00 -0.45593999997E+02  0.45594000000E+02  0.51100000000E-03 0.  1.
    9900012    2    1    2    0    0 -0.19379068345E+02  0.35743610038E+02 -0.10990388397E+00  0.50528855551E+02  0.29999986934E+02 0.  0.
         12    1    1    2    0    0  0.19379068345E+02 -0.35743610038E+02  0.10990388397E+00  0.40659144449E+02  0.00000000000E+00 0. -1.
         11    1    3    3    0    0  0.10560915637E+01  0.32739821365E+01  0.14830546785E+00  0.34432953974E+01  0.51100000000E-03 0. -1.
        -11    1    3    3    0    0 -0.88647433163E+01  0.15815230706E+02 -0.13727432832E+02  0.22740879683E+02  0.51100000000E-03 0.  1.
        -12    1    3    3    0    0 -0.11570416592E+02  0.16654397195E+02  0.13469223480E+02  0.24344680471E+02  0.00000000000E+00 0.  1.
</event>
<event>
 7    1  0.5910662E-013  0.5052886E+02  0.7816164E-02  0.1300439E+00
        -11   -1    0    0    0    0  0.00000000000E+00  0.00000000000E+00  0.45593999997E+02  0.45594000000E+02  0.51100000000E-03 0. -1.
         11   -1    0    0    0    0 -0.00000000000E+00 -0.00000000000E+00 -0.45593999997E+02  0.45594000000E+02  0.51100000000E-03 0.  1.
    9900012    2    1    2    0    0 -0.13436657171E+02 -0.38374697098E+02  0.65935996346E-01  0.50528862271E+02  0.30000007360E+02 0.  0.
         12    1    1    2    0    0  0.13436657171E+02  0.38374697098E+02 -0.65935996346E-01  0.40659137729E+02  0.00000000000E+00 0. -1.
         11    1    3    3    0    0  0.47525348210E+01 -0.15795363506E+02  0.76437915520E+01  0.18179869225E+02  0.51100000000E-03 0. -1.
        -11    1    3    3    0    0 -0.17143698134E+02 -0.15297478727E+02 -0.18976269155E+01  0.23054722494E+02  0.51100000000E-03 0.  1.
        -12    1    3    3    0    0 -0.10454938576E+01 -0.72818548652E+01 -0.56802286401E+01  0.92942705517E+01  0.00000000000E+00 0.  1.
</event>
<event>
 7    1  0.5910662E-013  0.5052886E+02  0.7816164E-02  0.1300439E+00
        -11   -1    0    0    0    0  0.00000000000E+00  0.00000000000E+00  0.45593999997E+02  0.45594000000E+02  0.51100000000E-03 0.  1.
         11   -1    0    0    0    0 -0.00000000000E+00 -0.00000000000E+00 -0.45593999997E+02  0.45594000000E+02  0.51100000000E-03 0. -1.
    9900012    2    1    2    0    0  0.17018666773E+02  0.15586590720E+02  0.33475198663E+02  0.50528858905E+02  0.29999997128E+02 0.  0.
         12    1    1    2    0    0 -0.17018666773E+02 -0.15586590720E+02 -0.33475198663E+02  0.40659141095E+02  0.00000000000E+00 0. -1.
         11    1    3    3    0    0 -0.71560119903E+01  0.43990823832E+01  0.44731091204E+01  0.95167819605E+01  0.51100000000E-03 0. -1.
        -11    1    3    3    0    0  0.22492094898E+02  0.13393598908E+02  0.25509501789E+02  0.36551573241E+02  0.51100000000E-03 0.  1.
         12    1    3    3    0    0  0.16825838650E+01 -0.22060905708E+01  0.34925877542E+01  0.44605037036E+01  0.00000000000E+00 0. -1.
</event>
<event>
 7    1  0.5910662E-013  0.5052886E+02  0.7816164E-02  0.1300439E+00
        -11   -1    0    0    0    0  0.00000000000E+00  0.00000000000E+00  0.45593999997E+02  0.45594000000E+02  0.51100000000E-03 0. -1.
         11   -1    0    0    0    0 -0.00000000000E+00 -0.00000000000E+00 -0.45593999997E+02  0.45594000000E+02  0.51100000000E-03 0.  1.
    9900012    2    1    2    0    0  0.24573530184E+02 -0.17540860720E+01 -0.32345480393E+02  0.50528864427E+02  0.30000013913E+02 0.  0.
         12    1    1    2    0    0 -0.24573530184E+02  0.17540860720E+01  0.32345480393E+02  0.40659135573E+02  0.00000000000E+00 0. -1.
         11    1    3    3    0    0  0.13199350519E+02  0.29867903514E+01 -0.31329803299E+02  0.34127706423E+02  0.51100000000E-03 0. -1.
        -11    1    3    3    0    0  0.72153888071E+01 -0.69534119314E+01 -0.40387480893E+01  0.10803853920E+02  0.51100000000E-03 0.  1.
         12    1    3    3    0    0  0.41587908580E+01  0.22125355080E+01  0.30230709949E+01  0.55973040845E+01  0.00000000000E+00 0. -1.
</event>
<event>
 7    1  0.5910662E-013  0.5052887E+02  0.7816164E-02  0.1300439E+00
        -11   -1    0    0    0    0  0.00000000000E+00  0.00000000000E+00  0.45593999997E+02  0.45594000000E+02  0.51100000000E-03 0.  1.
         11   -1    0    0    0    0 -0.00000000000E+00 -0.00000000000E+00 -0.45593999997E+02  0.45594000000E+02  0.51100000000E-03 0. -1.
    9900012    2    1    2    0    0  0.11915346162E+02  0.15088491196E+02  0.35826347216E+02  0.50528865779E+02  0.30000018022E+02 0.  0.
         12    1    1    2    0    0 -0.11915346162E+02 -0.15088491196E+02 -0.35826347216E+02  0.40659134221E+02  0.00000000000E+00 0. -1.
         11    1    3    3    0    0  0.72049329006E+00 -0.22648150353E+01 -0.85099899170E+00  0.25244201850E+01  0.51100000000E-03 0. -1.
        -11    1    3    3    0    0  0.47300390215E+01  0.21215989123E+02  0.19312368693E+02  0.29076778508E+02  0.51100000000E-03 0.  1.
        -12    1    3    3    0    0  0.64648138504E+01 -0.38626828913E+01  0.17364977515E+02  0.18927667086E+02  0.00000000000E+00 0.  1.
</event>
<event>
 7    1  0.5910662E-013  0.5052886E+02  0.7816164E-02  0.1300439E+00
        -11   -1    0    0    0    0  0.00000000000E+00  0.00000000000E+00  0.45593999997E+02  0.45594000000E+02  0.51100000000E-03 0.  1.
         11   -1    0    0    0    0 -0.00000000000E+00 -0.00000000000E+00 -0.45593999997E+02  0.45594000000E+02  0.51100000000E-03 0. -1.
    9900012    2    1    2    0    0  0.13028604288E+02 -0.24531569217E+02  0.29692140799E+02  0.50528860275E+02  0.30000001291E+02 0.  0.
         12    1    1    2    0    0 -0.13028604288E+02  0.24531569217E+02 -0.29692140799E+02  0.40659139725E+02  0.00000000000E+00 0. -1.
         11    1    3    3    0    0  0.16325036770E+02 -0.13181910523E+02  0.67373175143E+01  0.22037718533E+02  0.51100000000E-03 0.  1.
        -11    1    3    3    0    0 -0.40559898688E+01 -0.10567581553E+02  0.89132788729E+01  0.14407337513E+02  0.51100000000E-03 0. -1.
         12    1    3    3    0    0  0.75955738703E+00 -0.78207714180E+00  0.14041544412E+02  0.14083804229E+02  0.00000000000E+00 0. -1.
</event>
<event>
 7    1  0.5910662E-013  0.5052887E+02  0.7816164E-02  0.1300439E+00
        -11   -1    0    0    0    0  0.00000000000E+00  0.00000000000E+00  0.45593999997E+02  0.45594000000E+02  0.51100000000E-03 0. -1.
         11   -1    0    0    0    0 -0.00000000000E+00 -0.00000000000E+00 -0.45593999997E+02  0.45594000000E+02  0.51100000000E-03 0.  1.
    9900012    2    1    2    0    0 -0.64142366403E+01 -0.33618143753E+02 -0.21950921925E+02  0.50528868253E+02  0.30000025543E+02 0.  0.
         12    1    1    2    0    0  0.64142366403E+01  0.33618143753E+02  0.21950921925E+02  0.40659131747E+02  0.00000000000E+00 0. -1.
         11    1    3    3    0    0 -0.24207431152E+01 -0.12177180714E+00 -0.35133409527E+01  0.42683006588E+01  0.51100000000E-03 0. -1.
        -11    1    3    3    0    0  0.10988249984E+02 -0.13075446638E+02 -0.81388173101E+01  0.18919547826E+02  0.51100000000E-03 0.  1.
        -12    1    3    3    0    0 -0.14981743509E+02 -0.20420925308E+02 -0.10298763662E+02  0.27341019768E+02  0.00000000000E+00 0.  1.
</event>
<event>
 7    1  0.5910662E-013  0.5052887E+02  0.7816164E-02  0.1300439E+00
        -11   -1    0    0    0    0  0.00000000000E+00  0.00000000000E+00  0.45593999997E+02  0.45594000000E+02  0.51100000000E-03 0. -1.
         11   -1    0    0    0    0 -0.00000000000E+00 -0.00000000000E+00 -0.45593999997E+02  0.45594000000E+02  0.51100000000E-03 0.  1.
    9900012    2    1    2    0    0 -0.27789476316E+02  0.29231993304E+02 -0.51381437291E+01  0.50528868831E+02  0.30000027300E+02 0.  0.
         12    1    1    2    0    0  0.27789476316E+02 -0.29231993304E+02  0.51381437291E+01  0.40659131169E+02  0.00000000000E+00 0. -1.
         11    1    3    3    0    0 -0.18635736038E+02  0.51351832821E+01 -0.63034287842E+00  0.19340581620E+02  0.51100000000E-03 0. -1.
        -11    1    3    3    0    0 -0.65217776178E+01  0.22910471759E+02 -0.93179661229E+01  0.25578267972E+02  0.51100000000E-03 0.  1.
        -12    1    3    3    0    0 -0.26319626600E+01  0.11863382629E+01  0.48101652723E+01  0.56100192392E+01  0.00000000000E+00 0.  1.
</event>
<event>
 7    1  0.5910662E-013  0.5052886E+02  0.7816164E-02  0.1300439E+00
        -11   -1    0    0    0    0  0.00000000000E+00  0.00000000000E+00  0.45593999997E+02  0.45594000000E+02  0.51100000000E-03 0.  1.
         11   -1    0    0    0    0 -0.00000000000E+00 -0.00000000000E+00 -0.45593999997E+02  0.45594000000E+02  0.51100000000E-03 0. -1.
    9900012    2    1    2    0    0 -0.27586160194E+02 -0.29736202776E+02  0.28155823950E+01  0.50528862109E+02  0.30000006867E+02 0.  0.
         12    1    1    2    0    0  0.27586160194E+02  0.29736202776E+02 -0.28155823950E+01  0.40659137891E+02  0.00000000000E+00 0. -1.
         11    1    3    3    0    0 -0.78844699607E+01 -0.15479803104E+02 -0.43750730670E+01  0.17914531400E+02  0.51100000000E-03 0. -1.
        -11    1    3    3    0    0 -0.20159718538E+02 -0.28593287512E+01  0.54289396151E+01  0.21072811821E+02  0.51100000000E-03 0.  1.
        -12    1    3    3    0    0  0.45802830482E+00 -0.11397070921E+02  0.17617158469E+01  0.11541518888E+02  0.00000000000E+00 0.  1.
</event>
<event>
 7    1  0.5910662E-013  0.5052881E+02  0.7816164E-02  0.1300439E+00
        -11   -1    0    0    0    0  0.00000000000E+00  0.00000000000E+00  0.45593999997E+02  0.45594000000E+02  0.51100000000E-03 0. -1.
         11   -1    0    0    0    0 -0.00000000000E+00 -0.00000000000E+00 -0.45593999997E+02  0.45594000000E+02  0.51100000000E-03 0.  1.
    9900012    2    1    2    0    0  0.20294857287E+02 -0.13012464515E+02 -0.32740862431E+02  0.50528812381E+02  0.29999855714E+02 0.  0.
         12    1    1    2    0    0 -0.20294857287E+02  0.13012464515E+02  0.32740862431E+02  0.40659187619E+02  0.00000000000E+00 0. -1.
         11    1    3    3    0    0  0.23818454246E+02 -0.90889895806E+01 -0.26409186613E+02  0.36706588401E+02  0.51100000000E-03 0. -1.
        -11    1    3    3    0    0 -0.25676382564E+01 -0.20209257386E+01 -0.94767145653E+01  0.10024221978E+02  0.51100000000E-03 0.  1.
         12    1    3    3    0    0 -0.95595870200E+00 -0.19025491962E+01  0.31450387470E+01  0.37980020016E+01  0.00000000000E+00 0. -1.
</event>
<event>
 7    1  0.5910662E-013  0.5052885E+02  0.7816164E-02  0.1300439E+00
        -11   -1    0    0    0    0  0.00000000000E+00  0.00000000000E+00  0.45593999997E+02  0.45594000000E+02  0.51100000000E-03 0. -1.
         11   -1    0    0    0    0 -0.00000000000E+00 -0.00000000000E+00 -0.45593999997E+02  0.45594000000E+02  0.51100000000E-03 0.  1.
    9900012    2    1    2    0    0 -0.28040064458E+02  0.11409081078E+02 -0.27143207932E+02  0.50528854871E+02  0.29999984865E+02 0.  0.
         12    1    1    2    0    0  0.28040064458E+02 -0.11409081078E+02  0.27143207932E+02  0.40659145129E+02  0.00000000000E+00 0. -1.
         11    1    3    3    0    0 -0.17682213028E+02  0.70667814917E+01  0.69207697830E+00  0.19054632744E+02  0.51100000000E-03 0. -1.
        -11    1    3    3    0    0 -0.10775149018E+02  0.63690067696E+01 -0.25064886841E+02  0.28016363722E+02  0.51100000000E-03 0.  1.
         12    1    3    3    0    0  0.41729758838E+00 -0.20267071835E+01 -0.27703980688E+01  0.34578584043E+01  0.00000000000E+00 0. -1.
</event>
<event>
 7    1  0.5910662E-013  0.5052886E+02  0.7816164E-02  0.1300439E+00
        -11   -1    0    0    0    0  0.00000000000E+00  0.00000000000E+00  0.45593999997E+02  0.45594000000E+02  0.51100000000E-03 0. -1.
         11   -1    0    0    0    0 -0.00000000000E+00 -0.00000000000E+00 -0.45593999997E+02  0.45594000000E+02  0.51100000000E-03 0.  1.
    9900012    2    1    2    0    0 -0.21992961100E+02  0.11608337456E+02 -0.32167088645E+02  0.50528862917E+02  0.30000009321E+02 0.  0.
         12    1    1    2    0    0  0.21992961100E+02 -0.11608337456E+02  0.32167088645E+02  0.40659137083E+02  0.00000000000E+00 0. -1.
         11    1    3    3    0    0 -0.75283917022E+01 -0.72013317863E+01 -0.65121447289E+01  0.12285922446E+02  0.51100000000E-03 0. -1.
        -11    1    3    3    0    0 -0.16279835791E+02  0.18842912310E+02 -0.26390297131E+02  0.36284103691E+02  0.51100000000E-03 0.  1.
         12    1    3    3    0    0  0.18152663933E+01 -0.33243067528E-01  0.73535321449E+00  0.19588367799E+01  0.00000000000E+00 0. -1.
</event>
<event>
 7    1  0.5910662E-013  0.5052879E+02  0.7816164E-02  0.1300439E+00
        -11   -1    0    0    0    0  0.00000000000E+00  0.00000000000E+00  0.45593999997E+02  0.45594000000E+02  0.51100000000E-03 0.  1.
         11   -1    0    0    0    0 -0.00000000000E+00 -0.00000000000E+00 -0.45593999997E+02  0.45594000000E+02  0.51100000000E-03 0. -1.
    9900012    2    1    2    0    0  0.15104347312E+02 -0.28987604886E+02  0.24181585044E+02  0.50528787022E+02  0.29999778630E+02 0.  0.
         12    1    1    2    0    0 -0.15104347312E+02  0.28987604886E+02 -0.24181585044E+02  0.40659212978E+02  0.00000000000E+00 0. -1.
         11    1    3    3    0    0  0.97286483975E+00 -0.28331925106E+02  0.22045870252E+02  0.35911903898E+02  0.51100000000E-03 0. -1.
        -11    1    3    3    0    0  0.53725061042E+01  0.69940749277E+00  0.19299344267E+01  0.57513163565E+01  0.51100000000E-03 0.  1.
         12    1    3    3    0    0  0.87589763684E+01 -0.13550872731E+01  0.20578036601E+00  0.88655667669E+01  0.00000000000E+00 0. -1.
</event>
<event>
 7    1  0.5910662E-013  0.5052886E+02  0.7816164E-02  0.1300439E+00
        -11   -1    0    0    0    0  0.00000000000E+00  0.00000000000E+00  0.45593999997E+02  0.45594000000E+02  0.51100000000E-03 0.  1.
         11   -1    0    0    0    0 -0.00000000000E+00 -0.00000000000E+00 -0.45593999997E+02  0.45594000000E+02  0.51100000000E-03 0. -1.
    9900012    2    1    2    0    0 -0.13399957574E+02  0.24588516707E+02  0.29479002133E+02  0.50528861008E+02  0.30000003519E+02 0.  0.
         12    1    1    2    0    0  0.13399957574E+02 -0.24588516707E+02 -0.29479002133E+02  0.40659138992E+02  0.00000000000E+00 0. -1.
         11    1    3    3    0    0  0.21938072888E+01 -0.27024482131E+01  0.14924246647E+02  0.15324788906E+02  0.51100000000E-03 0. -1.
        -11    1    3    3    0    0 -0.39467786502E+01  0.41462346747E+01  0.54840407280E+00  0.57505713611E+01  0.51100000000E-03 0.  1.
         12    1    3    3    0    0 -0.11646986212E+02  0.23144730245E+02  0.14006351413E+02  0.29453500740E+02  0.00000000000E+00 0. -1.
</event>
<event>
 7    1  0.5910662E-013  0.5052886E+02  0.7816164E-02  0.1300439E+00
        -11   -1    0    0    0    0  0.00000000000E+00  0.00000000000E+00  0.45593999997E+02  0.45594000000E+02  0.51100000000E-03 0. -1.
         11   -1    0    0    0    0 -0.00000000000E+00 -0.00000000000E+00 -0.45593999997E+02  0.45594000000E+02  0.51100000000E-03 0.  1.
    9900012    2    1    2    0    0 -0.11377235824E+01 -0.31807634129E+02 -0.25301104788E+02  0.50528857027E+02  0.29999991418E+02 0.  0.
         12    1    1    2    0    0  0.11377235824E+01  0.31807634129E+02  0.25301104788E+02  0.40659142973E+02  0.00000000000E+00 0. -1.
         11    1    3    3    0    0  0.28581569517E+01  0.46087021947E+01 -0.59630677661E+01  0.80602341482E+01  0.51100000000E-03 0. -1.
        -11    1    3    3    0    0 -0.33170530343E+01 -0.35973202075E+02 -0.20112778422E+02  0.41347284850E+02  0.51100000000E-03 0.  1.
        -12    1    3    3    0    0 -0.67882749983E+00 -0.44313424860E+00  0.77474139992E+00  0.11213380282E+01  0.00000000000E+00 0.  1.
</event>
<event>
 7    1  0.5910662E-013  0.5052886E+02  0.7816164E-02  0.1300439E+00
        -11   -1    0    0    0    0  0.00000000000E+00  0.00000000000E+00  0.45593999997E+02  0.45594000000E+02  0.51100000000E-03 0. -1.
         11   -1    0    0    0    0 -0.00000000000E+00 -0.00000000000E+00 -0.45593999997E+02  0.45594000000E+02  0.51100000000E-03 0.  1.
    9900012    2    1    2    0    0 -0.38139225322E+02  0.65997968171E+01 -0.12450220271E+02  0.50528858212E+02  0.29999995020E+02 0.  0.
         12    1    1    2    0    0  0.38139225322E+02 -0.65997968171E+01  0.12450220271E+02  0.40659141788E+02  0.00000000000E+00 0. -1.
         11    1    3    3    0    0 -0.76386370082E+01 -0.92681578747E+01 -0.24403541849E+01  0.12255727418E+02  0.51100000000E-03 0. -1.
        -11    1    3    3    0    0 -0.18067878186E+02  0.13720326749E+02 -0.88822184939E+00  0.22704284321E+02  0.51100000000E-03 0.  1.
        -12    1    3    3    0    0 -0.12432710128E+02  0.21476279426E+01 -0.91216442365E+01  0.15568846472E+02  0.00000000000E+00 0.  1.
</event>
<event>
 7    1  0.5910662E-013  0.5052886E+02  0.7816164E-02  0.1300439E+00
        -11   -1    0    0    0    0  0.00000000000E+00  0.00000000000E+00  0.45593999997E+02  0.45594000000E+02  0.51100000000E-03 0.  1.
         11   -1    0    0    0    0 -0.00000000000E+00 -0.00000000000E+00 -0.45593999997E+02  0.45594000000E+02  0.51100000000E-03 0. -1.
    9900012    2    1    2    0    0 -0.29553539261E+01 -0.22162854096E+01  0.40490980791E+02  0.50528861258E+02  0.30000004280E+02 0.  0.
         12    1    1    2    0    0  0.29553539261E+01  0.22162854096E+01 -0.40490980791E+02  0.40659138742E+02  0.00000000000E+00 0. -1.
         11    1    3    3    0    0 -0.15393253480E+02 -0.26921867355E+01  0.14237123759E+02  0.21139910485E+02  0.51100000000E-03 0. -1.
        -11    1    3    3    0    0  0.68654531747E+01  0.23607926959E+01  0.15939112743E+02  0.17514654000E+02  0.51100000000E-03 0.  1.
        -12    1    3    3    0    0  0.55724463787E+01 -0.18848913700E+01  0.10314744289E+02  0.11874296773E+02  0.00000000000E+00 0.  1.
</event>
<event>
 7    1  0.5910662E-013  0.5052886E+02  0.7816164E-02  0.1300439E+00
        -11   -1    0    0    0    0  0.00000000000E+00  0.00000000000E+00  0.45593999997E+02  0.45594000000E+02  0.51100000000E-03 0.  1.
         11   -1    0    0    0    0 -0.00000000000E+00 -0.00000000000E+00 -0.45593999997E+02  0.45594000000E+02  0.51100000000E-03 0. -1.
    9900012    2    1    2    0    0  0.20726694924E+02 -0.27971612993E+02  0.21003782396E+02  0.50528857230E+02  0.29999992036E+02 0.  0.
         12    1    1    2    0    0 -0.20726694924E+02  0.27971612993E+02 -0.21003782396E+02  0.40659142770E+02  0.00000000000E+00 0. -1.
         11    1    3    3    0    0  0.62976685641E+01  0.45218958323E+01  0.92224487002E+01  0.12048308244E+02  0.51100000000E-03 0. -1.
        -11    1    3    3    0    0  0.89390615724E+01 -0.19128589218E+02  0.23922248048E+01  0.21249293801E+02  0.51100000000E-03 0.  1.
         12    1    3    3    0    0  0.54899647870E+01 -0.13364919607E+02  0.93891088912E+01  0.17231255185E+02  0.00000000000E+00 0. -1.
</event>
<event>
 7    1  0.5910662E-013  0.5052886E+02  0.7816164E-02  0.1300439E+00
        -11   -1    0    0    0    0  0.00000000000E+00  0.00000000000E+00  0.45593999997E+02  0.45594000000E+02  0.51100000000E-03 0. -1.
         11   -1    0    0    0    0 -0.00000000000E+00 -0.00000000000E+00 -0.45593999997E+02  0.45594000000E+02  0.51100000000E-03 0.  1.
    9900012    2    1    2    0    0 -0.31528593089E+02  0.20395163189E+02 -0.15593287439E+02  0.50528862320E+02  0.30000007509E+02 0.  0.
         12    1    1    2    0    0  0.31528593089E+02 -0.20395163189E+02  0.15593287439E+02  0.40659137680E+02  0.00000000000E+00 0. -1.
         11    1    3    3    0    0 -0.22283013433E+02  0.13957237927E+02 -0.14960484941E+02  0.30251500593E+02  0.51100000000E-03 0.  1.
        -11    1    3    3    0    0 -0.86520338958E+01 -0.41917381803E+01 -0.28617778412E-01  0.96140095041E+01  0.51100000000E-03 0. -1.
        -12    1    3    3    0    0 -0.59354576087E+00  0.10629663442E+02 -0.60418471937E+00  0.10663352223E+02  0.00000000000E+00 0.  1.
</event>
<event>
 7    1  0.5910662E-013  0.5052885E+02  0.7816164E-02  0.1300439E+00
        -11   -1    0    0    0    0  0.00000000000E+00  0.00000000000E+00  0.45593999997E+02  0.45594000000E+02  0.51100000000E-03 0.  1.
         11   -1    0    0    0    0 -0.00000000000E+00 -0.00000000000E+00 -0.45593999997E+02  0.45594000000E+02  0.51100000000E-03 0. -1.
    9900012    2    1    2    0    0 -0.18057451143E+02 -0.34665464507E+01  0.36264004069E+02  0.50528850019E+02  0.29999970117E+02 0.  0.
         12    1    1    2    0    0  0.18057451143E+02  0.34665464507E+01 -0.36264004069E+02  0.40659149981E+02  0.00000000000E+00 0. -1.
         11    1    3    3    0    0 -0.14568039203E+02  0.79830131032E+00  0.30525118718E+01  0.14905800220E+02  0.51100000000E-03 0. -1.
        -11    1    3    3    0    0 -0.41049543145E+00  0.27860574374E+01  0.21013270349E+02  0.21201135667E+02  0.51100000000E-03 0.  1.
         12    1    3    3    0    0 -0.30789165086E+01 -0.70509051984E+01  0.12198221849E+02  0.14421914133E+02  0.00000000000E+00 0. -1.
</event>
<event>
 7    1  0.5910662E-013  0.5052887E+02  0.7816164E-02  0.1300439E+00
        -11   -1    0    0    0    0  0.00000000000E+00  0.00000000000E+00  0.45593999997E+02  0.45594000000E+02  0.51100000000E-03 0.  1.
         11   -1    0    0    0    0 -0.00000000000E+00 -0.00000000000E+00 -0.45593999997E+02  0.45594000000E+02  0.51100000000E-03 0. -1.
    9900012    2    1    2    0    0  0.20024205691E+02 -0.34419111448E+02  0.82171011631E+01  0.50528870669E+02  0.30000032885E+02 0.  0.
         12    1    1    2    0    0 -0.20024205691E+02  0.34419111448E+02 -0.82171011631E+01  0.40659129331E+02  0.00000000000E+00 0. -1.
         11    1    3    3    0    0  0.58899436511E+01 -0.12062828072E+02 -0.10425388758E+02  0.16996822889E+02  0.51100000000E-03 0. -1.
        -11    1    3    3    0    0  0.10060707894E+02 -0.94048535688E+01  0.12618332771E+02  0.18678635821E+02  0.51100000000E-03 0.  1.
         12    1    3    3    0    0  0.40735541464E+01 -0.12951429808E+02  0.60241571501E+01  0.14853411959E+02  0.00000000000E+00 0. -1.
</event>
<event>
 7    1  0.5910662E-013  0.5052886E+02  0.7816164E-02  0.1300439E+00
        -11   -1    0    0    0    0  0.00000000000E+00  0.00000000000E+00  0.45593999997E+02  0.45594000000E+02  0.51100000000E-03 0.  1.
         11   -1    0    0    0    0 -0.00000000000E+00 -0.00000000000E+00 -0.45593999997E+02  0.45594000000E+02  0.51100000000E-03 0. -1.
    9900012    2    1    2    0    0  0.47591095466E+01  0.40328137994E+02  0.20390877805E+01  0.50528859370E+02  0.29999998543E+02 0.  0.
         12    1    1    2    0    0 -0.47591095466E+01 -0.40328137994E+02 -0.20390877805E+01  0.40659140630E+02  0.00000000000E+00 0. -1.
         11    1    3    3    0    0 -0.95456643019E+01  0.43794091338E+01 -0.39865757476E+01  0.11233508703E+02  0.51100000000E-03 0. -1.
        -11    1    3    3    0    0  0.49233561210E+01  0.95206245777E+01  0.62696797112E+00  0.10736611055E+02  0.51100000000E-03 0.  1.
         12    1    3    3    0    0  0.93814177275E+01  0.26428104283E+02  0.53986955571E+01  0.28558739613E+02  0.00000000000E+00 0. -1.
</event>
<event>
 7    1  0.5910662E-013  0.5052886E+02  0.7816164E-02  0.1300439E+00
        -11   -1    0    0    0    0  0.00000000000E+00  0.00000000000E+00  0.45593999997E+02  0.45594000000E+02  0.51100000000E-03 0.  1.
         11   -1    0    0    0    0 -0.00000000000E+00 -0.00000000000E+00 -0.45593999997E+02  0.45594000000E+02  0.51100000000E-03 0. -1.
    9900012    2    1    2    0    0  0.32947291485E+01 -0.22297430233E+02  0.33839843347E+02  0.50528860401E+02  0.30000001675E+02 0.  0.
         12    1    1    2    0    0 -0.32947291485E+01  0.22297430233E+02 -0.33839843347E+02  0.40659139599E+02  0.00000000000E+00 0. -1.
         11    1    3    3    0    0  0.43708623165E+01 -0.11543711864E+02  0.77718160844E+00  0.12367931618E+02  0.51100000000E-03 0. -1.
        -11    1    3    3    0    0  0.71410459571E+01 -0.69889183388E+01  0.18334801569E+02  0.20880719953E+02  0.51100000000E-03 0.  1.
         12    1    3    3    0    0 -0.82171791251E+01 -0.37648000305E+01  0.14727860170E+02  0.17280208830E+02  0.00000000000E+00 0. -1.
</event>
<event>
 7    1  0.5910662E-013  0.5052886E+02  0.7816164E-02  0.1300439E+00
        -11   -1    0    0    0    0  0.00000000000E+00  0.00000000000E+00  0.45593999997E+02  0.45594000000E+02  0.51100000000E-03 0. -1.
         11   -1    0    0    0    0 -0.00000000000E+00 -0.00000000000E+00 -0.45593999997E+02  0.45594000000E+02  0.51100000000E-03 0.  1.
    9900012    2    1    2    0    0 -0.39551831802E+02 -0.21994966057E+01 -0.91640764151E+01  0.50528862272E+02  0.30000007363E+02 0.  0.
         12    1    1    2    0    0  0.39551831802E+02  0.21994966057E+01  0.91640764151E+01  0.40659137728E+02  0.00000000000E+00 0. -1.
         11    1    3    3    0    0 -0.54018043642E+01  0.23542800764E+01  0.36924266270E+01  0.69538579022E+01  0.51100000000E-03 0. -1.
        -11    1    3    3    0    0 -0.17988546983E+02 -0.20100012164E+01 -0.18866847766E+02  0.26145475179E+02  0.51100000000E-03 0.  1.
        -12    1    3    3    0    0 -0.16161480455E+02 -0.25437754656E+01  0.60103447241E+01  0.17429529191E+02  0.00000000000E+00 0.  1.
</event>
<event>
 7    1  0.5910662E-013  0.5052886E+02  0.7816164E-02  0.1300439E+00
        -11   -1    0    0    0    0  0.00000000000E+00  0.00000000000E+00  0.45593999997E+02  0.45594000000E+02  0.51100000000E-03 0. -1.
         11   -1    0    0    0    0 -0.00000000000E+00 -0.00000000000E+00 -0.45593999997E+02  0.45594000000E+02  0.51100000000E-03 0.  1.
    9900012    2    1    2    0    0  0.10319377422E+02  0.36009669132E+02 -0.15810762553E+02  0.50528855471E+02  0.29999986688E+02 0.  0.
         12    1    1    2    0    0 -0.10319377422E+02 -0.36009669132E+02  0.15810762553E+02  0.40659144529E+02  0.00000000000E+00 0. -1.
         11    1    3    3    0    0 -0.51984650683E+01  0.14265029760E+02  0.39569104192E+01  0.15689877420E+02  0.51100000000E-03 0.  1.
        -11    1    3    3    0    0  0.13740121135E+02  0.17232876422E+02 -0.10575199466E+02  0.24445813600E+02  0.51100000000E-03 0. -1.
         12    1    3    3    0    0  0.17777213559E+01  0.45117629501E+01 -0.91924735065E+01  0.10393164451E+02  0.00000000000E+00 0. -1.
</event>
<event>
 7    1  0.5910662E-013  0.5052886E+02  0.7816164E-02  0.1300439E+00
        -11   -1    0    0    0    0  0.00000000000E+00  0.00000000000E+00  0.45593999997E+02  0.45594000000E+02  0.51100000000E-03 0.  1.
         11   -1    0    0    0    0 -0.00000000000E+00 -0.00000000000E+00 -0.45593999997E+02  0.45594000000E+02  0.51100000000E-03 0. -1.
    9900012    2    1    2    0    0  0.29071287042E+02 -0.19199356098E+02  0.20962126305E+02  0.50528859034E+02  0.29999997519E+02 0.  0.
         12    1    1    2    0    0 -0.29071287042E+02  0.19199356098E+02 -0.20962126305E+02  0.40659140966E+02  0.00000000000E+00 0. -1.
         11    1    3    3    0    0 -0.17683714349E+01  0.27565080664E+01  0.86982598915E+01  0.92943638649E+01  0.51100000000E-03 0. -1.
        -11    1    3    3    0    0  0.11681285037E+02 -0.13023151721E+02  0.95248240162E+01  0.19919266394E+02  0.51100000000E-03 0.  1.
         12    1    3    3    0    0  0.19158373440E+02 -0.89327124434E+01  0.27390423975E+01  0.21315228775E+02  0.00000000000E+00 0. -1.
</event>
<event>
 7    1  0.6450004E-013  0.5052886E+02  0.7816164E-02  0.1300439E+00
        -11   -1    0    0    0    0  0.00000000000E+00  0.00000000000E+00  0.45593999997E+02  0.45594000000E+02  0.51100000000E-03 0. -1.
         11   -1    0    0    0    0 -0.00000000000E+00 -0.00000000000E+00 -0.45593999997E+02  0.45594000000E+02  0.51100000000E-03 0.  1.
    9900012    2    1    2    0    0 -0.13343576514E+02  0.11452937953E+02 -0.36659849734E+02  0.50528863211E+02  0.30000010216E+02 0.  0.
         12    1    1    2    0    0  0.13343576514E+02 -0.11452937953E+02  0.36659849734E+02  0.40659136789E+02  0.00000000000E+00 0. -1.
         11    1    3    3    0    0  0.15385386015E+00 -0.10476774984E+01  0.21078429381E+01  0.23588771192E+01  0.51100000000E-03 0. -1.
        -11    1    3    3    0    0 -0.19513142302E+02  0.83906677290E+01 -0.27416597851E+02  0.34681924188E+02  0.51100000000E-03 0.  1.
        -12    1    3    3    0    0  0.60157119276E+01  0.41099477221E+01 -0.11351094821E+02  0.13488061904E+02  0.00000000000E+00 0.  1.
</event>
<event>
 7    1  0.5910662E-013  0.5052887E+02  0.7816164E-02  0.1300439E+00
        -11   -1    0    0    0    0  0.00000000000E+00  0.00000000000E+00  0.45593999997E+02  0.45594000000E+02  0.51100000000E-03 0.  1.
         11   -1    0    0    0    0 -0.00000000000E+00 -0.00000000000E+00 -0.45593999997E+02  0.45594000000E+02  0.51100000000E-03 0. -1.
    9900012    2    1    2    0    0 -0.40324786716E+01  0.37401186655E+02  0.15429050380E+02  0.50528865195E+02  0.30000016247E+02 0.  0.
         12    1    1    2    0    0  0.40324786716E+01 -0.37401186655E+02 -0.15429050380E+02  0.40659134805E+02  0.00000000000E+00 0. -1.
         11    1    3    3    0    0  0.76963722291E+01  0.73348843871E+01  0.87172900133E+01  0.13748666113E+02  0.51100000000E-03 0. -1.
        -11    1    3    3    0    0 -0.15612878621E+02  0.20105342760E+02  0.42320004975E+01  0.25804972676E+02  0.51100000000E-03 0.  1.
        -12    1    3    3    0    0  0.38840277201E+01  0.99609595082E+01  0.24797598691E+01  0.10975226406E+02  0.00000000000E+00 0.  1.
</event>
<event>
 7    1  0.5910662E-013  0.5052880E+02  0.7816164E-02  0.1300439E+00
        -11   -1    0    0    0    0  0.00000000000E+00  0.00000000000E+00  0.45593999997E+02  0.45594000000E+02  0.51100000000E-03 0.  1.
         11   -1    0    0    0    0 -0.00000000000E+00 -0.00000000000E+00 -0.45593999997E+02  0.45594000000E+02  0.51100000000E-03 0. -1.
    9900012    2    1    2    0    0 -0.20616380858E+02 -0.23602762397E+02  0.25904538779E+02  0.50528798314E+02  0.29999812953E+02 0.  0.
         12    1    1    2    0    0  0.20616380858E+02  0.23602762397E+02 -0.25904538779E+02  0.40659201686E+02  0.00000000000E+00 0. -1.
         11    1    3    3    0    0 -0.14259176779E+02 -0.10052548328E+02  0.20291845757E+01  0.17564038278E+02  0.51100000000E-03 0. -1.
        -11    1    3    3    0    0  0.42938165346E+01 -0.89876786718E+01  0.58954032060E+01  0.11574584553E+02  0.51100000000E-03 0.  1.
        -12    1    3    3    0    0 -0.10651020614E+02 -0.45625353964E+01  0.17979950997E+02  0.21390175483E+02  0.00000000000E+00 0.  1.
</event>
<event>
 7    1  0.5910662E-013  0.5052887E+02  0.7816164E-02  0.1300439E+00
        -11   -1    0    0    0    0  0.00000000000E+00  0.00000000000E+00  0.45593999997E+02  0.45594000000E+02  0.51100000000E-03 0. -1.
         11   -1    0    0    0    0 -0.00000000000E+00 -0.00000000000E+00 -0.45593999997E+02  0.45594000000E+02  0.51100000000E-03 0.  1.
    9900012    2    1    2    0    0  0.14548767200E+02 -0.37942651798E+02 -0.13615037829E+01  0.50528866400E+02  0.30000019910E+02 0.  0.
         12    1    1    2    0    0 -0.14548767200E+02  0.37942651798E+02  0.13615037829E+01  0.40659133600E+02  0.00000000000E+00 0. -1.
         11    1    3    3    0    0  0.43236376788E+01 -0.36772098837E+02  0.74162375347E+00  0.37032838154E+02  0.51100000000E-03 0. -1.
        -11    1    3    3    0    0  0.78355436103E+01 -0.29290340709E+01 -0.46634042262E+01  0.95771772196E+01  0.51100000000E-03 0.  1.
         12    1    3    3    0    0  0.23895859112E+01  0.17584811098E+01  0.25602766898E+01  0.39188510266E+01  0.00000000000E+00 0. -1.
</event>
<event>
 7    1  0.5910662E-013  0.5052886E+02  0.7816164E-02  0.1300439E+00
        -11   -1    0    0    0    0  0.00000000000E+00  0.00000000000E+00  0.45593999997E+02  0.45594000000E+02  0.51100000000E-03 0.  1.
         11   -1    0    0    0    0 -0.00000000000E+00 -0.00000000000E+00 -0.45593999997E+02  0.45594000000E+02  0.51100000000E-03 0. -1.
    9900012    2    1    2    0    0 -0.22530498018E+02  0.15137831967E+02  0.30271911168E+02  0.50528857075E+02  0.29999991566E+02 0.  0.
         12    1    1    2    0    0  0.22530498018E+02 -0.15137831967E+02 -0.30271911168E+02  0.40659142925E+02  0.00000000000E+00 0. -1.
         11    1    3    3    0    0 -0.21111142148E+02  0.33026352178E+01  0.13179829556E+02  0.25105689188E+02  0.51100000000E-03 0. -1.
        -11    1    3    3    0    0 -0.48069292714E+01  0.10865465190E+02  0.18195229376E+02  0.21730882981E+02  0.51100000000E-03 0.  1.
         12    1    3    3    0    0  0.33875734015E+01  0.96973155860E+00 -0.11031477638E+01  0.36922849071E+01  0.00000000000E+00 0. -1.
</event>
<event>
 7    1  0.5910662E-013  0.5052886E+02  0.7816164E-02  0.1300439E+00
        -11   -1    0    0    0    0  0.00000000000E+00  0.00000000000E+00  0.45593999997E+02  0.45594000000E+02  0.51100000000E-03 0.  1.
         11   -1    0    0    0    0 -0.00000000000E+00 -0.00000000000E+00 -0.45593999997E+02  0.45594000000E+02  0.51100000000E-03 0. -1.
    9900012    2    1    2    0    0 -0.34532667925E+02 -0.16867691358E+02  0.13271827516E+02  0.50528861158E+02  0.30000003975E+02 0.  0.
         12    1    1    2    0    0  0.34532667925E+02  0.16867691358E+02 -0.13271827516E+02  0.40659138842E+02  0.00000000000E+00 0. -1.
         11    1    3    3    0    0  0.17684892136E+01 -0.72112101686E+01 -0.37387570762E+01  0.83130867270E+01  0.51100000000E-03 0. -1.
        -11    1    3    3    0    0 -0.23538746242E+02 -0.10643078768E+02  0.11635937096E+02  0.28332714883E+02  0.51100000000E-03 0.  1.
         12    1    3    3    0    0 -0.12762410897E+02  0.98659757833E+00  0.53746474965E+01  0.13883059547E+02  0.00000000000E+00 0. -1.
</event>
<event>
 7    1  0.5910662E-013  0.5052885E+02  0.7816164E-02  0.1300439E+00
        -11   -1    0    0    0    0  0.00000000000E+00  0.00000000000E+00  0.45593999997E+02  0.45594000000E+02  0.51100000000E-03 0.  1.
         11   -1    0    0    0    0 -0.00000000000E+00 -0.00000000000E+00 -0.45593999997E+02  0.45594000000E+02  0.51100000000E-03 0. -1.
    9900012    2    1    2    0    0  0.26899960772E+02 -0.18528201577E+01  0.30432308093E+02  0.50528853330E+02  0.29999980182E+02 0.  0.
         12    1    1    2    0    0 -0.26899960772E+02  0.18528201577E+01 -0.30432308093E+02  0.40659146670E+02  0.00000000000E+00 0. -1.
         11    1    3    3    0    0  0.20177901844E+02  0.10843982811E+02  0.19046739960E+02  0.29791240146E+02  0.51100000000E-03 0. -1.
        -11    1    3    3    0    0  0.75356112150E+01 -0.12877538414E+02  0.12417196600E+02  0.19411419413E+02  0.51100000000E-03 0.  1.
         12    1    3    3    0    0 -0.81355228750E+00  0.18073544494E+00 -0.10316284666E+01  0.13261937712E+01  0.00000000000E+00 0. -1.
</event>
<event>
 7    1  0.5910662E-013  0.5052885E+02  0.7816164E-02  0.1300439E+00
        -11   -1    0    0    0    0  0.00000000000E+00  0.00000000000E+00  0.45593999997E+02  0.45594000000E+02  0.51100000000E-03 0. -1.
         11   -1    0    0    0    0 -0.00000000000E+00 -0.00000000000E+00 -0.45593999997E+02  0.45594000000E+02  0.51100000000E-03 0.  1.
    9900012    2    1    2    0    0 -0.27559580660E+02 -0.16728180480E+02 -0.24775063530E+02  0.50528852428E+02  0.29999977441E+02 0.  0.
         12    1    1    2    0    0  0.27559580660E+02  0.16728180480E+02  0.24775063530E+02  0.40659147572E+02  0.00000000000E+00 0. -1.
         11    1    3    3    0    0 -0.16911105239E+02 -0.81455660115E+01 -0.86963514009E+01  0.20687248585E+02  0.51100000000E-03 0. -1.
        -11    1    3    3    0    0  0.28764073328E+01 -0.10337141572E+02 -0.34945058095E+01  0.11284581788E+02  0.51100000000E-03 0.  1.
         12    1    3    3    0    0 -0.13524882754E+02  0.17545271039E+01 -0.12584206320E+02  0.18557022055E+02  0.00000000000E+00 0. -1.
</event>
<event>
 7    1  0.5910662E-013  0.5052886E+02  0.7816164E-02  0.1300439E+00
        -11   -1    0    0    0    0  0.00000000000E+00  0.00000000000E+00  0.45593999997E+02  0.45594000000E+02  0.51100000000E-03 0.  1.
         11   -1    0    0    0    0 -0.00000000000E+00 -0.00000000000E+00 -0.45593999997E+02  0.45594000000E+02  0.51100000000E-03 0. -1.
    9900012    2    1    2    0    0 -0.24958070364E+02 -0.11251046430E+02  0.30061175500E+02  0.50528860873E+02  0.30000003111E+02 0.  0.
         12    1    1    2    0    0  0.24958070364E+02  0.11251046430E+02 -0.30061175500E+02  0.40659139127E+02  0.00000000000E+00 0. -1.
         11    1    3    3    0    0 -0.10424660744E+02  0.55931804003E+01  0.18280058300E+02  0.21774245115E+02  0.51100000000E-03 0. -1.
        -11    1    3    3    0    0  0.10292842861E+01 -0.83530321296E+01  0.48919474757E+01  0.97346660069E+01  0.51100000000E-03 0.  1.
        -12    1    3    3    0    0 -0.15562693906E+02 -0.84911947004E+01  0.68891697251E+01  0.19019949752E+02  0.00000000000E+00 0.  1.
</event>
<event>
 7    1  0.5910662E-013  0.5052886E+02  0.7816164E-02  0.1300439E+00
        -11   -1    0    0    0    0  0.00000000000E+00  0.00000000000E+00  0.45593999997E+02  0.45594000000E+02  0.51100000000E-03 0.  1.
         11   -1    0    0    0    0 -0.00000000000E+00 -0.00000000000E+00 -0.45593999997E+02  0.45594000000E+02  0.51100000000E-03 0. -1.
    9900012    2    1    2    0    0  0.14538721086E+02  0.17867269039E+02  0.33504508577E+02  0.50528858240E+02  0.29999995106E+02 0.  0.
         12    1    1    2    0    0 -0.14538721086E+02 -0.17867269039E+02 -0.33504508577E+02  0.40659141760E+02  0.00000000000E+00 0. -1.
         11    1    3    3    0    0  0.26570702621E+01 -0.34517399370E+01  0.36623319364E+01  0.56909758780E+01  0.51100000000E-03 0. -1.
        -11    1    3    3    0    0  0.13460771247E+02  0.25423027007E+02  0.27743936529E+02  0.39965593692E+02  0.51100000000E-03 0.  1.
        -12    1    3    3    0    0 -0.15791204231E+01 -0.41040180316E+01  0.20982401110E+01  0.48722886694E+01  0.00000000000E+00 0.  1.
</event>
<event>
 7    1  0.5910662E-013  0.5052887E+02  0.7816164E-02  0.1300439E+00
        -11   -1    0    0    0    0  0.00000000000E+00  0.00000000000E+00  0.45593999997E+02  0.45594000000E+02  0.51100000000E-03 0. -1.
         11   -1    0    0    0    0 -0.00000000000E+00 -0.00000000000E+00 -0.45593999997E+02  0.45594000000E+02  0.51100000000E-03 0.  1.
    9900012    2    1    2    0    0  0.28836704094E+02  0.22358674909E+02 -0.17935974452E+02  0.50528867861E+02  0.30000024351E+02 0.  0.
         12    1    1    2    0    0 -0.28836704094E+02 -0.22358674909E+02  0.17935974452E+02  0.40659132139E+02  0.00000000000E+00 0. -1.
         11    1    3    3    0    0 -0.18014549059E+01 -0.39804481842E+01 -0.55011911074E+01  0.70251200265E+01  0.51100000000E-03 0. -1.
        -11    1    3    3    0    0  0.15651112039E+02  0.68919844802E+01 -0.59882517474E+01  0.18119489986E+02  0.51100000000E-03 0.  1.
         12    1    3    3    0    0  0.14987046961E+02  0.19447138614E+02 -0.64465315977E+01  0.25384257848E+02  0.00000000000E+00 0. -1.
</event>
<event>
 7    1  0.5910662E-013  0.5052887E+02  0.7816164E-02  0.1300439E+00
        -11   -1    0    0    0    0  0.00000000000E+00  0.00000000000E+00  0.45593999997E+02  0.45594000000E+02  0.51100000000E-03 0. -1.
         11   -1    0    0    0    0 -0.00000000000E+00 -0.00000000000E+00 -0.45593999997E+02  0.45594000000E+02  0.51100000000E-03 0.  1.
    9900012    2    1    2    0    0  0.40039111563E+02  0.51249192263E+01  0.48754311157E+01  0.50528867196E+02  0.30000022329E+02 0.  0.
         12    1    1    2    0    0 -0.40039111563E+02 -0.51249192263E+01 -0.48754311157E+01  0.40659132804E+02  0.00000000000E+00 0. -1.
         11    1    3    3    0    0  0.15946641515E+01  0.64031424273E+01 -0.44284605892E+01  0.79469774224E+01  0.51100000000E-03 0. -1.
        -11    1    3    3    0    0  0.24512563039E+02 -0.74757090826E+01  0.20867410019E+01  0.25711990614E+02  0.51100000000E-03 0.  1.
        -12    1    3    3    0    0  0.13931884372E+02  0.61974858816E+01  0.72171507030E+01  0.16869899160E+02  0.00000000000E+00 0.  1.
</event>
<event>
 7    1  0.5910662E-013  0.5052886E+02  0.7816164E-02  0.1300439E+00
        -11   -1    0    0    0    0  0.00000000000E+00  0.00000000000E+00  0.45593999997E+02  0.45594000000E+02  0.51100000000E-03 0.  1.
         11   -1    0    0    0    0 -0.00000000000E+00 -0.00000000000E+00 -0.45593999997E+02  0.45594000000E+02  0.51100000000E-03 0. -1.
    9900012    2    1    2    0    0  0.17437545842E+02 -0.85154580134E+01  0.35729327317E+02  0.50528857600E+02  0.29999993161E+02 0.  0.
         12    1    1    2    0    0 -0.17437545842E+02  0.85154580134E+01 -0.35729327317E+02  0.40659142400E+02  0.00000000000E+00 0. -1.
         11    1    3    3    0    0  0.47213974100E-01 -0.37609427699E+01  0.21792866927E+01  0.43469771598E+01  0.51100000000E-03 0. -1.
        -11    1    3    3    0    0  0.21933343931E+02  0.60602245892E+00  0.32295539764E+02  0.39044086981E+02  0.51100000000E-03 0.  1.
        -12    1    3    3    0    0 -0.45430120628E+01 -0.53605377024E+01  0.12545008599E+01  0.71377934594E+01  0.00000000000E+00 0.  1.
</event>
<event>
 7    1  0.5910662E-013  0.5052892E+02  0.7816164E-02  0.1300439E+00
        -11   -1    0    0    0    0  0.00000000000E+00  0.00000000000E+00  0.45593999997E+02  0.45594000000E+02  0.51100000000E-03 0.  1.
         11   -1    0    0    0    0 -0.00000000000E+00 -0.00000000000E+00 -0.45593999997E+02  0.45594000000E+02  0.51100000000E-03 0. -1.
    9900012    2    1    2    0    0  0.38467624253E+02  0.13072786280E+02  0.15826986769E+01  0.50528919933E+02  0.30000182629E+02 0.  0.
         12    1    1    2    0    0 -0.38467624253E+02 -0.13072786280E+02 -0.15826986769E+01  0.40659080067E+02  0.00000000000E+00 0. -1.
         11    1    3    3    0    0  0.17409235309E+01  0.11932643828E+02 -0.36821287900E+01  0.12608603259E+02  0.51100000000E-03 0. -1.
        -11    1    3    3    0    0  0.22807436542E+02  0.34831924170E+01  0.58188954588E+01  0.23794355122E+02  0.51100000000E-03 0.  1.
         12    1    3    3    0    0  0.13919264179E+02 -0.23430499647E+01 -0.55406799195E+00  0.14125961552E+02  0.00000000000E+00 0. -1.
</event>
<event>
 7    1  0.5910662E-013  0.5052887E+02  0.7816164E-02  0.1300439E+00
        -11   -1    0    0    0    0  0.00000000000E+00  0.00000000000E+00  0.45593999997E+02  0.45594000000E+02  0.51100000000E-03 0. -1.
         11   -1    0    0    0    0 -0.00000000000E+00 -0.00000000000E+00 -0.45593999997E+02  0.45594000000E+02  0.51100000000E-03 0.  1.
    9900012    2    1    2    0    0 -0.23204329296E+02  0.28333001620E+02 -0.17662530048E+02  0.50528870071E+02  0.30000031068E+02 0.  0.
         12    1    1    2    0    0  0.23204329296E+02 -0.28333001620E+02  0.17662530048E+02  0.40659129929E+02  0.00000000000E+00 0. -1.
         11    1    3    3    0    0 -0.55863882743E+01  0.16094847892E+02  0.33122515065E+01  0.17355773476E+02  0.51100000000E-03 0. -1.
        -11    1    3    3    0    0 -0.77195750811E+01  0.12435811586E+02 -0.17181620185E+02  0.22570984065E+02  0.51100000000E-03 0.  1.
         12    1    3    3    0    0 -0.98983659408E+01 -0.19765785840E+00 -0.37931613696E+01  0.10602112530E+02  0.00000000000E+00 0. -1.
</event>
<event>
 7    1  0.6118906E-013  0.5052888E+02  0.7816164E-02  0.1300439E+00
        -11   -1    0    0    0    0  0.00000000000E+00  0.00000000000E+00  0.45593999997E+02  0.45594000000E+02  0.51100000000E-03 0. -1.
         11   -1    0    0    0    0 -0.00000000000E+00 -0.00000000000E+00 -0.45593999997E+02  0.45594000000E+02  0.51100000000E-03 0.  1.
    9900012    2    1    2    0    0 -0.37993699617E+02  0.65404689449E+01 -0.12917638629E+02  0.50528876395E+02  0.30000050290E+02 0.  0.
         12    1    1    2    0    0  0.37993699617E+02 -0.65404689449E+01  0.12917638629E+02  0.40659123605E+02  0.00000000000E+00 0. -1.
         11    1    3    3    0    0 -0.12730677734E+02  0.18815385287E+01  0.72145065286E+01  0.14753285990E+02  0.51100000000E-03 0. -1.
        -11    1    3    3    0    0 -0.10973650102E+02  0.87575427446E+01 -0.13570653710E+02  0.19526346147E+02  0.51100000000E-03 0.  1.
        -12    1    3    3    0    0 -0.14289371782E+02 -0.40986123285E+01 -0.65614914477E+01  0.16249244258E+02  0.00000000000E+00 0.  1.
</event>
<event>
 7    1  0.5910662E-013  0.5052885E+02  0.7816164E-02  0.1300439E+00
        -11   -1    0    0    0    0  0.00000000000E+00  0.00000000000E+00  0.45593999997E+02  0.45594000000E+02  0.51100000000E-03 0. -1.
         11   -1    0    0    0    0 -0.00000000000E+00 -0.00000000000E+00 -0.45593999997E+02  0.45594000000E+02  0.51100000000E-03 0.  1.
    9900012    2    1    2    0    0 -0.25639626240E+02 -0.90199145048E+00 -0.31543019319E+02  0.50528854780E+02  0.29999984588E+02 0.  0.
         12    1    1    2    0    0  0.25639626240E+02  0.90199145048E+00  0.31543019319E+02  0.40659145220E+02  0.00000000000E+00 0. -1.
         11    1    3    3    0    0 -0.28574579899E+02 -0.50494780743E+01 -0.17236133819E+02  0.33750380065E+02  0.51100000000E-03 0. -1.
        -11    1    3    3    0    0  0.77138099386E+00 -0.20271455966E+01 -0.28028797239E+01  0.35440771599E+01  0.51100000000E-03 0.  1.
         12    1    3    3    0    0  0.21635726657E+01  0.61746322205E+01 -0.11504005776E+02  0.13234397555E+02  0.00000000000E+00 0. -1.
</event>
<event>
 7    1  0.5910662E-013  0.5052886E+02  0.7816164E-02  0.1300439E+00
        -11   -1    0    0    0    0  0.00000000000E+00  0.00000000000E+00  0.45593999997E+02  0.45594000000E+02  0.51100000000E-03 0. -1.
         11   -1    0    0    0    0 -0.00000000000E+00 -0.00000000000E+00 -0.45593999997E+02  0.45594000000E+02  0.51100000000E-03 0.  1.
    9900012    2    1    2    0    0  0.92195097416E+01  0.19915217981E+02 -0.34227922069E+02  0.50528856916E+02  0.29999991083E+02 0.  0.
         12    1    1    2    0    0 -0.92195097416E+01 -0.19915217981E+02  0.34227922069E+02  0.40659143084E+02  0.00000000000E+00 0. -1.
         11    1    3    3    0    0 -0.52515941062E+01  0.14830767637E+02 -0.10859675602E+02  0.19117098729E+02  0.51100000000E-03 0. -1.
        -11    1    3    3    0    0  0.91492971465E+01  0.98557963566E+01 -0.18019795882E+02  0.22484648185E+02  0.51100000000E-03 0.  1.
         12    1    3    3    0    0  0.53218067013E+01 -0.47713460128E+01 -0.53484505859E+01  0.89271100032E+01  0.00000000000E+00 0. -1.
</event>
<event>
 7    1  0.5910662E-013  0.5052885E+02  0.7816164E-02  0.1300439E+00
        -11   -1    0    0    0    0  0.00000000000E+00  0.00000000000E+00  0.45593999997E+02  0.45594000000E+02  0.51100000000E-03 0. -1.
         11   -1    0    0    0    0 -0.00000000000E+00 -0.00000000000E+00 -0.45593999997E+02  0.45594000000E+02  0.51100000000E-03 0.  1.
    9900012    2    1    2    0    0 -0.38566506727E+02  0.11832270282E+02  0.50782149739E+01  0.50528851848E+02  0.29999975677E+02 0.  0.
         12    1    1    2    0    0  0.38566506727E+02 -0.11832270282E+02 -0.50782149739E+01  0.40659148152E+02  0.00000000000E+00 0. -1.
         11    1    3    3    0    0 -0.29538978226E+01  0.27731249555E+01  0.73815131003E+01  0.84203604600E+01  0.51100000000E-03 0. -1.
        -11    1    3    3    0    0 -0.18868885048E+02  0.52176443540E+01 -0.11416007978E+02  0.22662388973E+02  0.51100000000E-03 0.  1.
        -12    1    3    3    0    0 -0.16743723856E+02  0.38415009727E+01  0.91127098515E+01  0.19446102415E+02  0.00000000000E+00 0.  1.
</event>
<event>
 7    1  0.5910662E-013  0.5052886E+02  0.7816164E-02  0.1300439E+00
        -11   -1    0    0    0    0  0.00000000000E+00  0.00000000000E+00  0.45593999997E+02  0.45594000000E+02  0.51100000000E-03 0.  1.
         11   -1    0    0    0    0 -0.00000000000E+00 -0.00000000000E+00 -0.45593999997E+02  0.45594000000E+02  0.51100000000E-03 0. -1.
    9900012    2    1    2    0    0  0.12169015669E+01 -0.23023778941E+02  0.33490157330E+02  0.50528857312E+02  0.29999992286E+02 0.  0.
         12    1    1    2    0    0 -0.12169015669E+01  0.23023778941E+02 -0.33490157330E+02  0.40659142688E+02  0.00000000000E+00 0. -1.
         11    1    3    3    0    0  0.77236724618E+01 -0.73906060889E+01  0.83859593933E+01  0.13586776287E+02  0.51100000000E-03 0. -1.
        -11    1    3    3    0    0 -0.65833034108E+01 -0.13948269191E+01  0.21105974377E+02  0.22152823310E+02  0.51100000000E-03 0.  1.
        -12    1    3    3    0    0  0.76532515851E-01 -0.14238345933E+02  0.39982235590E+01  0.14789257715E+02  0.00000000000E+00 0.  1.
</event>
<event>
 7    1  0.5910662E-013  0.5052886E+02  0.7816164E-02  0.1300439E+00
        -11   -1    0    0    0    0  0.00000000000E+00  0.00000000000E+00  0.45593999997E+02  0.45594000000E+02  0.51100000000E-03 0. -1.
         11   -1    0    0    0    0 -0.00000000000E+00 -0.00000000000E+00 -0.45593999997E+02  0.45594000000E+02  0.51100000000E-03 0.  1.
    9900012    2    1    2    0    0  0.29772173688E+02 -0.92244542094E+01 -0.26109248034E+02  0.50528859398E+02  0.29999998627E+02 0.  0.
         12    1    1    2    0    0 -0.29772173688E+02  0.92244542094E+01  0.26109248034E+02  0.40659140602E+02  0.00000000000E+00 0. -1.
         11    1    3    3    0    0  0.64111963013E+00  0.14640521948E+01  0.38670193718E+00  0.16443910297E+01  0.51100000000E-03 0. -1.
        -11    1    3    3    0    0  0.28625281346E+02 -0.37771107873E+00 -0.25799482032E+02  0.38537808334E+02  0.51100000000E-03 0.  1.
        -12    1    3    3    0    0  0.50577271153E+00 -0.10310795325E+02 -0.69646793942E+00  0.10346660035E+02  0.00000000000E+00 0.  1.
</event>
<event>
 7    1  0.5910662E-013  0.5052886E+02  0.7816164E-02  0.1300439E+00
        -11   -1    0    0    0    0  0.00000000000E+00  0.00000000000E+00  0.45593999997E+02  0.45594000000E+02  0.51100000000E-03 0.  1.
         11   -1    0    0    0    0 -0.00000000000E+00 -0.00000000000E+00 -0.45593999997E+02  0.45594000000E+02  0.51100000000E-03 0. -1.
    9900012    2    1    2    0    0 -0.30729239288E+02 -0.13325468064E+02  0.23050199334E+02  0.50528856678E+02  0.29999990357E+02 0.  0.
         12    1    1    2    0    0  0.30729239288E+02  0.13325468064E+02 -0.23050199334E+02  0.40659143322E+02  0.00000000000E+00 0. -1.
         11    1    3    3    0    0 -0.50364193414E-01 -0.49744468339E+00 -0.18221235165E+01  0.18894766830E+01  0.51100000000E-03 0. -1.
        -11    1    3    3    0    0 -0.29867000314E+02 -0.11385500250E+02  0.29640785027E+02  0.43591782035E+02  0.51100000000E-03 0.  1.
        -12    1    3    3    0    0 -0.81187478016E+00 -0.14425231314E+01 -0.47684621757E+01  0.50475979598E+01  0.00000000000E+00 0.  1.
</event>
<event>
 7    1  0.5910662E-013  0.5052887E+02  0.7816164E-02  0.1300439E+00
        -11   -1    0    0    0    0  0.00000000000E+00  0.00000000000E+00  0.45593999997E+02  0.45594000000E+02  0.51100000000E-03 0.  1.
         11   -1    0    0    0    0 -0.00000000000E+00 -0.00000000000E+00 -0.45593999997E+02  0.45594000000E+02  0.51100000000E-03 0. -1.
    9900012    2    1    2    0    0  0.18596540153E+02 -0.53875471349E+01  0.35753435093E+02  0.50528867069E+02  0.30000021942E+02 0.  0.
         12    1    1    2    0    0 -0.18596540153E+02  0.53875471349E+01 -0.35753435093E+02  0.40659132931E+02  0.00000000000E+00 0. -1.
         11    1    3    3    0    0  0.20403667823E+02 -0.81968334793E+01  0.19767786178E+02  0.29567940584E+02  0.51100000000E-03 0. -1.
        -11    1    3    3    0    0 -0.27403044039E+01 -0.34247089642E+01  0.71965514159E+00  0.44447501054E+01  0.51100000000E-03 0.  1.
         12    1    3    3    0    0  0.93317673410E+00  0.62339953086E+01  0.15265993773E+02  0.16516176380E+02  0.00000000000E+00 0. -1.
</event>
<event>
 7    1  0.5910662E-013  0.5052886E+02  0.7816164E-02  0.1300439E+00
        -11   -1    0    0    0    0  0.00000000000E+00  0.00000000000E+00  0.45593999997E+02  0.45594000000E+02  0.51100000000E-03 0.  1.
         11   -1    0    0    0    0 -0.00000000000E+00 -0.00000000000E+00 -0.45593999997E+02  0.45594000000E+02  0.51100000000E-03 0. -1.
    9900012    2    1    2    0    0 -0.35633926030E+02 -0.19452176237E+02 -0.22364714392E+01  0.50528860201E+02  0.30000001068E+02 0.  0.
         12    1    1    2    0    0  0.35633926030E+02  0.19452176237E+02  0.22364714392E+01  0.40659139799E+02  0.00000000000E+00 0. -1.
         11    1    3    3    0    0 -0.12033863211E+01  0.38350234459E+01 -0.82749949191E-01  0.40202476644E+01  0.51100000000E-03 0. -1.
        -11    1    3    3    0    0 -0.34667605186E+02 -0.23657759768E+02  0.22996490803E+01  0.42033567928E+02  0.51100000000E-03 0.  1.
        -12    1    3    3    0    0  0.23706547707E+00  0.37056008515E+00 -0.44533705703E+01  0.44750446092E+01  0.00000000000E+00 0.  1.
</event>
<event>
 7    1  0.5910662E-013  0.5052886E+02  0.7816164E-02  0.1300439E+00
        -11   -1    0    0    0    0  0.00000000000E+00  0.00000000000E+00  0.45593999997E+02  0.45594000000E+02  0.51100000000E-03 0. -1.
         11   -1    0    0    0    0 -0.00000000000E+00 -0.00000000000E+00 -0.45593999997E+02  0.45594000000E+02  0.51100000000E-03 0.  1.
    9900012    2    1    2    0    0  0.31753935723E+02  0.23785236127E+02 -0.88946933414E+01  0.50528862513E+02  0.30000008094E+02 0.  0.
         12    1    1    2    0    0 -0.31753935723E+02 -0.23785236127E+02  0.88946933414E+01  0.40659137487E+02  0.00000000000E+00 0. -1.
         11    1    3    3    0    0 -0.29219048920E+01 -0.13224171118E+00 -0.26463876814E+01  0.39444117545E+01  0.51100000000E-03 0. -1.
        -11    1    3    3    0    0  0.17045629548E+02  0.61267618659E+01  0.54852828434E+01  0.18925618240E+02  0.51100000000E-03 0.  1.
        -12    1    3    3    0    0  0.17630211068E+02  0.17790715973E+02 -0.11733588503E+02  0.27658832518E+02  0.00000000000E+00 0.  1.
</event>
<event>
 7    1  0.5910662E-013  0.5052885E+02  0.7816164E-02  0.1300439E+00
        -11   -1    0    0    0    0  0.00000000000E+00  0.00000000000E+00  0.45593999997E+02  0.45594000000E+02  0.51100000000E-03 0.  1.
         11   -1    0    0    0    0 -0.00000000000E+00 -0.00000000000E+00 -0.45593999997E+02  0.45594000000E+02  0.51100000000E-03 0. -1.
    9900012    2    1    2    0    0  0.84618279842E+01 -0.31442862092E+02 -0.24349748487E+02  0.50528851451E+02  0.29999974470E+02 0.  0.
         12    1    1    2    0    0 -0.84618279842E+01  0.31442862092E+02  0.24349748487E+02  0.40659148549E+02  0.00000000000E+00 0. -1.
         11    1    3    3    0    0 -0.75084315691E+01 -0.13372467316E+02 -0.11688726543E+02  0.19282783907E+02  0.51100000000E-03 0. -1.
        -11    1    3    3    0    0  0.14400218762E+02 -0.11424203352E+02 -0.15308915717E+02  0.23921572343E+02  0.51100000000E-03 0.  1.
         12    1    3    3    0    0  0.15700407909E+01 -0.66461914230E+01  0.26478937731E+01  0.73244952010E+01  0.00000000000E+00 0. -1.
</event>
<event>
 7    1  0.5910662E-013  0.5052884E+02  0.7816164E-02  0.1300439E+00
        -11   -1    0    0    0    0  0.00000000000E+00  0.00000000000E+00  0.45593999997E+02  0.45594000000E+02  0.51100000000E-03 0.  1.
         11   -1    0    0    0    0 -0.00000000000E+00 -0.00000000000E+00 -0.45593999997E+02  0.45594000000E+02  0.51100000000E-03 0. -1.
    9900012    2    1    2    0    0 -0.70501538753E+01  0.49395534722E+01  0.39737426141E+02  0.50528844887E+02  0.29999954519E+02 0.  0.
         12    1    1    2    0    0  0.70501538753E+01 -0.49395534722E+01 -0.39737426141E+02  0.40659155113E+02  0.00000000000E+00 0. -1.
         11    1    3    3    0    0  0.54756603636E+01  0.76725711247E+01  0.26040800504E+02  0.27694304382E+02  0.51100000000E-03 0. -1.
        -11    1    3    3    0    0 -0.10002609145E+02  0.19538817934E+01  0.25859479334E+01  0.10514607494E+02  0.51100000000E-03 0.  1.
         12    1    3    3    0    0 -0.25232050936E+01 -0.46868994459E+01  0.11110677704E+02  0.12319933011E+02  0.00000000000E+00 0. -1.
</event>
<event>
 7    1  0.5910662E-013  0.5052887E+02  0.7816164E-02  0.1300439E+00
        -11   -1    0    0    0    0  0.00000000000E+00  0.00000000000E+00  0.45593999997E+02  0.45594000000E+02  0.51100000000E-03 0.  1.
         11   -1    0    0    0    0 -0.00000000000E+00 -0.00000000000E+00 -0.45593999997E+02  0.45594000000E+02  0.51100000000E-03 0. -1.
    9900012    2    1    2    0    0  0.18767519207E+02 -0.16747209748E+02  0.31944889462E+02  0.50528870960E+02  0.30000033771E+02 0.  0.
         12    1    1    2    0    0 -0.18767519207E+02  0.16747209748E+02 -0.31944889462E+02  0.40659129040E+02  0.00000000000E+00 0. -1.
         11    1    3    3    0    0  0.19859914220E+02 -0.15527470828E+02  0.10913502530E+02  0.27470403726E+02  0.51100000000E-03 0. -1.
        -11    1    3    3    0    0  0.11987994690E+01 -0.30226755555E+01  0.19492287285E+02  0.19761653563E+02  0.51100000000E-03 0.  1.
        -12    1    3    3    0    0 -0.22911944818E+01  0.18029366351E+01  0.15390996472E+01  0.32968136720E+01  0.00000000000E+00 0.  1.
</event>
<event>
 7    1  0.5910662E-013  0.5052886E+02  0.7816164E-02  0.1300439E+00
        -11   -1    0    0    0    0  0.00000000000E+00  0.00000000000E+00  0.45593999997E+02  0.45594000000E+02  0.51100000000E-03 0.  1.
         11   -1    0    0    0    0 -0.00000000000E+00 -0.00000000000E+00 -0.45593999997E+02  0.45594000000E+02  0.51100000000E-03 0. -1.
    9900012    2    1    2    0    0 -0.10643939115E+02  0.30724717302E+02  0.24410317372E+02  0.50528864651E+02  0.30000014592E+02 0.  0.
         12    1    1    2    0    0  0.10643939115E+02 -0.30724717302E+02 -0.24410317372E+02  0.40659135349E+02  0.00000000000E+00 0. -1.
         11    1    3    3    0    0  0.29948592617E+01  0.21180950759E+02  0.12870933191E+02  0.24965231393E+02  0.51100000000E-03 0. -1.
        -11    1    3    3    0    0 -0.25705091247E+01  0.22720459928E+01  0.11829731161E+02  0.12317152664E+02  0.51100000000E-03 0.  1.
         12    1    3    3    0    0 -0.11068289252E+02  0.72717205502E+01 -0.29034698008E+00  0.13246480593E+02  0.00000000000E+00 0. -1.
</event>
<event>
 7    1  0.5910662E-013  0.5052886E+02  0.7816164E-02  0.1300439E+00
        -11   -1    0    0    0    0  0.00000000000E+00  0.00000000000E+00  0.45593999997E+02  0.45594000000E+02  0.51100000000E-03 0.  1.
         11   -1    0    0    0    0 -0.00000000000E+00 -0.00000000000E+00 -0.45593999997E+02  0.45594000000E+02  0.51100000000E-03 0. -1.
    9900012    2    1    2    0    0  0.32093978579E+02  0.59579999018E+01  0.24241375424E+02  0.50528861958E+02  0.30000006408E+02 0.  0.
         12    1    1    2    0    0 -0.32093978579E+02 -0.59579999018E+01 -0.24241375424E+02  0.40659138042E+02  0.00000000000E+00 0. -1.
         11    1    3    3    0    0 -0.21882612214E+01  0.65130426000E+01  0.43549140805E+01  0.81347088450E+01  0.51100000000E-03 0. -1.
        -11    1    3    3    0    0  0.33284225287E+02  0.73631383064E+00  0.13708467972E+02  0.36004220661E+02  0.51100000000E-03 0.  1.
        -12    1    3    3    0    0  0.99801451359E+00 -0.12913565288E+01  0.61779933709E+01  0.63899324523E+01  0.00000000000E+00 0.  1.
</event>
<event>
 7    1  0.5910662E-013  0.5052886E+02  0.7816164E-02  0.1300439E+00
        -11   -1    0    0    0    0  0.00000000000E+00  0.00000000000E+00  0.45593999997E+02  0.45594000000E+02  0.51100000000E-03 0.  1.
         11   -1    0    0    0    0 -0.00000000000E+00 -0.00000000000E+00 -0.45593999997E+02  0.45594000000E+02  0.51100000000E-03 0. -1.
    9900012    2    1    2    0    0 -0.17643541528E+02  0.13035505734E+02  0.34233705119E+02  0.50528861622E+02  0.30000005388E+02 0.  0.
         12    1    1    2    0    0  0.17643541528E+02 -0.13035505734E+02 -0.34233705119E+02  0.40659138378E+02  0.00000000000E+00 0. -1.
         11    1    3    3    0    0  0.16120156749E+01 -0.64314832082E+01  0.12794001458E+02  0.14410032767E+02  0.51100000000E-03 0. -1.
        -11    1    3    3    0    0 -0.96868979378E+01  0.98465643107E+01  0.16865222941E+02  0.21799691867E+02  0.51100000000E-03 0.  1.
         12    1    3    3    0    0 -0.95686592654E+01  0.96204246312E+01  0.45744807205E+01  0.14319136988E+02  0.00000000000E+00 0. -1.
</event>
<event>
 7    1  0.5910662E-013  0.5052885E+02  0.7816164E-02  0.1300439E+00
        -11   -1    0    0    0    0  0.00000000000E+00  0.00000000000E+00  0.45593999997E+02  0.45594000000E+02  0.51100000000E-03 0.  1.
         11   -1    0    0    0    0 -0.00000000000E+00 -0.00000000000E+00 -0.45593999997E+02  0.45594000000E+02  0.51100000000E-03 0. -1.
    9900012    2    1    2    0    0 -0.24523783793E+02  0.32426008158E+02 -0.55171187559E+00  0.50528851429E+02  0.29999974402E+02 0.  0.
         12    1    1    2    0    0  0.24523783793E+02 -0.32426008158E+02  0.55171187559E+00  0.40659148571E+02  0.00000000000E+00 0. -1.
         11    1    3    3    0    0 -0.30468284578E+01  0.20280785151E+01 -0.10615296629E+02  0.11228570207E+02  0.51100000000E-03 0. -1.
        -11    1    3    3    0    0 -0.16115857736E+02  0.26890363518E+02  0.66744095243E+01  0.32052461114E+02  0.51100000000E-03 0.  1.
        -12    1    3    3    0    0 -0.53610975987E+01  0.35075661244E+01  0.33891752287E+01  0.72478201075E+01  0.00000000000E+00 0.  1.
</event>
<event>
 7    1  0.5910662E-013  0.5052886E+02  0.7816164E-02  0.1300439E+00
        -11   -1    0    0    0    0  0.00000000000E+00  0.00000000000E+00  0.45593999997E+02  0.45594000000E+02  0.51100000000E-03 0.  1.
         11   -1    0    0    0    0 -0.00000000000E+00 -0.00000000000E+00 -0.45593999997E+02  0.45594000000E+02  0.51100000000E-03 0. -1.
    9900012    2    1    2    0    0  0.18515879029E+02 -0.44014769414E+01  0.35929862204E+02  0.50528858673E+02  0.29999996421E+02 0.  0.
         12    1    1    2    0    0 -0.18515879029E+02  0.44014769414E+01 -0.35929862204E+02  0.40659141327E+02  0.00000000000E+00 0. -1.
         11    1    3    3    0    0  0.28702091872E+01 -0.11362383518E+02  0.12641956017E+02  0.17238355843E+02  0.51100000000E-03 0.  1.
        -11    1    3    3    0    0  0.51584471869E+01  0.71909334645E+01  0.13214165758E+01  0.89479183892E+01  0.51100000000E-03 0. -1.
        -12    1    3    3    0    0  0.10487222655E+02 -0.23002688827E+00  0.21966489611E+02  0.24342584440E+02  0.00000000000E+00 0.  1.
</event>
<event>
 7    1  0.5910662E-013  0.5052887E+02  0.7816164E-02  0.1300439E+00
        -11   -1    0    0    0    0  0.00000000000E+00  0.00000000000E+00  0.45593999997E+02  0.45594000000E+02  0.51100000000E-03 0. -1.
         11   -1    0    0    0    0 -0.00000000000E+00 -0.00000000000E+00 -0.45593999997E+02  0.45594000000E+02  0.51100000000E-03 0.  1.
    9900012    2    1    2    0    0 -0.34179710419E+02 -0.27606600097E+01 -0.21846982192E+02  0.50528874592E+02  0.30000044811E+02 0.  0.
         12    1    1    2    0    0  0.34179710419E+02  0.27606600097E+01  0.21846982192E+02  0.40659125408E+02  0.00000000000E+00 0. -1.
         11    1    3    3    0    0 -0.59619518577E+01 -0.11677374445E+02 -0.34746771970E+01  0.13563897883E+02  0.51100000000E-03 0. -1.
        -11    1    3    3    0    0 -0.21967263242E+02  0.18490884660E+01 -0.94696117744E+01  0.23992776620E+02  0.51100000000E-03 0.  1.
         12    1    3    3    0    0 -0.62504953191E+01  0.70676259697E+01 -0.89026932204E+01  0.12972200089E+02  0.00000000000E+00 0. -1.
</event>
<event>
 7    1  0.5910662E-013  0.5052885E+02  0.7816164E-02  0.1300439E+00
        -11   -1    0    0    0    0  0.00000000000E+00  0.00000000000E+00  0.45593999997E+02  0.45594000000E+02  0.51100000000E-03 0.  1.
         11   -1    0    0    0    0 -0.00000000000E+00 -0.00000000000E+00 -0.45593999997E+02  0.45594000000E+02  0.51100000000E-03 0. -1.
    9900012    2    1    2    0    0  0.23366836665E+02 -0.23069966382E+02  0.23977780627E+02  0.50528851357E+02  0.29999974183E+02 0.  0.
         12    1    1    2    0    0 -0.23366836665E+02  0.23069966382E+02 -0.23977780627E+02  0.40659148643E+02  0.00000000000E+00 0. -1.
         11    1    3    3    0    0  0.18332851323E+02 -0.38525253029E+01  0.47366739102E+01  0.19322822486E+02  0.51100000000E-03 0. -1.
        -11    1    3    3    0    0  0.54891570345E+01 -0.20487094637E+02  0.20399763135E+02  0.29427915792E+02  0.51100000000E-03 0.  1.
         12    1    3    3    0    0 -0.45517169195E+00  0.12696535574E+01 -0.11586564185E+01  0.17781130789E+01  0.00000000000E+00 0. -1.
</event>
<event>
 7    1  0.5910662E-013  0.5052885E+02  0.7816164E-02  0.1300439E+00
        -11   -1    0    0    0    0  0.00000000000E+00  0.00000000000E+00  0.45593999997E+02  0.45594000000E+02  0.51100000000E-03 0.  1.
         11   -1    0    0    0    0 -0.00000000000E+00 -0.00000000000E+00 -0.45593999997E+02  0.45594000000E+02  0.51100000000E-03 0. -1.
    9900012    2    1    2    0    0 -0.10517834873E+02  0.38026916282E+02  0.98231929759E+01  0.50528851798E+02  0.29999975524E+02 0.  0.
         12    1    1    2    0    0  0.10517834873E+02 -0.38026916282E+02 -0.98231929759E+01  0.40659148202E+02  0.00000000000E+00 0. -1.
         11    1    3    3    0    0  0.86635102722E+01  0.58521512497E+01  0.42400199683E+01  0.11281925991E+02  0.51100000000E-03 0. -1.
        -11    1    3    3    0    0 -0.14972393246E+02  0.15115843642E+02  0.28893727577E+01  0.21471137923E+02  0.51100000000E-03 0.  1.
         12    1    3    3    0    0 -0.42089518984E+01  0.17058921390E+02  0.26938002499E+01  0.17775787883E+02  0.00000000000E+00 0. -1.
</event>
<event>
 7    1  0.5910662E-013  0.5052886E+02  0.7816164E-02  0.1300439E+00
        -11   -1    0    0    0    0  0.00000000000E+00  0.00000000000E+00  0.45593999997E+02  0.45594000000E+02  0.51100000000E-03 0.  1.
         11   -1    0    0    0    0 -0.00000000000E+00 -0.00000000000E+00 -0.45593999997E+02  0.45594000000E+02  0.51100000000E-03 0. -1.
    9900012    2    1    2    0    0 -0.32102069218E+02 -0.24757341563E+02 -0.31139770194E+01  0.50528860041E+02  0.30000000580E+02 0.  0.
         12    1    1    2    0    0  0.32102069218E+02  0.24757341563E+02  0.31139770194E+01  0.40659139959E+02  0.00000000000E+00 0. -1.
         11    1    3    3    0    0  0.30084152889E+01 -0.30805018751E+01  0.49225507581E+00  0.43338631351E+01  0.51100000000E-03 0. -1.
        -11    1    3    3    0    0 -0.25733663337E+02 -0.25133588955E+02 -0.40049963620E+01  0.36193351856E+02  0.51100000000E-03 0.  1.
        -12    1    3    3    0    0 -0.93768211701E+01  0.34567492671E+01  0.39876426677E+00  0.10001645049E+02  0.00000000000E+00 0.  1.
</event>
<event>
 7    1  0.5910662E-013  0.5052887E+02  0.7816164E-02  0.1300439E+00
        -11   -1    0    0    0    0  0.00000000000E+00  0.00000000000E+00  0.45593999997E+02  0.45594000000E+02  0.51100000000E-03 0. -1.
         11   -1    0    0    0    0 -0.00000000000E+00 -0.00000000000E+00 -0.45593999997E+02  0.45594000000E+02  0.51100000000E-03 0.  1.
    9900012    2    1    2    0    0 -0.28562802318E+02  0.17514976299E+02 -0.23033826958E+02  0.50528865044E+02  0.30000015788E+02 0.  0.
         12    1    1    2    0    0  0.28562802318E+02 -0.17514976299E+02  0.23033826958E+02  0.40659134956E+02  0.00000000000E+00 0. -1.
         11    1    3    3    0    0 -0.18751253263E+02  0.15228050215E+02 -0.86170016533E+01  0.25646748917E+02  0.51100000000E-03 0. -1.
        -11    1    3    3    0    0 -0.85200251082E+01 -0.61393078012E+01 -0.12153664520E+02  0.16062175745E+02  0.51100000000E-03 0.  1.
         12    1    3    3    0    0 -0.12915239470E+01  0.84262338858E+01 -0.22631607846E+01  0.88199403819E+01  0.00000000000E+00 0. -1.
</event>
<event>
 7    1  0.5910662E-013  0.5052886E+02  0.7816164E-02  0.1300439E+00
        -11   -1    0    0    0    0  0.00000000000E+00  0.00000000000E+00  0.45593999997E+02  0.45594000000E+02  0.51100000000E-03 0.  1.
         11   -1    0    0    0    0 -0.00000000000E+00 -0.00000000000E+00 -0.45593999997E+02  0.45594000000E+02  0.51100000000E-03 0. -1.
    9900012    2    1    2    0    0 -0.38001624825E+02  0.79606546904E+01 -0.12069390833E+02  0.50528859484E+02  0.29999998888E+02 0.  0.
         12    1    1    2    0    0  0.38001624825E+02 -0.79606546904E+01  0.12069390833E+02  0.40659140516E+02  0.00000000000E+00 0. -1.
         11    1    3    3    0    0 -0.24699755654E+02  0.14180573815E+02 -0.12597407736E+02  0.31142595990E+02  0.51100000000E-03 0. -1.
        -11    1    3    3    0    0 -0.78419584532E+01 -0.19259127257E+01  0.63897609881E+01  0.10297305374E+02  0.51100000000E-03 0.  1.
        -12    1    3    3    0    0 -0.54599107175E+01 -0.42940063989E+01 -0.58617440845E+01  0.90889581201E+01  0.00000000000E+00 0.  1.
</event>
<event>
 7    1  0.5910662E-013  0.5052886E+02  0.7816164E-02  0.1300439E+00
        -11   -1    0    0    0    0  0.00000000000E+00  0.00000000000E+00  0.45593999997E+02  0.45594000000E+02  0.51100000000E-03 0. -1.
         11   -1    0    0    0    0 -0.00000000000E+00 -0.00000000000E+00 -0.45593999997E+02  0.45594000000E+02  0.51100000000E-03 0.  1.
    9900012    2    1    2    0    0  0.21295558521E+02 -0.32757726597E+02 -0.11251485905E+02  0.50528863270E+02  0.30000010396E+02 0.  0.
         12    1    1    2    0    0 -0.21295558521E+02  0.32757726597E+02  0.11251485905E+02  0.40659136730E+02  0.00000000000E+00 0. -1.
         11    1    3    3    0    0  0.87588902191E+01  0.32998127705E+01  0.51420384672E+00  0.93739707727E+01  0.51100000000E-03 0. -1.
        -11    1    3    3    0    0  0.17864614311E+01 -0.16144450392E+02 -0.83675924516E+01  0.18271598906E+02  0.51100000000E-03 0.  1.
        -12    1    3    3    0    0  0.10750206870E+02 -0.19913088976E+02 -0.33980973005E+01  0.22883293591E+02  0.00000000000E+00 0.  1.
</event>
<event>
 7    1  0.5910662E-013  0.5052895E+02  0.7816164E-02  0.1300438E+00
        -11   -1    0    0    0    0  0.00000000000E+00  0.00000000000E+00  0.45593999997E+02  0.45594000000E+02  0.51100000000E-03 0.  1.
         11   -1    0    0    0    0 -0.00000000000E+00 -0.00000000000E+00 -0.45593999997E+02  0.45594000000E+02  0.51100000000E-03 0. -1.
    9900012    2    1    2    0    0 -0.13210098829E+02  0.63754233860E+00  0.38447953410E+02  0.50528950666E+02  0.30000276043E+02 0.  0.
         12    1    1    2    0    0  0.13210098829E+02 -0.63754233860E+00 -0.38447953410E+02  0.40659049334E+02  0.00000000000E+00 0. -1.
         11    1    3    3    0    0  0.31303184187E+01 -0.30177791455E+01 -0.23744283044E+01  0.49541693963E+01  0.51100000000E-03 0. -1.
        -11    1    3    3    0    0 -0.97900794894E+01  0.56266797318E+01  0.14500247236E+02  0.18378311984E+02  0.51100000000E-03 0.  1.
         12    1    3    3    0    0 -0.65503377579E+01 -0.19713582477E+01  0.26322134479E+02  0.27196469286E+02  0.00000000000E+00 0. -1.
</event>
<event>
 7    1  0.5910662E-013  0.5052886E+02  0.7816164E-02  0.1300439E+00
        -11   -1    0    0    0    0  0.00000000000E+00  0.00000000000E+00  0.45593999997E+02  0.45594000000E+02  0.51100000000E-03 0. -1.
         11   -1    0    0    0    0 -0.00000000000E+00 -0.00000000000E+00 -0.45593999997E+02  0.45594000000E+02  0.51100000000E-03 0.  1.
    9900012    2    1    2    0    0 -0.39355792198E+01  0.37719783264E+02 -0.14659281910E+02  0.50528863519E+02  0.30000011152E+02 0.  0.
         12    1    1    2    0    0  0.39355792198E+01 -0.37719783264E+02  0.14659281910E+02  0.40659136481E+02  0.00000000000E+00 0. -1.
         11    1    3    3    0    0  0.25376857593E+00  0.68321085595E+01  0.33820021091E+01  0.76275844398E+01  0.51100000000E-03 0. -1.
        -11    1    3    3    0    0 -0.18890865844E+01  0.33742144595E+02 -0.19428510501E+02  0.38981636581E+02  0.51100000000E-03 0.  1.
        -12    1    3    3    0    0 -0.23002612113E+01 -0.28544698909E+01  0.13872264813E+01  0.39196424976E+01  0.00000000000E+00 0.  1.
</event>
<event>
 7    1  0.5910662E-013  0.5052888E+02  0.7816164E-02  0.1300439E+00
        -11   -1    0    0    0    0  0.00000000000E+00  0.00000000000E+00  0.45593999997E+02  0.45594000000E+02  0.51100000000E-03 0. -1.
         11   -1    0    0    0    0 -0.00000000000E+00 -0.00000000000E+00 -0.45593999997E+02  0.45594000000E+02  0.51100000000E-03 0.  1.
    9900012    2    1    2    0    0  0.17468913505E+02 -0.36494172966E+02  0.40219666516E+01  0.50528882753E+02  0.30000069616E+02 0.  0.
         12    1    1    2    0    0 -0.17468913505E+02  0.36494172966E+02 -0.40219666516E+01  0.40659117247E+02  0.00000000000E+00 0. -1.
         11    1    3    3    0    0  0.71728237096E+01 -0.28535139999E+02  0.32389555728E+01  0.29600581889E+02  0.51100000000E-03 0. -1.
        -11    1    3    3    0    0  0.36200296550E+01  0.49239677551E+01 -0.13596978596E+01  0.62608986325E+01  0.51100000000E-03 0.  1.
        -12    1    3    3    0    0  0.66760601404E+01 -0.12883000723E+02  0.21427089384E+01  0.14667402231E+02  0.00000000000E+00 0.  1.
</event>
<event>
 7    1  0.5910662E-013  0.5052885E+02  0.7816164E-02  0.1300439E+00
        -11   -1    0    0    0    0  0.00000000000E+00  0.00000000000E+00  0.45593999997E+02  0.45594000000E+02  0.51100000000E-03 0.  1.
         11   -1    0    0    0    0 -0.00000000000E+00 -0.00000000000E+00 -0.45593999997E+02  0.45594000000E+02  0.51100000000E-03 0. -1.
    9900012    2    1    2    0    0  0.22888577285E+02 -0.33525896874E+02 -0.23007727254E+01  0.50528852364E+02  0.29999977245E+02 0.  0.
         12    1    1    2    0    0 -0.22888577285E+02  0.33525896874E+02  0.23007727254E+01  0.40659147636E+02  0.00000000000E+00 0. -1.
         11    1    3    3    0    0  0.63481628893E+01 -0.21232638901E+01  0.46417464317E+01  0.81457493095E+01  0.51100000000E-03 0. -1.
        -11    1    3    3    0    0 -0.22606119960E+01 -0.12144703987E+02 -0.91590349993E+01  0.15378300423E+02  0.51100000000E-03 0.  1.
        -12    1    3    3    0    0  0.18801026392E+02 -0.19257928997E+02  0.22165158422E+01  0.27004802631E+02  0.00000000000E+00 0.  1.
</event>
<event>
 7    1  0.5910662E-013  0.5052884E+02  0.7816164E-02  0.1300439E+00
        -11   -1    0    0    0    0  0.00000000000E+00  0.00000000000E+00  0.45593999997E+02  0.45594000000E+02  0.51100000000E-03 0.  1.
         11   -1    0    0    0    0 -0.00000000000E+00 -0.00000000000E+00 -0.45593999997E+02  0.45594000000E+02  0.51100000000E-03 0. -1.
    9900012    2    1    2    0    0 -0.33340680640E+02  0.22960550748E+02  0.37919944887E+01  0.50528842380E+02  0.29999946898E+02 0.  0.
         12    1    1    2    0    0  0.33340680640E+02 -0.22960550748E+02 -0.37919944887E+01  0.40659157620E+02  0.00000000000E+00 0. -1.
         11    1    3    3    0    0 -0.89165151242E+01 -0.49222302255E+00 -0.66132685305E+01  0.11112238586E+02  0.51100000000E-03 0. -1.
        -11    1    3    3    0    0 -0.12384803883E+02  0.22643478026E+02  0.86671137965E+01  0.27225527106E+02  0.51100000000E-03 0.  1.
        -12    1    3    3    0    0 -0.12039361632E+02  0.80929574398E+00  0.17381492227E+01  0.12191076689E+02  0.00000000000E+00 0.  1.
</event>
<event>
 7    1  0.5910662E-013  0.5052886E+02  0.7816164E-02  0.1300439E+00
        -11   -1    0    0    0    0  0.00000000000E+00  0.00000000000E+00  0.45593999997E+02  0.45594000000E+02  0.51100000000E-03 0.  1.
         11   -1    0    0    0    0 -0.00000000000E+00 -0.00000000000E+00 -0.45593999997E+02  0.45594000000E+02  0.51100000000E-03 0. -1.
    9900012    2    1    2    0    0  0.16413260716E+02 -0.22011761612E+02  0.29987546478E+02  0.50528859326E+02  0.29999998406E+02 0.  0.
         12    1    1    2    0    0 -0.16413260716E+02  0.22011761612E+02 -0.29987546478E+02  0.40659140674E+02  0.00000000000E+00 0. -1.
         11    1    3    3    0    0 -0.52898552077E+01 -0.48450129985E+01  0.38439426055E+01  0.81383422200E+01  0.51100000000E-03 0. -1.
        -11    1    3    3    0    0  0.21855649396E+02 -0.19946295312E+02  0.20198666573E+02  0.35826111131E+02  0.51100000000E-03 0.  1.
         12    1    3    3    0    0 -0.15253347242E+00  0.27795466979E+01  0.59449373000E+01  0.65644059752E+01  0.00000000000E+00 0. -1.
</event>
<event>
 7    1  0.5910662E-013  0.5052884E+02  0.7816164E-02  0.1300439E+00
        -11   -1    0    0    0    0  0.00000000000E+00  0.00000000000E+00  0.45593999997E+02  0.45594000000E+02  0.51100000000E-03 0.  1.
         11   -1    0    0    0    0 -0.00000000000E+00 -0.00000000000E+00 -0.45593999997E+02  0.45594000000E+02  0.51100000000E-03 0. -1.
    9900012    2    1    2    0    0  0.26507671103E+02  0.24952792131E+02  0.18107150559E+02  0.50528839116E+02  0.29999936976E+02 0.  0.
         12    1    1    2    0    0 -0.26507671103E+02 -0.24952792131E+02 -0.18107150559E+02  0.40659160884E+02  0.00000000000E+00 0. -1.
         11    1    3    3    0    0  0.68099649340E+01  0.11938943558E+02  0.43873620622E+01  0.14427852987E+02  0.51100000000E-03 0. -1.
        -11    1    3    3    0    0  0.95408012718E+01 -0.50681510788E+01  0.10587512695E+02  0.15126416284E+02  0.51100000000E-03 0.  1.
        -12    1    3    3    0    0  0.10156904897E+02  0.18081999652E+02  0.31322758021E+01  0.20974569846E+02  0.00000000000E+00 0.  1.
</event>
<event>
 7    1  0.5910662E-013  0.5052888E+02  0.7816164E-02  0.1300439E+00
        -11   -1    0    0    0    0  0.00000000000E+00  0.00000000000E+00  0.45593999997E+02  0.45594000000E+02  0.51100000000E-03 0.  1.
         11   -1    0    0    0    0 -0.00000000000E+00 -0.00000000000E+00 -0.45593999997E+02  0.45594000000E+02  0.51100000000E-03 0. -1.
    9900012    2    1    2    0    0  0.86758858422E+01 -0.34450448498E+02  0.19775227185E+02  0.50528880394E+02  0.30000062446E+02 0.  0.
         12    1    1    2    0    0 -0.86758858422E+01  0.34450448498E+02 -0.19775227185E+02  0.40659119606E+02  0.00000000000E+00 0. -1.
         11    1    3    3    0    0 -0.34181504048E+01 -0.12159478999E+00  0.10110717013E+00  0.34218065994E+01  0.51100000000E-03 0. -1.
        -11    1    3    3    0    0  0.13043443429E+02 -0.25373540763E+02  0.23845170901E+02  0.37182524967E+02  0.51100000000E-03 0.  1.
        -12    1    3    3    0    0 -0.94940718178E+00 -0.89553129451E+01 -0.41710508861E+01  0.99245488278E+01  0.00000000000E+00 0.  1.
</event>
<event>
 7    1  0.5910662E-013  0.5052886E+02  0.7816164E-02  0.1300439E+00
        -11   -1    0    0    0    0  0.00000000000E+00  0.00000000000E+00  0.45593999997E+02  0.45594000000E+02  0.51100000000E-03 0.  1.
         11   -1    0    0    0    0 -0.00000000000E+00 -0.00000000000E+00 -0.45593999997E+02  0.45594000000E+02  0.51100000000E-03 0. -1.
    9900012    2    1    2    0    0 -0.37305002598E+00 -0.21621696425E+02  0.34431510965E+02  0.50528857486E+02  0.29999992815E+02 0.  0.
         12    1    1    2    0    0  0.37305002598E+00  0.21621696425E+02 -0.34431510965E+02  0.40659142514E+02  0.00000000000E+00 0. -1.
         11    1    3    3    0    0  0.53515267559E+01 -0.17631185293E+02  0.12331423183E+02  0.22171186965E+02  0.51100000000E-03 0. -1.
        -11    1    3    3    0    0 -0.30867515064E+00 -0.41238061503E+01  0.22545716114E+02  0.22921831796E+02  0.51100000000E-03 0.  1.
         12    1    3    3    0    0 -0.54159016312E+01  0.13329501870E+00 -0.44562833163E+00  0.54358387256E+01  0.00000000000E+00 0. -1.
</event>
<event>
 7    1  0.5910662E-013  0.5052885E+02  0.7816164E-02  0.1300439E+00
        -11   -1    0    0    0    0  0.00000000000E+00  0.00000000000E+00  0.45593999997E+02  0.45594000000E+02  0.51100000000E-03 0.  1.
         11   -1    0    0    0    0 -0.00000000000E+00 -0.00000000000E+00 -0.45593999997E+02  0.45594000000E+02  0.51100000000E-03 0. -1.
    9900012    2    1    2    0    0  0.55633612104E+01 -0.21041587779E+02  0.34343365396E+02  0.50528854031E+02  0.29999982312E+02 0.  0.
         12    1    1    2    0    0 -0.55633612104E+01  0.21041587779E+02 -0.34343365396E+02  0.40659145969E+02  0.00000000000E+00 0. -1.
         11    1    3    3    0    0 -0.59863342084E+01 -0.68808717465E+01  0.31149465884E+01  0.96377116452E+01  0.51100000000E-03 0. -1.
        -11    1    3    3    0    0  0.15829376386E+02 -0.14676746941E+02  0.22640547637E+02  0.31282110784E+02  0.51100000000E-03 0.  1.
        -12    1    3    3    0    0 -0.42796809674E+01  0.51603090837E+00  0.85878711701E+01  0.96090316013E+01  0.00000000000E+00 0.  1.
</event>
<event>
 7    1  0.5910662E-013  0.5052882E+02  0.7816164E-02  0.1300439E+00
        -11   -1    0    0    0    0  0.00000000000E+00  0.00000000000E+00  0.45593999997E+02  0.45594000000E+02  0.51100000000E-03 0. -1.
         11   -1    0    0    0    0 -0.00000000000E+00 -0.00000000000E+00 -0.45593999997E+02  0.45594000000E+02  0.51100000000E-03 0.  1.
    9900012    2    1    2    0    0 -0.15477116448E+02 -0.14959896411E+02 -0.34493896260E+02  0.50528824979E+02  0.29999894007E+02 0.  0.
         12    1    1    2    0    0  0.15477116448E+02  0.14959896411E+02  0.34493896260E+02  0.40659175021E+02  0.00000000000E+00 0. -1.
         11    1    3    3    0    0 -0.58971234314E+01  0.60618950219E+01  0.41203474577E+00  0.84671369963E+01  0.51100000000E-03 0. -1.
        -11    1    3    3    0    0 -0.63880588229E+01 -0.96963399666E+01 -0.15496162536E+02  0.19363815685E+02  0.51100000000E-03 0.  1.
         12    1    3    3    0    0 -0.31919341939E+01 -0.11325451466E+02 -0.19409768470E+02  0.22697872298E+02  0.00000000000E+00 0. -1.
</event>
<event>
 7    1  0.5910662E-013  0.5052885E+02  0.7816164E-02  0.1300439E+00
        -11   -1    0    0    0    0  0.00000000000E+00  0.00000000000E+00  0.45593999997E+02  0.45594000000E+02  0.51100000000E-03 0. -1.
         11   -1    0    0    0    0 -0.00000000000E+00 -0.00000000000E+00 -0.45593999997E+02  0.45594000000E+02  0.51100000000E-03 0.  1.
    9900012    2    1    2    0    0 -0.96070312501E+01  0.12883901370E+02 -0.37348041042E+02  0.50528854244E+02  0.29999982960E+02 0.  0.
         12    1    1    2    0    0  0.96070312501E+01 -0.12883901370E+02  0.37348041042E+02  0.40659145756E+02  0.00000000000E+00 0. -1.
         11    1    3    3    0    0  0.46576463321E+01  0.68219494378E+01  0.72383001875E+00  0.82919595781E+01  0.51100000000E-03 0. -1.
        -11    1    3    3    0    0 -0.32058794327E+01  0.14095046424E+01 -0.21469330562E+02  0.21753080732E+02  0.51100000000E-03 0.  1.
         12    1    3    3    0    0 -0.11058798149E+02  0.46524472899E+01 -0.16602540498E+02  0.20483813934E+02  0.00000000000E+00 0. -1.
</event>
<event>
 7    1  0.5910662E-013  0.5052886E+02  0.7816164E-02  0.1300439E+00
        -11   -1    0    0    0    0  0.00000000000E+00  0.00000000000E+00  0.45593999997E+02  0.45594000000E+02  0.51100000000E-03 0. -1.
         11   -1    0    0    0    0 -0.00000000000E+00 -0.00000000000E+00 -0.45593999997E+02  0.45594000000E+02  0.51100000000E-03 0.  1.
    9900012    2    1    2    0    0 -0.78033647552E+01 -0.16531136240E+02 -0.36317969295E+02  0.50528857601E+02  0.29999993165E+02 0.  0.
         12    1    1    2    0    0  0.78033647552E+01  0.16531136240E+02  0.36317969295E+02  0.40659142399E+02  0.00000000000E+00 0. -1.
         11    1    3    3    0    0 -0.32767774088E+01 -0.97984172593E+00 -0.46130838149E+01  0.57426389874E+01  0.51100000000E-03 0. -1.
        -11    1    3    3    0    0 -0.14230833924E+02 -0.43823701560E+01 -0.23630220461E+02  0.27930433610E+02  0.51100000000E-03 0.  1.
        -12    1    3    3    0    0  0.97042465772E+01 -0.11168924358E+02 -0.80746650195E+01  0.16855785004E+02  0.00000000000E+00 0.  1.
</event>
<event>
 7    1  0.5910662E-013  0.5052888E+02  0.7816164E-02  0.1300439E+00
        -11   -1    0    0    0    0  0.00000000000E+00  0.00000000000E+00  0.45593999997E+02  0.45594000000E+02  0.51100000000E-03 0.  1.
         11   -1    0    0    0    0 -0.00000000000E+00 -0.00000000000E+00 -0.45593999997E+02  0.45594000000E+02  0.51100000000E-03 0. -1.
    9900012    2    1    2    0    0 -0.49491429232E+01 -0.40164599405E+02  0.39338197358E+01  0.50528880497E+02  0.30000062758E+02 0.  0.
         12    1    1    2    0    0  0.49491429232E+01  0.40164599405E+02 -0.39338197358E+01  0.40659119503E+02  0.00000000000E+00 0. -1.
         11    1    3    3    0    0  0.41523690494E+01 -0.27245933946E+02  0.25212628548E+01  0.27675618366E+02  0.51100000000E-03 0. -1.
        -11    1    3    3    0    0 -0.97855373775E+01 -0.79108860261E+01 -0.59529620950E+01  0.13920367001E+02  0.51100000000E-03 0.  1.
        -12    1    3    3    0    0  0.68402540493E+00 -0.50077794335E+01  0.73655189759E+01  0.89328951295E+01  0.00000000000E+00 0.  1.
</event>
<event>
 7    1  0.5910662E-013  0.5052886E+02  0.7816164E-02  0.1300439E+00
        -11   -1    0    0    0    0  0.00000000000E+00  0.00000000000E+00  0.45593999997E+02  0.45594000000E+02  0.51100000000E-03 0.  1.
         11   -1    0    0    0    0 -0.00000000000E+00 -0.00000000000E+00 -0.45593999997E+02  0.45594000000E+02  0.51100000000E-03 0. -1.
    9900012    2    1    2    0    0  0.58021510478E+01  0.35956635397E+02  0.18072660785E+02  0.50528860146E+02  0.30000000899E+02 0.  0.
         12    1    1    2    0    0 -0.58021510478E+01 -0.35956635397E+02 -0.18072660785E+02  0.40659139854E+02  0.00000000000E+00 0. -1.
         11    1    3    3    0    0  0.14194425983E+02  0.84055217038E+01  0.85311871546E+01  0.18571905628E+02  0.51100000000E-03 0. -1.
        -11    1    3    3    0    0  0.15444618709E+01  0.11489172522E+02  0.41869145814E+01  0.12325449350E+02  0.51100000000E-03 0.  1.
         12    1    3    3    0    0 -0.99367368065E+01  0.16061941171E+02  0.53545590495E+01  0.19631505168E+02  0.00000000000E+00 0. -1.
</event>
<event>
 7    1  0.5910662E-013  0.5052888E+02  0.7816164E-02  0.1300439E+00
        -11   -1    0    0    0    0  0.00000000000E+00  0.00000000000E+00  0.45593999997E+02  0.45594000000E+02  0.51100000000E-03 0. -1.
         11   -1    0    0    0    0 -0.00000000000E+00 -0.00000000000E+00 -0.45593999997E+02  0.45594000000E+02  0.51100000000E-03 0.  1.
    9900012    2    1    2    0    0 -0.24569362196E+02 -0.17576769614E+01 -0.32348430722E+02  0.50528881008E+02  0.30000064312E+02 0.  0.
         12    1    1    2    0    0  0.24569362196E+02  0.17576769614E+01  0.32348430722E+02  0.40659118992E+02  0.00000000000E+00 0. -1.
         11    1    3    3    0    0 -0.16989382863E+02  0.17107247222E+00 -0.18100884468E+01  0.17086392724E+02  0.51100000000E-03 0. -1.
        -11    1    3    3    0    0 -0.72924955686E+01 -0.60099661717E+01 -0.22995817761E+02  0.24861774268E+02  0.51100000000E-03 0.  1.
        -12    1    3    3    0    0 -0.28748376447E+00  0.40812167381E+01 -0.75425245140E+01  0.85807140159E+01  0.00000000000E+00 0.  1.
</event>
<event>
 7    1  0.5910662E-013  0.5052892E+02  0.7816164E-02  0.1300439E+00
        -11   -1    0    0    0    0  0.00000000000E+00  0.00000000000E+00  0.45593999997E+02  0.45594000000E+02  0.51100000000E-03 0. -1.
         11   -1    0    0    0    0 -0.00000000000E+00 -0.00000000000E+00 -0.45593999997E+02  0.45594000000E+02  0.51100000000E-03 0.  1.
    9900012    2    1    2    0    0  0.16316195732E+02 -0.52295406067E+01 -0.36872674317E+02  0.50528924145E+02  0.30000195430E+02 0.  0.
         12    1    1    2    0    0 -0.16316195732E+02  0.52295406067E+01  0.36872674317E+02  0.40659075855E+02  0.00000000000E+00 0. -1.
         11    1    3    3    0    0 -0.66575266068E+01  0.34921368529E+01 -0.15595366570E+02  0.17312802749E+02  0.51100000000E-03 0. -1.
        -11    1    3    3    0    0  0.13012920137E+02 -0.48544057115E+01 -0.16340498986E+02  0.21445588187E+02  0.51100000000E-03 0.  1.
         12    1    3    3    0    0  0.99608022014E+01 -0.38672717481E+01 -0.49368087603E+01  0.11770533208E+02  0.00000000000E+00 0. -1.
</event>
<event>
 7    1  0.5910662E-013  0.5052887E+02  0.7816164E-02  0.1300439E+00
        -11   -1    0    0    0    0  0.00000000000E+00  0.00000000000E+00  0.45593999997E+02  0.45594000000E+02  0.51100000000E-03 0. -1.
         11   -1    0    0    0    0 -0.00000000000E+00 -0.00000000000E+00 -0.45593999997E+02  0.45594000000E+02  0.51100000000E-03 0.  1.
    9900012    2    1    2    0    0  0.14926297043E+02  0.30606562906E+02 -0.22217314282E+02  0.50528867075E+02  0.30000021961E+02 0.  0.
         12    1    1    2    0    0 -0.14926297043E+02 -0.30606562906E+02  0.22217314282E+02  0.40659132925E+02  0.00000000000E+00 0. -1.
         11    1    3    3    0    0  0.14309463342E+02  0.22349692095E+02 -0.95663164092E+01  0.28209641752E+02  0.51100000000E-03 0.  1.
        -11    1    3    3    0    0  0.50706904214E+01 -0.15481438810E+01 -0.98588112601E+01  0.11193963130E+02  0.51100000000E-03 0. -1.
         12    1    3    3    0    0 -0.44538567202E+01  0.98050146920E+01 -0.27921866126E+01  0.11125262193E+02  0.00000000000E+00 0. -1.
</event>
<event>
 7    1  0.5910662E-013  0.5052886E+02  0.7816164E-02  0.1300439E+00
        -11   -1    0    0    0    0  0.00000000000E+00  0.00000000000E+00  0.45593999997E+02  0.45594000000E+02  0.51100000000E-03 0. -1.
         11   -1    0    0    0    0 -0.00000000000E+00 -0.00000000000E+00 -0.45593999997E+02  0.45594000000E+02  0.51100000000E-03 0.  1.
    9900012    2    1    2    0    0 -0.23586567608E+02  0.12324525656E+02  0.30739969793E+02  0.50528857768E+02  0.29999993672E+02 0.  0.
         12    1    1    2    0    0  0.23586567608E+02 -0.12324525656E+02 -0.30739969793E+02  0.40659142232E+02  0.00000000000E+00 0. -1.
         11    1    3    3    0    0 -0.16600670817E+02  0.43335430728E+00  0.11634110150E+02  0.20276158088E+02  0.51100000000E-03 0. -1.
        -11    1    3    3    0    0 -0.19721769843E+01  0.12606217382E+02  0.26455930404E+01  0.13030938629E+02  0.51100000000E-03 0.  1.
        -12    1    3    3    0    0 -0.50137198066E+01 -0.71504603397E+00  0.16460266602E+02  0.17221761052E+02  0.00000000000E+00 0.  1.
</event>
<event>
 7    1  0.5910662E-013  0.5052887E+02  0.7816164E-02  0.1300439E+00
        -11   -1    0    0    0    0  0.00000000000E+00  0.00000000000E+00  0.45593999997E+02  0.45594000000E+02  0.51100000000E-03 0.  1.
         11   -1    0    0    0    0 -0.00000000000E+00 -0.00000000000E+00 -0.45593999997E+02  0.45594000000E+02  0.51100000000E-03 0. -1.
    9900012    2    1    2    0    0 -0.29657766012E+02  0.15064219704E+01  0.27772516564E+02  0.50528867345E+02  0.30000022782E+02 0.  0.
         12    1    1    2    0    0  0.29657766012E+02 -0.15064219704E+01 -0.27772516564E+02  0.40659132655E+02  0.00000000000E+00 0. -1.
         11    1    3    3    0    0  0.16252246753E+01  0.68983194294E+01  0.36497208869E+01  0.79717393967E+01  0.51100000000E-03 0. -1.
        -11    1    3    3    0    0 -0.23478720797E+02 -0.44584465021E+01  0.90431821852E+01  0.25552049229E+02  0.51100000000E-03 0.  1.
        -12    1    3    3    0    0 -0.78042698900E+01 -0.93345095686E+00  0.15079613491E+02  0.17005078720E+02  0.00000000000E+00 0.  1.
</event>
<event>
 7    1  0.5910662E-013  0.5052886E+02  0.7816164E-02  0.1300439E+00
        -11   -1    0    0    0    0  0.00000000000E+00  0.00000000000E+00  0.45593999997E+02  0.45594000000E+02  0.51100000000E-03 0.  1.
         11   -1    0    0    0    0 -0.00000000000E+00 -0.00000000000E+00 -0.45593999997E+02  0.45594000000E+02  0.51100000000E-03 0. -1.
    9900012    2    1    2    0    0 -0.27052921006E+02  0.12000614466E+02  0.27879923246E+02  0.50528863232E+02  0.30000010280E+02 0.  0.
         12    1    1    2    0    0  0.27052921006E+02 -0.12000614466E+02 -0.27879923246E+02  0.40659136768E+02  0.00000000000E+00 0. -1.
         11    1    3    3    0    0 -0.40764542413E+01 -0.10845337255E+01 -0.39097159004E+01  0.57514842664E+01  0.51100000000E-03 0. -1.
        -11    1    3    3    0    0 -0.14176556546E+02  0.16791197273E+02  0.22693343101E+02  0.31589664175E+02  0.51100000000E-03 0.  1.
        -12    1    3    3    0    0 -0.87999102193E+01 -0.37060490810E+01  0.90962960450E+01  0.13187714791E+02  0.00000000000E+00 0.  1.
</event>
<event>
 7    1  0.5910662E-013  0.5052888E+02  0.7816164E-02  0.1300439E+00
        -11   -1    0    0    0    0  0.00000000000E+00  0.00000000000E+00  0.45593999997E+02  0.45594000000E+02  0.51100000000E-03 0.  1.
         11   -1    0    0    0    0 -0.00000000000E+00 -0.00000000000E+00 -0.45593999997E+02  0.45594000000E+02  0.51100000000E-03 0. -1.
    9900012    2    1    2    0    0 -0.19409730469E+02  0.27535135387E+02  0.22764953605E+02  0.50528875190E+02  0.30000046629E+02 0.  0.
         12    1    1    2    0    0  0.19409730469E+02 -0.27535135387E+02 -0.22764953605E+02  0.40659124810E+02  0.00000000000E+00 0. -1.
         11    1    3    3    0    0 -0.60950175450E+01  0.42616803870E+01  0.16239593028E+02  0.17861566017E+02  0.51100000000E-03 0. -1.
        -11    1    3    3    0    0 -0.14613646187E+02  0.23181202763E+02  0.98320066560E+01  0.29113487795E+02  0.51100000000E-03 0.  1.
         12    1    3    3    0    0  0.12989332629E+01  0.92252236830E-01 -0.33066460795E+01  0.35538213787E+01  0.00000000000E+00 0. -1.
</event>
<event>
 7    1  0.5910662E-013  0.5052888E+02  0.7816164E-02  0.1300439E+00
        -11   -1    0    0    0    0  0.00000000000E+00  0.00000000000E+00  0.45593999997E+02  0.45594000000E+02  0.51100000000E-03 0.  1.
         11   -1    0    0    0    0 -0.00000000000E+00 -0.00000000000E+00 -0.45593999997E+02  0.45594000000E+02  0.51100000000E-03 0. -1.
    9900012    2    1    2    0    0 -0.79929282285E+01 -0.13637470746E+02  0.37460595222E+02  0.50528884117E+02  0.30000073762E+02 0.  0.
         12    1    1    2    0    0  0.79929282285E+01  0.13637470746E+02 -0.37460595222E+02  0.40659115883E+02  0.00000000000E+00 0. -1.
         11    1    3    3    0    0 -0.12944137112E+02 -0.15956549467E+02  0.14668437417E+02  0.25245300810E+02  0.51100000000E-03 0. -1.
        -11    1    3    3    0    0  0.24779966751E+01  0.19192112316E+01  0.22549773030E+02  0.22766556684E+02  0.51100000000E-03 0.  1.
        -12    1    3    3    0    0  0.24732122086E+01  0.39986749010E+00  0.24238477408E+00  0.25170266223E+01  0.00000000000E+00 0.  1.
</event>
<event>
 7    1  0.5910662E-013  0.5052889E+02  0.7816164E-02  0.1300439E+00
        -11   -1    0    0    0    0  0.00000000000E+00  0.00000000000E+00  0.45593999997E+02  0.45594000000E+02  0.51100000000E-03 0.  1.
         11   -1    0    0    0    0 -0.00000000000E+00 -0.00000000000E+00 -0.45593999997E+02  0.45594000000E+02  0.51100000000E-03 0. -1.
    9900012    2    1    2    0    0  0.54403008612E+01 -0.14964706694E+02  0.37411550711E+02  0.50528887288E+02  0.30000083401E+02 0.  0.
         12    1    1    2    0    0 -0.54403008612E+01  0.14964706694E+02 -0.37411550711E+02  0.40659112712E+02  0.00000000000E+00 0. -1.
         11    1    3    3    0    0 -0.39525228313E+01 -0.10262204587E+02  0.23673447268E+01  0.11248982223E+02  0.51100000000E-03 0. -1.
        -11    1    3    3    0    0 -0.13483672272E+01 -0.21311393420E+01  0.22188388359E+02  0.22331243299E+02  0.51100000000E-03 0.  1.
         12    1    3    3    0    0  0.10741190920E+02 -0.25713627646E+01  0.12855817626E+02  0.16948661766E+02  0.00000000000E+00 0. -1.
</event>
<event>
 7    1  0.5910662E-013  0.5052886E+02  0.7816164E-02  0.1300439E+00
        -11   -1    0    0    0    0  0.00000000000E+00  0.00000000000E+00  0.45593999997E+02  0.45594000000E+02  0.51100000000E-03 0. -1.
         11   -1    0    0    0    0 -0.00000000000E+00 -0.00000000000E+00 -0.45593999997E+02  0.45594000000E+02  0.51100000000E-03 0.  1.
    9900012    2    1    2    0    0  0.41322645096E+01  0.18065442650E+02 -0.36190190988E+02  0.50528858938E+02  0.29999997229E+02 0.  0.
         12    1    1    2    0    0 -0.41322645096E+01 -0.18065442650E+02  0.36190190988E+02  0.40659141062E+02  0.00000000000E+00 0. -1.
         11    1    3    3    0    0  0.42672306603E+00  0.26426600191E+01  0.46624416364E+01  0.53762539770E+01  0.51100000000E-03 0. -1.
        -11    1    3    3    0    0  0.56613978639E+01  0.10126344554E+02 -0.16605329807E+02  0.20256634914E+02  0.51100000000E-03 0.  1.
         12    1    3    3    0    0 -0.19558564203E+01  0.52964380771E+01 -0.24247302818E+02  0.24895970047E+02  0.00000000000E+00 0. -1.
</event>
<event>
 7    1  0.5910662E-013  0.5052873E+02  0.7816164E-02  0.1300439E+00
        -11   -1    0    0    0    0  0.00000000000E+00  0.00000000000E+00  0.45593999997E+02  0.45594000000E+02  0.51100000000E-03 0.  1.
         11   -1    0    0    0    0 -0.00000000000E+00 -0.00000000000E+00 -0.45593999997E+02  0.45594000000E+02  0.51100000000E-03 0. -1.
    9900012    2    1    2    0    0 -0.29444701534E+02  0.23635080698E+02 -0.15085394899E+02  0.50528725200E+02  0.29999590714E+02 0.  0.
         12    1    1    2    0    0  0.29444701534E+02 -0.23635080698E+02  0.15085394899E+02  0.40659274800E+02  0.00000000000E+00 0. -1.
         11    1    3    3    0    0 -0.19740620565E+02  0.23903149219E+01  0.14486850755E+01  0.19937512242E+02  0.51100000000E-03 0. -1.
        -11    1    3    3    0    0 -0.11097291008E+02  0.11858868284E+02 -0.10801320006E+02  0.19505156724E+02  0.51100000000E-03 0.  1.
         12    1    3    3    0    0  0.13932100388E+01  0.93858974923E+01 -0.57327599690E+01  0.11086056233E+02  0.00000000000E+00 0. -1.
</event>
<event>
 7    1  0.5910662E-013  0.5052886E+02  0.7816164E-02  0.1300439E+00
        -11   -1    0    0    0    0  0.00000000000E+00  0.00000000000E+00  0.45593999997E+02  0.45594000000E+02  0.51100000000E-03 0.  1.
         11   -1    0    0    0    0 -0.00000000000E+00 -0.00000000000E+00 -0.45593999997E+02  0.45594000000E+02  0.51100000000E-03 0. -1.
    9900012    2    1    2    0    0 -0.40447951833E+02 -0.24409454610E+01  0.33423004871E+01  0.50528855951E+02  0.29999988149E+02 0.  0.
         12    1    1    2    0    0  0.40447951833E+02  0.24409454610E+01 -0.33423004871E+01  0.40659144049E+02  0.00000000000E+00 0. -1.
         11    1    3    3    0    0 -0.79824091615E+01  0.68887422576E+01  0.68212711799E+01  0.12558000107E+02  0.51100000000E-03 0. -1.
        -11    1    3    3    0    0 -0.30567868580E+02 -0.43610975470E+01 -0.69105464736E+01  0.31641261261E+02  0.51100000000E-03 0.  1.
        -12    1    3    3    0    0 -0.18976740916E+01 -0.49685901716E+01  0.34315757808E+01  0.63295945834E+01  0.00000000000E+00 0.  1.
</event>
<event>
 7    1  0.5910662E-013  0.5052888E+02  0.7816164E-02  0.1300439E+00
        -11   -1    0    0    0    0  0.00000000000E+00  0.00000000000E+00  0.45593999997E+02  0.45594000000E+02  0.51100000000E-03 0. -1.
         11   -1    0    0    0    0 -0.00000000000E+00 -0.00000000000E+00 -0.45593999997E+02  0.45594000000E+02  0.51100000000E-03 0.  1.
    9900012    2    1    2    0    0 -0.36834142018E+02 -0.17214463627E+02  0.26820643350E+00  0.50528884038E+02  0.30000073521E+02 0.  0.
         12    1    1    2    0    0  0.36834142018E+02  0.17214463627E+02 -0.26820643350E+00  0.40659115962E+02  0.00000000000E+00 0. -1.
         11    1    3    3    0    0 -0.22027868077E+02 -0.11657671714E+02  0.12803759229E+02  0.28019003060E+02  0.51100000000E-03 0. -1.
        -11    1    3    3    0    0 -0.49884021639E+01 -0.38830701364E+01 -0.10633034001E+02  0.12370278985E+02  0.51100000000E-03 0.  1.
        -12    1    3    3    0    0 -0.98178717768E+01 -0.16737217768E+01 -0.19025187940E+01  0.10139601993E+02  0.00000000000E+00 0.  1.
</event>
<event>
 7    1  0.5910662E-013  0.5052887E+02  0.7816164E-02  0.1300439E+00
        -11   -1    0    0    0    0  0.00000000000E+00  0.00000000000E+00  0.45593999997E+02  0.45594000000E+02  0.51100000000E-03 0. -1.
         11   -1    0    0    0    0 -0.00000000000E+00 -0.00000000000E+00 -0.45593999997E+02  0.45594000000E+02  0.51100000000E-03 0.  1.
    9900012    2    1    2    0    0 -0.13246411303E+02 -0.73910737498E+01 -0.37723596784E+02  0.50528866489E+02  0.30000020179E+02 0.  0.
         12    1    1    2    0    0  0.13246411303E+02  0.73910737498E+01  0.37723596784E+02  0.40659133511E+02  0.00000000000E+00 0. -1.
         11    1    3    3    0    0 -0.12420376586E+02 -0.58057418022E+01 -0.80494170552E+01  0.15898600806E+02  0.51100000000E-03 0. -1.
        -11    1    3    3    0    0  0.72793316102E+01 -0.51007944904E+01 -0.16956367116E+02  0.19144846804E+02  0.51100000000E-03 0.  1.
         12    1    3    3    0    0 -0.81053663274E+01  0.35154625428E+01 -0.12717812612E+02  0.15485418878E+02  0.00000000000E+00 0. -1.
</event>
<event>
 7    1  0.5910662E-013  0.5052886E+02  0.7816164E-02  0.1300439E+00
        -11   -1    0    0    0    0  0.00000000000E+00  0.00000000000E+00  0.45593999997E+02  0.45594000000E+02  0.51100000000E-03 0. -1.
         11   -1    0    0    0    0 -0.00000000000E+00 -0.00000000000E+00 -0.45593999997E+02  0.45594000000E+02  0.51100000000E-03 0.  1.
    9900012    2    1    2    0    0  0.93661476137E+01 -0.24143652435E+01 -0.39491916981E+02  0.50528863420E+02  0.30000010850E+02 0.  0.
         12    1    1    2    0    0 -0.93661476137E+01  0.24143652435E+01  0.39491916981E+02  0.40659136580E+02  0.00000000000E+00 0. -1.
         11    1    3    3    0    0  0.43414709058E+01  0.49752770111E+01  0.11552783408E+01  0.67034632295E+01  0.51100000000E-03 0. -1.
        -11    1    3    3    0    0  0.55503642682E+00  0.17671795708E+01 -0.25516290079E+02  0.25583433091E+02  0.51100000000E-03 0.  1.
         12    1    3    3    0    0  0.44696402812E+01 -0.91568218254E+01 -0.15130905243E+02  0.18241967099E+02  0.00000000000E+00 0. -1.
</event>
<event>
 7    1  0.5910662E-013  0.5052879E+02  0.7816164E-02  0.1300439E+00
        -11   -1    0    0    0    0  0.00000000000E+00  0.00000000000E+00  0.45593999997E+02  0.45594000000E+02  0.51100000000E-03 0. -1.
         11   -1    0    0    0    0 -0.00000000000E+00 -0.00000000000E+00 -0.45593999997E+02  0.45594000000E+02  0.51100000000E-03 0.  1.
    9900012    2    1    2    0    0  0.36793524304E+02 -0.14227842395E+02 -0.98476457976E+01  0.50528793691E+02  0.29999798903E+02 0.  0.
         12    1    1    2    0    0 -0.36793524304E+02  0.14227842395E+02  0.98476457976E+01  0.40659206309E+02  0.00000000000E+00 0. -1.
         11    1    3    3    0    0  0.92015759385E+01 -0.68629389759E+01  0.73714144983E+01  0.13642092329E+02  0.51100000000E-03 0. -1.
        -11    1    3    3    0    0  0.88673830840E+01 -0.58682434133E+01 -0.14387172818E+02  0.17890151075E+02  0.51100000000E-03 0.  1.
         12    1    3    3    0    0  0.18724565281E+02 -0.14966600058E+01 -0.28318874779E+01  0.18996550288E+02  0.00000000000E+00 0. -1.
</event>
<event>
 7    1  0.5910662E-013  0.5052886E+02  0.7816164E-02  0.1300439E+00
        -11   -1    0    0    0    0  0.00000000000E+00  0.00000000000E+00  0.45593999997E+02  0.45594000000E+02  0.51100000000E-03 0. -1.
         11   -1    0    0    0    0 -0.00000000000E+00 -0.00000000000E+00 -0.45593999997E+02  0.45594000000E+02  0.51100000000E-03 0.  1.
    9900012    2    1    2    0    0 -0.14672542002E+02 -0.23712758162E-01 -0.37919407626E+02  0.50528861719E+02  0.30000005681E+02 0.  0.
         12    1    1    2    0    0  0.14672542002E+02  0.23712758162E-01  0.37919407626E+02  0.40659138281E+02  0.00000000000E+00 0. -1.
         11    1    3    3    0    0 -0.23408953381E+01  0.44893069098E+01 -0.22346527305E+01  0.55341973764E+01  0.51100000000E-03 0. -1.
        -11    1    3    3    0    0 -0.14092423760E+02 -0.49142350978E+01 -0.38701026729E+02  0.41479098160E+02  0.51100000000E-03 0.  1.
        -12    1    3    3    0    0  0.17607770960E+01  0.40121542977E+00  0.30162718342E+01  0.35155661821E+01  0.00000000000E+00 0.  1.
</event>
<event>
 7    1  0.5910662E-013  0.5052886E+02  0.7816164E-02  0.1300439E+00
        -11   -1    0    0    0    0  0.00000000000E+00  0.00000000000E+00  0.45593999997E+02  0.45594000000E+02  0.51100000000E-03 0.  1.
         11   -1    0    0    0    0 -0.00000000000E+00 -0.00000000000E+00 -0.45593999997E+02  0.45594000000E+02  0.51100000000E-03 0. -1.
    9900012    2    1    2    0    0 -0.34306475177E+02 -0.19776728186E+02 -0.92256227472E+01  0.50528864103E+02  0.30000012927E+02 0.  0.
         12    1    1    2    0    0  0.34306475177E+02  0.19776728186E+02  0.92256227472E+01  0.40659135897E+02  0.00000000000E+00 0. -1.
         11    1    3    3    0    0 -0.92377072227E+01 -0.48840425047E+01 -0.16338803563E+02  0.19394473647E+02  0.51100000000E-03 0. -1.
        -11    1    3    3    0    0 -0.18188990424E+02 -0.14696402760E+02  0.61941629248E+01  0.24190727176E+02  0.51100000000E-03 0.  1.
         12    1    3    3    0    0 -0.68797775303E+01 -0.19628292187E+00  0.91901789128E+00  0.69436632793E+01  0.00000000000E+00 0. -1.
</event>
<event>
 7    1  0.5910662E-013  0.5052886E+02  0.7816164E-02  0.1300439E+00
        -11   -1    0    0    0    0  0.00000000000E+00  0.00000000000E+00  0.45593999997E+02  0.45594000000E+02  0.51100000000E-03 0. -1.
         11   -1    0    0    0    0 -0.00000000000E+00 -0.00000000000E+00 -0.45593999997E+02  0.45594000000E+02  0.51100000000E-03 0.  1.
    9900012    2    1    2    0    0  0.34953020366E+02 -0.20770342344E+02 -0.21226197325E+00  0.50528858236E+02  0.29999995096E+02 0.  0.
         12    1    1    2    0    0 -0.34953020366E+02  0.20770342344E+02  0.21226197325E+00  0.40659141764E+02  0.00000000000E+00 0. -1.
         11    1    3    3    0    0  0.17747189861E+02 -0.41399020127E+01 -0.62646259372E+01  0.19270367797E+02  0.51100000000E-03 0. -1.
        -11    1    3    3    0    0  0.11369301568E+01 -0.11368196949E+02  0.84097535899E+01  0.14186347936E+02  0.51100000000E-03 0.  1.
        -12    1    3    3    0    0  0.16068900349E+02 -0.52622433826E+01 -0.23573896260E+01  0.17072142504E+02  0.00000000000E+00 0.  1.
</event>
<event>
 7    1  0.5910662E-013  0.5052889E+02  0.7816164E-02  0.1300439E+00
        -11   -1    0    0    0    0  0.00000000000E+00  0.00000000000E+00  0.45593999997E+02  0.45594000000E+02  0.51100000000E-03 0.  1.
         11   -1    0    0    0    0 -0.00000000000E+00 -0.00000000000E+00 -0.45593999997E+02  0.45594000000E+02  0.51100000000E-03 0. -1.
    9900012    2    1    2    0    0  0.17174537841E+02  0.31817864967E+02  0.18596296840E+02  0.50528886172E+02  0.30000080009E+02 0.  0.
         12    1    1    2    0    0 -0.17174537841E+02 -0.31817864967E+02 -0.18596296840E+02  0.40659113828E+02  0.00000000000E+00 0. -1.
         11    1    3    3    0    0  0.77215902607E+01 -0.17327320432E+01  0.23835171887E+01  0.82647728909E+01  0.51100000000E-03 0. -1.
        -11    1    3    3    0    0  0.51329112045E+01  0.21808084280E+02  0.19080218750E+02  0.29427777103E+02  0.51100000000E-03 0.  1.
        -12    1    3    3    0    0  0.43200363754E+01  0.11742512730E+02 -0.28674390985E+01  0.12836336178E+02  0.00000000000E+00 0.  1.
</event>
<event>
 7    1  0.5910662E-013  0.5052886E+02  0.7816164E-02  0.1300439E+00
        -11   -1    0    0    0    0  0.00000000000E+00  0.00000000000E+00  0.45593999997E+02  0.45594000000E+02  0.51100000000E-03 0.  1.
         11   -1    0    0    0    0 -0.00000000000E+00 -0.00000000000E+00 -0.45593999997E+02  0.45594000000E+02  0.51100000000E-03 0. -1.
    9900012    2    1    2    0    0 -0.36722333339E+02 -0.14357170528E+02 -0.99250939638E+01  0.50528860786E+02  0.30000002846E+02 0.  0.
         12    1    1    2    0    0  0.36722333339E+02  0.14357170528E+02  0.99250939638E+01  0.40659139214E+02  0.00000000000E+00 0. -1.
         11    1    3    3    0    0 -0.58109026931E+01  0.78806375323E+00 -0.84436882225E+01  0.10280248326E+02  0.51100000000E-03 0. -1.
        -11    1    3    3    0    0 -0.20996122593E+02 -0.52444246575E+01  0.82805440318E+01  0.23171287484E+02  0.51100000000E-03 0.  1.
        -12    1    3    3    0    0 -0.99153080528E+01 -0.99008096235E+01 -0.97619497732E+01  0.17077324977E+02  0.00000000000E+00 0.  1.
</event>
<event>
 7    1  0.5910662E-013  0.5052886E+02  0.7816164E-02  0.1300439E+00
        -11   -1    0    0    0    0  0.00000000000E+00  0.00000000000E+00  0.45593999997E+02  0.45594000000E+02  0.51100000000E-03 0.  1.
         11   -1    0    0    0    0 -0.00000000000E+00 -0.00000000000E+00 -0.45593999997E+02  0.45594000000E+02  0.51100000000E-03 0. -1.
    9900012    2    1    2    0    0  0.22434000309E+02  0.33022430349E+02  0.77071833205E+01  0.50528856492E+02  0.29999989794E+02 0.  0.
         12    1    1    2    0    0 -0.22434000309E+02 -0.33022430349E+02 -0.77071833205E+01  0.40659143508E+02  0.00000000000E+00 0. -1.
         11    1    3    3    0    0  0.10222833524E+02  0.29280799326E+02  0.13976429744E+02  0.34017820669E+02  0.51100000000E-03 0. -1.
        -11    1    3    3    0    0  0.37851591713E+01 -0.26579678086E+01 -0.11983100741E+01  0.47778834350E+01  0.51100000000E-03 0.  1.
         12    1    3    3    0    0  0.84260076137E+01  0.63995988325E+01 -0.50709363490E+01  0.11733152389E+02  0.00000000000E+00 0. -1.
</event>
<event>
 7    1  0.5910662E-013  0.5052886E+02  0.7816164E-02  0.1300439E+00
        -11   -1    0    0    0    0  0.00000000000E+00  0.00000000000E+00  0.45593999997E+02  0.45594000000E+02  0.51100000000E-03 0.  1.
         11   -1    0    0    0    0 -0.00000000000E+00 -0.00000000000E+00 -0.45593999997E+02  0.45594000000E+02  0.51100000000E-03 0. -1.
    9900012    2    1    2    0    0 -0.29803010652E+02  0.13585545878E+02  0.24091051494E+02  0.50528864953E+02  0.30000015510E+02 0.  0.
         12    1    1    2    0    0  0.29803010652E+02 -0.13585545878E+02 -0.24091051494E+02  0.40659135047E+02  0.00000000000E+00 0. -1.
         11    1    3    3    0    0 -0.12363481716E+02  0.15396821339E+02  0.46108498312E+01  0.20277517697E+02  0.51100000000E-03 0. -1.
        -11    1    3    3    0    0 -0.11076304753E+02  0.92233713026E+00  0.20433233070E+02  0.23260529803E+02  0.51100000000E-03 0.  1.
         12    1    3    3    0    0 -0.63632241826E+01 -0.27336125916E+01 -0.95303140723E+00  0.69908174530E+01  0.00000000000E+00 0. -1.
</event>
<event>
 7    1  0.5910662E-013  0.5052886E+02  0.7816164E-02  0.1300439E+00
        -11   -1    0    0    0    0  0.00000000000E+00  0.00000000000E+00  0.45593999997E+02  0.45594000000E+02  0.51100000000E-03 0.  1.
         11   -1    0    0    0    0 -0.00000000000E+00 -0.00000000000E+00 -0.45593999997E+02  0.45594000000E+02  0.51100000000E-03 0. -1.
    9900012    2    1    2    0    0 -0.38543884024E+02  0.34039611002E+01  0.12487905940E+02  0.50528859065E+02  0.29999997614E+02 0.  0.
         12    1    1    2    0    0  0.38543884024E+02 -0.34039611002E+01 -0.12487905940E+02  0.40659140935E+02  0.00000000000E+00 0. -1.
         11    1    3    3    0    0 -0.23644660551E+01 -0.26839591534E+01 -0.37024107619E+01  0.51480270175E+01  0.51100000000E-03 0. -1.
        -11    1    3    3    0    0 -0.37313226231E+02  0.59077057040E+01  0.19042719705E+02  0.42306063543E+02  0.51100000000E-03 0.  1.
        -12    1    3    3    0    0  0.11338082628E+01  0.18021454958E+00 -0.28524030034E+01  0.30747685042E+01  0.00000000000E+00 0.  1.
</event>
<event>
 7    1  0.5910662E-013  0.5052886E+02  0.7816164E-02  0.1300439E+00
        -11   -1    0    0    0    0  0.00000000000E+00  0.00000000000E+00  0.45593999997E+02  0.45594000000E+02  0.51100000000E-03 0.  1.
         11   -1    0    0    0    0 -0.00000000000E+00 -0.00000000000E+00 -0.45593999997E+02  0.45594000000E+02  0.51100000000E-03 0. -1.
    9900012    2    1    2    0    0  0.19782800456E+02  0.19974522933E+01  0.35465705709E+02  0.50528864606E+02  0.30000014456E+02 0.  0.
         12    1    1    2    0    0 -0.19782800456E+02 -0.19974522933E+01 -0.35465705709E+02  0.40659135394E+02  0.00000000000E+00 0. -1.
         11    1    3    3    0    0  0.91524777347E+01  0.79199942410E+01  0.71712277716E+01  0.14068427967E+02  0.51100000000E-03 0. -1.
        -11    1    3    3    0    0 -0.25596722600E+01 -0.17140236982E+01  0.20177613181E+02  0.20411415268E+02  0.51100000000E-03 0.  1.
        -12    1    3    3    0    0  0.13189994981E+02 -0.42085182495E+01  0.81168647569E+01  0.16049021370E+02  0.00000000000E+00 0.  1.
</event>
<event>
 7    1  0.5910662E-013  0.5052890E+02  0.7816164E-02  0.1300439E+00
        -11   -1    0    0    0    0  0.00000000000E+00  0.00000000000E+00  0.45593999997E+02  0.45594000000E+02  0.51100000000E-03 0. -1.
         11   -1    0    0    0    0 -0.00000000000E+00 -0.00000000000E+00 -0.45593999997E+02  0.45594000000E+02  0.51100000000E-03 0.  1.
    9900012    2    1    2    0    0  0.10004906931E+02 -0.36165886940E+02 -0.15655450442E+02  0.50528896845E+02  0.30000112449E+02 0.  0.
         12    1    1    2    0    0 -0.10004906931E+02  0.36165886940E+02  0.15655450442E+02  0.40659103155E+02  0.00000000000E+00 0. -1.
         11    1    3    3    0    0  0.68489296858E+01 -0.80977552471E+01  0.73323937785E+01  0.12893621550E+02  0.51100000000E-03 0. -1.
        -11    1    3    3    0    0  0.11454219275E+01 -0.19519903608E+02 -0.20876338058E+02  0.28603498374E+02  0.51100000000E-03 0.  1.
        -12    1    3    3    0    0  0.20105553174E+01 -0.85482280846E+01 -0.21115061624E+01  0.90317769207E+01  0.00000000000E+00 0.  1.
</event>
<event>
 7    1  0.5910662E-013  0.5052886E+02  0.7816164E-02  0.1300439E+00
        -11   -1    0    0    0    0  0.00000000000E+00  0.00000000000E+00  0.45593999997E+02  0.45594000000E+02  0.51100000000E-03 0. -1.
         11   -1    0    0    0    0 -0.00000000000E+00 -0.00000000000E+00 -0.45593999997E+02  0.45594000000E+02  0.51100000000E-03 0.  1.
    9900012    2    1    2    0    0  0.31753437029E+02  0.11693684018E+02 -0.22542014188E+02  0.50528863109E+02  0.30000009905E+02 0.  0.
         12    1    1    2    0    0 -0.31753437029E+02 -0.11693684018E+02  0.22542014188E+02  0.40659136891E+02  0.00000000000E+00 0. -1.
         11    1    3    3    0    0  0.15497196083E+02 -0.28042425313E+01  0.16004537765E+00  0.15749681818E+02  0.51100000000E-03 0. -1.
        -11    1    3    3    0    0  0.16451362124E+02  0.80448223442E+01 -0.21447858144E+02  0.28202430773E+02  0.51100000000E-03 0.  1.
        -12    1    3    3    0    0 -0.19512117751E+00  0.64531042056E+01 -0.12542014221E+01  0.65767505175E+01  0.00000000000E+00 0.  1.
</event>
<event>
 7    1  0.5910662E-013  0.5052886E+02  0.7816164E-02  0.1300439E+00
        -11   -1    0    0    0    0  0.00000000000E+00  0.00000000000E+00  0.45593999997E+02  0.45594000000E+02  0.51100000000E-03 0.  1.
         11   -1    0    0    0    0 -0.00000000000E+00 -0.00000000000E+00 -0.45593999997E+02  0.45594000000E+02  0.51100000000E-03 0. -1.
    9900012    2    1    2    0    0  0.51746528349E+01  0.15739070870E+02  0.37130447200E+02  0.50528862120E+02  0.30000006901E+02 0.  0.
         12    1    1    2    0    0 -0.51746528349E+01 -0.15739070870E+02 -0.37130447200E+02  0.40659137880E+02  0.00000000000E+00 0. -1.
         11    1    3    3    0    0  0.75780796775E+01 -0.29873465146E+01  0.29017951104E+01  0.86470773051E+01  0.51100000000E-03 0. -1.
        -11    1    3    3    0    0  0.29471374838E+01  0.18535277857E+02  0.27183959227E+02  0.33033464609E+02  0.51100000000E-03 0.  1.
        -12    1    3    3    0    0 -0.53505643264E+01  0.19113952712E+00  0.70446928635E+01  0.88483202061E+01  0.00000000000E+00 0.  1.
</event>
<event>
 7    1  0.5910662E-013  0.5052886E+02  0.7816164E-02  0.1300439E+00
        -11   -1    0    0    0    0  0.00000000000E+00  0.00000000000E+00  0.45593999997E+02  0.45594000000E+02  0.51100000000E-03 0. -1.
         11   -1    0    0    0    0 -0.00000000000E+00 -0.00000000000E+00 -0.45593999997E+02  0.45594000000E+02  0.51100000000E-03 0.  1.
    9900012    2    1    2    0    0 -0.40134421234E+02 -0.29194214274E+01  0.58198662255E+01  0.50528860411E+02  0.30000001704E+02 0.  0.
         12    1    1    2    0    0  0.40134421234E+02  0.29194214274E+01 -0.58198662255E+01  0.40659139589E+02  0.00000000000E+00 0. -1.
         11    1    3    3    0    0 -0.25065353021E+01 -0.78266790045E+01 -0.74241045411E+00  0.82517147917E+01  0.51100000000E-03 0. -1.
        -11    1    3    3    0    0 -0.18222348375E+02  0.11157755959E+02  0.38292601173E+01  0.21707434939E+02  0.51100000000E-03 0.  1.
        -12    1    3    3    0    0 -0.19405537558E+02 -0.62504983820E+01  0.27330165623E+01  0.20569710680E+02  0.00000000000E+00 0.  1.
</event>
<event>
 7    1  0.5910662E-013  0.5052886E+02  0.7816164E-02  0.1300439E+00
        -11   -1    0    0    0    0  0.00000000000E+00  0.00000000000E+00  0.45593999997E+02  0.45594000000E+02  0.51100000000E-03 0. -1.
         11   -1    0    0    0    0 -0.00000000000E+00 -0.00000000000E+00 -0.45593999997E+02  0.45594000000E+02  0.51100000000E-03 0.  1.
    9900012    2    1    2    0    0 -0.39967897772E+02 -0.23868046070E+01 -0.70736333931E+01  0.50528856158E+02  0.29999988779E+02 0.  0.
         12    1    1    2    0    0  0.39967897772E+02  0.23868046070E+01  0.70736333931E+01  0.40659143842E+02  0.00000000000E+00 0. -1.
         11    1    3    3    0    0 -0.28306763581E+02 -0.32603598552E+00  0.21700907000E+00  0.28309472921E+02  0.51100000000E-03 0.  1.
        -11    1    3    3    0    0 -0.53050835533E+00  0.52397507763E+01  0.23667573411E+01  0.57739040419E+01  0.51100000000E-03 0. -1.
         12    1    3    3    0    0 -0.11130625836E+02 -0.73005193978E+01 -0.96573998041E+01  0.16445479195E+02  0.00000000000E+00 0. -1.
</event>
<event>
 7    1  0.5910662E-013  0.5052886E+02  0.7816164E-02  0.1300439E+00
        -11   -1    0    0    0    0  0.00000000000E+00  0.00000000000E+00  0.45593999997E+02  0.45594000000E+02  0.51100000000E-03 0.  1.
         11   -1    0    0    0    0 -0.00000000000E+00 -0.00000000000E+00 -0.45593999997E+02  0.45594000000E+02  0.51100000000E-03 0. -1.
    9900012    2    1    2    0    0  0.58796779719E+01 -0.27625757410E+02  0.29247434372E+02  0.50528862001E+02  0.30000006538E+02 0.  0.
         12    1    1    2    0    0 -0.58796779719E+01  0.27625757410E+02 -0.29247434372E+02  0.40659137999E+02  0.00000000000E+00 0. -1.
         11    1    3    3    0    0 -0.60545118069E+01 -0.15484672076E+02  0.26660495558E+02  0.31419965089E+02  0.51100000000E-03 0. -1.
        -11    1    3    3    0    0  0.91367857065E+01 -0.88114322600E+01  0.55426366363E+01  0.13850740510E+02  0.51100000000E-03 0.  1.
         12    1    3    3    0    0  0.27974040723E+01 -0.33296530735E+01 -0.29556978228E+01  0.52581564025E+01  0.00000000000E+00 0. -1.
</event>
<event>
 7    1  0.5910662E-013  0.5052885E+02  0.7816164E-02  0.1300439E+00
        -11   -1    0    0    0    0  0.00000000000E+00  0.00000000000E+00  0.45593999997E+02  0.45594000000E+02  0.51100000000E-03 0.  1.
         11   -1    0    0    0    0 -0.00000000000E+00 -0.00000000000E+00 -0.45593999997E+02  0.45594000000E+02  0.51100000000E-03 0. -1.
    9900012    2    1    2    0    0  0.11963466096E+01  0.35456042710E+02  0.19864646572E+02  0.50528851050E+02  0.29999973253E+02 0.  0.
         12    1    1    2    0    0 -0.11963466096E+01 -0.35456042710E+02 -0.19864646572E+02  0.40659148950E+02  0.00000000000E+00 0. -1.
         11    1    3    3    0    0 -0.46149681498E+01 -0.53139442695E+00  0.79084367505E+01  0.91718963775E+01  0.51100000000E-03 0. -1.
        -11    1    3    3    0    0  0.72859973627E+01  0.22181665489E+02  0.14149383142E+02  0.27300496058E+02  0.51100000000E-03 0.  1.
         12    1    3    3    0    0 -0.14746826034E+01  0.13805771648E+02 -0.21931733208E+01  0.14056458615E+02  0.00000000000E+00 0. -1.
</event>
<event>
 7    1  0.5910662E-013  0.5052885E+02  0.7816164E-02  0.1300439E+00
        -11   -1    0    0    0    0  0.00000000000E+00  0.00000000000E+00  0.45593999997E+02  0.45594000000E+02  0.51100000000E-03 0.  1.
         11   -1    0    0    0    0 -0.00000000000E+00 -0.00000000000E+00 -0.45593999997E+02  0.45594000000E+02  0.51100000000E-03 0. -1.
    9900012    2    1    2    0    0  0.34850611232E+02 -0.10010895066E+02  0.18395206041E+02  0.50528846928E+02  0.29999960722E+02 0.  0.
         12    1    1    2    0    0 -0.34850611232E+02  0.10010895066E+02 -0.18395206041E+02  0.40659153072E+02  0.00000000000E+00 0. -1.
         11    1    3    3    0    0  0.87628943273E+00  0.34379576538E+01  0.18530524346E+01  0.40026540677E+01  0.51100000000E-03 0. -1.
        -11    1    3    3    0    0  0.23026838671E+02 -0.18109468833E+02  0.18237291337E+02  0.34507781096E+02  0.51100000000E-03 0.  1.
        -12    1    3    3    0    0  0.10947483128E+02  0.46606161140E+01 -0.16951377304E+01  0.12018411764E+02  0.00000000000E+00 0.  1.
</event>
<event>
 7    1  0.5910662E-013  0.5052886E+02  0.7816164E-02  0.1300439E+00
        -11   -1    0    0    0    0  0.00000000000E+00  0.00000000000E+00  0.45593999997E+02  0.45594000000E+02  0.51100000000E-03 0. -1.
         11   -1    0    0    0    0 -0.00000000000E+00 -0.00000000000E+00 -0.45593999997E+02  0.45594000000E+02  0.51100000000E-03 0.  1.
    9900012    2    1    2    0    0  0.20830179390E+02 -0.31405705088E+02  0.15262727111E+02  0.50528861736E+02  0.30000005733E+02 0.  0.
         12    1    1    2    0    0 -0.20830179390E+02  0.31405705088E+02 -0.15262727111E+02  0.40659138264E+02  0.00000000000E+00 0. -1.
         11    1    3    3    0    0  0.12154578369E+02 -0.13535694420E+02 -0.15859250276E+01  0.18260995515E+02  0.51100000000E-03 0.  1.
        -11    1    3    3    0    0 -0.20163489035E+01  0.31682337720E+01  0.36086866341E+01  0.52082614776E+01  0.51100000000E-03 0. -1.
        -12    1    3    3    0    0  0.10691949925E+02 -0.21038244440E+02  0.13239965504E+02  0.27059604743E+02  0.00000000000E+00 0.  1.
</event>
<event>
 7    1  0.5910662E-013  0.5052888E+02  0.7816164E-02  0.1300439E+00
        -11   -1    0    0    0    0  0.00000000000E+00  0.00000000000E+00  0.45593999997E+02  0.45594000000E+02  0.51100000000E-03 0. -1.
         11   -1    0    0    0    0 -0.00000000000E+00 -0.00000000000E+00 -0.45593999997E+02  0.45594000000E+02  0.51100000000E-03 0.  1.
    9900012    2    1    2    0    0  0.15770873445E+02 -0.36067569454E+02  0.10177132995E+02  0.50528879848E+02  0.30000060786E+02 0.  0.
         12    1    1    2    0    0 -0.15770873445E+02  0.36067569454E+02 -0.10177132995E+02  0.40659120152E+02  0.00000000000E+00 0. -1.
         11    1    3    3    0    0  0.55711345779E+01  0.27511143302E+01 -0.38167350164E+01  0.72920255752E+01  0.51100000000E-03 0. -1.
        -11    1    3    3    0    0  0.72933768678E+01 -0.26939381789E+02  0.57704374033E+01  0.28499501494E+02  0.51100000000E-03 0.  1.
         12    1    3    3    0    0  0.29063619994E+01 -0.11879301995E+02  0.82234306086E+01  0.14737352779E+02  0.00000000000E+00 0. -1.
</event>
<event>
 7    1  0.5910662E-013  0.5052889E+02  0.7816164E-02  0.1300439E+00
        -11   -1    0    0    0    0  0.00000000000E+00  0.00000000000E+00  0.45593999997E+02  0.45594000000E+02  0.51100000000E-03 0.  1.
         11   -1    0    0    0    0 -0.00000000000E+00 -0.00000000000E+00 -0.45593999997E+02  0.45594000000E+02  0.51100000000E-03 0. -1.
    9900012    2    1    2    0    0  0.30852935533E+02 -0.26471267952E+02 -0.72925767030E+00  0.50528886941E+02  0.30000082346E+02 0.  0.
         12    1    1    2    0    0 -0.30852935533E+02  0.26471267952E+02  0.72925767030E+00  0.40659113059E+02  0.00000000000E+00 0. -1.
         11    1    3    3    0    0  0.51989566874E+01  0.43943341820E+01 -0.47355784963E+01  0.82924681184E+01  0.51100000000E-03 0. -1.
        -11    1    3    3    0    0  0.10408050537E+02 -0.82348844516E+01  0.66073787920E+01  0.14825595862E+02  0.51100000000E-03 0.  1.
         12    1    3    3    0    0  0.15245928309E+02 -0.22630717683E+02 -0.26010579661E+01  0.27410822961E+02  0.00000000000E+00 0. -1.
</event>
<event>
 7    1  0.5910662E-013  0.5052885E+02  0.7816164E-02  0.1300439E+00
        -11   -1    0    0    0    0  0.00000000000E+00  0.00000000000E+00  0.45593999997E+02  0.45594000000E+02  0.51100000000E-03 0.  1.
         11   -1    0    0    0    0 -0.00000000000E+00 -0.00000000000E+00 -0.45593999997E+02  0.45594000000E+02  0.51100000000E-03 0. -1.
    9900012    2    1    2    0    0  0.43815945063E+01 -0.18692042524E+02  0.35840982746E+02  0.50528845209E+02  0.29999955498E+02 0.  0.
         12    1    1    2    0    0 -0.43815945063E+01  0.18692042524E+02 -0.35840982746E+02  0.40659154791E+02  0.00000000000E+00 0. -1.
         11    1    3    3    0    0  0.39886918377E+01 -0.18096145726E+02  0.53385368860E+01  0.19284193762E+02  0.51100000000E-03 0. -1.
        -11    1    3    3    0    0  0.19221521931E+01  0.25463539326E+01  0.12113271851E+02  0.12526369889E+02  0.51100000000E-03 0.  1.
         12    1    3    3    0    0 -0.15292495245E+01 -0.31422507309E+01  0.18389174009E+02  0.18718281558E+02  0.00000000000E+00 0. -1.
</event>
<event>
 7    1  0.5910662E-013  0.5052884E+02  0.7816164E-02  0.1300439E+00
        -11   -1    0    0    0    0  0.00000000000E+00  0.00000000000E+00  0.45593999997E+02  0.45594000000E+02  0.51100000000E-03 0.  1.
         11   -1    0    0    0    0 -0.00000000000E+00 -0.00000000000E+00 -0.45593999997E+02  0.45594000000E+02  0.51100000000E-03 0. -1.
    9900012    2    1    2    0    0 -0.29628033375E+02  0.15282302618E+02  0.23276559797E+02  0.50528839027E+02  0.29999936708E+02 0.  0.
         12    1    1    2    0    0  0.29628033375E+02 -0.15282302618E+02 -0.23276559797E+02  0.40659160973E+02  0.00000000000E+00 0. -1.
         11    1    3    3    0    0 -0.45117956560E+00 -0.37917929205E+00  0.54592041527E+01  0.54909243464E+01  0.51100000000E-03 0. -1.
        -11    1    3    3    0    0 -0.13875387330E+02  0.17447398369E+01 -0.44217658955E+01  0.14667055075E+02  0.51100000000E-03 0.  1.
        -12    1    3    3    0    0 -0.15301466479E+02  0.13916742074E+02  0.22239121540E+02  0.30370859606E+02  0.00000000000E+00 0.  1.
</event>
<event>
 7    1  0.5910662E-013  0.5052888E+02  0.7816164E-02  0.1300439E+00
        -11   -1    0    0    0    0  0.00000000000E+00  0.00000000000E+00  0.45593999997E+02  0.45594000000E+02  0.51100000000E-03 0.  1.
         11   -1    0    0    0    0 -0.00000000000E+00 -0.00000000000E+00 -0.45593999997E+02  0.45594000000E+02  0.51100000000E-03 0. -1.
    9900012    2    1    2    0    0  0.20361124545E+02 -0.14902824966E+02  0.31882515759E+02  0.50528875614E+02  0.30000047917E+02 0.  0.
         12    1    1    2    0    0 -0.20361124545E+02  0.14902824966E+02 -0.31882515759E+02  0.40659124386E+02  0.00000000000E+00 0. -1.
         11    1    3    3    0    0  0.49037752607E+01  0.69751244303E+01  0.10246625503E+01  0.85877416256E+01  0.51100000000E-03 0. -1.
        -11    1    3    3    0    0  0.13940295173E+02 -0.19937662475E+02  0.22181756862E+02  0.32922219734E+02  0.51100000000E-03 0.  1.
         12    1    3    3    0    0  0.15170541117E+01 -0.19402869214E+01  0.86760963465E+01  0.90189142544E+01  0.00000000000E+00 0. -1.
</event>
<event>
 7    1  0.5910662E-013  0.5052886E+02  0.7816164E-02  0.1300439E+00
        -11   -1    0    0    0    0  0.00000000000E+00  0.00000000000E+00  0.45593999997E+02  0.45594000000E+02  0.51100000000E-03 0.  1.
         11   -1    0    0    0    0 -0.00000000000E+00 -0.00000000000E+00 -0.45593999997E+02  0.45594000000E+02  0.51100000000E-03 0. -1.
    9900012    2    1    2    0    0  0.24401296677E+02 -0.21095959109E+02  0.24752833383E+02  0.50528861657E+02  0.30000005494E+02 0.  0.
         12    1    1    2    0    0 -0.24401296677E+02  0.21095959109E+02 -0.24752833383E+02  0.40659138343E+02  0.00000000000E+00 0. -1.
         11    1    3    3    0    0  0.56432854113E+01  0.16435056788E+01 -0.15626415911E+01  0.60819100743E+01  0.51100000000E-03 0. -1.
        -11    1    3    3    0    0 -0.37211183046E+01 -0.53356170162E+01  0.91866742824E+01  0.11256576523E+02  0.51100000000E-03 0.  1.
        -12    1    3    3    0    0  0.22479129570E+02 -0.17403847772E+02  0.17128800692E+02  0.33190375060E+02  0.00000000000E+00 0.  1.
</event>
<event>
 7    1  0.5910662E-013  0.5052882E+02  0.7816164E-02  0.1300439E+00
        -11   -1    0    0    0    0  0.00000000000E+00  0.00000000000E+00  0.45593999997E+02  0.45594000000E+02  0.51100000000E-03 0.  1.
         11   -1    0    0    0    0 -0.00000000000E+00 -0.00000000000E+00 -0.45593999997E+02  0.45594000000E+02  0.51100000000E-03 0. -1.
    9900012    2    1    2    0    0  0.17065150316E+02  0.12010380339E+02  0.34895567951E+02  0.50528815874E+02  0.29999866330E+02 0.  0.
         12    1    1    2    0    0 -0.17065150316E+02 -0.12010380339E+02 -0.34895567951E+02  0.40659184126E+02  0.00000000000E+00 0. -1.
         11    1    3    3    0    0 -0.63177303701E+01  0.10725527675E+01  0.39263048695E+01  0.75153148076E+01  0.51100000000E-03 0. -1.
        -11    1    3    3    0    0  0.11114416202E+02  0.13180896623E+02  0.15912104828E+02  0.23461913042E+02  0.51100000000E-03 0.  1.
         12    1    3    3    0    0  0.12268464484E+02 -0.22430690522E+01  0.15057158254E+02  0.19551588024E+02  0.00000000000E+00 0. -1.
</event>
<event>
 7    1  0.5910662E-013  0.5052886E+02  0.7816164E-02  0.1300439E+00
        -11   -1    0    0    0    0  0.00000000000E+00  0.00000000000E+00  0.45593999997E+02  0.45594000000E+02  0.51100000000E-03 0.  1.
         11   -1    0    0    0    0 -0.00000000000E+00 -0.00000000000E+00 -0.45593999997E+02  0.45594000000E+02  0.51100000000E-03 0. -1.
    9900012    2    1    2    0    0  0.29904248813E+02  0.24791085406E+02  0.12012642802E+02  0.50528860809E+02  0.30000002914E+02 0.  0.
         12    1    1    2    0    0 -0.29904248813E+02 -0.24791085406E+02 -0.12012642802E+02  0.40659139191E+02  0.00000000000E+00 0. -1.
         11    1    3    3    0    0  0.25688009132E+02  0.58588612829E+01  0.21477431856E+01  0.26435068938E+02  0.51100000000E-03 0. -1.
        -11    1    3    3    0    0  0.32591937097E+01  0.16113427375E+02  0.12065238682E+02  0.20392029573E+02  0.51100000000E-03 0.  1.
         12    1    3    3    0    0  0.95704597078E+00  0.28187967491E+01 -0.22003390655E+01  0.37017622973E+01  0.00000000000E+00 0. -1.
</event>
<event>
 7    1  0.5910662E-013  0.5052888E+02  0.7816164E-02  0.1300439E+00
        -11   -1    0    0    0    0  0.00000000000E+00  0.00000000000E+00  0.45593999997E+02  0.45594000000E+02  0.51100000000E-03 0. -1.
         11   -1    0    0    0    0 -0.00000000000E+00 -0.00000000000E+00 -0.45593999997E+02  0.45594000000E+02  0.51100000000E-03 0.  1.
    9900012    2    1    2    0    0  0.33846074051E-02  0.96928064355E+00 -0.40647568895E+02  0.50528875889E+02  0.30000048751E+02 0.  0.
         12    1    1    2    0    0 -0.33846074051E-02 -0.96928064355E+00  0.40647568895E+02  0.40659124111E+02  0.00000000000E+00 0. -1.
         11    1    3    3    0    0  0.19655197971E+01 -0.30586361794E+00  0.41266705431E+01  0.45810730902E+01  0.51100000000E-03 0. -1.
        -11    1    3    3    0    0 -0.52752382299E+01  0.16877721838E+01 -0.15052939314E+02  0.16039566564E+02  0.51100000000E-03 0.  1.
         12    1    3    3    0    0  0.33131030402E+01 -0.41262792226E+00 -0.29721300124E+02  0.29908236234E+02  0.00000000000E+00 0. -1.
</event>
<event>
 7    1  0.5910662E-013  0.5052887E+02  0.7816164E-02  0.1300439E+00
        -11   -1    0    0    0    0  0.00000000000E+00  0.00000000000E+00  0.45593999997E+02  0.45594000000E+02  0.51100000000E-03 0. -1.
         11   -1    0    0    0    0 -0.00000000000E+00 -0.00000000000E+00 -0.45593999997E+02  0.45594000000E+02  0.51100000000E-03 0.  1.
    9900012    2    1    2    0    0 -0.27597730778E+02  0.34551931453E+01 -0.29657916170E+02  0.50528867013E+02  0.30000021771E+02 0.  0.
         12    1    1    2    0    0  0.27597730778E+02 -0.34551931453E+01  0.29657916170E+02  0.40659132987E+02  0.00000000000E+00 0. -1.
         11    1    3    3    0    0 -0.12505150208E+02  0.50122880499E+01  0.31108489685E+01  0.13826756481E+02  0.51100000000E-03 0. -1.
        -11    1    3    3    0    0 -0.14286017943E+02 -0.12978791882E+01 -0.24503927098E+02  0.28393964896E+02  0.51100000000E-03 0.  1.
         12    1    3    3    0    0 -0.80656262694E+00 -0.25921571641E+00 -0.82648380405E+01  0.83081456351E+01  0.00000000000E+00 0. -1.
</event>
<event>
 7    1  0.5910662E-013  0.5052885E+02  0.7816164E-02  0.1300439E+00
        -11   -1    0    0    0    0  0.00000000000E+00  0.00000000000E+00  0.45593999997E+02  0.45594000000E+02  0.51100000000E-03 0. -1.
         11   -1    0    0    0    0 -0.00000000000E+00 -0.00000000000E+00 -0.45593999997E+02  0.45594000000E+02  0.51100000000E-03 0.  1.
    9900012    2    1    2    0    0 -0.85301822633E+01  0.19118921032E+02 -0.34854973180E+02  0.50528852121E+02  0.29999976506E+02 0.  0.
         12    1    1    2    0    0  0.85301822633E+01 -0.19118921032E+02  0.34854973180E+02  0.40659147879E+02  0.00000000000E+00 0. -1.
         11    1    3    3    0    0 -0.16126015571E+01 -0.60976532146E+00  0.13566749694E+01  0.21938242325E+01  0.51100000000E-03 0. -1.
        -11    1    3    3    0    0 -0.75293596141E+01  0.98745700110E+00 -0.25784840138E+02  0.26879812290E+02  0.51100000000E-03 0.  1.
        -12    1    3    3    0    0  0.61177890789E+00  0.18741229352E+02 -0.10426808012E+02  0.21455215598E+02  0.00000000000E+00 0.  1.
</event>
<event>
 7    1  0.5910662E-013  0.5052886E+02  0.7816164E-02  0.1300439E+00
        -11   -1    0    0    0    0  0.00000000000E+00  0.00000000000E+00  0.45593999997E+02  0.45594000000E+02  0.51100000000E-03 0.  1.
         11   -1    0    0    0    0 -0.00000000000E+00 -0.00000000000E+00 -0.45593999997E+02  0.45594000000E+02  0.51100000000E-03 0. -1.
    9900012    2    1    2    0    0 -0.48472566553E+01  0.21790623683E+02  0.33982909818E+02  0.50528864037E+02  0.30000012726E+02 0.  0.
         12    1    1    2    0    0  0.48472566553E+01 -0.21790623683E+02 -0.33982909818E+02  0.40659135963E+02  0.00000000000E+00 0. -1.
         11    1    3    3    0    0 -0.10146593040E+02  0.10215804377E+02  0.23987337987E+01  0.14596915205E+02  0.51100000000E-03 0. -1.
        -11    1    3    3    0    0  0.83885403864E+01  0.11234439558E+02  0.26166918012E+02  0.29686492560E+02  0.51100000000E-03 0.  1.
         12    1    3    3    0    0 -0.30892040021E+01  0.34037974833E+00  0.54172580068E+01  0.62454562725E+01  0.00000000000E+00 0. -1.
</event>
<event>
 7    1  0.5910662E-013  0.5052885E+02  0.7816164E-02  0.1300439E+00
        -11   -1    0    0    0    0  0.00000000000E+00  0.00000000000E+00  0.45593999997E+02  0.45594000000E+02  0.51100000000E-03 0.  1.
         11   -1    0    0    0    0 -0.00000000000E+00 -0.00000000000E+00 -0.45593999997E+02  0.45594000000E+02  0.51100000000E-03 0. -1.
    9900012    2    1    2    0    0  0.29940421108E+02  0.16357625017E+02  0.22117087156E+02  0.50528852732E+02  0.29999978364E+02 0.  0.
         12    1    1    2    0    0 -0.29940421108E+02 -0.16357625017E+02 -0.22117087156E+02  0.40659147268E+02  0.00000000000E+00 0. -1.
         11    1    3    3    0    0  0.15866524184E+02 -0.48359101591E+01  0.58001326832E+01  0.17571970753E+02  0.51100000000E-03 0. -1.
        -11    1    3    3    0    0  0.66904899173E+01  0.78716181304E+01  0.14228246856E+02  0.17583174803E+02  0.51100000000E-03 0.  1.
         12    1    3    3    0    0  0.73834070063E+01  0.13321917046E+02  0.20887076172E+01  0.15373707175E+02  0.00000000000E+00 0. -1.
</event>
<event>
 7    1  0.5910662E-013  0.5052885E+02  0.7816164E-02  0.1300439E+00
        -11   -1    0    0    0    0  0.00000000000E+00  0.00000000000E+00  0.45593999997E+02  0.45594000000E+02  0.51100000000E-03 0.  1.
         11   -1    0    0    0    0 -0.00000000000E+00 -0.00000000000E+00 -0.45593999997E+02  0.45594000000E+02  0.51100000000E-03 0. -1.
    9900012    2    1    2    0    0 -0.22812068083E+02 -0.31832281042E+02  0.10930793891E+02  0.50528845783E+02  0.29999957241E+02 0.  0.
         12    1    1    2    0    0  0.22812068083E+02  0.31832281042E+02 -0.10930793891E+02  0.40659154217E+02  0.00000000000E+00 0. -1.
         11    1    3    3    0    0  0.54950524715E+00 -0.22270542679E+02  0.76435150299E+01  0.23552119852E+02  0.51100000000E-03 0. -1.
        -11    1    3    3    0    0 -0.97229230241E+01 -0.80823068381E+01 -0.78077806144E+00  0.12667617400E+02  0.51100000000E-03 0.  1.
         12    1    3    3    0    0 -0.13638650306E+02 -0.14794315248E+01  0.40680569224E+01  0.14309108531E+02  0.00000000000E+00 0. -1.
</event>
<event>
 7    1  0.5910662E-013  0.5052887E+02  0.7816164E-02  0.1300439E+00
        -11   -1    0    0    0    0  0.00000000000E+00  0.00000000000E+00  0.45593999997E+02  0.45594000000E+02  0.51100000000E-03 0.  1.
         11   -1    0    0    0    0 -0.00000000000E+00 -0.00000000000E+00 -0.45593999997E+02  0.45594000000E+02  0.51100000000E-03 0. -1.
    9900012    2    1    2    0    0 -0.29757880851E+01  0.31933526753E+02  0.24991184250E+02  0.50528871433E+02  0.30000035208E+02 0.  0.
         12    1    1    2    0    0  0.29757880851E+01 -0.31933526753E+02 -0.24991184250E+02  0.40659128567E+02  0.00000000000E+00 0. -1.
         11    1    3    3    0    0 -0.71994197591E+01  0.55514542305E+01 -0.45556051085E+01  0.10168767236E+02  0.51100000000E-03 0. -1.
        -11    1    3    3    0    0  0.26683691541E+01  0.96924483019E+01  0.15580306389E+02  0.18542106014E+02  0.51100000000E-03 0.  1.
         12    1    3    3    0    0  0.15552625199E+01  0.16689624221E+02  0.13966482970E+02  0.21817998182E+02  0.00000000000E+00 0. -1.
</event>
<event>
 7    1  0.5910662E-013  0.5052886E+02  0.7816164E-02  0.1300439E+00
        -11   -1    0    0    0    0  0.00000000000E+00  0.00000000000E+00  0.45593999997E+02  0.45594000000E+02  0.51100000000E-03 0. -1.
         11   -1    0    0    0    0 -0.00000000000E+00 -0.00000000000E+00 -0.45593999997E+02  0.45594000000E+02  0.51100000000E-03 0.  1.
    9900012    2    1    2    0    0  0.28585479214E+02  0.33300954270E+01 -0.28721880946E+02  0.50528860775E+02  0.30000002811E+02 0.  0.
         12    1    1    2    0    0 -0.28585479214E+02 -0.33300954270E+01  0.28721880946E+02  0.40659139225E+02  0.00000000000E+00 0. -1.
         11    1    3    3    0    0  0.19254331522E+01  0.44228484444E+01 -0.43575577175E+01  0.65005531079E+01  0.51100000000E-03 0. -1.
        -11    1    3    3    0    0  0.29995839658E+02 -0.58923446964E+01 -0.18410567137E+02  0.35684998324E+02  0.51100000000E-03 0.  1.
        -12    1    3    3    0    0 -0.33357935960E+01  0.47995916790E+01 -0.59537560911E+01  0.83433093429E+01  0.00000000000E+00 0.  1.
</event>
<event>
 7    1  0.5910662E-013  0.5052886E+02  0.7816164E-02  0.1300439E+00
        -11   -1    0    0    0    0  0.00000000000E+00  0.00000000000E+00  0.45593999997E+02  0.45594000000E+02  0.51100000000E-03 0.  1.
         11   -1    0    0    0    0 -0.00000000000E+00 -0.00000000000E+00 -0.45593999997E+02  0.45594000000E+02  0.51100000000E-03 0. -1.
    9900012    2    1    2    0    0 -0.11639183554E+02  0.38395472547E+02 -0.65941640637E+01  0.50528857047E+02  0.29999991481E+02 0.  0.
         12    1    1    2    0    0  0.11639183554E+02 -0.38395472547E+02  0.65941640637E+01  0.40659142953E+02  0.00000000000E+00 0. -1.
         11    1    3    3    0    0 -0.10139501579E+02  0.52757770841E+00  0.24762973512E+01  0.10450831515E+02  0.51100000000E-03 0. -1.
        -11    1    3    3    0    0 -0.26639546870E+01  0.30512988739E+02 -0.36037669117E+01  0.30840335156E+02  0.51100000000E-03 0.  1.
        -12    1    3    3    0    0  0.11642727125E+01  0.73549061005E+01 -0.54666945032E+01  0.92376903763E+01  0.00000000000E+00 0.  1.
</event>
<event>
 7    1  0.5910662E-013  0.5052885E+02  0.7816164E-02  0.1300439E+00
        -11   -1    0    0    0    0  0.00000000000E+00  0.00000000000E+00  0.45593999997E+02  0.45594000000E+02  0.51100000000E-03 0.  1.
         11   -1    0    0    0    0 -0.00000000000E+00 -0.00000000000E+00 -0.45593999997E+02  0.45594000000E+02  0.51100000000E-03 0. -1.
    9900012    2    1    2    0    0  0.12352010580E+02  0.30727013827E+02  0.23589077384E+02  0.50528854462E+02  0.29999983622E+02 0.  0.
         12    1    1    2    0    0 -0.12352010580E+02 -0.30727013827E+02 -0.23589077384E+02  0.40659145538E+02  0.00000000000E+00 0. -1.
         11    1    3    3    0    0  0.77125243967E-01  0.25550581343E+02  0.15408878663E+02  0.29837421088E+02  0.51100000000E-03 0. -1.
        -11    1    3    3    0    0  0.99897612966E+01 -0.46673014824E+00  0.10192363882E+02  0.14279266422E+02  0.51100000000E-03 0.  1.
         12    1    3    3    0    0  0.22851240394E+01  0.56431626323E+01 -0.20121651618E+01  0.64121669511E+01  0.00000000000E+00 0. -1.
</event>
<event>
 7    1  0.5910662E-013  0.5052886E+02  0.7816164E-02  0.1300439E+00
        -11   -1    0    0    0    0  0.00000000000E+00  0.00000000000E+00  0.45593999997E+02  0.45594000000E+02  0.51100000000E-03 0. -1.
         11   -1    0    0    0    0 -0.00000000000E+00 -0.00000000000E+00 -0.45593999997E+02  0.45594000000E+02  0.51100000000E-03 0.  1.
    9900012    2    1    2    0    0  0.40026351515E+02 -0.27897642977E+01 -0.65783016152E+01  0.50528860159E+02  0.30000000939E+02 0.  0.
         12    1    1    2    0    0 -0.40026351515E+02  0.27897642977E+01  0.65783016152E+01  0.40659139841E+02  0.00000000000E+00 0. -1.
         11    1    3    3    0    0  0.42283520884E+01 -0.99470961603E+01  0.52522269654E+01  0.12017053373E+02  0.51100000000E-03 0. -1.
        -11    1    3    3    0    0  0.11959092308E+02  0.98835804189E+00 -0.45550748125E+01  0.12835320302E+02  0.51100000000E-03 0.  1.
         12    1    3    3    0    0  0.23838907119E+02  0.61689738206E+01 -0.72754537681E+01  0.25676486484E+02  0.00000000000E+00 0. -1.
</event>
<event>
 7    1  0.5910662E-013  0.5052886E+02  0.7816164E-02  0.1300439E+00
        -11   -1    0    0    0    0  0.00000000000E+00  0.00000000000E+00  0.45593999997E+02  0.45594000000E+02  0.51100000000E-03 0.  1.
         11   -1    0    0    0    0 -0.00000000000E+00 -0.00000000000E+00 -0.45593999997E+02  0.45594000000E+02  0.51100000000E-03 0. -1.
    9900012    2    1    2    0    0 -0.32344495920E+02 -0.92146998944E+01  0.22849257514E+02  0.50528859830E+02  0.29999999938E+02 0.  0.
         12    1    1    2    0    0  0.32344495920E+02  0.92146998944E+01 -0.22849257514E+02  0.40659140170E+02  0.00000000000E+00 0. -1.
         11    1    3    3    0    0 -0.10371597577E+01 -0.85531615712E+01  0.41188654416E+01  0.95497291068E+01  0.51100000000E-03 0. -1.
        -11    1    3    3    0    0 -0.21580133141E+02 -0.95954942978E+00  0.21883646201E+02  0.30749257760E+02  0.51100000000E-03 0.  1.
        -12    1    3    3    0    0 -0.97272030212E+01  0.29801110663E+00 -0.31532541284E+01  0.10229872963E+02  0.00000000000E+00 0.  1.
</event>
<event>
 7    1  0.5910662E-013  0.5052886E+02  0.7816164E-02  0.1300439E+00
        -11   -1    0    0    0    0  0.00000000000E+00  0.00000000000E+00  0.45593999997E+02  0.45594000000E+02  0.51100000000E-03 0.  1.
         11   -1    0    0    0    0 -0.00000000000E+00 -0.00000000000E+00 -0.45593999997E+02  0.45594000000E+02  0.51100000000E-03 0. -1.
    9900012    2    1    2    0    0  0.33771002700E+01 -0.14753129584E+02  0.37737330195E+02  0.50528859219E+02  0.29999998083E+02 0.  0.
         12    1    1    2    0    0 -0.33771002700E+01  0.14753129584E+02 -0.37737330195E+02  0.40659140781E+02  0.00000000000E+00 0. -1.
         11    1    3    3    0    0  0.17421497585E+01  0.40453293588E+00  0.69749008625E+01  0.72005537968E+01  0.51100000000E-03 0. -1.
        -11    1    3    3    0    0  0.54355485320E+01 -0.54104114282E+01 -0.28066697979E+01  0.81667089627E+01  0.51100000000E-03 0.  1.
        -12    1    3    3    0    0 -0.38005980205E+01 -0.97472510920E+01  0.33569099131E+02  0.35161596460E+02  0.00000000000E+00 0.  1.
</event>
<event>
 7    1  0.5910662E-013  0.5052886E+02  0.7816164E-02  0.1300439E+00
        -11   -1    0    0    0    0  0.00000000000E+00  0.00000000000E+00  0.45593999997E+02  0.45594000000E+02  0.51100000000E-03 0. -1.
         11   -1    0    0    0    0 -0.00000000000E+00 -0.00000000000E+00 -0.45593999997E+02  0.45594000000E+02  0.51100000000E-03 0.  1.
    9900012    2    1    2    0    0 -0.12896600551E+02  0.34697961352E+02 -0.16819477228E+02  0.50528860290E+02  0.30000001338E+02 0.  0.
         12    1    1    2    0    0  0.12896600551E+02 -0.34697961352E+02  0.16819477228E+02  0.40659139710E+02  0.00000000000E+00 0. -1.
         11    1    3    3    0    0  0.38731745243E+01  0.10066819027E+02 -0.10890174111E+02  0.15327694499E+02  0.51100000000E-03 0. -1.
        -11    1    3    3    0    0 -0.17107953511E+02  0.17841552155E+02  0.19492118343E+01  0.24795210902E+02  0.51100000000E-03 0.  1.
        -12    1    3    3    0    0  0.33817843621E+00  0.67895901691E+01 -0.78785149512E+01  0.10405954889E+02  0.00000000000E+00 0.  1.
</event>
<event>
 7    1  0.5910662E-013  0.5052886E+02  0.7816164E-02  0.1300439E+00
        -11   -1    0    0    0    0  0.00000000000E+00  0.00000000000E+00  0.45593999997E+02  0.45594000000E+02  0.51100000000E-03 0.  1.
         11   -1    0    0    0    0 -0.00000000000E+00 -0.00000000000E+00 -0.45593999997E+02  0.45594000000E+02  0.51100000000E-03 0. -1.
    9900012    2    1    2    0    0  0.20999805823E+02 -0.31316838029E+02  0.15212804712E+02  0.50528860610E+02  0.30000002310E+02 0.  0.
         12    1    1    2    0    0 -0.20999805823E+02  0.31316838029E+02 -0.15212804712E+02  0.40659139390E+02  0.00000000000E+00 0. -1.
         11    1    3    3    0    0  0.57285207921E+01  0.37697879595E+01  0.63157043310E+01  0.93228414758E+01  0.51100000000E-03 0. -1.
        -11    1    3    3    0    0  0.16339134023E+02 -0.25962784108E+02  0.91646625908E+01  0.32016003810E+02  0.51100000000E-03 0.  1.
         12    1    3    3    0    0 -0.10678489926E+01 -0.91238418801E+01 -0.26756220952E+00  0.91900153243E+01  0.00000000000E+00 0. -1.
</event>
<event>
 7    1  0.5910662E-013  0.5052885E+02  0.7816164E-02  0.1300439E+00
        -11   -1    0    0    0    0  0.00000000000E+00  0.00000000000E+00  0.45593999997E+02  0.45594000000E+02  0.51100000000E-03 0. -1.
         11   -1    0    0    0    0 -0.00000000000E+00 -0.00000000000E+00 -0.45593999997E+02  0.45594000000E+02  0.51100000000E-03 0.  1.
    9900012    2    1    2    0    0  0.36761989097E+02  0.15222091964E+02 -0.83672142244E+01  0.50528853428E+02  0.29999980479E+02 0.  0.
         12    1    1    2    0    0 -0.36761989097E+02 -0.15222091964E+02  0.83672142244E+01  0.40659146572E+02  0.00000000000E+00 0. -1.
         11    1    3    3    0    0  0.59522340681E+01 -0.35072191905E+01 -0.22749768566E+01  0.72735958653E+01  0.51100000000E-03 0. -1.
        -11    1    3    3    0    0  0.48680612546E+01  0.14128169612E+02 -0.77940165485E+01  0.16853779730E+02  0.51100000000E-03 0.  1.
        -12    1    3    3    0    0  0.25941693774E+02  0.46011415421E+01  0.17017791807E+01  0.26401477832E+02  0.00000000000E+00 0.  1.
</event>
<event>
 7    1  0.5910662E-013  0.5052885E+02  0.7816164E-02  0.1300439E+00
        -11   -1    0    0    0    0  0.00000000000E+00  0.00000000000E+00  0.45593999997E+02  0.45594000000E+02  0.51100000000E-03 0.  1.
         11   -1    0    0    0    0 -0.00000000000E+00 -0.00000000000E+00 -0.45593999997E+02  0.45594000000E+02  0.51100000000E-03 0. -1.
    9900012    2    1    2    0    0 -0.13618647116E+01  0.30492740033E+02  0.26860831209E+02  0.50528854369E+02  0.29999983339E+02 0.  0.
         12    1    1    2    0    0  0.13618647116E+01 -0.30492740033E+02 -0.26860831209E+02  0.40659145631E+02  0.00000000000E+00 0. -1.
         11    1    3    3    0    0 -0.46281610022E+01  0.13954592731E+01 -0.58648691100E+00  0.48694094101E+01  0.51100000000E-03 0. -1.
        -11    1    3    3    0    0  0.97776817833E+01  0.26500353351E+02  0.26224524328E+02  0.38543449058E+02  0.51100000000E-03 0.  1.
        -12    1    3    3    0    0 -0.65113854927E+01  0.25969274094E+01  0.12227937922E+01  0.71159959009E+01  0.00000000000E+00 0.  1.
</event>
<event>
 7    1  0.5910662E-013  0.5052885E+02  0.7816164E-02  0.1300439E+00
        -11   -1    0    0    0    0  0.00000000000E+00  0.00000000000E+00  0.45593999997E+02  0.45594000000E+02  0.51100000000E-03 0.  1.
         11   -1    0    0    0    0 -0.00000000000E+00 -0.00000000000E+00 -0.45593999997E+02  0.45594000000E+02  0.51100000000E-03 0. -1.
    9900012    2    1    2    0    0  0.28400195548E+02  0.58189406025E+01  0.28508513880E+02  0.50528849240E+02  0.29999967749E+02 0.  0.
         12    1    1    2    0    0 -0.28400195548E+02 -0.58189406025E+01 -0.28508513880E+02  0.40659150760E+02  0.00000000000E+00 0. -1.
         11    1    3    3    0    0  0.17760576385E+02  0.12502513386E+02  0.76998236221E+01  0.23044266067E+02  0.51100000000E-03 0. -1.
        -11    1    3    3    0    0  0.36309043003E+01 -0.48513383613E+01  0.68683871530E+00  0.60984176321E+01  0.51100000000E-03 0.  1.
         12    1    3    3    0    0  0.70087148625E+01 -0.18322344225E+01  0.20121851543E+02  0.21386165540E+02  0.00000000000E+00 0. -1.
</event>
<event>
 7    1  0.5910662E-013  0.5052886E+02  0.7816164E-02  0.1300439E+00
        -11   -1    0    0    0    0  0.00000000000E+00  0.00000000000E+00  0.45593999997E+02  0.45594000000E+02  0.51100000000E-03 0. -1.
         11   -1    0    0    0    0 -0.00000000000E+00 -0.00000000000E+00 -0.45593999997E+02  0.45594000000E+02  0.51100000000E-03 0.  1.
    9900012    2    1    2    0    0 -0.22251738619E+01 -0.39980762409E+02 -0.70535859988E+01  0.50528857892E+02  0.29999994049E+02 0.  0.
         12    1    1    2    0    0  0.22251738619E+01  0.39980762409E+02  0.70535859988E+01  0.40659142108E+02  0.00000000000E+00 0. -1.
         11    1    3    3    0    0  0.86512984602E-01  0.43099877763E+01  0.16927331793E+01  0.46312876185E+01  0.51100000000E-03 0. -1.
        -11    1    3    3    0    0 -0.13737514564E+01 -0.12398864597E+02  0.10578979836E+01  0.12519512161E+02  0.51100000000E-03 0.  1.
         12    1    3    3    0    0 -0.93793539010E+00 -0.31891885589E+02 -0.98042171616E+01  0.33378058112E+02  0.00000000000E+00 0. -1.
</event>
<event>
 7    1  0.5910662E-013  0.5052886E+02  0.7816164E-02  0.1300439E+00
        -11   -1    0    0    0    0  0.00000000000E+00  0.00000000000E+00  0.45593999997E+02  0.45594000000E+02  0.51100000000E-03 0. -1.
         11   -1    0    0    0    0 -0.00000000000E+00 -0.00000000000E+00 -0.45593999997E+02  0.45594000000E+02  0.51100000000E-03 0.  1.
    9900012    2    1    2    0    0  0.11321030654E+02  0.14217395800E+02 -0.36371215605E+02  0.50528863228E+02  0.30000010269E+02 0.  0.
         12    1    1    2    0    0 -0.11321030654E+02 -0.14217395800E+02  0.36371215605E+02  0.40659136772E+02  0.00000000000E+00 0. -1.
         11    1    3    3    0    0  0.71654555765E-01  0.15610170046E+02 -0.41536004707E+01  0.16153480751E+02  0.51100000000E-03 0. -1.
        -11    1    3    3    0    0  0.14789033222E+01  0.16265384889E+00 -0.92301801636E+01  0.93493228324E+01  0.51100000000E-03 0.  1.
         12    1    3    3    0    0  0.97704727760E+01 -0.15554280950E+01 -0.22987434971E+02  0.25026059645E+02  0.00000000000E+00 0. -1.
</event>
<event>
 7    1  0.5910662E-013  0.5052886E+02  0.7816164E-02  0.1300439E+00
        -11   -1    0    0    0    0  0.00000000000E+00  0.00000000000E+00  0.45593999997E+02  0.45594000000E+02  0.51100000000E-03 0.  1.
         11   -1    0    0    0    0 -0.00000000000E+00 -0.00000000000E+00 -0.45593999997E+02  0.45594000000E+02  0.51100000000E-03 0. -1.
    9900012    2    1    2    0    0 -0.22487814028E+02 -0.24415950745E+02  0.23480324007E+02  0.50528855321E+02  0.29999986234E+02 0.  0.
         12    1    1    2    0    0  0.22487814028E+02  0.24415950745E+02 -0.23480324007E+02  0.40659144679E+02  0.00000000000E+00 0. -1.
         11    1    3    3    0    0 -0.37156253174E+01  0.53435934817E+01  0.46585790099E+00  0.65250966769E+01  0.51100000000E-03 0. -1.
        -11    1    3    3    0    0 -0.73203705328E+01 -0.62122354050E+01  0.12560541802E+02  0.15809709172E+02  0.51100000000E-03 0.  1.
         12    1    3    3    0    0 -0.11451818178E+02 -0.23547308822E+02  0.10453924304E+02  0.28194049473E+02  0.00000000000E+00 0. -1.
</event>
<event>
 7    1  0.5910662E-013  0.5052886E+02  0.7816164E-02  0.1300439E+00
        -11   -1    0    0    0    0  0.00000000000E+00  0.00000000000E+00  0.45593999997E+02  0.45594000000E+02  0.51100000000E-03 0.  1.
         11   -1    0    0    0    0 -0.00000000000E+00 -0.00000000000E+00 -0.45593999997E+02  0.45594000000E+02  0.51100000000E-03 0. -1.
    9900012    2    1    2    0    0  0.18780961487E+02 -0.20717063839E+02  0.29516855561E+02  0.50528855756E+02  0.29999987555E+02 0.  0.
         12    1    1    2    0    0 -0.18780961487E+02  0.20717063839E+02 -0.29516855561E+02  0.40659144244E+02  0.00000000000E+00 0. -1.
         11    1    3    3    0    0 -0.51457584734E+01 -0.59258586810E+01 -0.28382248090E+00  0.78533551324E+01  0.51100000000E-03 0. -1.
        -11    1    3    3    0    0  0.99165286933E+01 -0.12831928224E+02  0.18232987047E+02  0.24401592984E+02  0.51100000000E-03 0.  1.
         12    1    3    3    0    0  0.14010191267E+02 -0.19592769341E+01  0.11567690995E+02  0.18273907639E+02  0.00000000000E+00 0. -1.
</event>
<event>
 7    1  0.5910662E-013  0.5052886E+02  0.7816164E-02  0.1300439E+00
        -11   -1    0    0    0    0  0.00000000000E+00  0.00000000000E+00  0.45593999997E+02  0.45594000000E+02  0.51100000000E-03 0.  1.
         11   -1    0    0    0    0 -0.00000000000E+00 -0.00000000000E+00 -0.45593999997E+02  0.45594000000E+02  0.51100000000E-03 0. -1.
    9900012    2    1    2    0    0 -0.38733478158E+02 -0.94135187374E+01  0.80168095896E+01  0.50528857101E+02  0.29999991645E+02 0.  0.
         12    1    1    2    0    0  0.38733478158E+02  0.94135187374E+01 -0.80168095896E+01  0.40659142899E+02  0.00000000000E+00 0. -1.
         11    1    3    3    0    0 -0.35168552468E+02 -0.13149023545E+02  0.56012912491E+00  0.37550468010E+02  0.51100000000E-03 0. -1.
        -11    1    3    3    0    0 -0.45237978770E+01 -0.14715622393E+01  0.56455317877E+01  0.73825654134E+01  0.51100000000E-03 0.  1.
         12    1    3    3    0    0  0.95887218687E+00  0.52070670470E+01  0.18111486771E+01  0.55958236778E+01  0.00000000000E+00 0. -1.
</event>
<event>
 7    1  0.5910662E-013  0.5052886E+02  0.7816164E-02  0.1300439E+00
        -11   -1    0    0    0    0  0.00000000000E+00  0.00000000000E+00  0.45593999997E+02  0.45594000000E+02  0.51100000000E-03 0. -1.
         11   -1    0    0    0    0 -0.00000000000E+00 -0.00000000000E+00 -0.45593999997E+02  0.45594000000E+02  0.51100000000E-03 0.  1.
    9900012    2    1    2    0    0  0.23611902254E+02  0.33077415255E+02  0.12361981808E+01  0.50528861864E+02  0.30000006122E+02 0.  0.
         12    1    1    2    0    0 -0.23611902254E+02 -0.33077415255E+02 -0.12361981808E+01  0.40659138136E+02  0.00000000000E+00 0. -1.
         11    1    3    3    0    0  0.22782954094E+01  0.19155939223E+02  0.28027193177E+01  0.19493482843E+02  0.51100000000E-03 0. -1.
        -11    1    3    3    0    0  0.14510630494E+02  0.66061579690E+01  0.74223860017E+01  0.17586686290E+02  0.51100000000E-03 0.  1.
        -12    1    3    3    0    0  0.68229763508E+01  0.73153180627E+01 -0.89889071386E+01  0.13448692732E+02  0.00000000000E+00 0.  1.
</event>
<event>
 7    1  0.5910662E-013  0.5052886E+02  0.7816164E-02  0.1300439E+00
        -11   -1    0    0    0    0  0.00000000000E+00  0.00000000000E+00  0.45593999997E+02  0.45594000000E+02  0.51100000000E-03 0. -1.
         11   -1    0    0    0    0 -0.00000000000E+00 -0.00000000000E+00 -0.45593999997E+02  0.45594000000E+02  0.51100000000E-03 0.  1.
    9900012    2    1    2    0    0  0.13198760151E+02  0.37383469891E+02 -0.90240981978E+01  0.50528862788E+02  0.30000008929E+02 0.  0.
         12    1    1    2    0    0 -0.13198760151E+02 -0.37383469891E+02  0.90240981978E+01  0.40659137212E+02  0.00000000000E+00 0. -1.
         11    1    3    3    0    0 -0.61734111428E+01  0.19050514151E+02  0.24151175410E+00  0.20027266982E+02  0.51100000000E-03 0. -1.
        -11    1    3    3    0    0  0.11457940013E+02  0.33468230875E+01 -0.21882984821E+01  0.12135660865E+02  0.51100000000E-03 0.  1.
         12    1    3    3    0    0  0.79142312810E+01  0.14986132652E+02 -0.70773114698E+01  0.18365934941E+02  0.00000000000E+00 0. -1.
</event>
<event>
 7    1  0.5910662E-013  0.5052886E+02  0.7816164E-02  0.1300439E+00
        -11   -1    0    0    0    0  0.00000000000E+00  0.00000000000E+00  0.45593999997E+02  0.45594000000E+02  0.51100000000E-03 0.  1.
         11   -1    0    0    0    0 -0.00000000000E+00 -0.00000000000E+00 -0.45593999997E+02  0.45594000000E+02  0.51100000000E-03 0. -1.
    9900012    2    1    2    0    0  0.78245173342E+01  0.18043638752E+02  0.35586084365E+02  0.50528863617E+02  0.30000011452E+02 0.  0.
         12    1    1    2    0    0 -0.78245173342E+01 -0.18043638752E+02 -0.35586084365E+02  0.40659136383E+02  0.00000000000E+00 0. -1.
         11    1    3    3    0    0  0.23729007482E+01  0.14150456025E+02  0.90681793015E+01  0.16973448082E+02  0.51100000000E-03 0. -1.
        -11    1    3    3    0    0  0.10254358980E+02 -0.33835012301E+01  0.19783901910E+02  0.22538915983E+02  0.51100000000E-03 0.  1.
         12    1    3    3    0    0 -0.48027423939E+01  0.72766839576E+01  0.67340031538E+01  0.11016499553E+02  0.00000000000E+00 0. -1.
</event>
<event>
 7    1  0.5910662E-013  0.5052886E+02  0.7816164E-02  0.1300439E+00
        -11   -1    0    0    0    0  0.00000000000E+00  0.00000000000E+00  0.45593999997E+02  0.45594000000E+02  0.51100000000E-03 0.  1.
         11   -1    0    0    0    0 -0.00000000000E+00 -0.00000000000E+00 -0.45593999997E+02  0.45594000000E+02  0.51100000000E-03 0. -1.
    9900012    2    1    2    0    0 -0.21164601951E+02  0.85047321584E+01  0.33658502098E+02  0.50528860704E+02  0.30000002596E+02 0.  0.
         12    1    1    2    0    0  0.21164601951E+02 -0.85047321584E+01 -0.33658502098E+02  0.40659139296E+02  0.00000000000E+00 0. -1.
         11    1    3    3    0    0  0.81875654530E+00 -0.46948959517E+01  0.11415379551E+02  0.12370258722E+02  0.51100000000E-03 0. -1.
        -11    1    3    3    0    0 -0.12836379765E+02  0.46776699560E+01  0.12424522921E+01  0.13718488606E+02  0.51100000000E-03 0.  1.
        -12    1    3    3    0    0 -0.91469787314E+01  0.85219581540E+01  0.21000670255E+02  0.24440113376E+02  0.00000000000E+00 0.  1.
</event>
<event>
 7    1  0.5910662E-013  0.5052886E+02  0.7816164E-02  0.1300439E+00
        -11   -1    0    0    0    0  0.00000000000E+00  0.00000000000E+00  0.45593999997E+02  0.45594000000E+02  0.51100000000E-03 0. -1.
         11   -1    0    0    0    0 -0.00000000000E+00 -0.00000000000E+00 -0.45593999997E+02  0.45594000000E+02  0.51100000000E-03 0.  1.
    9900012    2    1    2    0    0  0.14347145943E+02 -0.34353169185E+02 -0.16345791490E+02  0.50528859217E+02  0.29999998076E+02 0.  0.
         12    1    1    2    0    0 -0.14347145943E+02  0.34353169185E+02  0.16345791490E+02  0.40659140783E+02  0.00000000000E+00 0. -1.
         11    1    3    3    0    0 -0.20275931867E+01  0.36586196181E+00  0.51428649060E+00  0.21235536163E+01  0.51100000000E-03 0. -1.
        -11    1    3    3    0    0  0.19147921476E+02 -0.35592722663E+02 -0.19131437599E+02  0.44715732223E+02  0.51100000000E-03 0.  1.
        -12    1    3    3    0    0 -0.27731823468E+01  0.87369151567E+00  0.22713596182E+01  0.36895733776E+01  0.00000000000E+00 0.  1.
</event>
<event>
 7    1  0.5910662E-013  0.5052885E+02  0.7816164E-02  0.1300439E+00
        -11   -1    0    0    0    0  0.00000000000E+00  0.00000000000E+00  0.45593999997E+02  0.45594000000E+02  0.51100000000E-03 0.  1.
         11   -1    0    0    0    0 -0.00000000000E+00 -0.00000000000E+00 -0.45593999997E+02  0.45594000000E+02  0.51100000000E-03 0. -1.
    9900012    2    1    2    0    0 -0.13954733977E+01  0.69228247345E+01  0.40041144656E+02  0.50528854489E+02  0.29999983705E+02 0.  0.
         12    1    1    2    0    0  0.13954733977E+01 -0.69228247345E+01 -0.40041144656E+02  0.40659145511E+02  0.00000000000E+00 0. -1.
         11    1    3    3    0    0 -0.94263943322E+01 -0.44689733040E+01  0.23999706089E+02  0.26168961101E+02  0.51100000000E-03 0. -1.
        -11    1    3    3    0    0  0.10264542855E+02  0.52114903134E+01  0.12079752144E+02  0.16686547979E+02  0.51100000000E-03 0.  1.
         12    1    3    3    0    0 -0.22336219207E+01  0.61803077251E+01  0.39616864232E+01  0.76733454097E+01  0.00000000000E+00 0. -1.
</event>
<event>
 7    1  0.5910662E-013  0.5052885E+02  0.7816164E-02  0.1300439E+00
        -11   -1    0    0    0    0  0.00000000000E+00  0.00000000000E+00  0.45593999997E+02  0.45594000000E+02  0.51100000000E-03 0.  1.
         11   -1    0    0    0    0 -0.00000000000E+00 -0.00000000000E+00 -0.45593999997E+02  0.45594000000E+02  0.51100000000E-03 0. -1.
    9900012    2    1    2    0    0  0.33922460053E+02 -0.15732283304E+01  0.22359736986E+02  0.50528853655E+02  0.29999981169E+02 0.  0.
         12    1    1    2    0    0 -0.33922460053E+02  0.15732283304E+01 -0.22359736986E+02  0.40659146345E+02  0.00000000000E+00 0. -1.
         11    1    3    3    0    0  0.33604398114E+02  0.66857667416E+01  0.14624253193E+02  0.37253507636E+02  0.51100000000E-03 0. -1.
        -11    1    3    3    0    0 -0.43823645637E+00 -0.24909606411E+01  0.69614554364E+01  0.74066725431E+01  0.51100000000E-03 0.  1.
         12    1    3    3    0    0  0.75629839582E+00 -0.57680344309E+01  0.77402835699E+00  0.58686734751E+01  0.00000000000E+00 0. -1.
</event>
<event>
 7    1  0.5910662E-013  0.5052886E+02  0.7816164E-02  0.1300439E+00
        -11   -1    0    0    0    0  0.00000000000E+00  0.00000000000E+00  0.45593999997E+02  0.45594000000E+02  0.51100000000E-03 0. -1.
         11   -1    0    0    0    0 -0.00000000000E+00 -0.00000000000E+00 -0.45593999997E+02  0.45594000000E+02  0.51100000000E-03 0.  1.
    9900012    2    1    2    0    0 -0.30925035757E+02  0.21394296478E+02 -0.15462601067E+02  0.50528858468E+02  0.29999995800E+02 0.  0.
         12    1    1    2    0    0  0.30925035757E+02 -0.21394296478E+02  0.15462601067E+02  0.40659141532E+02  0.00000000000E+00 0. -1.
         11    1    3    3    0    0 -0.19485580605E+02  0.85809560367E+01  0.56159206793E+01  0.22019519145E+02  0.51100000000E-03 0. -1.
        -11    1    3    3    0    0 -0.50318299388E+00  0.59146392886E+01 -0.92137469024E+01  0.10960350509E+02  0.51100000000E-03 0.  1.
         12    1    3    3    0    0 -0.10936272157E+02  0.68987011528E+01 -0.11864774844E+02  0.17548988814E+02  0.00000000000E+00 0. -1.
</event>
<event>
 7    1  0.5910662E-013  0.5052886E+02  0.7816164E-02  0.1300439E+00
        -11   -1    0    0    0    0  0.00000000000E+00  0.00000000000E+00  0.45593999997E+02  0.45594000000E+02  0.51100000000E-03 0. -1.
         11   -1    0    0    0    0 -0.00000000000E+00 -0.00000000000E+00 -0.45593999997E+02  0.45594000000E+02  0.51100000000E-03 0.  1.
    9900012    2    1    2    0    0 -0.31327370087E+02 -0.20573405417E+02 -0.15763760524E+02  0.50528864829E+02  0.30000015134E+02 0.  0.
         12    1    1    2    0    0  0.31327370087E+02  0.20573405417E+02  0.15763760524E+02  0.40659135171E+02  0.00000000000E+00 0. -1.
         11    1    3    3    0    0  0.25672755386E+01 -0.94990416238E+01  0.71714521543E+00  0.98659511950E+01  0.51100000000E-03 0. -1.
        -11    1    3    3    0    0 -0.16224964244E+02 -0.37548713697E+01 -0.13215961282E+02  0.21260530488E+02  0.51100000000E-03 0.  1.
         12    1    3    3    0    0 -0.17669681381E+02 -0.73194924236E+01 -0.32649444572E+01  0.19402383146E+02  0.00000000000E+00 0. -1.
</event>
<event>
 7    1  0.5910662E-013  0.5052886E+02  0.7816164E-02  0.1300439E+00
        -11   -1    0    0    0    0  0.00000000000E+00  0.00000000000E+00  0.45593999997E+02  0.45594000000E+02  0.51100000000E-03 0.  1.
         11   -1    0    0    0    0 -0.00000000000E+00 -0.00000000000E+00 -0.45593999997E+02  0.45594000000E+02  0.51100000000E-03 0. -1.
    9900012    2    1    2    0    0  0.13318732378E+02  0.10527057311E+02  0.36945336680E+02  0.50528862403E+02  0.30000007759E+02 0.  0.
         12    1    1    2    0    0 -0.13318732378E+02 -0.10527057311E+02 -0.36945336680E+02  0.40659137597E+02  0.00000000000E+00 0. -1.
         11    1    3    3    0    0  0.63291564168E+00 -0.40618654612E+01  0.10263351566E+02  0.11056026360E+02  0.51100000000E-03 0. -1.
        -11    1    3    3    0    0  0.53214780128E+01  0.19483435705E+02  0.17479738239E+02  0.26710740242E+02  0.51100000000E-03 0.  1.
        -12    1    3    3    0    0  0.73643387236E+01 -0.48945129327E+01  0.92022468746E+01  0.12762095801E+02  0.00000000000E+00 0.  1.
</event>
<event>
 7    1  0.5910662E-013  0.5052886E+02  0.7816164E-02  0.1300439E+00
        -11   -1    0    0    0    0  0.00000000000E+00  0.00000000000E+00  0.45593999997E+02  0.45594000000E+02  0.51100000000E-03 0.  1.
         11   -1    0    0    0    0 -0.00000000000E+00 -0.00000000000E+00 -0.45593999997E+02  0.45594000000E+02  0.51100000000E-03 0. -1.
    9900012    2    1    2    0    0  0.79910910667E+01  0.38228342312E+02  0.11309364961E+02  0.50528862919E+02  0.30000009328E+02 0.  0.
         12    1    1    2    0    0 -0.79910910667E+01 -0.38228342312E+02 -0.11309364961E+02  0.40659137081E+02  0.00000000000E+00 0. -1.
         11    1    3    3    0    0  0.10863734016E+02  0.24015531904E+02 -0.24796149182E+01  0.26474798956E+02  0.51100000000E-03 0. -1.
        -11    1    3    3    0    0 -0.43558406169E+01  0.14465299215E+02  0.62204627491E+01  0.16337453471E+02  0.51100000000E-03 0.  1.
         12    1    3    3    0    0  0.14831976679E+01 -0.25248880620E+00  0.75685171303E+01  0.77166104911E+01  0.00000000000E+00 0. -1.
</event>
<event>
 7    1  0.5910662E-013  0.5052886E+02  0.7816164E-02  0.1300439E+00
        -11   -1    0    0    0    0  0.00000000000E+00  0.00000000000E+00  0.45593999997E+02  0.45594000000E+02  0.51100000000E-03 0.  1.
         11   -1    0    0    0    0 -0.00000000000E+00 -0.00000000000E+00 -0.45593999997E+02  0.45594000000E+02  0.51100000000E-03 0. -1.
    9900012    2    1    2    0    0 -0.55685289508E+01  0.12769896310E+02  0.38197997117E+02  0.50528858959E+02  0.29999997292E+02 0.  0.
         12    1    1    2    0    0  0.55685289508E+01 -0.12769896310E+02 -0.38197997117E+02  0.40659141041E+02  0.00000000000E+00 0. -1.
         11    1    3    3    0    0  0.24110512717E+01 -0.80344139752E+01  0.38937292076E+01  0.92480324158E+01  0.51100000000E-03 0. -1.
        -11    1    3    3    0    0 -0.34696215366E+01  0.14803953596E+02  0.25713335081E+02  0.29872578009E+02  0.51100000000E-03 0.  1.
        -12    1    3    3    0    0 -0.45099586858E+01  0.60003566901E+01  0.85909328286E+01  0.11408248534E+02  0.00000000000E+00 0.  1.
</event>
<event>
 7    1  0.5910662E-013  0.5052886E+02  0.7816164E-02  0.1300439E+00
        -11   -1    0    0    0    0  0.00000000000E+00  0.00000000000E+00  0.45593999997E+02  0.45594000000E+02  0.51100000000E-03 0.  1.
         11   -1    0    0    0    0 -0.00000000000E+00 -0.00000000000E+00 -0.45593999997E+02  0.45594000000E+02  0.51100000000E-03 0. -1.
    9900012    2    1    2    0    0 -0.38090349995E+02  0.62465295381E+01 -0.12777776485E+02  0.50528862455E+02  0.30000007918E+02 0.  0.
         12    1    1    2    0    0  0.38090349995E+02 -0.62465295381E+01  0.12777776485E+02  0.40659137545E+02  0.00000000000E+00 0. -1.
         11    1    3    3    0    0  0.90404058955E+00  0.69985913937E+00  0.48261456576E+01  0.49597151503E+01  0.51100000000E-03 0. -1.
        -11    1    3    3    0    0 -0.19907058553E+02 -0.37982552633E+01 -0.12146660237E+02  0.23627506818E+02  0.51100000000E-03 0.  1.
         12    1    3    3    0    0 -0.19087332032E+02  0.93449256621E+01 -0.54572619055E+01  0.21941640486E+02  0.00000000000E+00 0. -1.
</event>
<event>
 7    1  0.5910662E-013  0.5052886E+02  0.7816164E-02  0.1300439E+00
        -11   -1    0    0    0    0  0.00000000000E+00  0.00000000000E+00  0.45593999997E+02  0.45594000000E+02  0.51100000000E-03 0. -1.
         11   -1    0    0    0    0 -0.00000000000E+00 -0.00000000000E+00 -0.45593999997E+02  0.45594000000E+02  0.51100000000E-03 0.  1.
    9900012    2    1    2    0    0 -0.32832707791E+02 -0.35894731858E+01 -0.23712758301E+02  0.50528856811E+02  0.29999990762E+02 0.  0.
         12    1    1    2    0    0  0.32832707791E+02  0.35894731858E+01  0.23712758301E+02  0.40659143189E+02  0.00000000000E+00 0. -1.
         11    1    3    3    0    0 -0.17913899844E+02  0.11611566160E+02 -0.15600024698E+02  0.26440443400E+02  0.51100000000E-03 0. -1.
        -11    1    3    3    0    0 -0.13841510635E+01 -0.26741597335E+01 -0.43111356465E+01  0.52586020263E+01  0.51100000000E-03 0.  1.
         12    1    3    3    0    0 -0.13534656883E+02 -0.12526879613E+02 -0.38015979564E+01  0.18829811385E+02  0.00000000000E+00 0. -1.
</event>
<event>
 7    1  0.5910662E-013  0.5052886E+02  0.7816164E-02  0.1300439E+00
        -11   -1    0    0    0    0  0.00000000000E+00  0.00000000000E+00  0.45593999997E+02  0.45594000000E+02  0.51100000000E-03 0.  1.
         11   -1    0    0    0    0 -0.00000000000E+00 -0.00000000000E+00 -0.45593999997E+02  0.45594000000E+02  0.51100000000E-03 0. -1.
    9900012    2    1    2    0    0  0.36304504798E+02  0.43555703988E+01  0.17781385755E+02  0.50528859066E+02  0.29999997617E+02 0.  0.
         12    1    1    2    0    0 -0.36304504798E+02 -0.43555703988E+01 -0.17781385755E+02  0.40659140934E+02  0.00000000000E+00 0. -1.
         11    1    3    3    0    0  0.88827308381E+01  0.55053373078E+01 -0.10873932133E+01  0.10506858250E+02  0.51100000000E-03 0. -1.
        -11    1    3    3    0    0  0.19775915376E+02 -0.10299609949E+02  0.16804866442E+02  0.27920822525E+02  0.51100000000E-03 0.  1.
        -12    1    3    3    0    0  0.76458585833E+01  0.91498430399E+01  0.20639125266E+01  0.12101178292E+02  0.00000000000E+00 0.  1.
</event>
<event>
 7    1  0.5910662E-013  0.5052886E+02  0.7816164E-02  0.1300439E+00
        -11   -1    0    0    0    0  0.00000000000E+00  0.00000000000E+00  0.45593999997E+02  0.45594000000E+02  0.51100000000E-03 0.  1.
         11   -1    0    0    0    0 -0.00000000000E+00 -0.00000000000E+00 -0.45593999997E+02  0.45594000000E+02  0.51100000000E-03 0. -1.
    9900012    2    1    2    0    0 -0.13013624256E+02  0.36798867663E+02  0.11386603767E+02  0.50528858065E+02  0.29999994575E+02 0.  0.
         12    1    1    2    0    0  0.13013624256E+02 -0.36798867663E+02 -0.11386603767E+02  0.40659141935E+02  0.00000000000E+00 0. -1.
         11    1    3    3    0    0 -0.11771633743E+02  0.15191835681E+01  0.84895375214E+01  0.14592858776E+02  0.51100000000E-03 0. -1.
        -11    1    3    3    0    0  0.17472351102E+01  0.17605806844E+02 -0.46565068482E+00  0.17698420720E+02  0.51100000000E-03 0.  1.
         12    1    3    3    0    0 -0.29892256234E+01  0.17673877250E+02  0.33627169307E+01  0.18237578568E+02  0.00000000000E+00 0. -1.
</event>
<event>
 7    1  0.5910662E-013  0.5052876E+02  0.7816164E-02  0.1300439E+00
        -11   -1    0    0    0    0  0.00000000000E+00  0.00000000000E+00  0.45593999997E+02  0.45594000000E+02  0.51100000000E-03 0. -1.
         11   -1    0    0    0    0 -0.00000000000E+00 -0.00000000000E+00 -0.45593999997E+02  0.45594000000E+02  0.51100000000E-03 0.  1.
    9900012    2    1    2    0    0  0.87326128560E+01  0.97159145977E+01 -0.38503453790E+02  0.50528763934E+02  0.29999708452E+02 0.  0.
         12    1    1    2    0    0 -0.87326128560E+01 -0.97159145977E+01  0.38503453790E+02  0.40659236066E+02  0.00000000000E+00 0. -1.
         11    1    3    3    0    0  0.16281147360E+02 -0.33129120584E+01 -0.25287387437E+02  0.30257281922E+02  0.51100000000E-03 0. -1.
        -11    1    3    3    0    0 -0.53526857307E+01  0.85955660543E+01 -0.10660623268E+02  0.14703193158E+02  0.51100000000E-03 0.  1.
         12    1    3    3    0    0 -0.21958487734E+01  0.44332606017E+01 -0.25554430848E+01  0.55682888537E+01  0.00000000000E+00 0. -1.
</event>
<event>
 7    1  0.5910662E-013  0.5052889E+02  0.7816164E-02  0.1300439E+00
        -11   -1    0    0    0    0  0.00000000000E+00  0.00000000000E+00  0.45593999997E+02  0.45594000000E+02  0.51100000000E-03 0.  1.
         11   -1    0    0    0    0 -0.00000000000E+00 -0.00000000000E+00 -0.45593999997E+02  0.45594000000E+02  0.51100000000E-03 0. -1.
    9900012    2    1    2    0    0 -0.25255110948E+02  0.23805495756E+02  0.21181151064E+02  0.50528887643E+02  0.30000084480E+02 0.  0.
         12    1    1    2    0    0  0.25255110948E+02 -0.23805495756E+02 -0.21181151064E+02  0.40659112357E+02  0.00000000000E+00 0. -1.
         11    1    3    3    0    0 -0.28138720010E+01 -0.12964859658E+01 -0.47478875599E+01  0.56693198922E+01  0.51100000000E-03 0. -1.
        -11    1    3    3    0    0 -0.12807630469E+02  0.23532351388E+02  0.20068744153E+02  0.33474788307E+02  0.51100000000E-03 0.  1.
         12    1    3    3    0    0 -0.96336084781E+01  0.15696303347E+01  0.58602944718E+01  0.11384779444E+02  0.00000000000E+00 0. -1.
</event>
<event>
 7    1  0.5910662E-013  0.5052886E+02  0.7816164E-02  0.1300439E+00
        -11   -1    0    0    0    0  0.00000000000E+00  0.00000000000E+00  0.45593999997E+02  0.45594000000E+02  0.51100000000E-03 0. -1.
         11   -1    0    0    0    0 -0.00000000000E+00 -0.00000000000E+00 -0.45593999997E+02  0.45594000000E+02  0.51100000000E-03 0.  1.
    9900012    2    1    2    0    0  0.23650492707E+02 -0.32140414817E+02  0.77983048631E+01  0.50528860454E+02  0.30000001835E+02 0.  0.
         12    1    1    2    0    0 -0.23650492707E+02  0.32140414817E+02 -0.77983048631E+01  0.40659139546E+02  0.00000000000E+00 0. -1.
         11    1    3    3    0    0 -0.25664791644E+01  0.15510876349E+01  0.11746241458E+01  0.32206257618E+01  0.51100000000E-03 0. -1.
        -11    1    3    3    0    0  0.21816941519E+02 -0.33241504187E+02  0.51298761417E+00  0.39764804720E+02  0.51100000000E-03 0.  1.
         12    1    3    3    0    0  0.44000303529E+01 -0.44999826516E+00  0.61106931031E+01  0.75434299721E+01  0.00000000000E+00 0. -1.
</event>
<event>
 7    1  0.5910662E-013  0.5052886E+02  0.7816164E-02  0.1300439E+00
        -11   -1    0    0    0    0  0.00000000000E+00  0.00000000000E+00  0.45593999997E+02  0.45594000000E+02  0.51100000000E-03 0.  1.
         11   -1    0    0    0    0 -0.00000000000E+00 -0.00000000000E+00 -0.45593999997E+02  0.45594000000E+02  0.51100000000E-03 0. -1.
    9900012    2    1    2    0    0  0.20471070856E+02 -0.13700709069E+02  0.32347969791E+02  0.50528864242E+02  0.30000013351E+02 0.  0.
         12    1    1    2    0    0 -0.20471070856E+02  0.13700709069E+02 -0.32347969791E+02  0.40659135758E+02  0.00000000000E+00 0. -1.
         11    1    3    3    0    0  0.76976903002E+01  0.19926487128E+01  0.50091133695E+01  0.93976753434E+01  0.51100000000E-03 0. -1.
        -11    1    3    3    0    0 -0.60546699316E+01 -0.87754524197E+01  0.89855647123E+01  0.13943025734E+02  0.51100000000E-03 0.  1.
        -12    1    3    3    0    0  0.18828050487E+02 -0.69179053617E+01  0.18353291709E+02  0.27188163165E+02  0.00000000000E+00 0.  1.
</event>
<event>
 7    1  0.5910662E-013  0.5052887E+02  0.7816164E-02  0.1300439E+00
        -11   -1    0    0    0    0  0.00000000000E+00  0.00000000000E+00  0.45593999997E+02  0.45594000000E+02  0.51100000000E-03 0.  1.
         11   -1    0    0    0    0 -0.00000000000E+00 -0.00000000000E+00 -0.45593999997E+02  0.45594000000E+02  0.51100000000E-03 0. -1.
    9900012    2    1    2    0    0  0.10770161563E+02 -0.18338582985E+02  0.34653499155E+02  0.50528868065E+02  0.30000024971E+02 0.  0.
         12    1    1    2    0    0 -0.10770161563E+02  0.18338582985E+02 -0.34653499155E+02  0.40659131935E+02  0.00000000000E+00 0. -1.
         11    1    3    3    0    0  0.28709930022E+01 -0.22181297334E+02  0.14358590300E+02  0.26578594167E+02  0.51100000000E-03 0. -1.
        -11    1    3    3    0    0  0.61854057078E+01  0.14620640162E+01  0.20019283761E+02  0.21004013843E+02  0.51100000000E-03 0.  1.
        -12    1    3    3    0    0  0.17137628526E+01  0.23806503326E+01  0.27562509443E+00  0.29462600554E+01  0.00000000000E+00 0.  1.
</event>
<event>
 7    1  0.5910662E-013  0.5052883E+02  0.7816164E-02  0.1300439E+00
        -11   -1    0    0    0    0  0.00000000000E+00  0.00000000000E+00  0.45593999997E+02  0.45594000000E+02  0.51100000000E-03 0.  1.
         11   -1    0    0    0    0 -0.00000000000E+00 -0.00000000000E+00 -0.45593999997E+02  0.45594000000E+02  0.51100000000E-03 0. -1.
    9900012    2    1    2    0    0 -0.38260979167E+02  0.11799395568E+02  0.70738568228E+01  0.50528834823E+02  0.29999923927E+02 0.  0.
         12    1    1    2    0    0  0.38260979167E+02 -0.11799395568E+02 -0.70738568228E+01  0.40659165177E+02  0.00000000000E+00 0. -1.
         11    1    3    3    0    0 -0.27355691939E+02  0.88028428775E+01 -0.31824460956E+01  0.28912832576E+02  0.51100000000E-03 0. -1.
        -11    1    3    3    0    0  0.21348872341E+01 -0.37724428070E+01  0.24236415010E+01  0.49661963937E+01  0.51100000000E-03 0.  1.
        -12    1    3    3    0    0 -0.13040174462E+02  0.67689954976E+01  0.78326614174E+01  0.16649805853E+02  0.00000000000E+00 0.  1.
</event>
<event>
 7    1  0.5910662E-013  0.5052885E+02  0.7816164E-02  0.1300439E+00
        -11   -1    0    0    0    0  0.00000000000E+00  0.00000000000E+00  0.45593999997E+02  0.45594000000E+02  0.51100000000E-03 0.  1.
         11   -1    0    0    0    0 -0.00000000000E+00 -0.00000000000E+00 -0.45593999997E+02  0.45594000000E+02  0.51100000000E-03 0. -1.
    9900012    2    1    2    0    0  0.24932906767E+02 -0.23901032624E+02  0.21453602836E+02  0.50528852505E+02  0.29999977675E+02 0.  0.
         12    1    1    2    0    0 -0.24932906767E+02  0.23901032624E+02 -0.21453602836E+02  0.40659147495E+02  0.00000000000E+00 0. -1.
         11    1    3    3    0    0  0.15881636048E+01  0.58166839591E+01 -0.92606532892E+00  0.61003010721E+01  0.51100000000E-03 0. -1.
        -11    1    3    3    0    0  0.13195665743E+02 -0.17385698159E+02  0.90599717586E+01  0.23631994910E+02  0.51100000000E-03 0.  1.
         12    1    3    3    0    0  0.10149077419E+02 -0.12332018424E+02  0.13319696407E+02  0.20796556523E+02  0.00000000000E+00 0. -1.
</event>
<event>
 7    1  0.6052683E-013  0.5052890E+02  0.7816164E-02  0.1300439E+00
        -11   -1    0    0    0    0  0.00000000000E+00  0.00000000000E+00  0.45593999997E+02  0.45594000000E+02  0.51100000000E-03 0.  1.
         11   -1    0    0    0    0 -0.00000000000E+00 -0.00000000000E+00 -0.45593999997E+02  0.45594000000E+02  0.51100000000E-03 0. -1.
    9900012    2    1    2    0    0  0.12342915871E+02 -0.28981461486E+02  0.25707771703E+02  0.50528902519E+02  0.30000129696E+02 0.  0.
         12    1    1    2    0    0 -0.12342915871E+02  0.28981461486E+02 -0.25707771703E+02  0.40659097481E+02  0.00000000000E+00 0. -1.
         11    1    3    3    0    0  0.15773912965E+01 -0.24984014809E+01 -0.31554369120E+01  0.43228411524E+01  0.51100000000E-03 0. -1.
        -11    1    3    3    0    0  0.13160039503E+02 -0.29457271321E+02  0.25734999128E+02  0.41269936440E+02  0.51100000000E-03 0.  1.
        -12    1    3    3    0    0 -0.23945149285E+01  0.29742113161E+01  0.31282094868E+01  0.49361249264E+01  0.00000000000E+00 0.  1.
</event>
<event>
 7    1  0.5910662E-013  0.5052888E+02  0.7816164E-02  0.1300439E+00
        -11   -1    0    0    0    0  0.00000000000E+00  0.00000000000E+00  0.45593999997E+02  0.45594000000E+02  0.51100000000E-03 0.  1.
         11   -1    0    0    0    0 -0.00000000000E+00 -0.00000000000E+00 -0.45593999997E+02  0.45594000000E+02  0.51100000000E-03 0. -1.
    9900012    2    1    2    0    0  0.38836186996E+02  0.56593541994E+01  0.10624791024E+02  0.50528881777E+02  0.30000066649E+02 0.  0.
         12    1    1    2    0    0 -0.38836186996E+02 -0.56593541994E+01 -0.10624791024E+02  0.40659118223E+02  0.00000000000E+00 0. -1.
         11    1    3    3    0    0  0.88258722155E+01 -0.15246481562E+00  0.74672920679E+01  0.11561994507E+02  0.51100000000E-03 0. -1.
        -11    1    3    3    0    0  0.26430355015E+02  0.11278889947E+00 -0.64787550214E+01  0.27213060365E+02  0.51100000000E-03 0.  1.
        -12    1    3    3    0    0  0.35799597659E+01  0.56990301155E+01  0.96362539779E+01  0.11753826905E+02  0.00000000000E+00 0.  1.
</event>
<event>
 7    1  0.5910662E-013  0.5052886E+02  0.7816164E-02  0.1300439E+00
        -11   -1    0    0    0    0  0.00000000000E+00  0.00000000000E+00  0.45593999997E+02  0.45594000000E+02  0.51100000000E-03 0.  1.
         11   -1    0    0    0    0 -0.00000000000E+00 -0.00000000000E+00 -0.45593999997E+02  0.45594000000E+02  0.51100000000E-03 0. -1.
    9900012    2    1    2    0    0  0.30589143032E+02 -0.13120563305E+02  0.23352108765E+02  0.50528857896E+02  0.29999994061E+02 0.  0.
         12    1    1    2    0    0 -0.30589143032E+02  0.13120563305E+02 -0.23352108765E+02  0.40659142104E+02  0.00000000000E+00 0. -1.
         11    1    3    3    0    0  0.27254335229E+01 -0.10194372043E+02 -0.15420049511E+00  0.10553529613E+02  0.51100000000E-03 0. -1.
        -11    1    3    3    0    0  0.24942188778E+02 -0.50658109525E+01  0.12434801729E+02  0.28326657338E+02  0.51100000000E-03 0.  1.
        -12    1    3    3    0    0  0.29215207311E+01  0.21396196896E+01  0.11071507531E+02  0.11648670946E+02  0.00000000000E+00 0.  1.
</event>
<event>
 7    1  0.5910662E-013  0.5052886E+02  0.7816164E-02  0.1300439E+00
        -11   -1    0    0    0    0  0.00000000000E+00  0.00000000000E+00  0.45593999997E+02  0.45594000000E+02  0.51100000000E-03 0. -1.
         11   -1    0    0    0    0 -0.00000000000E+00 -0.00000000000E+00 -0.45593999997E+02  0.45594000000E+02  0.51100000000E-03 0.  1.
    9900012    2    1    2    0    0 -0.33443379438E+02 -0.75366851465E+01 -0.21861017886E+02  0.50528863829E+02  0.30000012094E+02 0.  0.
         12    1    1    2    0    0  0.33443379438E+02  0.75366851465E+01  0.21861017886E+02  0.40659136171E+02  0.00000000000E+00 0. -1.
         11    1    3    3    0    0 -0.72579046473E+01  0.19699197691E+01  0.16850086403E+01  0.77069460972E+01  0.51100000000E-03 0. -1.
        -11    1    3    3    0    0 -0.13339967614E+02 -0.14617888419E+02 -0.20831163863E+02  0.28732817230E+02  0.51100000000E-03 0.  1.
        -12    1    3    3    0    0 -0.12845507176E+02  0.51112835039E+01 -0.27148626626E+01  0.14089100502E+02  0.00000000000E+00 0.  1.
</event>
<event>
 7    1  0.5910662E-013  0.5052887E+02  0.7816164E-02  0.1300439E+00
        -11   -1    0    0    0    0  0.00000000000E+00  0.00000000000E+00  0.45593999997E+02  0.45594000000E+02  0.51100000000E-03 0. -1.
         11   -1    0    0    0    0 -0.00000000000E+00 -0.00000000000E+00 -0.45593999997E+02  0.45594000000E+02  0.51100000000E-03 0.  1.
    9900012    2    1    2    0    0  0.14865159832E+01 -0.25536967152E+02 -0.31604087259E+02  0.50528871227E+02  0.30000034583E+02 0.  0.
         12    1    1    2    0    0 -0.14865159832E+01  0.25536967152E+02  0.31604087259E+02  0.40659128773E+02  0.00000000000E+00 0. -1.
         11    1    3    3    0    0 -0.95705641944E+01 -0.17387664784E+02 -0.16748930670E+02  0.25970238052E+02  0.51100000000E-03 0. -1.
        -11    1    3    3    0    0  0.99611645071E+01 -0.10207297666E+02 -0.61239782685E+01  0.15521495871E+02  0.51100000000E-03 0.  1.
         12    1    3    3    0    0  0.10959156705E+01  0.20579952972E+01 -0.87311783206E+01  0.90371373048E+01  0.00000000000E+00 0. -1.
</event>
<event>
 7    1  0.5910662E-013  0.5052886E+02  0.7816164E-02  0.1300439E+00
        -11   -1    0    0    0    0  0.00000000000E+00  0.00000000000E+00  0.45593999997E+02  0.45594000000E+02  0.51100000000E-03 0.  1.
         11   -1    0    0    0    0 -0.00000000000E+00 -0.00000000000E+00 -0.45593999997E+02  0.45594000000E+02  0.51100000000E-03 0. -1.
    9900012    2    1    2    0    0  0.26024172550E+02 -0.26670869750E+01  0.31125471280E+02  0.50528857458E+02  0.29999992730E+02 0.  0.
         12    1    1    2    0    0 -0.26024172550E+02  0.26670869750E+01 -0.31125471280E+02  0.40659142542E+02  0.00000000000E+00 0. -1.
         11    1    3    3    0    0 -0.16607025459E+01 -0.94658585422E+01  0.11116981600E+02  0.14695158762E+02  0.51100000000E-03 0. -1.
        -11    1    3    3    0    0  0.27157277932E+02  0.51835008451E+01  0.17230576126E+02  0.32577280113E+02  0.51100000000E-03 0.  1.
         12    1    3    3    0    0  0.52759716384E+00  0.16152707221E+01  0.27779135542E+01  0.32564185830E+01  0.00000000000E+00 0. -1.
</event>
<event>
 7    1  0.5910662E-013  0.5052886E+02  0.7816164E-02  0.1300439E+00
        -11   -1    0    0    0    0  0.00000000000E+00  0.00000000000E+00  0.45593999997E+02  0.45594000000E+02  0.51100000000E-03 0.  1.
         11   -1    0    0    0    0 -0.00000000000E+00 -0.00000000000E+00 -0.45593999997E+02  0.45594000000E+02  0.51100000000E-03 0. -1.
    9900012    2    1    2    0    0 -0.35651419800E+02  0.14023647850E+02  0.13619069495E+02  0.50528862199E+02  0.30000007140E+02 0.  0.
         12    1    1    2    0    0  0.35651419800E+02 -0.14023647850E+02 -0.13619069495E+02  0.40659137801E+02  0.00000000000E+00 0. -1.
         11    1    3    3    0    0 -0.60281817947E+01  0.10896029195E+01 -0.66984201254E+01  0.90771715148E+01  0.51100000000E-03 0. -1.
        -11    1    3    3    0    0 -0.96995398467E+01  0.93898282129E+01  0.15679544772E+02  0.20690530965E+02  0.51100000000E-03 0.  1.
         12    1    3    3    0    0 -0.19923698159E+02  0.35442167179E+01  0.46379448490E+01  0.20761159719E+02  0.00000000000E+00 0. -1.
</event>
<event>
 7    1  0.5910662E-013  0.5052886E+02  0.7816164E-02  0.1300439E+00
        -11   -1    0    0    0    0  0.00000000000E+00  0.00000000000E+00  0.45593999997E+02  0.45594000000E+02  0.51100000000E-03 0.  1.
         11   -1    0    0    0    0 -0.00000000000E+00 -0.00000000000E+00 -0.45593999997E+02  0.45594000000E+02  0.51100000000E-03 0. -1.
    9900012    2    1    2    0    0  0.38148352405E+02 -0.65002223351E+01 -0.12474600682E+02  0.50528863956E+02  0.30000012482E+02 0.  0.
         12    1    1    2    0    0 -0.38148352405E+02  0.65002223351E+01  0.12474600682E+02  0.40659136044E+02  0.00000000000E+00 0. -1.
         11    1    3    3    0    0 -0.48859514263E+01 -0.91626149004E+00 -0.16041454113E+01  0.52235370411E+01  0.51100000000E-03 0. -1.
        -11    1    3    3    0    0  0.28911672735E+02 -0.53585185775E+00 -0.83427753353E+01  0.30096077122E+02  0.51100000000E-03 0.  1.
         12    1    3    3    0    0  0.14122631096E+02 -0.50481089873E+01 -0.25276799349E+01  0.15209249794E+02  0.00000000000E+00 0. -1.
</event>
<event>
 7    1  0.5910662E-013  0.5052885E+02  0.7816164E-02  0.1300439E+00
        -11   -1    0    0    0    0  0.00000000000E+00  0.00000000000E+00  0.45593999997E+02  0.45594000000E+02  0.51100000000E-03 0. -1.
         11   -1    0    0    0    0 -0.00000000000E+00 -0.00000000000E+00 -0.45593999997E+02  0.45594000000E+02  0.51100000000E-03 0.  1.
    9900012    2    1    2    0    0 -0.21440463055E+02 -0.14328349966E+02 -0.31435190998E+02  0.50528852175E+02  0.29999976671E+02 0.  0.
         12    1    1    2    0    0  0.21440463055E+02  0.14328349966E+02  0.31435190998E+02  0.40659147825E+02  0.00000000000E+00 0. -1.
         11    1    3    3    0    0 -0.11606741171E+02 -0.15335170792E+02 -0.13340254726E+02  0.23406116727E+02  0.51100000000E-03 0. -1.
        -11    1    3    3    0    0  0.29395172558E+01  0.58358094330E+01 -0.53809126166E+01  0.84647300184E+01  0.51100000000E-03 0.  1.
        -12    1    3    3    0    0 -0.12773239140E+02 -0.48289886076E+01 -0.12714023656E+02  0.18658005430E+02  0.00000000000E+00 0.  1.
</event>
<event>
 7    1  0.5910662E-013  0.5052886E+02  0.7816164E-02  0.1300439E+00
        -11   -1    0    0    0    0  0.00000000000E+00  0.00000000000E+00  0.45593999997E+02  0.45594000000E+02  0.51100000000E-03 0.  1.
         11   -1    0    0    0    0 -0.00000000000E+00 -0.00000000000E+00 -0.45593999997E+02  0.45594000000E+02  0.51100000000E-03 0. -1.
    9900012    2    1    2    0    0  0.19658620140E+01  0.28129183319E+02  0.29292492729E+02  0.50528859602E+02  0.29999999246E+02 0.  0.
         12    1    1    2    0    0 -0.19658620140E+01 -0.28129183319E+02 -0.29292492729E+02  0.40659140398E+02  0.00000000000E+00 0. -1.
         11    1    3    3    0    0 -0.23407654746E+01  0.82355386849E+01  0.21504695907E+02  0.23146386905E+02  0.51100000000E-03 0. -1.
        -11    1    3    3    0    0 -0.17316220756E+01  0.77031268342E+01  0.10868910626E+02  0.13433908459E+02  0.51100000000E-03 0.  1.
         12    1    3    3    0    0  0.60382495642E+01  0.12190517799E+02 -0.30811138036E+01  0.13948564238E+02  0.00000000000E+00 0. -1.
</event>
<event>
 7    1  0.5910662E-013  0.5052894E+02  0.7816164E-02  0.1300439E+00
        -11   -1    0    0    0    0  0.00000000000E+00  0.00000000000E+00  0.45593999997E+02  0.45594000000E+02  0.51100000000E-03 0.  1.
         11   -1    0    0    0    0 -0.00000000000E+00 -0.00000000000E+00 -0.45593999997E+02  0.45594000000E+02  0.51100000000E-03 0. -1.
    9900012    2    1    2    0    0 -0.12070386289E+02  0.35072729505E+02  0.16654389009E+02  0.50528938853E+02  0.30000240136E+02 0.  0.
         12    1    1    2    0    0  0.12070386289E+02 -0.35072729505E+02 -0.16654389009E+02  0.40659061147E+02  0.00000000000E+00 0. -1.
         11    1    3    3    0    0  0.73912262017E+00  0.65958788965E-01  0.41236597040E+01  0.41898952762E+01  0.51100000000E-03 0. -1.
        -11    1    3    3    0    0 -0.95059941482E+01  0.22566499484E+02 -0.45962648409E+01  0.24914583570E+02  0.51100000000E-03 0.  1.
        -12    1    3    3    0    0 -0.33035147609E+01  0.12440271232E+02  0.17126994146E+02  0.21424460007E+02  0.00000000000E+00 0.  1.
</event>
<event>
 7    1  0.5910662E-013  0.5052886E+02  0.7816164E-02  0.1300439E+00
        -11   -1    0    0    0    0  0.00000000000E+00  0.00000000000E+00  0.45593999997E+02  0.45594000000E+02  0.51100000000E-03 0.  1.
         11   -1    0    0    0    0 -0.00000000000E+00 -0.00000000000E+00 -0.45593999997E+02  0.45594000000E+02  0.51100000000E-03 0. -1.
    9900012    2    1    2    0    0 -0.38557920965E+02  0.12740719961E+02  0.20313614290E+01  0.50528860271E+02  0.30000001280E+02 0.  0.
         12    1    1    2    0    0  0.38557920965E+02 -0.12740719961E+02 -0.20313614290E+01  0.40659139729E+02  0.00000000000E+00 0. -1.
         11    1    3    3    0    0 -0.22328925552E+01 -0.75762960522E+01 -0.26577638296E+01  0.83336534526E+01  0.51100000000E-03 0. -1.
        -11    1    3    3    0    0 -0.26150598592E+02  0.15289138729E+02  0.56166821988E+01  0.30808419125E+02  0.51100000000E-03 0.  1.
         12    1    3    3    0    0 -0.10174429817E+02  0.50278772844E+01 -0.92755694021E+00  0.11386787693E+02  0.00000000000E+00 0. -1.
</event>
<event>
 7    1  0.5910662E-013  0.5052889E+02  0.7816164E-02  0.1300439E+00
        -11   -1    0    0    0    0  0.00000000000E+00  0.00000000000E+00  0.45593999997E+02  0.45594000000E+02  0.51100000000E-03 0.  1.
         11   -1    0    0    0    0 -0.00000000000E+00 -0.00000000000E+00 -0.45593999997E+02  0.45594000000E+02  0.51100000000E-03 0. -1.
    9900012    2    1    2    0    0  0.32073863198E+02  0.68024243739E+01  0.24044915115E+02  0.50528885146E+02  0.30000076889E+02 0.  0.
         12    1    1    2    0    0 -0.32073863198E+02 -0.68024243739E+01 -0.24044915115E+02  0.40659114854E+02  0.00000000000E+00 0. -1.
         11    1    3    3    0    0 -0.30111240308E+01  0.71212424754E+00  0.75578809593E+01  0.81667345818E+01  0.51100000000E-03 0. -1.
        -11    1    3    3    0    0  0.23260082903E+02 -0.16893285862E+01  0.43650411004E+01  0.23726332877E+02  0.51100000000E-03 0.  1.
        -12    1    3    3    0    0  0.11824904326E+02  0.77796287125E+01  0.12121993055E+02  0.18635817687E+02  0.00000000000E+00 0.  1.
</event>
<event>
 7    1  0.5910662E-013  0.5052887E+02  0.7816164E-02  0.1300439E+00
        -11   -1    0    0    0    0  0.00000000000E+00  0.00000000000E+00  0.45593999997E+02  0.45594000000E+02  0.51100000000E-03 0.  1.
         11   -1    0    0    0    0 -0.00000000000E+00 -0.00000000000E+00 -0.45593999997E+02  0.45594000000E+02  0.51100000000E-03 0. -1.
    9900012    2    1    2    0    0 -0.10678569148E+02 -0.16744243504E+02  0.35479054552E+02  0.50528870134E+02  0.30000031258E+02 0.  0.
         12    1    1    2    0    0  0.10678569148E+02  0.16744243504E+02 -0.35479054552E+02  0.40659129866E+02  0.00000000000E+00 0. -1.
         11    1    3    3    0    0 -0.10355550051E+02 -0.21935161401E+01  0.13059871265E+02  0.16810983542E+02  0.51100000000E-03 0. -1.
        -11    1    3    3    0    0  0.34498248084E+01 -0.74186286233E+01 -0.16378415715E+01  0.83438520561E+01  0.51100000000E-03 0.  1.
        -12    1    3    3    0    0 -0.37728439056E+01 -0.71320987404E+01  0.24057024859E+02  0.25374034536E+02  0.00000000000E+00 0.  1.
</event>
<event>
 7    1  0.5910662E-013  0.5052887E+02  0.7816164E-02  0.1300439E+00
        -11   -1    0    0    0    0  0.00000000000E+00  0.00000000000E+00  0.45593999997E+02  0.45594000000E+02  0.51100000000E-03 0.  1.
         11   -1    0    0    0    0 -0.00000000000E+00 -0.00000000000E+00 -0.45593999997E+02  0.45594000000E+02  0.51100000000E-03 0. -1.
    9900012    2    1    2    0    0  0.68774119387E+01 -0.16795861198E+02  0.36383584273E+02  0.50528868763E+02  0.30000027092E+02 0.  0.
         12    1    1    2    0    0 -0.68774119387E+01  0.16795861198E+02 -0.36383584273E+02  0.40659131237E+02  0.00000000000E+00 0. -1.
         11    1    3    3    0    0 -0.33882583496E+01 -0.16487970921E+02  0.52971728121E+01  0.17646345792E+02  0.51100000000E-03 0. -1.
        -11    1    3    3    0    0  0.15285365239E+01 -0.78660731075E+00  0.82475229413E+01  0.84247735812E+01  0.51100000000E-03 0.  1.
         12    1    3    3    0    0  0.87371337644E+01  0.47871703319E+00  0.22838888520E+02  0.24457749390E+02  0.00000000000E+00 0. -1.
</event>
<event>
 7    1  0.5910662E-013  0.5052894E+02  0.7816164E-02  0.1300439E+00
        -11   -1    0    0    0    0  0.00000000000E+00  0.00000000000E+00  0.45593999997E+02  0.45594000000E+02  0.51100000000E-03 0.  1.
         11   -1    0    0    0    0 -0.00000000000E+00 -0.00000000000E+00 -0.45593999997E+02  0.45594000000E+02  0.51100000000E-03 0. -1.
    9900012    2    1    2    0    0  0.10398466371E+02  0.88752173743E+01  0.38291799388E+02  0.50528935984E+02  0.30000231415E+02 0.  0.
         12    1    1    2    0    0 -0.10398466371E+02 -0.88752173743E+01 -0.38291799388E+02  0.40659064016E+02  0.00000000000E+00 0. -1.
         11    1    3    3    0    0  0.12031515754E+01 -0.75926510933E+01  0.12040960961E+01  0.77811163728E+01  0.51100000000E-03 0. -1.
        -11    1    3    3    0    0 -0.95817036943E+00  0.67264301415E+01  0.16153478168E+02  0.17524206404E+02  0.51100000000E-03 0.  1.
         12    1    3    3    0    0  0.10153485165E+02  0.97414383260E+01  0.20934225124E+02  0.25223613206E+02  0.00000000000E+00 0. -1.
</event>
<event>
 7    1  0.5910662E-013  0.5052886E+02  0.7816164E-02  0.1300439E+00
        -11   -1    0    0    0    0  0.00000000000E+00  0.00000000000E+00  0.45593999997E+02  0.45594000000E+02  0.51100000000E-03 0.  1.
         11   -1    0    0    0    0 -0.00000000000E+00 -0.00000000000E+00 -0.45593999997E+02  0.45594000000E+02  0.51100000000E-03 0. -1.
    9900012    2    1    2    0    0  0.32605189750E+02  0.16319423736E+02  0.17992883899E+02  0.50528857600E+02  0.29999993161E+02 0.  0.
         12    1    1    2    0    0 -0.32605189750E+02 -0.16319423736E+02 -0.17992883899E+02  0.40659142400E+02  0.00000000000E+00 0. -1.
         11    1    3    3    0    0  0.27217133586E+02  0.12031787273E+02  0.25281024693E+01  0.29865156419E+02  0.51100000000E-03 0. -1.
        -11    1    3    3    0    0  0.34315790445E+01  0.55411815739E+01  0.16774613805E+02  0.17996335642E+02  0.51100000000E-03 0.  1.
         12    1    3    3    0    0  0.19564771201E+01 -0.12535451111E+01 -0.13098323750E+01  0.26673655389E+01  0.00000000000E+00 0. -1.
</event>
<event>
 7    1  0.5910662E-013  0.5052887E+02  0.7816164E-02  0.1300439E+00
        -11   -1    0    0    0    0  0.00000000000E+00  0.00000000000E+00  0.45593999997E+02  0.45594000000E+02  0.51100000000E-03 0.  1.
         11   -1    0    0    0    0 -0.00000000000E+00 -0.00000000000E+00 -0.45593999997E+02  0.45594000000E+02  0.51100000000E-03 0. -1.
    9900012    2    1    2    0    0  0.15364222258E+02  0.24303237662E+02  0.28748184332E+02  0.50528870781E+02  0.30000033226E+02 0.  0.
         12    1    1    2    0    0 -0.15364222258E+02 -0.24303237662E+02 -0.28748184332E+02  0.40659129219E+02  0.00000000000E+00 0. -1.
         11    1    3    3    0    0  0.10961571964E+02  0.22372004160E+01  0.24042229247E+02  0.26517728278E+02  0.51100000000E-03 0. -1.
        -11    1    3    3    0    0  0.50203826764E+01  0.95283137801E+01  0.38184374394E+01  0.11426874920E+02  0.51100000000E-03 0.  1.
         12    1    3    3    0    0 -0.61773238275E+00  0.12537723466E+02  0.88751764632E+00  0.12584267582E+02  0.00000000000E+00 0. -1.
</event>
<event>
 7    1  0.5910662E-013  0.5052884E+02  0.7816164E-02  0.1300439E+00
        -11   -1    0    0    0    0  0.00000000000E+00  0.00000000000E+00  0.45593999997E+02  0.45594000000E+02  0.51100000000E-03 0.  1.
         11   -1    0    0    0    0 -0.00000000000E+00 -0.00000000000E+00 -0.45593999997E+02  0.45594000000E+02  0.51100000000E-03 0. -1.
    9900012    2    1    2    0    0 -0.28442900737E+02  0.65347912816E+01  0.28310157793E+02  0.50528841945E+02  0.29999945577E+02 0.  0.
         12    1    1    2    0    0  0.28442900737E+02 -0.65347912816E+01 -0.28310157793E+02  0.40659158055E+02  0.00000000000E+00 0. -1.
         11    1    3    3    0    0 -0.11210075206E+02  0.83425904378E+01 -0.12512944623E+01  0.14029623638E+02  0.51100000000E-03 0. -1.
        -11    1    3    3    0    0 -0.18839056483E+02 -0.52143174119E+00  0.28541883964E+02  0.34202647276E+02  0.51100000000E-03 0.  1.
         12    1    3    3    0    0  0.16062309523E+01 -0.12863674150E+01  0.10195682920E+01  0.22965710311E+01  0.00000000000E+00 0. -1.
</event>
<event>
 7    1  0.5910662E-013  0.5052886E+02  0.7816164E-02  0.1300439E+00
        -11   -1    0    0    0    0  0.00000000000E+00  0.00000000000E+00  0.45593999997E+02  0.45594000000E+02  0.51100000000E-03 0.  1.
         11   -1    0    0    0    0 -0.00000000000E+00 -0.00000000000E+00 -0.45593999997E+02  0.45594000000E+02  0.51100000000E-03 0. -1.
    9900012    2    1    2    0    0  0.21345421592E+02 -0.29371823247E+02  0.18298485595E+02  0.50528860820E+02  0.30000002949E+02 0.  0.
         12    1    1    2    0    0 -0.21345421592E+02  0.29371823247E+02 -0.18298485595E+02  0.40659139180E+02  0.00000000000E+00 0. -1.
         11    1    3    3    0    0  0.90218197724E+01 -0.27281513085E+01  0.17729377108E+02  0.20079015277E+02  0.51100000000E-03 0. -1.
        -11    1    3    3    0    0  0.35672960334E+01 -0.15496868762E+02  0.26554931925E+01  0.16122350535E+02  0.51100000000E-03 0.  1.
         12    1    3    3    0    0  0.87563057864E+01 -0.11146803176E+02 -0.20863847061E+01  0.14327495008E+02  0.00000000000E+00 0. -1.
</event>
<event>
 7    1  0.5910662E-013  0.5052886E+02  0.7816164E-02  0.1300439E+00
        -11   -1    0    0    0    0  0.00000000000E+00  0.00000000000E+00  0.45593999997E+02  0.45594000000E+02  0.51100000000E-03 0.  1.
         11   -1    0    0    0    0 -0.00000000000E+00 -0.00000000000E+00 -0.45593999997E+02  0.45594000000E+02  0.51100000000E-03 0. -1.
    9900012    2    1    2    0    0 -0.20409311220E+02 -0.89014477606E+01  0.34020429345E+02  0.50528863640E+02  0.30000011521E+02 0.  0.
         12    1    1    2    0    0  0.20409311220E+02  0.89014477606E+01 -0.34020429345E+02  0.40659136360E+02  0.00000000000E+00 0. -1.
         11    1    3    3    0    0 -0.32249122963E+01 -0.45330973338E+01 -0.11667639471E+01  0.56842210659E+01  0.51100000000E-03 0. -1.
        -11    1    3    3    0    0  0.88203052878E+00  0.26879323673E+01  0.20030694087E+02  0.20229475133E+02  0.51100000000E-03 0.  1.
        -12    1    3    3    0    0 -0.18066429453E+02 -0.70562827941E+01  0.15156499204E+02  0.24615167442E+02  0.00000000000E+00 0.  1.
</event>
<event>
 7    1  0.5910662E-013  0.5052886E+02  0.7816164E-02  0.1300439E+00
        -11   -1    0    0    0    0  0.00000000000E+00  0.00000000000E+00  0.45593999997E+02  0.45594000000E+02  0.51100000000E-03 0.  1.
         11   -1    0    0    0    0 -0.00000000000E+00 -0.00000000000E+00 -0.45593999997E+02  0.45594000000E+02  0.51100000000E-03 0. -1.
    9900012    2    1    2    0    0  0.19665575348E+02  0.26956010497E+00  0.35585926210E+02  0.50528860061E+02  0.30000000641E+02 0.  0.
         12    1    1    2    0    0 -0.19665575348E+02 -0.26956010497E+00 -0.35585926210E+02  0.40659139939E+02  0.00000000000E+00 0. -1.
         11    1    3    3    0    0 -0.23568623010E+01 -0.60129317557E+01  0.13144532176E+01  0.65907462193E+01  0.51100000000E-03 0. -1.
        -11    1    3    3    0    0  0.11669261537E+02  0.62816102981E+01  0.29889555248E+02  0.32695807161E+02  0.51100000000E-03 0.  1.
         12    1    3    3    0    0  0.10353176112E+02  0.88156261233E-03  0.43819177439E+01  0.11242306680E+02  0.00000000000E+00 0. -1.
</event>
<event>
 7    1  0.5910662E-013  0.5052885E+02  0.7816164E-02  0.1300439E+00
        -11   -1    0    0    0    0  0.00000000000E+00  0.00000000000E+00  0.45593999997E+02  0.45594000000E+02  0.51100000000E-03 0.  1.
         11   -1    0    0    0    0 -0.00000000000E+00 -0.00000000000E+00 -0.45593999997E+02  0.45594000000E+02  0.51100000000E-03 0. -1.
    9900012    2    1    2    0    0  0.23900683735E+02 -0.32084540322E+02  0.72460878420E+01  0.50528853431E+02  0.29999980490E+02 0.  0.
         12    1    1    2    0    0 -0.23900683735E+02  0.32084540322E+02 -0.72460878420E+01  0.40659146569E+02  0.00000000000E+00 0. -1.
         11    1    3    3    0    0  0.10998076915E+02 -0.14134982700E+02  0.12887049255E+02  0.22064257761E+02  0.51100000000E-03 0. -1.
        -11    1    3    3    0    0  0.15462158688E+02 -0.19516196552E+02 -0.50582976082E+01  0.25407610161E+02  0.51100000000E-03 0.  1.
         12    1    3    3    0    0 -0.25595518681E+01  0.15666389297E+01 -0.58266380448E+00  0.30569855104E+01  0.00000000000E+00 0. -1.
</event>
<event>
 7    1  0.5910662E-013  0.5052886E+02  0.7816164E-02  0.1300439E+00
        -11   -1    0    0    0    0  0.00000000000E+00  0.00000000000E+00  0.45593999997E+02  0.45594000000E+02  0.51100000000E-03 0.  1.
         11   -1    0    0    0    0 -0.00000000000E+00 -0.00000000000E+00 -0.45593999997E+02  0.45594000000E+02  0.51100000000E-03 0. -1.
    9900012    2    1    2    0    0 -0.19223874639E+02 -0.80334851520E+01  0.34915203453E+02  0.50528859921E+02  0.30000000215E+02 0.  0.
         12    1    1    2    0    0  0.19223874639E+02  0.80334851520E+01 -0.34915203453E+02  0.40659140079E+02  0.00000000000E+00 0. -1.
         11    1    3    3    0    0  0.40268324952E+01 -0.88768602541E+01  0.10906344587E+02  0.14627452971E+02  0.51100000000E-03 0. -1.
        -11    1    3    3    0    0 -0.19375962620E+02  0.30529298622E+01  0.11770635776E+02  0.22875667751E+02  0.51100000000E-03 0.  1.
        -12    1    3    3    0    0 -0.38747445143E+01 -0.22095547601E+01  0.12238223090E+02  0.13025739199E+02  0.00000000000E+00 0.  1.
</event>
<event>
 7    1  0.5910662E-013  0.5052887E+02  0.7816164E-02  0.1300439E+00
        -11   -1    0    0    0    0  0.00000000000E+00  0.00000000000E+00  0.45593999997E+02  0.45594000000E+02  0.51100000000E-03 0.  1.
         11   -1    0    0    0    0 -0.00000000000E+00 -0.00000000000E+00 -0.45593999997E+02  0.45594000000E+02  0.51100000000E-03 0. -1.
    9900012    2    1    2    0    0 -0.61167944040E+01 -0.23561960503E+01  0.40127269746E+02  0.50528872970E+02  0.30000039879E+02 0.  0.
         12    1    1    2    0    0  0.61167944040E+01  0.23561960503E+01 -0.40127269746E+02  0.40659127030E+02  0.00000000000E+00 0. -1.
         11    1    3    3    0    0 -0.14135765129E+02  0.58011727587E+01  0.16224397528E+02  0.22286869151E+02  0.51100000000E-03 0. -1.
        -11    1    3    3    0    0  0.64047197134E+01 -0.10388891666E+02  0.18263183281E+02  0.21965731685E+02  0.51100000000E-03 0.  1.
         12    1    3    3    0    0  0.16142510116E+01  0.22315228566E+01  0.56396889372E+01  0.62762721337E+01  0.00000000000E+00 0. -1.
</event>
<event>
 7    1  0.5910662E-013  0.5052886E+02  0.7816164E-02  0.1300439E+00
        -11   -1    0    0    0    0  0.00000000000E+00  0.00000000000E+00  0.45593999997E+02  0.45594000000E+02  0.51100000000E-03 0.  1.
         11   -1    0    0    0    0 -0.00000000000E+00 -0.00000000000E+00 -0.45593999997E+02  0.45594000000E+02  0.51100000000E-03 0. -1.
    9900012    2    1    2    0    0  0.83068548452E+00 -0.26163501269E+02  0.31111843771E+02  0.50528860070E+02  0.30000000669E+02 0.  0.
         12    1    1    2    0    0 -0.83068548452E+00  0.26163501269E+02 -0.31111843771E+02  0.40659139930E+02  0.00000000000E+00 0. -1.
         11    1    3    3    0    0  0.53964421351E+01 -0.20692254903E+02  0.48234596423E+01  0.21921604957E+02  0.51100000000E-03 0. -1.
        -11    1    3    3    0    0 -0.33197262334E+01 -0.68249700866E+01  0.25500199980E+02  0.26605657260E+02  0.51100000000E-03 0.  1.
        -12    1    3    3    0    0 -0.12460304171E+01  0.13537237210E+01  0.78818414831E+00  0.20015978529E+01  0.00000000000E+00 0.  1.
</event>
<event>
 7    1  0.5910662E-013  0.5052886E+02  0.7816164E-02  0.1300439E+00
        -11   -1    0    0    0    0  0.00000000000E+00  0.00000000000E+00  0.45593999997E+02  0.45594000000E+02  0.51100000000E-03 0.  1.
         11   -1    0    0    0    0 -0.00000000000E+00 -0.00000000000E+00 -0.45593999997E+02  0.45594000000E+02  0.51100000000E-03 0. -1.
    9900012    2    1    2    0    0  0.40379084950E+02 -0.44666199015E+01  0.16566579199E+01  0.50528859451E+02  0.29999998786E+02 0.  0.
         12    1    1    2    0    0 -0.40379084950E+02  0.44666199015E+01 -0.16566579199E+01  0.40659140549E+02  0.00000000000E+00 0. -1.
         11    1    3    3    0    0  0.14685350299E+02  0.72361075522E+01 -0.73602791838E+01  0.17949776484E+02  0.51100000000E-03 0. -1.
        -11    1    3    3    0    0  0.25345985648E+02 -0.73844352790E+01  0.54250191173E+01  0.26951432347E+02  0.51100000000E-03 0.  1.
         12    1    3    3    0    0  0.34774900319E+00 -0.43182921747E+01  0.35919179864E+01  0.56276506196E+01  0.00000000000E+00 0. -1.
</event>
<event>
 7    1  0.5910662E-013  0.5052886E+02  0.7816164E-02  0.1300439E+00
        -11   -1    0    0    0    0  0.00000000000E+00  0.00000000000E+00  0.45593999997E+02  0.45594000000E+02  0.51100000000E-03 0.  1.
         11   -1    0    0    0    0 -0.00000000000E+00 -0.00000000000E+00 -0.45593999997E+02  0.45594000000E+02  0.51100000000E-03 0. -1.
    9900012    2    1    2    0    0  0.30535888801E+02  0.25978615460E+02  0.67702829367E+01  0.50528859611E+02  0.29999999275E+02 0.  0.
         12    1    1    2    0    0 -0.30535888801E+02 -0.25978615460E+02 -0.67702829367E+01  0.40659140389E+02  0.00000000000E+00 0. -1.
         11    1    3    3    0    0  0.11028577396E+02  0.18225795506E+02  0.12696491662E+02  0.24799396000E+02  0.51100000000E-03 0. -1.
        -11    1    3    3    0    0  0.13855491319E+02  0.11636091997E+02 -0.33312451290E+01  0.18397566987E+02  0.51100000000E-03 0.  1.
         12    1    3    3    0    0  0.56518200857E+01 -0.38832720430E+01 -0.25949635960E+01  0.73318966240E+01  0.00000000000E+00 0. -1.
</event>
<event>
 7    1  0.5910662E-013  0.5052887E+02  0.7816164E-02  0.1300439E+00
        -11   -1    0    0    0    0  0.00000000000E+00  0.00000000000E+00  0.45593999997E+02  0.45594000000E+02  0.51100000000E-03 0.  1.
         11   -1    0    0    0    0 -0.00000000000E+00 -0.00000000000E+00 -0.45593999997E+02  0.45594000000E+02  0.51100000000E-03 0. -1.
    9900012    2    1    2    0    0 -0.27806758128E+02 -0.65546558029E+01  0.28930706523E+02  0.50528867075E+02  0.30000021962E+02 0.  0.
         12    1    1    2    0    0  0.27806758128E+02  0.65546558029E+01 -0.28930706523E+02  0.40659132925E+02  0.00000000000E+00 0. -1.
         11    1    3    3    0    0 -0.40139945063E+01 -0.72641826750E+01 -0.25045744314E+01  0.86691057887E+01  0.51100000000E-03 0. -1.
        -11    1    3    3    0    0 -0.24746874137E+02 -0.18049044287E+01  0.29493797647E+02  0.38542827601E+02  0.51100000000E-03 0.  1.
        -12    1    3    3    0    0  0.95411051528E+00  0.25144313008E+01  0.19414833071E+01  0.33169336855E+01  0.00000000000E+00 0.  1.
</event>
<event>
 7    1  0.5910662E-013  0.5052885E+02  0.7816164E-02  0.1300439E+00
        -11   -1    0    0    0    0  0.00000000000E+00  0.00000000000E+00  0.45593999997E+02  0.45594000000E+02  0.51100000000E-03 0.  1.
         11   -1    0    0    0    0 -0.00000000000E+00 -0.00000000000E+00 -0.45593999997E+02  0.45594000000E+02  0.51100000000E-03 0. -1.
    9900012    2    1    2    0    0  0.54890286354E+01 -0.22820515333E+02  0.33200315983E+02  0.50528851745E+02  0.29999975365E+02 0.  0.
         12    1    1    2    0    0 -0.54890286354E+01  0.22820515333E+02 -0.33200315983E+02  0.40659148255E+02  0.00000000000E+00 0. -1.
         11    1    3    3    0    0  0.21584126964E+01 -0.14582903791E+01  0.43610691444E+00  0.26411258394E+01  0.51100000000E-03 0. -1.
        -11    1    3    3    0    0 -0.10786383956E+02 -0.95011111960E+01  0.22735761399E+02  0.26898550880E+02  0.51100000000E-03 0.  1.
        -12    1    3    3    0    0  0.14116999895E+02 -0.11861113757E+02  0.10028447670E+02  0.20989175026E+02  0.00000000000E+00 0.  1.
</event>
<event>
 7    1  0.5910662E-013  0.5052886E+02  0.7816164E-02  0.1300439E+00
        -11   -1    0    0    0    0  0.00000000000E+00  0.00000000000E+00  0.45593999997E+02  0.45594000000E+02  0.51100000000E-03 0.  1.
         11   -1    0    0    0    0 -0.00000000000E+00 -0.00000000000E+00 -0.45593999997E+02  0.45594000000E+02  0.51100000000E-03 0. -1.
    9900012    2    1    2    0    0  0.11166335014E+02 -0.22132514872E+02  0.32227790672E+02  0.50528859038E+02  0.29999997532E+02 0.  0.
         12    1    1    2    0    0 -0.11166335014E+02  0.22132514872E+02 -0.32227790672E+02  0.40659140962E+02  0.00000000000E+00 0. -1.
         11    1    3    3    0    0  0.29609137792E+01 -0.93811997226E+00  0.25889824290E+02  0.26075468960E+02  0.51100000000E-03 0. -1.
        -11    1    3    3    0    0  0.65312092067E+01 -0.16332082442E+02  0.19575867668E+01  0.17698185127E+02  0.51100000000E-03 0.  1.
        -12    1    3    3    0    0  0.16742120279E+01 -0.48623124574E+01  0.43803796154E+01  0.67552049505E+01  0.00000000000E+00 0.  1.
</event>
<event>
 7    1  0.5910662E-013  0.5052885E+02  0.7816164E-02  0.1300439E+00
        -11   -1    0    0    0    0  0.00000000000E+00  0.00000000000E+00  0.45593999997E+02  0.45594000000E+02  0.51100000000E-03 0. -1.
         11   -1    0    0    0    0 -0.00000000000E+00 -0.00000000000E+00 -0.45593999997E+02  0.45594000000E+02  0.51100000000E-03 0.  1.
    9900012    2    1    2    0    0 -0.28401300881E+02 -0.28972890420E+02  0.26653233276E+01  0.50528853189E+02  0.29999979753E+02 0.  0.
         12    1    1    2    0    0  0.28401300881E+02  0.28972890420E+02 -0.26653233276E+01  0.40659146811E+02  0.00000000000E+00 0. -1.
         11    1    3    3    0    0 -0.13497650923E+02 -0.24356862987E+02 -0.28669956808E+01  0.27993981845E+02  0.51100000000E-03 0. -1.
        -11    1    3    3    0    0 -0.95870533793E+01  0.42167366353E+01 -0.68502958494E+00  0.10495795641E+02  0.51100000000E-03 0.  1.
        -12    1    3    3    0    0 -0.53165965779E+01 -0.88327640677E+01  0.62173485933E+01  0.12039075703E+02  0.00000000000E+00 0.  1.
</event>
<event>
 7    1  0.5910662E-013  0.5052886E+02  0.7816164E-02  0.1300439E+00
        -11   -1    0    0    0    0  0.00000000000E+00  0.00000000000E+00  0.45593999997E+02  0.45594000000E+02  0.51100000000E-03 0.  1.
         11   -1    0    0    0    0 -0.00000000000E+00 -0.00000000000E+00 -0.45593999997E+02  0.45594000000E+02  0.51100000000E-03 0. -1.
    9900012    2    1    2    0    0 -0.38307018348E+02 -0.12989754720E+02  0.41236513485E+01  0.50528857328E+02  0.29999992334E+02 0.  0.
         12    1    1    2    0    0  0.38307018348E+02  0.12989754720E+02 -0.41236513485E+01  0.40659142672E+02  0.00000000000E+00 0. -1.
         11    1    3    3    0    0 -0.13285357091E+02 -0.19087718803E+02  0.21561372437E+01  0.23355741269E+02  0.51100000000E-03 0. -1.
        -11    1    3    3    0    0 -0.15943805182E+02  0.17961106930E+01 -0.23927219288E+01  0.16222085432E+02  0.51100000000E-03 0.  1.
         12    1    3    3    0    0 -0.90778560751E+01  0.43018533903E+01  0.43602360336E+01  0.10951030626E+02  0.00000000000E+00 0. -1.
</event>
<event>
 7    1  0.5910662E-013  0.5052886E+02  0.7816164E-02  0.1300439E+00
        -11   -1    0    0    0    0  0.00000000000E+00  0.00000000000E+00  0.45593999997E+02  0.45594000000E+02  0.51100000000E-03 0.  1.
         11   -1    0    0    0    0 -0.00000000000E+00 -0.00000000000E+00 -0.45593999997E+02  0.45594000000E+02  0.51100000000E-03 0. -1.
    9900012    2    1    2    0    0 -0.25876045966E+02  0.14395442555E+02  0.27863364443E+02  0.50528860815E+02  0.30000002934E+02 0.  0.
         12    1    1    2    0    0  0.25876045966E+02 -0.14395442555E+02 -0.27863364443E+02  0.40659139185E+02  0.00000000000E+00 0. -1.
         11    1    3    3    0    0 -0.75745672379E+01  0.89770222295E+01  0.87757284601E+00  0.11778418031E+02  0.51100000000E-03 0. -1.
        -11    1    3    3    0    0 -0.10252451465E+02  0.11018030264E+02  0.24301403546E+02  0.28584400754E+02  0.51100000000E-03 0.  1.
        -12    1    3    3    0    0 -0.80490272636E+01 -0.55996099382E+01  0.26843880508E+01  0.10166042030E+02  0.00000000000E+00 0.  1.
</event>
<event>
 7    1  0.5910662E-013  0.5052881E+02  0.7816164E-02  0.1300439E+00
        -11   -1    0    0    0    0  0.00000000000E+00  0.00000000000E+00  0.45593999997E+02  0.45594000000E+02  0.51100000000E-03 0.  1.
         11   -1    0    0    0    0 -0.00000000000E+00 -0.00000000000E+00 -0.45593999997E+02  0.45594000000E+02  0.51100000000E-03 0. -1.
    9900012    2    1    2    0    0  0.33747202148E+02  0.13644851539E+02  0.18113926245E+02  0.50528807308E+02  0.29999840293E+02 0.  0.
         12    1    1    2    0    0 -0.33747202148E+02 -0.13644851539E+02 -0.18113926245E+02  0.40659192692E+02  0.00000000000E+00 0. -1.
         11    1    3    3    0    0  0.91305163033E+01 -0.76492569103E+01  0.11380326402E+02  0.16473897187E+02  0.51100000000E-03 0. -1.
        -11    1    3    3    0    0  0.91981936599E+01  0.12756867053E+02  0.39095245619E+01  0.16205826303E+02  0.51100000000E-03 0.  1.
         12    1    3    3    0    0  0.15418492185E+02  0.85372413968E+01  0.28240752803E+01  0.17849083817E+02  0.00000000000E+00 0. -1.
</event>
<event>
 7    1  0.5910662E-013  0.5052886E+02  0.7816164E-02  0.1300439E+00
        -11   -1    0    0    0    0  0.00000000000E+00  0.00000000000E+00  0.45593999997E+02  0.45594000000E+02  0.51100000000E-03 0. -1.
         11   -1    0    0    0    0 -0.00000000000E+00 -0.00000000000E+00 -0.45593999997E+02  0.45594000000E+02  0.51100000000E-03 0.  1.
    9900012    2    1    2    0    0  0.17292289746E+02 -0.23517652473E+02 -0.28303044724E+02  0.50528860768E+02  0.30000002789E+02 0.  0.
         12    1    1    2    0    0 -0.17292289746E+02  0.23517652473E+02  0.28303044724E+02  0.40659139232E+02  0.00000000000E+00 0. -1.
         11    1    3    3    0    0  0.10439711822E+02 -0.15975467076E+02 -0.28647987176E+02  0.34422526065E+02  0.51100000000E-03 0. -1.
        -11    1    3    3    0    0  0.10212774555E+02 -0.76188135327E+01  0.28345485715E+00  0.12744702063E+02  0.51100000000E-03 0.  1.
         12    1    3    3    0    0 -0.33601966320E+01  0.76628135630E-01  0.61487594893E-01  0.33616326393E+01  0.00000000000E+00 0. -1.
</event>
<event>
 7    1  0.5910662E-013  0.5052887E+02  0.7816164E-02  0.1300439E+00
        -11   -1    0    0    0    0  0.00000000000E+00  0.00000000000E+00  0.45593999997E+02  0.45594000000E+02  0.51100000000E-03 0.  1.
         11   -1    0    0    0    0 -0.00000000000E+00 -0.00000000000E+00 -0.45593999997E+02  0.45594000000E+02  0.51100000000E-03 0. -1.
    9900012    2    1    2    0    0 -0.57217599031E+01 -0.15847037343E+01  0.40223315738E+02  0.50528868784E+02  0.30000027156E+02 0.  0.
         12    1    1    2    0    0  0.57217599031E+01  0.15847037343E+01 -0.40223315738E+02  0.40659131216E+02  0.00000000000E+00 0. -1.
         11    1    3    3    0    0 -0.20993374614E+01  0.61230288674E+01  0.28437967544E+01  0.70700693440E+01  0.51100000000E-03 0. -1.
        -11    1    3    3    0    0 -0.27152826893E+01 -0.14767249801E+02  0.26494401610E+02  0.30453205803E+02  0.51100000000E-03 0.  1.
        -12    1    3    3    0    0 -0.90713975239E+00  0.70595171991E+01  0.10885117373E+02  0.13005593637E+02  0.00000000000E+00 0.  1.
</event>
<event>
 7    1  0.5910662E-013  0.5052886E+02  0.7816164E-02  0.1300439E+00
        -11   -1    0    0    0    0  0.00000000000E+00  0.00000000000E+00  0.45593999997E+02  0.45594000000E+02  0.51100000000E-03 0. -1.
         11   -1    0    0    0    0 -0.00000000000E+00 -0.00000000000E+00 -0.45593999997E+02  0.45594000000E+02  0.51100000000E-03 0.  1.
    9900012    2    1    2    0    0  0.39932588250E+02 -0.74181359280E+01  0.18775199628E+01  0.50528862943E+02  0.30000009402E+02 0.  0.
         12    1    1    2    0    0 -0.39932588250E+02  0.74181359280E+01 -0.18775199628E+01  0.40659137057E+02  0.00000000000E+00 0. -1.
         11    1    3    3    0    0  0.98761812972E+01  0.55590318427E+01 -0.58460803360E+01  0.12752193835E+02  0.51100000000E-03 0.  1.
        -11    1    3    3    0    0  0.22034511528E+02 -0.43272373834E+01  0.11708671362E+02  0.25324645446E+02  0.51100000000E-03 0. -1.
        -12    1    3    3    0    0  0.80218954247E+01 -0.86499303873E+01 -0.39850710628E+01  0.12452023662E+02  0.00000000000E+00 0.  1.
</event>
<event>
 7    1  0.5910662E-013  0.5052887E+02  0.7816164E-02  0.1300439E+00
        -11   -1    0    0    0    0  0.00000000000E+00  0.00000000000E+00  0.45593999997E+02  0.45594000000E+02  0.51100000000E-03 0.  1.
         11   -1    0    0    0    0 -0.00000000000E+00 -0.00000000000E+00 -0.45593999997E+02  0.45594000000E+02  0.51100000000E-03 0. -1.
    9900012    2    1    2    0    0 -0.26214866740E+02  0.16268775488E+02  0.26481546287E+02  0.50528873253E+02  0.30000040741E+02 0.  0.
         12    1    1    2    0    0  0.26214866740E+02 -0.16268775488E+02 -0.26481546287E+02  0.40659126747E+02  0.00000000000E+00 0. -1.
         11    1    3    3    0    0 -0.18182728457E+02  0.21126705845E+02  0.18602862004E+02  0.33511427737E+02  0.51100000000E-03 0. -1.
        -11    1    3    3    0    0  0.12050514382E+01 -0.38139452230E+01  0.64825340313E+01  0.76171894332E+01  0.51100000000E-03 0.  1.
         12    1    3    3    0    0 -0.92371897208E+01 -0.10439851341E+01  0.13961502513E+01  0.94002560828E+01  0.00000000000E+00 0. -1.
</event>
<event>
 7    1  0.5910662E-013  0.5052887E+02  0.7816164E-02  0.1300439E+00
        -11   -1    0    0    0    0  0.00000000000E+00  0.00000000000E+00  0.45593999997E+02  0.45594000000E+02  0.51100000000E-03 0.  1.
         11   -1    0    0    0    0 -0.00000000000E+00 -0.00000000000E+00 -0.45593999997E+02  0.45594000000E+02  0.51100000000E-03 0. -1.
    9900012    2    1    2    0    0 -0.30620403559E+02 -0.23897115278E+02  0.12020134875E+02  0.50528869720E+02  0.30000030000E+02 0.  0.
         12    1    1    2    0    0  0.30620403559E+02  0.23897115278E+02 -0.12020134875E+02  0.40659130280E+02  0.00000000000E+00 0. -1.
         11    1    3    3    0    0  0.34846511872E+01 -0.26144254366E+01  0.15392327795E+00  0.43590947336E+01  0.51100000000E-03 0. -1.
        -11    1    3    3    0    0 -0.33104855740E+02 -0.17116573513E+02  0.43538662069E+01  0.37521523338E+02  0.51100000000E-03 0.  1.
        -12    1    3    3    0    0 -0.10001990067E+01 -0.41661163283E+01  0.75123453904E+01  0.86482516486E+01  0.00000000000E+00 0.  1.
</event>
<event>
 7    1  0.5910662E-013  0.5052882E+02  0.7816164E-02  0.1300439E+00
        -11   -1    0    0    0    0  0.00000000000E+00  0.00000000000E+00  0.45593999997E+02  0.45594000000E+02  0.51100000000E-03 0.  1.
         11   -1    0    0    0    0 -0.00000000000E+00 -0.00000000000E+00 -0.45593999997E+02  0.45594000000E+02  0.51100000000E-03 0. -1.
    9900012    2    1    2    0    0  0.15767268534E+02 -0.34231289829E+02 -0.15257163759E+02  0.50528818917E+02  0.29999875580E+02 0.  0.
         12    1    1    2    0    0 -0.15767268534E+02  0.34231289829E+02  0.15257163759E+02  0.40659181083E+02  0.00000000000E+00 0. -1.
         11    1    3    3    0    0 -0.70484249008E+01 -0.94045193063E+00 -0.46978371230E+01  0.85225827841E+01  0.51100000000E-03 0. -1.
        -11    1    3    3    0    0  0.39736820635E+01 -0.95249103158E+01 -0.30437947889E+01  0.10760053561E+02  0.51100000000E-03 0.  1.
         12    1    3    3    0    0  0.18842011371E+02 -0.23765927582E+02 -0.75155318472E+01  0.31246182572E+02  0.00000000000E+00 0. -1.
</event>
<event>
 7    1  0.5910662E-013  0.5052885E+02  0.7816164E-02  0.1300439E+00
        -11   -1    0    0    0    0  0.00000000000E+00  0.00000000000E+00  0.45593999997E+02  0.45594000000E+02  0.51100000000E-03 0.  1.
         11   -1    0    0    0    0 -0.00000000000E+00 -0.00000000000E+00 -0.45593999997E+02  0.45594000000E+02  0.51100000000E-03 0. -1.
    9900012    2    1    2    0    0 -0.92590249152E+01  0.72906073739E+01  0.38913803179E+02  0.50528848802E+02  0.29999966419E+02 0.  0.
         12    1    1    2    0    0  0.92590249152E+01 -0.72906073739E+01 -0.38913803179E+02  0.40659151198E+02  0.00000000000E+00 0. -1.
         11    1    3    3    0    0 -0.91398482483E+01  0.67800862817E+01  0.36340401255E+01  0.11946239738E+02  0.51100000000E-03 0. -1.
        -11    1    3    3    0    0  0.48100896314E+01 -0.52443699091E+01  0.10610757752E+02  0.12776093235E+02  0.51100000000E-03 0.  1.
        -12    1    3    3    0    0 -0.49292662983E+01  0.57548910014E+01  0.24669005301E+02  0.25806515829E+02  0.00000000000E+00 0.  1.
</event>
<event>
 7    1  0.5910662E-013  0.5052886E+02  0.7816164E-02  0.1300439E+00
        -11   -1    0    0    0    0  0.00000000000E+00  0.00000000000E+00  0.45593999997E+02  0.45594000000E+02  0.51100000000E-03 0. -1.
         11   -1    0    0    0    0 -0.00000000000E+00 -0.00000000000E+00 -0.45593999997E+02  0.45594000000E+02  0.51100000000E-03 0.  1.
    9900012    2    1    2    0    0  0.38389108804E+02  0.57083898884E+01 -0.12118417783E+02  0.50528862781E+02  0.30000008908E+02 0.  0.
         12    1    1    2    0    0 -0.38389108804E+02 -0.57083898884E+01  0.12118417783E+02  0.40659137219E+02  0.00000000000E+00 0. -1.
         11    1    3    3    0    0  0.23460100124E+00  0.94630583607E+01  0.18073645788E+00  0.94676912231E+01  0.51100000000E-03 0. -1.
        -11    1    3    3    0    0  0.29743531754E+01  0.17875216339E+01 -0.31310523175E+00  0.34842568147E+01  0.51100000000E-03 0.  1.
         12    1    3    3    0    0  0.35180154627E+02 -0.55421901062E+01 -0.11986049009E+02  0.37576914743E+02  0.00000000000E+00 0. -1.
</event>
<event>
 7    1  0.5910662E-013  0.5052886E+02  0.7816164E-02  0.1300439E+00
        -11   -1    0    0    0    0  0.00000000000E+00  0.00000000000E+00  0.45593999997E+02  0.45594000000E+02  0.51100000000E-03 0.  1.
         11   -1    0    0    0    0 -0.00000000000E+00 -0.00000000000E+00 -0.45593999997E+02  0.45594000000E+02  0.51100000000E-03 0. -1.
    9900012    2    1    2    0    0 -0.36505053617E+02 -0.51257337697E+00  0.17896470845E+02  0.50528864006E+02  0.30000012634E+02 0.  0.
         12    1    1    2    0    0  0.36505053617E+02  0.51257337697E+00 -0.17896470845E+02  0.40659135994E+02  0.00000000000E+00 0. -1.
         11    1    3    3    0    0 -0.46592937289E+01  0.93504236858E+01  0.43821326549E+01  0.11328836128E+02  0.51100000000E-03 0. -1.
        -11    1    3    3    0    0 -0.38306272194E+01 -0.67310567795E+01  0.65982514472E+01  0.10174367434E+02  0.51100000000E-03 0.  1.
         12    1    3    3    0    0 -0.28015132669E+02 -0.31319402834E+01  0.69160867429E+01  0.29025660444E+02  0.00000000000E+00 0. -1.
</event>
<event>
 7    1  0.5910662E-013  0.5052886E+02  0.7816164E-02  0.1300439E+00
        -11   -1    0    0    0    0  0.00000000000E+00  0.00000000000E+00  0.45593999997E+02  0.45594000000E+02  0.51100000000E-03 0.  1.
         11   -1    0    0    0    0 -0.00000000000E+00 -0.00000000000E+00 -0.45593999997E+02  0.45594000000E+02  0.51100000000E-03 0. -1.
    9900012    2    1    2    0    0 -0.22976224728E+02 -0.12007721514E+02  0.31322092791E+02  0.50528858647E+02  0.29999996344E+02 0.  0.
         12    1    1    2    0    0  0.22976224728E+02  0.12007721514E+02 -0.31322092791E+02  0.40659141353E+02  0.00000000000E+00 0. -1.
         11    1    3    3    0    0 -0.69286009115E+01  0.30820820011E+01  0.16015531438E+01  0.77504653271E+01  0.51100000000E-03 0. -1.
        -11    1    3    3    0    0  0.77011683380E+00 -0.13698287058E+02  0.15598271781E+02  0.20773594563E+02  0.51100000000E-03 0.  1.
        -12    1    3    3    0    0 -0.16817740651E+02 -0.13915164573E+01  0.14122267867E+02  0.22004798757E+02  0.00000000000E+00 0.  1.
</event>
<event>
 7    1  0.5910662E-013  0.5052886E+02  0.7816164E-02  0.1300439E+00
        -11   -1    0    0    0    0  0.00000000000E+00  0.00000000000E+00  0.45593999997E+02  0.45594000000E+02  0.51100000000E-03 0.  1.
         11   -1    0    0    0    0 -0.00000000000E+00 -0.00000000000E+00 -0.45593999997E+02  0.45594000000E+02  0.51100000000E-03 0. -1.
    9900012    2    1    2    0    0  0.43837536202E+01  0.38774615416E+02 -0.11422667476E+02  0.50528862913E+02  0.30000009309E+02 0.  0.
         12    1    1    2    0    0 -0.43837536202E+01 -0.38774615416E+02  0.11422667476E+02  0.40659137087E+02  0.00000000000E+00 0. -1.
         11    1    3    3    0    0 -0.10129037225E+02  0.16934737658E+02 -0.71927440911E+01  0.21002816537E+02  0.51100000000E-03 0.  1.
        -11    1    3    3    0    0  0.13491548485E+02  0.12573532667E+02 -0.71153899779E+01  0.19767255223E+02  0.51100000000E-03 0. -1.
        -12    1    3    3    0    0  0.10212423600E+01  0.92663450909E+01  0.28854665930E+01  0.97587911526E+01  0.00000000000E+00 0.  1.
</event>
<event>
 7    1  0.5910662E-013  0.5052887E+02  0.7816164E-02  0.1300439E+00
        -11   -1    0    0    0    0  0.00000000000E+00  0.00000000000E+00  0.45593999997E+02  0.45594000000E+02  0.51100000000E-03 0.  1.
         11   -1    0    0    0    0 -0.00000000000E+00 -0.00000000000E+00 -0.45593999997E+02  0.45594000000E+02  0.51100000000E-03 0. -1.
    9900012    2    1    2    0    0  0.41703247779E+01 -0.37230576175E+02  0.15800564556E+02  0.50528865093E+02  0.30000015937E+02 0.  0.
         12    1    1    2    0    0 -0.41703247779E+01  0.37230576175E+02 -0.15800564556E+02  0.40659134907E+02  0.00000000000E+00 0. -1.
         11    1    3    3    0    0  0.20707170690E+01 -0.56814716490E+00  0.45848931581E+01  0.50627962544E+01  0.51100000000E-03 0. -1.
        -11    1    3    3    0    0 -0.27880438132E+01 -0.25587759578E+02 -0.39725184424E+01  0.26043953839E+02  0.51100000000E-03 0.  1.
        -12    1    3    3    0    0  0.48876515221E+01 -0.11074669432E+02  0.15188189840E+02  0.19422114999E+02  0.00000000000E+00 0.  1.
</event>
<event>
 7    1  0.5910662E-013  0.5052885E+02  0.7816164E-02  0.1300439E+00
        -11   -1    0    0    0    0  0.00000000000E+00  0.00000000000E+00  0.45593999997E+02  0.45594000000E+02  0.51100000000E-03 0.  1.
         11   -1    0    0    0    0 -0.00000000000E+00 -0.00000000000E+00 -0.45593999997E+02  0.45594000000E+02  0.51100000000E-03 0. -1.
    9900012    2    1    2    0    0  0.53927603765E+01 -0.90874239221E+00  0.40289682053E+02  0.50528853955E+02  0.29999982080E+02 0.  0.
         12    1    1    2    0    0 -0.53927603765E+01  0.90874239221E+00 -0.40289682053E+02  0.40659146045E+02  0.00000000000E+00 0. -1.
         11    1    3    3    0    0 -0.82535957767E+00  0.79849783361E+01  0.25742587971E+02  0.26965198556E+02  0.51100000000E-03 0. -1.
        -11    1    3    3    0    0  0.82529586899E+01 -0.93319478822E+01  0.16523355408E+02  0.20693425348E+02  0.51100000000E-03 0.  1.
         12    1    3    3    0    0 -0.20348387357E+01  0.43822715394E+00 -0.19762613259E+01  0.28702300512E+01  0.00000000000E+00 0. -1.
</event>
<event>
 7    1  0.5910662E-013  0.5052886E+02  0.7816164E-02  0.1300439E+00
        -11   -1    0    0    0    0  0.00000000000E+00  0.00000000000E+00  0.45593999997E+02  0.45594000000E+02  0.51100000000E-03 0.  1.
         11   -1    0    0    0    0 -0.00000000000E+00 -0.00000000000E+00 -0.45593999997E+02  0.45594000000E+02  0.51100000000E-03 0. -1.
    9900012    2    1    2    0    0  0.15356636022E+02  0.37548584738E+02  0.27282548165E+01  0.50528857607E+02  0.29999993182E+02 0.  0.
         12    1    1    2    0    0 -0.15356636022E+02 -0.37548584738E+02 -0.27282548165E+01  0.40659142393E+02  0.00000000000E+00 0. -1.
         11    1    3    3    0    0 -0.26388545069E+01  0.13435435985E+01  0.82649079404E+00  0.30743698222E+01  0.51100000000E-03 0. -1.
        -11    1    3    3    0    0  0.19264191222E+02  0.14156052312E+02  0.67548166486E+01  0.24842109989E+02  0.51100000000E-03 0.  1.
        -12    1    3    3    0    0 -0.12687006926E+01  0.22048988828E+02 -0.48530526261E+01  0.22612377796E+02  0.00000000000E+00 0.  1.
</event>
<event>
 7    1  0.5910662E-013  0.5052886E+02  0.7816164E-02  0.1300439E+00
        -11   -1    0    0    0    0  0.00000000000E+00  0.00000000000E+00  0.45593999997E+02  0.45594000000E+02  0.51100000000E-03 0.  1.
         11   -1    0    0    0    0 -0.00000000000E+00 -0.00000000000E+00 -0.45593999997E+02  0.45594000000E+02  0.51100000000E-03 0. -1.
    9900012    2    1    2    0    0  0.53178920434E+01 -0.19180201585E+02  0.35454272006E+02  0.50528861887E+02  0.30000006192E+02 0.  0.
         12    1    1    2    0    0 -0.53178920434E+01  0.19180201585E+02 -0.35454272006E+02  0.40659138113E+02  0.00000000000E+00 0. -1.
         11    1    3    3    0    0 -0.84637541783E+01 -0.25394670492E+01  0.15095631255E+01  0.89645305943E+01  0.51100000000E-03 0. -1.
        -11    1    3    3    0    0  0.13525543642E+02 -0.14345549502E+02  0.22620513225E+02  0.30007044842E+02  0.51100000000E-03 0.  1.
        -12    1    3    3    0    0  0.25610257929E+00 -0.22951850340E+01  0.11324195655E+02  0.11557286450E+02  0.00000000000E+00 0.  1.
</event>
<event>
 7    1  0.5910662E-013  0.5052887E+02  0.7816164E-02  0.1300439E+00
        -11   -1    0    0    0    0  0.00000000000E+00  0.00000000000E+00  0.45593999997E+02  0.45594000000E+02  0.51100000000E-03 0.  1.
         11   -1    0    0    0    0 -0.00000000000E+00 -0.00000000000E+00 -0.45593999997E+02  0.45594000000E+02  0.51100000000E-03 0. -1.
    9900012    2    1    2    0    0 -0.19550663865E+02  0.35352017624E+02  0.46012125822E+01  0.50528871076E+02  0.30000034122E+02 0.  0.
         12    1    1    2    0    0  0.19550663865E+02 -0.35352017624E+02 -0.46012125822E+01  0.40659128924E+02  0.00000000000E+00 0. -1.
         11    1    3    3    0    0  0.29440440024E+01  0.17164387366E+02 -0.69694474514E+01  0.18757846006E+02  0.51100000000E-03 0.  1.
        -11    1    3    3    0    0 -0.15757392359E+02  0.12511970463E+02  0.48668450648E+01  0.20700990314E+02  0.51100000000E-03 0. -1.
        -12    1    3    3    0    0 -0.67373155084E+01  0.56756597937E+01  0.67038149688E+01  0.11070034756E+02  0.00000000000E+00 0.  1.
</event>
<event>
 7    1  0.5910662E-013  0.5052886E+02  0.7816164E-02  0.1300439E+00
        -11   -1    0    0    0    0  0.00000000000E+00  0.00000000000E+00  0.45593999997E+02  0.45594000000E+02  0.51100000000E-03 0. -1.
         11   -1    0    0    0    0 -0.00000000000E+00 -0.00000000000E+00 -0.45593999997E+02  0.45594000000E+02  0.51100000000E-03 0.  1.
    9900012    2    1    2    0    0 -0.40164685719E+02  0.23150418492E+01  0.58825343408E+01  0.50528860709E+02  0.30000002610E+02 0.  0.
         12    1    1    2    0    0  0.40164685719E+02 -0.23150418492E+01 -0.58825343408E+01  0.40659139291E+02  0.00000000000E+00 0. -1.
         11    1    3    3    0    0 -0.53001735553E+01 -0.10583643238E+02 -0.17881332355E+01  0.11970913274E+02  0.51100000000E-03 0. -1.
        -11    1    3    3    0    0 -0.15855627589E+02  0.54701359620E+01  0.50109451446E-01  0.16772770341E+02  0.51100000000E-03 0.  1.
         12    1    3    3    0    0 -0.19008884574E+02  0.74285491248E+01  0.76205581248E+01  0.21785177093E+02  0.00000000000E+00 0. -1.
</event>
<event>
 7    1  0.5910662E-013  0.5052891E+02  0.7816164E-02  0.1300439E+00
        -11   -1    0    0    0    0  0.00000000000E+00  0.00000000000E+00  0.45593999997E+02  0.45594000000E+02  0.51100000000E-03 0. -1.
         11   -1    0    0    0    0 -0.00000000000E+00 -0.00000000000E+00 -0.45593999997E+02  0.45594000000E+02  0.51100000000E-03 0.  1.
    9900012    2    1    2    0    0 -0.34921883156E+02  0.18013650362E+02 -0.10446613563E+02  0.50528914208E+02  0.30000165226E+02 0.  0.
         12    1    1    2    0    0  0.34921883156E+02 -0.18013650362E+02  0.10446613563E+02  0.40659085792E+02  0.00000000000E+00 0. -1.
         11    1    3    3    0    0 -0.23944734486E+02  0.11228271847E+02  0.24237285549E+01  0.26557463333E+02  0.51100000000E-03 0. -1.
        -11    1    3    3    0    0 -0.11534515630E+02  0.85618499460E+00 -0.22320044404E+01  0.11779641236E+02  0.51100000000E-03 0.  1.
         12    1    3    3    0    0  0.55736696068E+00  0.59291935204E+01 -0.10638337678E+02  0.12191809639E+02  0.00000000000E+00 0. -1.
</event>
<event>
 7    1  0.5910662E-013  0.5052886E+02  0.7816164E-02  0.1300439E+00
        -11   -1    0    0    0    0  0.00000000000E+00  0.00000000000E+00  0.45593999997E+02  0.45594000000E+02  0.51100000000E-03 0. -1.
         11   -1    0    0    0    0 -0.00000000000E+00 -0.00000000000E+00 -0.45593999997E+02  0.45594000000E+02  0.51100000000E-03 0.  1.
    9900012    2    1    2    0    0 -0.36338970485E+02 -0.47222317811E+01 -0.17616619647E+02  0.50528861584E+02  0.30000005272E+02 0.  0.
         12    1    1    2    0    0  0.36338970485E+02  0.47222317811E+01  0.17616619647E+02  0.40659138416E+02  0.00000000000E+00 0. -1.
         11    1    3    3    0    0 -0.14586929783E+02 -0.13313370731E+02 -0.12896705557E+02  0.23587059486E+02  0.51100000000E-03 0. -1.
        -11    1    3    3    0    0 -0.10075542042E+02  0.68378022819E+01  0.33632428611E+01  0.12632635920E+02  0.51100000000E-03 0.  1.
        -12    1    3    3    0    0 -0.11676498660E+02  0.17533366676E+01 -0.80831569509E+01  0.14309166178E+02  0.00000000000E+00 0.  1.
</event>
<event>
 7    1  0.5910662E-013  0.5052887E+02  0.7816164E-02  0.1300439E+00
        -11   -1    0    0    0    0  0.00000000000E+00  0.00000000000E+00  0.45593999997E+02  0.45594000000E+02  0.51100000000E-03 0.  1.
         11   -1    0    0    0    0 -0.00000000000E+00 -0.00000000000E+00 -0.45593999997E+02  0.45594000000E+02  0.51100000000E-03 0. -1.
    9900012    2    1    2    0    0 -0.12068948855E+02 -0.72363963983E+01  0.38146300955E+02  0.50528865284E+02  0.30000016518E+02 0.  0.
         12    1    1    2    0    0  0.12068948855E+02  0.72363963983E+01 -0.38146300955E+02  0.40659134716E+02  0.00000000000E+00 0. -1.
         11    1    3    3    0    0  0.36548948405E+01 -0.41905309871E+00 -0.18958901063E+01  0.41386303714E+01  0.51100000000E-03 0. -1.
        -11    1    3    3    0    0 -0.15445200215E+02  0.19147080138E+00  0.20790389331E+02  0.25900408482E+02  0.51100000000E-03 0.  1.
         12    1    3    3    0    0 -0.27864348023E+00 -0.70088141009E+01  0.19251801731E+02  0.20489826431E+02  0.00000000000E+00 0. -1.
</event>
<event>
 7    1  0.5910662E-013  0.5052889E+02  0.7816164E-02  0.1300439E+00
        -11   -1    0    0    0    0  0.00000000000E+00  0.00000000000E+00  0.45593999997E+02  0.45594000000E+02  0.51100000000E-03 0.  1.
         11   -1    0    0    0    0 -0.00000000000E+00 -0.00000000000E+00 -0.45593999997E+02  0.45594000000E+02  0.51100000000E-03 0. -1.
    9900012    2    1    2    0    0 -0.30428514781E+02 -0.21429943949E+02  0.16371509537E+02  0.50528888672E+02  0.30000087608E+02 0.  0.
         12    1    1    2    0    0  0.30428514781E+02  0.21429943949E+02 -0.16371509537E+02  0.40659111328E+02  0.00000000000E+00 0. -1.
         11    1    3    3    0    0 -0.25113894849E+02 -0.22055742619E+01  0.88744245805E+01  0.26726909365E+02  0.51100000000E-03 0. -1.
        -11    1    3    3    0    0  0.18903794222E+01 -0.38667488506E+01 -0.15522613731E+01  0.45754558970E+01  0.51100000000E-03 0.  1.
         12    1    3    3    0    0 -0.72049993546E+01 -0.15357620837E+02  0.90493463296E+01  0.19226523410E+02  0.00000000000E+00 0. -1.
</event>
<event>
 7    1  0.5910662E-013  0.5052887E+02  0.7816164E-02  0.1300439E+00
        -11   -1    0    0    0    0  0.00000000000E+00  0.00000000000E+00  0.45593999997E+02  0.45594000000E+02  0.51100000000E-03 0.  1.
         11   -1    0    0    0    0 -0.00000000000E+00 -0.00000000000E+00 -0.45593999997E+02  0.45594000000E+02  0.51100000000E-03 0. -1.
    9900012    2    1    2    0    0  0.23049033929E+02  0.28992965503E+02  0.16772454357E+02  0.50528865247E+02  0.30000016403E+02 0.  0.
         12    1    1    2    0    0 -0.23049033929E+02 -0.28992965503E+02 -0.16772454357E+02  0.40659134753E+02  0.00000000000E+00 0. -1.
         11    1    3    3    0    0  0.52701581729E+01 -0.14021527925E+01  0.33387811879E+01  0.63943771943E+01  0.51100000000E-03 0. -1.
        -11    1    3    3    0    0 -0.11724905257E+01  0.15491783519E+02 -0.17622569004E+01  0.15635716814E+02  0.51100000000E-03 0.  1.
        -12    1    3    3    0    0  0.18951366281E+02  0.14903334776E+02  0.15195930070E+02  0.28498771238E+02  0.00000000000E+00 0.  1.
</event>
<event>
 7    1  0.5910662E-013  0.5052886E+02  0.7816164E-02  0.1300439E+00
        -11   -1    0    0    0    0  0.00000000000E+00  0.00000000000E+00  0.45593999997E+02  0.45594000000E+02  0.51100000000E-03 0.  1.
         11   -1    0    0    0    0 -0.00000000000E+00 -0.00000000000E+00 -0.45593999997E+02  0.45594000000E+02  0.51100000000E-03 0. -1.
    9900012    2    1    2    0    0 -0.30129926329E+02 -0.27287419438E+02  0.86614007078E+00  0.50528856886E+02  0.29999990991E+02 0.  0.
         12    1    1    2    0    0  0.30129926329E+02  0.27287419438E+02 -0.86614007078E+00  0.40659143114E+02  0.00000000000E+00 0. -1.
         11    1    3    3    0    0 -0.58095304730E+01 -0.39478095964E+01 -0.73050533148E+01  0.10134083536E+02  0.51100000000E-03 0. -1.
        -11    1    3    3    0    0 -0.12264765613E+02 -0.54093022694E+01  0.12534702984E+02  0.18352215282E+02  0.51100000000E-03 0.  1.
        -12    1    3    3    0    0 -0.12055630243E+02 -0.17930307572E+02 -0.43635095986E+01  0.22042558068E+02  0.00000000000E+00 0.  1.
</event>
<event>
 7    1  0.5910662E-013  0.5052886E+02  0.7816164E-02  0.1300439E+00
        -11   -1    0    0    0    0  0.00000000000E+00  0.00000000000E+00  0.45593999997E+02  0.45594000000E+02  0.51100000000E-03 0.  1.
         11   -1    0    0    0    0 -0.00000000000E+00 -0.00000000000E+00 -0.45593999997E+02  0.45594000000E+02  0.51100000000E-03 0. -1.
    9900012    2    1    2    0    0 -0.17992826937E+01 -0.20979241490E+02  0.34782180285E+02  0.50528855186E+02  0.29999985822E+02 0.  0.
         12    1    1    2    0    0  0.17992826937E+01  0.20979241490E+02 -0.34782180285E+02  0.40659144814E+02  0.00000000000E+00 0. -1.
         11    1    3    3    0    0 -0.13097555160E+02 -0.84220384990E+01  0.17122877466E+02  0.23144537512E+02  0.51100000000E-03 0. -1.
        -11    1    3    3    0    0  0.10468543187E+02 -0.14737595938E+02  0.17304345954E+02  0.25024538350E+02  0.51100000000E-03 0.  1.
         12    1    3    3    0    0  0.82972927943E+00  0.21803929471E+01  0.35495686401E+00  0.23597793236E+01  0.00000000000E+00 0. -1.
</event>
<event>
 7    1  0.5910662E-013  0.5052886E+02  0.7816164E-02  0.1300439E+00
        -11   -1    0    0    0    0  0.00000000000E+00  0.00000000000E+00  0.45593999997E+02  0.45594000000E+02  0.51100000000E-03 0. -1.
         11   -1    0    0    0    0 -0.00000000000E+00 -0.00000000000E+00 -0.45593999997E+02  0.45594000000E+02  0.51100000000E-03 0.  1.
    9900012    2    1    2    0    0 -0.83972225469E+01  0.22217976293E+02 -0.33000211189E+02  0.50528858893E+02  0.29999997090E+02 0.  0.
         12    1    1    2    0    0  0.83972225469E+01 -0.22217976293E+02  0.33000211189E+02  0.40659141107E+02  0.00000000000E+00 0. -1.
         11    1    3    3    0    0 -0.98273442563E+01  0.11181986566E+02 -0.20673688344E+01  0.15029555311E+02  0.51100000000E-03 0. -1.
        -11    1    3    3    0    0 -0.48861011419E+01  0.37239677447E+01 -0.19933620110E+02  0.20858838200E+02  0.51100000000E-03 0.  1.
         12    1    3    3    0    0  0.63162228513E+01  0.73120219823E+01 -0.10999222245E+02  0.14640465381E+02  0.00000000000E+00 0. -1.
</event>
<event>
 7    1  0.5910662E-013  0.5052885E+02  0.7816164E-02  0.1300439E+00
        -11   -1    0    0    0    0  0.00000000000E+00  0.00000000000E+00  0.45593999997E+02  0.45594000000E+02  0.51100000000E-03 0. -1.
         11   -1    0    0    0    0 -0.00000000000E+00 -0.00000000000E+00 -0.45593999997E+02  0.45594000000E+02  0.51100000000E-03 0.  1.
    9900012    2    1    2    0    0  0.20440407131E+01  0.32246941686E+02  0.24680415676E+02  0.50528852585E+02  0.29999977918E+02 0.  0.
         12    1    1    2    0    0 -0.20440407131E+01 -0.32246941686E+02 -0.24680415676E+02  0.40659147415E+02  0.00000000000E+00 0. -1.
         11    1    3    3    0    0 -0.94943863357E+00  0.86091723876E+00  0.11348663914E+01  0.17118803107E+01  0.51100000000E-03 0. -1.
        -11    1    3    3    0    0 -0.76511400883E+01  0.28235042521E+02  0.91758934733E+01  0.30658678903E+02  0.51100000000E-03 0.  1.
        -12    1    3    3    0    0  0.10644619435E+02  0.31509819265E+01  0.14369655811E+02  0.18158293371E+02  0.00000000000E+00 0.  1.
</event>
<event>
 7    1  0.5910662E-013  0.5052887E+02  0.7816164E-02  0.1300439E+00
        -11   -1    0    0    0    0  0.00000000000E+00  0.00000000000E+00  0.45593999997E+02  0.45594000000E+02  0.51100000000E-03 0.  1.
         11   -1    0    0    0    0 -0.00000000000E+00 -0.00000000000E+00 -0.45593999997E+02  0.45594000000E+02  0.51100000000E-03 0. -1.
    9900012    2    1    2    0    0  0.38302561445E+02  0.13625736679E+02 -0.64626802960E+00  0.50528873402E+02  0.30000041194E+02 0.  0.
         12    1    1    2    0    0 -0.38302561445E+02 -0.13625736679E+02  0.64626802960E+00  0.40659126598E+02  0.00000000000E+00 0. -1.
         11    1    3    3    0    0  0.14033837112E+02  0.43741400504E+00 -0.45424014074E+01  0.14757144911E+02  0.51100000000E-03 0. -1.
        -11    1    3    3    0    0  0.40018384581E+01  0.11996053702E+02  0.81288812805E+01  0.15033254026E+02  0.51100000000E-03 0.  1.
        -12    1    3    3    0    0  0.20266885875E+02  0.11922689718E+01 -0.42327479027E+01  0.20738474466E+02  0.00000000000E+00 0.  1.
</event>
<event>
 7    1  0.5910662E-013  0.5052886E+02  0.7816164E-02  0.1300439E+00
        -11   -1    0    0    0    0  0.00000000000E+00  0.00000000000E+00  0.45593999997E+02  0.45594000000E+02  0.51100000000E-03 0. -1.
         11   -1    0    0    0    0 -0.00000000000E+00 -0.00000000000E+00 -0.45593999997E+02  0.45594000000E+02  0.51100000000E-03 0.  1.
    9900012    2    1    2    0    0 -0.34452585442E+02  0.21385384019E+02 -0.29749400950E+01  0.50528861275E+02  0.30000004333E+02 0.  0.
         12    1    1    2    0    0  0.34452585442E+02 -0.21385384019E+02  0.29749400950E+01  0.40659138725E+02  0.00000000000E+00 0. -1.
         11    1    3    3    0    0 -0.35441350421E+01  0.48981767772E+01  0.10145528620E+02  0.11810367487E+02  0.51100000000E-03 0. -1.
        -11    1    3    3    0    0 -0.28085409130E+02  0.11058989858E+02 -0.96766840011E+01  0.31697471132E+02  0.51100000000E-03 0.  1.
         12    1    3    3    0    0 -0.28230412698E+01  0.54282173838E+01 -0.34437847140E+01  0.70210226558E+01  0.00000000000E+00 0. -1.
</event>
<event>
 7    1  0.5910662E-013  0.5052887E+02  0.7816164E-02  0.1300439E+00
        -11   -1    0    0    0    0  0.00000000000E+00  0.00000000000E+00  0.45593999997E+02  0.45594000000E+02  0.51100000000E-03 0.  1.
         11   -1    0    0    0    0 -0.00000000000E+00 -0.00000000000E+00 -0.45593999997E+02  0.45594000000E+02  0.51100000000E-03 0. -1.
    9900012    2    1    2    0    0  0.35556712721E+02 -0.16919371905E+02  0.10130160225E+02  0.50528866815E+02  0.30000021171E+02 0.  0.
         12    1    1    2    0    0 -0.35556712721E+02  0.16919371905E+02 -0.10130160225E+02  0.40659133185E+02  0.00000000000E+00 0. -1.
         11    1    3    3    0    0  0.16358322880E+02  0.57470519473E+00 -0.18181595689E+01  0.16469083702E+02  0.51100000000E-03 0. -1.
        -11    1    3    3    0    0 -0.25335419253E+01 -0.75917514343E+01  0.33755017299E+01  0.86860541512E+01  0.51100000000E-03 0.  1.
         12    1    3    3    0    0  0.21731931766E+02 -0.99023256651E+01  0.85728180639E+01  0.25373728962E+02  0.00000000000E+00 0. -1.
</event>
<event>
 7    1  0.5910662E-013  0.5052885E+02  0.7816164E-02  0.1300439E+00
        -11   -1    0    0    0    0  0.00000000000E+00  0.00000000000E+00  0.45593999997E+02  0.45594000000E+02  0.51100000000E-03 0.  1.
         11   -1    0    0    0    0 -0.00000000000E+00 -0.00000000000E+00 -0.45593999997E+02  0.45594000000E+02  0.51100000000E-03 0. -1.
    9900012    2    1    2    0    0  0.78588296786E+01  0.48973752114E+01  0.39590663320E+02  0.50528854535E+02  0.29999983843E+02 0.  0.
         12    1    1    2    0    0 -0.78588296786E+01 -0.48973752114E+01 -0.39590663320E+02  0.40659145465E+02  0.00000000000E+00 0. -1.
         11    1    3    3    0    0 -0.70417039426E+01  0.61111622072E+01  0.24120300155E+02  0.25859636071E+02  0.51100000000E-03 0. -1.
        -11    1    3    3    0    0  0.50915673074E+01 -0.20793956446E+01  0.13567661481E+02  0.14639992562E+02  0.51100000000E-03 0.  1.
         12    1    3    3    0    0  0.98089663138E+01  0.86560864870E+00  0.19027016843E+01  0.10029225901E+02  0.00000000000E+00 0. -1.
</event>
<event>
 7    1  0.5910662E-013  0.5052891E+02  0.7816164E-02  0.1300439E+00
        -11   -1    0    0    0    0  0.00000000000E+00  0.00000000000E+00  0.45593999997E+02  0.45594000000E+02  0.51100000000E-03 0.  1.
         11   -1    0    0    0    0 -0.00000000000E+00 -0.00000000000E+00 -0.45593999997E+02  0.45594000000E+02  0.51100000000E-03 0. -1.
    9900012    2    1    2    0    0 -0.24675403011E+02 -0.13970842805E+02  0.29139346389E+02  0.50528911589E+02  0.30000157265E+02 0.  0.
         12    1    1    2    0    0  0.24675403011E+02  0.13970842805E+02 -0.29139346389E+02  0.40659088411E+02  0.00000000000E+00 0. -1.
         11    1    3    3    0    0 -0.20573296077E+02 -0.19814997560E+01  0.25923535508E+02  0.33154434790E+02  0.51100000000E-03 0. -1.
        -11    1    3    3    0    0 -0.20198481455E+01 -0.77016569010E+01  0.75201412007E+01  0.10952069644E+02  0.51100000000E-03 0.  1.
         12    1    3    3    0    0 -0.20822587888E+01 -0.42876861475E+01 -0.43043303193E+01  0.64224071547E+01  0.00000000000E+00 0. -1.
</event>
<event>
 7    1  0.5910662E-013  0.5052888E+02  0.7816164E-02  0.1300439E+00
        -11   -1    0    0    0    0  0.00000000000E+00  0.00000000000E+00  0.45593999997E+02  0.45594000000E+02  0.51100000000E-03 0. -1.
         11   -1    0    0    0    0 -0.00000000000E+00 -0.00000000000E+00 -0.45593999997E+02  0.45594000000E+02  0.51100000000E-03 0.  1.
    9900012    2    1    2    0    0  0.28262402346E+02 -0.24054755802E+02 -0.16606293587E+02  0.50528884788E+02  0.30000075803E+02 0.  0.
         12    1    1    2    0    0 -0.28262402346E+02  0.24054755802E+02  0.16606293587E+02  0.40659115212E+02  0.00000000000E+00 0. -1.
         11    1    3    3    0    0  0.16739024749E+02 -0.14771595923E+02  0.46330684760E+01  0.22800445597E+02  0.51100000000E-03 0. -1.
        -11    1    3    3    0    0  0.14466199616E+01 -0.64414676291E+01 -0.45182532707E+01  0.79999892131E+01  0.51100000000E-03 0.  1.
         12    1    3    3    0    0  0.10076757635E+02 -0.28416922499E+01 -0.16721108792E+02  0.19728449978E+02  0.00000000000E+00 0. -1.
</event>
<event>
 7    1  0.5910662E-013  0.5052885E+02  0.7816164E-02  0.1300439E+00
        -11   -1    0    0    0    0  0.00000000000E+00  0.00000000000E+00  0.45593999997E+02  0.45594000000E+02  0.51100000000E-03 0.  1.
         11   -1    0    0    0    0 -0.00000000000E+00 -0.00000000000E+00 -0.45593999997E+02  0.45594000000E+02  0.51100000000E-03 0. -1.
    9900012    2    1    2    0    0  0.21235452923E+02  0.29264759761E+01  0.34549347451E+02  0.50528854267E+02  0.29999983029E+02 0.  0.
         12    1    1    2    0    0 -0.21235452923E+02 -0.29264759761E+01 -0.34549347451E+02  0.40659145733E+02  0.00000000000E+00 0. -1.
         11    1    3    3    0    0  0.93818926633E+01  0.10045453294E+02  0.52407143862E+01  0.14710408878E+02  0.51100000000E-03 0. -1.
        -11    1    3    3    0    0  0.46811591463E+01 -0.13508694833E+00  0.24066848135E+02  0.24518251953E+02  0.51100000000E-03 0.  1.
        -12    1    3    3    0    0  0.71724011134E+01 -0.69838903694E+01  0.52417849296E+01  0.11300193435E+02  0.00000000000E+00 0.  1.
</event>
<event>
 7    1  0.5910662E-013  0.5052886E+02  0.7816164E-02  0.1300439E+00
        -11   -1    0    0    0    0  0.00000000000E+00  0.00000000000E+00  0.45593999997E+02  0.45594000000E+02  0.51100000000E-03 0. -1.
         11   -1    0    0    0    0 -0.00000000000E+00 -0.00000000000E+00 -0.45593999997E+02  0.45594000000E+02  0.51100000000E-03 0.  1.
    9900012    2    1    2    0    0 -0.31290611823E+02 -0.18417539858E+02 -0.18299104866E+02  0.50528863246E+02  0.30000010323E+02 0.  0.
         12    1    1    2    0    0  0.31290611823E+02  0.18417539858E+02  0.18299104866E+02  0.40659136754E+02  0.00000000000E+00 0. -1.
         11    1    3    3    0    0 -0.40978976456E+01 -0.12008867197E+02 -0.28370026711E+00  0.12691971580E+02  0.51100000000E-03 0.  1.
        -11    1    3    3    0    0 -0.27279343356E+02 -0.10361049164E+02 -0.14683702686E+02  0.32666879841E+02  0.51100000000E-03 0. -1.
         12    1    3    3    0    0  0.86629178434E-01  0.39523765035E+01 -0.33317019130E+01  0.51700118256E+01  0.00000000000E+00 0. -1.
</event>
<event>
 7    1  0.5910662E-013  0.5052886E+02  0.7816164E-02  0.1300439E+00
        -11   -1    0    0    0    0  0.00000000000E+00  0.00000000000E+00  0.45593999997E+02  0.45594000000E+02  0.51100000000E-03 0.  1.
         11   -1    0    0    0    0 -0.00000000000E+00 -0.00000000000E+00 -0.45593999997E+02  0.45594000000E+02  0.51100000000E-03 0. -1.
    9900012    2    1    2    0    0  0.41334282544E+01  0.24844945188E+01  0.40372116078E+02  0.50528859591E+02  0.29999999214E+02 0.  0.
         12    1    1    2    0    0 -0.41334282544E+01 -0.24844945188E+01 -0.40372116078E+02  0.40659140409E+02  0.00000000000E+00 0. -1.
         11    1    3    3    0    0  0.79005472818E+01 -0.10270130070E+02  0.15991737666E+02  0.20582271324E+02  0.51100000000E-03 0. -1.
        -11    1    3    3    0    0  0.25034276194E+01  0.10390266718E+02  0.14882066471E+02  0.18322136748E+02  0.51100000000E-03 0.  1.
         12    1    3    3    0    0 -0.62705466468E+01  0.23643578713E+01  0.94983119410E+01  0.11624451519E+02  0.00000000000E+00 0. -1.
</event>
<event>
 7    1  0.5910662E-013  0.5052886E+02  0.7816164E-02  0.1300439E+00
        -11   -1    0    0    0    0  0.00000000000E+00  0.00000000000E+00  0.45593999997E+02  0.45594000000E+02  0.51100000000E-03 0.  1.
         11   -1    0    0    0    0 -0.00000000000E+00 -0.00000000000E+00 -0.45593999997E+02  0.45594000000E+02  0.51100000000E-03 0. -1.
    9900012    2    1    2    0    0  0.36731833792E+02 -0.64133786026E+01  0.16211304290E+02  0.50528862951E+02  0.30000009425E+02 0.  0.
         12    1    1    2    0    0 -0.36731833792E+02  0.64133786026E+01 -0.16211304290E+02  0.40659137049E+02  0.00000000000E+00 0. -1.
         11    1    3    3    0    0  0.37595126635E+01  0.52650975914E+01 -0.91957110785E+00  0.65345848680E+01  0.51100000000E-03 0. -1.
        -11    1    3    3    0    0  0.60163475443E+01 -0.12151981343E+02  0.55230802221E+01  0.14641431069E+02  0.51100000000E-03 0.  1.
        -12    1    3    3    0    0  0.26955973584E+02  0.47350514943E+00  0.11607795176E+02  0.29352847014E+02  0.00000000000E+00 0.  1.
</event>
<event>
 7    1  0.5910662E-013  0.5052887E+02  0.7816164E-02  0.1300439E+00
        -11   -1    0    0    0    0  0.00000000000E+00  0.00000000000E+00  0.45593999997E+02  0.45594000000E+02  0.51100000000E-03 0.  1.
         11   -1    0    0    0    0 -0.00000000000E+00 -0.00000000000E+00 -0.45593999997E+02  0.45594000000E+02  0.51100000000E-03 0. -1.
    9900012    2    1    2    0    0  0.38483139959E+02  0.85844521472E+01 -0.99257420920E+01  0.50528865284E+02  0.30000016518E+02 0.  0.
         12    1    1    2    0    0 -0.38483139959E+02 -0.85844521472E+01  0.99257420920E+01  0.40659134716E+02  0.00000000000E+00 0. -1.
         11    1    3    3    0    0  0.87552724831E+01  0.40217845494E+01  0.41132589395E+01  0.10476089279E+02  0.51100000000E-03 0. -1.
        -11    1    3    3    0    0  0.12113132869E+01 -0.48211390638E+01 -0.80182936341E+01  0.94341769549E+01  0.51100000000E-03 0.  1.
        -12    1    3    3    0    0  0.28516554189E+02  0.93838066617E+01 -0.60207073974E+01  0.30618599051E+02  0.00000000000E+00 0.  1.
</event>
<event>
 7    1  0.5910662E-013  0.5052888E+02  0.7816164E-02  0.1300439E+00
        -11   -1    0    0    0    0  0.00000000000E+00  0.00000000000E+00  0.45593999997E+02  0.45594000000E+02  0.51100000000E-03 0.  1.
         11   -1    0    0    0    0 -0.00000000000E+00 -0.00000000000E+00 -0.45593999997E+02  0.45594000000E+02  0.51100000000E-03 0. -1.
    9900012    2    1    2    0    0 -0.37563609395E+01 -0.39371824749E+02  0.94293917010E+01  0.50528877291E+02  0.30000053015E+02 0.  0.
         12    1    1    2    0    0  0.37563609395E+01  0.39371824749E+02 -0.94293917010E+01  0.40659122709E+02  0.00000000000E+00 0. -1.
         11    1    3    3    0    0  0.20623647502E+01 -0.32328947240E+02 -0.13756176159E+01  0.32423856989E+02  0.51100000000E-03 0. -1.
        -11    1    3    3    0    0 -0.19901491398E+01 -0.78772792977E+01  0.11544974348E+02  0.14117317581E+02  0.51100000000E-03 0.  1.
         12    1    3    3    0    0 -0.38285765499E+01  0.83440178814E+00 -0.73996503118E+00  0.39877027208E+01  0.00000000000E+00 0. -1.
</event>
<event>
 7    1  0.5910662E-013  0.5052886E+02  0.7816164E-02  0.1300439E+00
        -11   -1    0    0    0    0  0.00000000000E+00  0.00000000000E+00  0.45593999997E+02  0.45594000000E+02  0.51100000000E-03 0. -1.
         11   -1    0    0    0    0 -0.00000000000E+00 -0.00000000000E+00 -0.45593999997E+02  0.45594000000E+02  0.51100000000E-03 0.  1.
    9900012    2    1    2    0    0  0.17368445782E+01 -0.23419834158E+02 -0.33191268717E+02  0.50528861051E+02  0.30000003650E+02 0.  0.
         12    1    1    2    0    0 -0.17368445782E+01  0.23419834158E+02  0.33191268717E+02  0.40659138949E+02  0.00000000000E+00 0. -1.
         11    1    3    3    0    0 -0.57026773551E+00 -0.39478805484E+00  0.47139711446E+01  0.47647231936E+01  0.51100000000E-03 0. -1.
        -11    1    3    3    0    0 -0.44011275781E+01 -0.93689444078E+01 -0.13631702997E+02  0.17116377249E+02  0.51100000000E-03 0.  1.
         12    1    3    3    0    0  0.67082398918E+01 -0.13656101695E+02 -0.24273536864E+02  0.28647760608E+02  0.00000000000E+00 0. -1.
</event>
<event>
 7    1  0.5910662E-013  0.5052886E+02  0.7816164E-02  0.1300439E+00
        -11   -1    0    0    0    0  0.00000000000E+00  0.00000000000E+00  0.45593999997E+02  0.45594000000E+02  0.51100000000E-03 0. -1.
         11   -1    0    0    0    0 -0.00000000000E+00 -0.00000000000E+00 -0.45593999997E+02  0.45594000000E+02  0.51100000000E-03 0.  1.
    9900012    2    1    2    0    0  0.15703996663E+02 -0.61252010070E+01 -0.37000432223E+02  0.50528861012E+02  0.30000003532E+02 0.  0.
         12    1    1    2    0    0 -0.15703996663E+02  0.61252010070E+01  0.37000432223E+02  0.40659138988E+02  0.00000000000E+00 0. -1.
         11    1    3    3    0    0  0.38297451592E+01 -0.86791128439E+01 -0.13514776729E+02  0.16511908976E+02  0.51100000000E-03 0. -1.
        -11    1    3    3    0    0  0.21342434904E-01  0.79254717544E+01 -0.18419673414E+02  0.20052379584E+02  0.51100000000E-03 0.  1.
        -12    1    3    3    0    0  0.11852909069E+02 -0.53715599175E+01 -0.50659820801E+01  0.13964572453E+02  0.00000000000E+00 0.  1.
</event>
<event>
 7    1  0.5910662E-013  0.5052888E+02  0.7816164E-02  0.1300439E+00
        -11   -1    0    0    0    0  0.00000000000E+00  0.00000000000E+00  0.45593999997E+02  0.45594000000E+02  0.51100000000E-03 0.  1.
         11   -1    0    0    0    0 -0.00000000000E+00 -0.00000000000E+00 -0.45593999997E+02  0.45594000000E+02  0.51100000000E-03 0. -1.
    9900012    2    1    2    0    0 -0.20253197276E+02  0.33930019008E+01  0.35092159228E+02  0.50528879239E+02  0.30000058934E+02 0.  0.
         12    1    1    2    0    0  0.20253197276E+02 -0.33930019008E+01 -0.35092159228E+02  0.40659120761E+02  0.00000000000E+00 0. -1.
         11    1    3    3    0    0  0.40693547773E+01 -0.46464259725E+01  0.17888755856E+02  0.18925023354E+02  0.51100000000E-03 0. -1.
        -11    1    3    3    0    0 -0.17758691862E+02  0.63512506846E+01  0.88120686285E+01  0.20817350352E+02  0.51100000000E-03 0.  1.
        -12    1    3    3    0    0 -0.65638601911E+01  0.16881771887E+01  0.83913347437E+01  0.10786505533E+02  0.00000000000E+00 0.  1.
</event>
<event>
 7    1  0.5910662E-013  0.5052886E+02  0.7816164E-02  0.1300439E+00
        -11   -1    0    0    0    0  0.00000000000E+00  0.00000000000E+00  0.45593999997E+02  0.45594000000E+02  0.51100000000E-03 0.  1.
         11   -1    0    0    0    0 -0.00000000000E+00 -0.00000000000E+00 -0.45593999997E+02  0.45594000000E+02  0.51100000000E-03 0. -1.
    9900012    2    1    2    0    0 -0.15080898505E+02  0.37074210566E+02  0.71578821461E+01  0.50528857539E+02  0.29999992976E+02 0.  0.
         12    1    1    2    0    0  0.15080898505E+02 -0.37074210566E+02 -0.71578821461E+01  0.40659142461E+02  0.00000000000E+00 0. -1.
         11    1    3    3    0    0 -0.55300984614E+01  0.35034292160E+02  0.30579498960E+01  0.35599644296E+02  0.51100000000E-03 0. -1.
        -11    1    3    3    0    0 -0.10920209809E+02  0.42312805082E+01  0.38734609082E+01  0.12335250978E+02  0.51100000000E-03 0.  1.
         12    1    3    3    0    0  0.13694097659E+01 -0.21913621017E+01  0.22647134196E+00  0.25939622658E+01  0.00000000000E+00 0. -1.
</event>
<event>
 7    1  0.5910662E-013  0.5052886E+02  0.7816164E-02  0.1300439E+00
        -11   -1    0    0    0    0  0.00000000000E+00  0.00000000000E+00  0.45593999997E+02  0.45594000000E+02  0.51100000000E-03 0. -1.
         11   -1    0    0    0    0 -0.00000000000E+00 -0.00000000000E+00 -0.45593999997E+02  0.45594000000E+02  0.51100000000E-03 0.  1.
    9900012    2    1    2    0    0 -0.25285143690E+02 -0.67403987326E+01 -0.31119036009E+02  0.50528857503E+02  0.29999992866E+02 0.  0.
         12    1    1    2    0    0  0.25285143690E+02  0.67403987326E+01  0.31119036009E+02  0.40659142497E+02  0.00000000000E+00 0. -1.
         11    1    3    3    0    0 -0.17376433498E+02 -0.43273422044E+01 -0.14849627958E+02  0.23263228117E+02  0.51100000000E-03 0. -1.
        -11    1    3    3    0    0  0.37841941305E+01 -0.78595911690E+01 -0.45538207831E+01  0.98402531749E+01  0.51100000000E-03 0.  1.
        -12    1    3    3    0    0 -0.11692904322E+02  0.54465346408E+01 -0.11715587267E+02  0.17425376211E+02  0.00000000000E+00 0.  1.
</event>
<event>
 7    1  0.5910662E-013  0.5052885E+02  0.7816164E-02  0.1300439E+00
        -11   -1    0    0    0    0  0.00000000000E+00  0.00000000000E+00  0.45593999997E+02  0.45594000000E+02  0.51100000000E-03 0.  1.
         11   -1    0    0    0    0 -0.00000000000E+00 -0.00000000000E+00 -0.45593999997E+02  0.45594000000E+02  0.51100000000E-03 0. -1.
    9900012    2    1    2    0    0  0.21438722178E+02  0.26325735003E+02  0.22371940434E+02  0.50528845424E+02  0.29999956149E+02 0.  0.
         12    1    1    2    0    0 -0.21438722178E+02 -0.26325735003E+02 -0.22371940434E+02  0.40659154576E+02  0.00000000000E+00 0. -1.
         11    1    3    3    0    0 -0.35563014187E+01  0.17982933736E+01  0.40472272438E+01  0.56798932615E+01  0.51100000000E-03 0. -1.
        -11    1    3    3    0    0  0.21355891165E+02  0.15355326697E+02  0.22028465653E+02  0.34309086911E+02  0.51100000000E-03 0.  1.
        -12    1    3    3    0    0  0.36391324317E+01  0.91721149332E+01 -0.37037524625E+01  0.10539865251E+02  0.00000000000E+00 0.  1.
</event>
<event>
 7    1  0.5910662E-013  0.5052887E+02  0.7816164E-02  0.1300439E+00
        -11   -1    0    0    0    0  0.00000000000E+00  0.00000000000E+00  0.45593999997E+02  0.45594000000E+02  0.51100000000E-03 0.  1.
         11   -1    0    0    0    0 -0.00000000000E+00 -0.00000000000E+00 -0.45593999997E+02  0.45594000000E+02  0.51100000000E-03 0. -1.
    9900012    2    1    2    0    0 -0.40034494622E+02  0.63423863312E+01 -0.31903014906E+01  0.50528872518E+02  0.30000038505E+02 0.  0.
         12    1    1    2    0    0  0.40034494622E+02 -0.63423863312E+01  0.31903014906E+01  0.40659127482E+02  0.00000000000E+00 0. -1.
         11    1    3    3    0    0 -0.24416540530E+02 -0.28288194983E+01  0.66011892131E+01  0.25450842235E+02  0.51100000000E-03 0.  1.
        -11    1    3    3    0    0 -0.68394421972E+01  0.85078942627E+01 -0.11772122079E+02  0.16054441530E+02  0.51100000000E-03 0. -1.
         12    1    3    3    0    0 -0.87785118950E+01  0.66331156679E+00  0.19806313749E+01  0.90235887522E+01  0.00000000000E+00 0. -1.
</event>
<event>
 7    1  0.5910662E-013  0.5052892E+02  0.7816164E-02  0.1300439E+00
        -11   -1    0    0    0    0  0.00000000000E+00  0.00000000000E+00  0.45593999997E+02  0.45594000000E+02  0.51100000000E-03 0.  1.
         11   -1    0    0    0    0 -0.00000000000E+00 -0.00000000000E+00 -0.45593999997E+02  0.45594000000E+02  0.51100000000E-03 0. -1.
    9900012    2    1    2    0    0 -0.34557207083E+02  0.72730128248E+00  0.21411004138E+02  0.50528921964E+02  0.30000188802E+02 0.  0.
         12    1    1    2    0    0  0.34557207083E+02 -0.72730128248E+00 -0.21411004138E+02  0.40659078036E+02  0.00000000000E+00 0. -1.
         11    1    3    3    0    0 -0.11419669543E+02  0.51780260040E+01 -0.54883165686E+01  0.13687308895E+02  0.51100000000E-03 0. -1.
        -11    1    3    3    0    0 -0.22474164889E+02 -0.49303816995E+01  0.21863578987E+02  0.31739767447E+02  0.51100000000E-03 0.  1.
         12    1    3    3    0    0 -0.66337265055E+00  0.47965697796E+00  0.50357417194E+01  0.51018456224E+01  0.00000000000E+00 0. -1.
</event>
<event>
 7    1  0.5910662E-013  0.5052886E+02  0.7816164E-02  0.1300439E+00
        -11   -1    0    0    0    0  0.00000000000E+00  0.00000000000E+00  0.45593999997E+02  0.45594000000E+02  0.51100000000E-03 0. -1.
         11   -1    0    0    0    0 -0.00000000000E+00 -0.00000000000E+00 -0.45593999997E+02  0.45594000000E+02  0.51100000000E-03 0.  1.
    9900012    2    1    2    0    0 -0.71408417590E+01  0.33606309853E+01 -0.39885835322E+02  0.50528864238E+02  0.30000013337E+02 0.  0.
         12    1    1    2    0    0  0.71408417590E+01 -0.33606309853E+01  0.39885835322E+02  0.40659135762E+02  0.00000000000E+00 0. -1.
         11    1    3    3    0    0  0.28274322455E+01  0.27820930666E+01  0.16597760322E+01  0.42999153099E+01  0.51100000000E-03 0. -1.
        -11    1    3    3    0    0  0.26498812186E+00  0.49362665197E+01 -0.29185576130E+02  0.29601263489E+02  0.51100000000E-03 0.  1.
        -12    1    3    3    0    0 -0.10233262126E+02 -0.43577286010E+01 -0.12360035224E+02  0.16627685438E+02  0.00000000000E+00 0.  1.
</event>
<event>
 7    1  0.5910662E-013  0.5052886E+02  0.7816164E-02  0.1300439E+00
        -11   -1    0    0    0    0  0.00000000000E+00  0.00000000000E+00  0.45593999997E+02  0.45594000000E+02  0.51100000000E-03 0.  1.
         11   -1    0    0    0    0 -0.00000000000E+00 -0.00000000000E+00 -0.45593999997E+02  0.45594000000E+02  0.51100000000E-03 0. -1.
    9900012    2    1    2    0    0 -0.83116347438E+01  0.28899171442E+02  0.27366406915E+02  0.50528860688E+02  0.30000002547E+02 0.  0.
         12    1    1    2    0    0  0.83116347438E+01 -0.28899171442E+02 -0.27366406915E+02  0.40659139312E+02  0.00000000000E+00 0. -1.
         11    1    3    3    0    0 -0.84070262837E+00  0.68521020595E+01 -0.49965057300E+01  0.85219219260E+01  0.51100000000E-03 0. -1.
        -11    1    3    3    0    0 -0.10179472401E+02  0.97312963651E+01  0.18770344544E+02  0.23465839466E+02  0.51100000000E-03 0.  1.
         12    1    3    3    0    0  0.27085402858E+01  0.12315773017E+02  0.13592568102E+02  0.18541099296E+02  0.00000000000E+00 0. -1.
</event>
<event>
 7    1  0.5910662E-013  0.5052886E+02  0.7816164E-02  0.1300439E+00
        -11   -1    0    0    0    0  0.00000000000E+00  0.00000000000E+00  0.45593999997E+02  0.45594000000E+02  0.51100000000E-03 0. -1.
         11   -1    0    0    0    0 -0.00000000000E+00 -0.00000000000E+00 -0.45593999997E+02  0.45594000000E+02  0.51100000000E-03 0.  1.
    9900012    2    1    2    0    0  0.24771990499E+02  0.32784033564E+01 -0.32074382392E+02  0.50528862679E+02  0.30000008600E+02 0.  0.
         12    1    1    2    0    0 -0.24771990499E+02 -0.32784033564E+01  0.32074382392E+02  0.40659137321E+02  0.00000000000E+00 0. -1.
         11    1    3    3    0    0  0.54214376413E+01  0.97797963295E+01 -0.18741447501E+02  0.21823800243E+02  0.51100000000E-03 0. -1.
        -11    1    3    3    0    0  0.90293664372E+01 -0.81042005416E+01 -0.47885626525E+00  0.12142356784E+02  0.51100000000E-03 0.  1.
        -12    1    3    3    0    0  0.10321186421E+02  0.16028075686E+01 -0.12854078625E+02  0.16562705653E+02  0.00000000000E+00 0.  1.
</event>
<event>
 7    1  0.6358820E-013  0.5052898E+02  0.7816164E-02  0.1300438E+00
        -11   -1    0    0    0    0  0.00000000000E+00  0.00000000000E+00  0.45593999997E+02  0.45594000000E+02  0.51100000000E-03 0.  1.
         11   -1    0    0    0    0 -0.00000000000E+00 -0.00000000000E+00 -0.45593999997E+02  0.45594000000E+02  0.51100000000E-03 0. -1.
    9900012    2    1    2    0    0  0.39953037294E+02 -0.65005924143E+01 -0.38279553807E+01  0.50528977223E+02  0.30000356765E+02 0.  0.
         12    1    1    2    0    0 -0.39953037294E+02  0.65005924143E+01  0.38279553807E+01  0.40659022777E+02  0.00000000000E+00 0. -1.
         11    1    3    3    0    0  0.24867698592E+01 -0.77753608594E+01 -0.37099982227E+01  0.89668471549E+01  0.51100000000E-03 0. -1.
        -11    1    3    3    0    0  0.13833103868E+02  0.91888311329E+01 -0.84598152022E+00  0.16628441454E+02  0.51100000000E-03 0.  1.
        -12    1    3    3    0    0  0.23633163567E+02 -0.79140626879E+01  0.72802436217E+00  0.24933688614E+02  0.00000000000E+00 0.  1.
</event>
<event>
 7    1  0.5910662E-013  0.5052885E+02  0.7816164E-02  0.1300439E+00
        -11   -1    0    0    0    0  0.00000000000E+00  0.00000000000E+00  0.45593999997E+02  0.45594000000E+02  0.51100000000E-03 0. -1.
         11   -1    0    0    0    0 -0.00000000000E+00 -0.00000000000E+00 -0.45593999997E+02  0.45594000000E+02  0.51100000000E-03 0.  1.
    9900012    2    1    2    0    0 -0.12810573202E+02 -0.56984600324E+01 -0.38165210159E+02  0.50528849751E+02  0.29999969304E+02 0.  0.
         12    1    1    2    0    0  0.12810573202E+02  0.56984600324E+01  0.38165210159E+02  0.40659150249E+02  0.00000000000E+00 0. -1.
         11    1    3    3    0    0  0.29898371633E+01  0.33362730063E+01 -0.32574425665E+01  0.55390230339E+01  0.51100000000E-03 0. -1.
        -11    1    3    3    0    0 -0.10049064311E+02 -0.16210638945E+02 -0.25382566832E+02  0.31749696184E+02  0.51100000000E-03 0.  1.
        -12    1    3    3    0    0 -0.57513460548E+01  0.71759059065E+01 -0.95252007600E+01  0.13240130533E+02  0.00000000000E+00 0.  1.
</event>
<event>
 7    1  0.5910662E-013  0.5052887E+02  0.7816164E-02  0.1300439E+00
        -11   -1    0    0    0    0  0.00000000000E+00  0.00000000000E+00  0.45593999997E+02  0.45594000000E+02  0.51100000000E-03 0.  1.
         11   -1    0    0    0    0 -0.00000000000E+00 -0.00000000000E+00 -0.45593999997E+02  0.45594000000E+02  0.51100000000E-03 0. -1.
    9900012    2    1    2    0    0 -0.11839020999E+02 -0.25367217959E+02  0.29487402610E+02  0.50528867227E+02  0.30000022422E+02 0.  0.
         12    1    1    2    0    0  0.11839020999E+02  0.25367217959E+02 -0.29487402610E+02  0.40659132773E+02  0.00000000000E+00 0. -1.
         11    1    3    3    0    0 -0.34664402777E+01  0.36937778617E+01  0.28882055741E-01  0.50656724652E+01  0.51100000000E-03 0. -1.
        -11    1    3    3    0    0 -0.10650118220E+02 -0.17819585660E+02  0.26415195427E+02  0.33596505784E+02  0.51100000000E-03 0.  1.
        -12    1    3    3    0    0  0.22775374983E+01 -0.11241410160E+02  0.30433251273E+01  0.11866688977E+02  0.00000000000E+00 0.  1.
</event>
<event>
 7    1  0.5910662E-013  0.5052887E+02  0.7816164E-02  0.1300439E+00
        -11   -1    0    0    0    0  0.00000000000E+00  0.00000000000E+00  0.45593999997E+02  0.45594000000E+02  0.51100000000E-03 0. -1.
         11   -1    0    0    0    0 -0.00000000000E+00 -0.00000000000E+00 -0.45593999997E+02  0.45594000000E+02  0.51100000000E-03 0.  1.
    9900012    2    1    2    0    0  0.14656479368E+02 -0.20889491603E+02  0.31654094158E+02  0.50528869121E+02  0.30000028180E+02 0.  0.
         12    1    1    2    0    0 -0.14656479368E+02  0.20889491603E+02 -0.31654094158E+02  0.40659130879E+02  0.00000000000E+00 0. -1.
         11    1    3    3    0    0  0.54822885476E+01 -0.23089465244E+02  0.21276714069E+02  0.31872832551E+02  0.51100000000E-03 0. -1.
        -11    1    3    3    0    0  0.11984756910E+02  0.29496841713E+01  0.69647168573E+01  0.14171884704E+02  0.51100000000E-03 0.  1.
        -12    1    3    3    0    0 -0.28105660898E+01 -0.74971052970E+00  0.34126632314E+01  0.44841518657E+01  0.00000000000E+00 0.  1.
</event>
<event>
 7    1  0.5910662E-013  0.5052886E+02  0.7816164E-02  0.1300439E+00
        -11   -1    0    0    0    0  0.00000000000E+00  0.00000000000E+00  0.45593999997E+02  0.45594000000E+02  0.51100000000E-03 0.  1.
         11   -1    0    0    0    0 -0.00000000000E+00 -0.00000000000E+00 -0.45593999997E+02  0.45594000000E+02  0.51100000000E-03 0. -1.
    9900012    2    1    2    0    0 -0.18895180403E+02  0.34281008437E+02  0.10997737457E+02  0.50528860670E+02  0.30000002493E+02 0.  0.
         12    1    1    2    0    0  0.18895180403E+02 -0.34281008437E+02 -0.10997737457E+02  0.40659139330E+02  0.00000000000E+00 0. -1.
         11    1    3    3    0    0 -0.72127069378E+01 -0.22366472633E+00  0.93522689610E+01  0.11812624698E+02  0.51100000000E-03 0. -1.
        -11    1    3    3    0    0 -0.17958474100E+01  0.23506862106E+02 -0.14022901534E+01  0.23617028855E+02  0.51100000000E-03 0.  1.
        -12    1    3    3    0    0 -0.98866260547E+01  0.10997811057E+02  0.30477586490E+01  0.15099207117E+02  0.00000000000E+00 0.  1.
</event>
<event>
 7    1  0.5910662E-013  0.5052891E+02  0.7816164E-02  0.1300439E+00
        -11   -1    0    0    0    0  0.00000000000E+00  0.00000000000E+00  0.45593999997E+02  0.45594000000E+02  0.51100000000E-03 0. -1.
         11   -1    0    0    0    0 -0.00000000000E+00 -0.00000000000E+00 -0.45593999997E+02  0.45594000000E+02  0.51100000000E-03 0.  1.
    9900012    2    1    2    0    0  0.34017605366E+02  0.16593861375E+02  0.14852886213E+02  0.50528905826E+02  0.30000139749E+02 0.  0.
         12    1    1    2    0    0 -0.34017605366E+02 -0.16593861375E+02 -0.14852886213E+02  0.40659094174E+02  0.00000000000E+00 0. -1.
         11    1    3    3    0    0  0.23817827448E+02  0.49274141679E+01  0.22542462027E+02  0.33162190959E+02  0.51100000000E-03 0. -1.
        -11    1    3    3    0    0  0.43525023122E+01  0.40170780543E+01 -0.33621264484E+01  0.68106598056E+01  0.51100000000E-03 0.  1.
         12    1    3    3    0    0  0.58472756063E+01  0.76493691526E+01 -0.43274493656E+01  0.10556055062E+02  0.00000000000E+00 0. -1.
</event>
<event>
 7    1  0.5910662E-013  0.5052885E+02  0.7816164E-02  0.1300439E+00
        -11   -1    0    0    0    0  0.00000000000E+00  0.00000000000E+00  0.45593999997E+02  0.45594000000E+02  0.51100000000E-03 0.  1.
         11   -1    0    0    0    0 -0.00000000000E+00 -0.00000000000E+00 -0.45593999997E+02  0.45594000000E+02  0.51100000000E-03 0. -1.
    9900012    2    1    2    0    0  0.84076020805E+01  0.83676885628E+01  0.38890361508E+02  0.50528853392E+02  0.29999980371E+02 0.  0.
         12    1    1    2    0    0 -0.84076020805E+01 -0.83676885628E+01 -0.38890361508E+02  0.40659146608E+02  0.00000000000E+00 0. -1.
         11    1    3    3    0    0 -0.53244276329E+01 -0.24740928547E+01  0.89720921281E+01  0.10722364594E+02  0.51100000000E-03 0. -1.
        -11    1    3    3    0    0  0.47098947526E+01  0.15332073927E+02  0.16334851411E+02  0.22892858502E+02  0.51100000000E-03 0.  1.
        -12    1    3    3    0    0  0.90221349608E+01 -0.44902925097E+01  0.13583417969E+02  0.16913630296E+02  0.00000000000E+00 0.  1.
</event>
<event>
 7    1  0.5910662E-013  0.5052886E+02  0.7816164E-02  0.1300439E+00
        -11   -1    0    0    0    0  0.00000000000E+00  0.00000000000E+00  0.45593999997E+02  0.45594000000E+02  0.51100000000E-03 0.  1.
         11   -1    0    0    0    0 -0.00000000000E+00 -0.00000000000E+00 -0.45593999997E+02  0.45594000000E+02  0.51100000000E-03 0. -1.
    9900012    2    1    2    0    0 -0.39079412496E+02  0.10579138136E+02 -0.37479415043E+01  0.50528859450E+02  0.29999998786E+02 0.  0.
         12    1    1    2    0    0  0.39079412496E+02 -0.10579138136E+02  0.37479415043E+01  0.40659140550E+02  0.00000000000E+00 0. -1.
         11    1    3    3    0    0 -0.15119856694E+02 -0.30674182164E+01  0.59504047705E+01  0.16535611212E+02  0.51100000000E-03 0. -1.
        -11    1    3    3    0    0 -0.16857191353E+02  0.16437652974E+02 -0.28080953455E+01  0.23711742562E+02  0.51100000000E-03 0.  1.
        -12    1    3    3    0    0 -0.71023644487E+01 -0.27910966209E+01 -0.68902509292E+01  0.10281505676E+02  0.00000000000E+00 0.  1.
</event>
<event>
 7    1  0.5910662E-013  0.5052885E+02  0.7816164E-02  0.1300439E+00
        -11   -1    0    0    0    0  0.00000000000E+00  0.00000000000E+00  0.45593999997E+02  0.45594000000E+02  0.51100000000E-03 0.  1.
         11   -1    0    0    0    0 -0.00000000000E+00 -0.00000000000E+00 -0.45593999997E+02  0.45594000000E+02  0.51100000000E-03 0. -1.
    9900012    2    1    2    0    0 -0.24494455532E+02 -0.22516833993E+02  0.23370497144E+02  0.50528852178E+02  0.29999976681E+02 0.  0.
         12    1    1    2    0    0  0.24494455532E+02  0.22516833993E+02 -0.23370497144E+02  0.40659147822E+02  0.00000000000E+00 0. -1.
         11    1    3    3    0    0 -0.13930673812E+02  0.12259150284E+01  0.13353219207E+02  0.19335847640E+02  0.51100000000E-03 0. -1.
        -11    1    3    3    0    0 -0.31132197939E+00 -0.75791106749E+01  0.93505282744E+01  0.12040440991E+02  0.51100000000E-03 0.  1.
         12    1    3    3    0    0 -0.10252459740E+02 -0.16163638346E+02  0.66674966255E+00  0.19152563547E+02  0.00000000000E+00 0. -1.
</event>
<event>
 7    1  0.5910662E-013  0.5052887E+02  0.7816164E-02  0.1300439E+00
        -11   -1    0    0    0    0  0.00000000000E+00  0.00000000000E+00  0.45593999997E+02  0.45594000000E+02  0.51100000000E-03 0.  1.
         11   -1    0    0    0    0 -0.00000000000E+00 -0.00000000000E+00 -0.45593999997E+02  0.45594000000E+02  0.51100000000E-03 0. -1.
    9900012    2    1    2    0    0  0.13879610169E+02  0.55702468725E+01  0.37808645991E+02  0.50528868918E+02  0.30000027564E+02 0.  0.
         12    1    1    2    0    0 -0.13879610169E+02 -0.55702468725E+01 -0.37808645991E+02  0.40659131082E+02  0.00000000000E+00 0. -1.
         11    1    3    3    0    0 -0.18889795975E+01 -0.34281053335E+01  0.39833423101E+01  0.55845471005E+01  0.51100000000E-03 0. -1.
        -11    1    3    3    0    0  0.20718389195E+02  0.11540964104E+02  0.24596884634E+02  0.34168000194E+02  0.51100000000E-03 0.  1.
        -12    1    3    3    0    0 -0.49497994284E+01 -0.25426118983E+01  0.92284190469E+01  0.10776321624E+02  0.00000000000E+00 0.  1.
</event>
<event>
 7    1  0.5910662E-013  0.5052886E+02  0.7816164E-02  0.1300439E+00
        -11   -1    0    0    0    0  0.00000000000E+00  0.00000000000E+00  0.45593999997E+02  0.45594000000E+02  0.51100000000E-03 0.  1.
         11   -1    0    0    0    0 -0.00000000000E+00 -0.00000000000E+00 -0.45593999997E+02  0.45594000000E+02  0.51100000000E-03 0. -1.
    9900012    2    1    2    0    0 -0.11235267134E+02  0.38438776452E+02  0.70281365939E+01  0.50528862445E+02  0.30000007889E+02 0.  0.
         12    1    1    2    0    0  0.11235267134E+02 -0.38438776452E+02 -0.70281365939E+01  0.40659137555E+02  0.00000000000E+00 0. -1.
         11    1    3    3    0    0  0.63670704773E+01  0.14906547231E+02  0.97284150842E+01  0.18904676594E+02  0.51100000000E-03 0. -1.
        -11    1    3    3    0    0 -0.72362194950E+01  0.81674972711E+01  0.44142843948E+01  0.11771014877E+02  0.51100000000E-03 0.  1.
         12    1    3    3    0    0 -0.10366118116E+02  0.15364731950E+02 -0.71145628850E+01  0.19853170974E+02  0.00000000000E+00 0. -1.
</event>
<event>
 7    1  0.5910662E-013  0.5052886E+02  0.7816164E-02  0.1300439E+00
        -11   -1    0    0    0    0  0.00000000000E+00  0.00000000000E+00  0.45593999997E+02  0.45594000000E+02  0.51100000000E-03 0.  1.
         11   -1    0    0    0    0 -0.00000000000E+00 -0.00000000000E+00 -0.45593999997E+02  0.45594000000E+02  0.51100000000E-03 0. -1.
    9900012    2    1    2    0    0 -0.62708478199E+01  0.10291452885E+02  0.38832046222E+02  0.50528863897E+02  0.30000012300E+02 0.  0.
         12    1    1    2    0    0  0.62708478199E+01 -0.10291452885E+02 -0.38832046222E+02  0.40659136103E+02  0.00000000000E+00 0. -1.
         11    1    3    3    0    0 -0.39365683972E+01 -0.21333809117E+01 -0.45922096074E-02  0.44774888286E+01  0.51100000000E-03 0. -1.
        -11    1    3    3    0    0  0.22877984302E+01  0.17634363331E+02  0.27713038329E+02  0.32927454888E+02  0.51100000000E-03 0.  1.
        -12    1    3    3    0    0 -0.46220778529E+01 -0.52095295337E+01  0.11123600103E+02  0.13123920180E+02  0.00000000000E+00 0.  1.
</event>
<event>
 7    1  0.5910662E-013  0.5052885E+02  0.7816164E-02  0.1300439E+00
        -11   -1    0    0    0    0  0.00000000000E+00  0.00000000000E+00  0.45593999997E+02  0.45594000000E+02  0.51100000000E-03 0.  1.
         11   -1    0    0    0    0 -0.00000000000E+00 -0.00000000000E+00 -0.45593999997E+02  0.45594000000E+02  0.51100000000E-03 0. -1.
    9900012    2    1    2    0    0  0.35191750483E+02  0.55886083946E+01  0.19582499600E+02  0.50528854209E+02  0.29999982854E+02 0.  0.
         12    1    1    2    0    0 -0.35191750483E+02 -0.55886083946E+01 -0.19582499600E+02  0.40659145791E+02  0.00000000000E+00 0. -1.
         11    1    3    3    0    0  0.14769781608E+02 -0.70849211894E+01  0.10542746366E+02  0.19480555901E+02  0.51100000000E-03 0. -1.
        -11    1    3    3    0    0  0.22635662495E+02  0.14226420426E+02  0.93580833079E+01  0.28325571101E+02  0.51100000000E-03 0.  1.
        -12    1    3    3    0    0 -0.22136936193E+01 -0.15528908424E+01 -0.31833007448E+00  0.27227272072E+01  0.00000000000E+00 0.  1.
</event>
<event>
 7    1  0.5910662E-013  0.5052886E+02  0.7816164E-02  0.1300439E+00
        -11   -1    0    0    0    0  0.00000000000E+00  0.00000000000E+00  0.45593999997E+02  0.45594000000E+02  0.51100000000E-03 0. -1.
         11   -1    0    0    0    0 -0.00000000000E+00 -0.00000000000E+00 -0.45593999997E+02  0.45594000000E+02  0.51100000000E-03 0.  1.
    9900012    2    1    2    0    0  0.89761341035E+01 -0.38825871081E+02 -0.80713477267E+01  0.50528857082E+02  0.29999991588E+02 0.  0.
         12    1    1    2    0    0 -0.89761341035E+01  0.38825871081E+02  0.80713477267E+01  0.40659142918E+02  0.00000000000E+00 0. -1.
         11    1    3    3    0    0  0.54599944672E+01 -0.18498560308E+02  0.51948703024E+01  0.19974857966E+02  0.51100000000E-03 0. -1.
        -11    1    3    3    0    0 -0.23879969306E+01 -0.19140687362E+02 -0.14831255880E+02  0.24331760998E+02  0.51100000000E-03 0.  1.
        -12    1    3    3    0    0  0.59041365669E+01 -0.11866234108E+01  0.15650378508E+01  0.62222381177E+01  0.00000000000E+00 0.  1.
</event>
<event>
 7    1  0.5910662E-013  0.5052886E+02  0.7816164E-02  0.1300439E+00
        -11   -1    0    0    0    0  0.00000000000E+00  0.00000000000E+00  0.45593999997E+02  0.45594000000E+02  0.51100000000E-03 0. -1.
         11   -1    0    0    0    0 -0.00000000000E+00 -0.00000000000E+00 -0.45593999997E+02  0.45594000000E+02  0.51100000000E-03 0.  1.
    9900012    2    1    2    0    0  0.33921678006E+02  0.68122444919E+00 -0.22405841312E+02  0.50528855513E+02  0.29999986817E+02 0.  0.
         12    1    1    2    0    0 -0.33921678006E+02 -0.68122444919E+00  0.22405841312E+02  0.40659144487E+02  0.00000000000E+00 0. -1.
         11    1    3    3    0    0  0.19003558518E+02  0.61927631730E+01 -0.24166069489E+01  0.20132698316E+02  0.51100000000E-03 0. -1.
        -11    1    3    3    0    0  0.69551901825E+01  0.21861579539E+01 -0.17622064356E+02  0.19070687180E+02  0.51100000000E-03 0.  1.
        -12    1    3    3    0    0  0.79629293059E+01 -0.76976966777E+01 -0.23671700073E+01  0.11325470018E+02  0.00000000000E+00 0.  1.
</event>
<event>
 7    1  0.5910662E-013  0.5052890E+02  0.7816164E-02  0.1300439E+00
        -11   -1    0    0    0    0  0.00000000000E+00  0.00000000000E+00  0.45593999997E+02  0.45594000000E+02  0.51100000000E-03 0. -1.
         11   -1    0    0    0    0 -0.00000000000E+00 -0.00000000000E+00 -0.45593999997E+02  0.45594000000E+02  0.51100000000E-03 0.  1.
    9900012    2    1    2    0    0  0.11177677870E+01 -0.40361131562E+02 -0.47845917247E+01  0.50528896914E+02  0.30000112658E+02 0.  0.
         12    1    1    2    0    0 -0.11177677870E+01  0.40361131562E+02  0.47845917247E+01  0.40659103086E+02  0.00000000000E+00 0. -1.
         11    1    3    3    0    0  0.92644829870E+01 -0.35062240905E+02 -0.35833822959E+01  0.36442173525E+02  0.51100000000E-03 0. -1.
        -11    1    3    3    0    0 -0.50086631679E+01 -0.74880130482E+01  0.18453722301E+01  0.91957840921E+01  0.51100000000E-03 0.  1.
         12    1    3    3    0    0 -0.31380520321E+01  0.21891223907E+01 -0.30465816589E+01  0.48909392965E+01  0.00000000000E+00 0. -1.
</event>
<event>
 7    1  0.5910662E-013  0.5052885E+02  0.7816164E-02  0.1300439E+00
        -11   -1    0    0    0    0  0.00000000000E+00  0.00000000000E+00  0.45593999997E+02  0.45594000000E+02  0.51100000000E-03 0.  1.
         11   -1    0    0    0    0 -0.00000000000E+00 -0.00000000000E+00 -0.45593999997E+02  0.45594000000E+02  0.51100000000E-03 0. -1.
    9900012    2    1    2    0    0 -0.39989003628E+02 -0.27418442459E+01  0.68211745354E+01  0.50528849209E+02  0.29999967656E+02 0.  0.
         12    1    1    2    0    0  0.39989003628E+02  0.27418442459E+01 -0.68211745354E+01  0.40659150791E+02  0.00000000000E+00 0. -1.
         11    1    3    3    0    0 -0.17416203014E+02 -0.68531270764E+01 -0.80997711441E+01  0.20393522770E+02  0.51100000000E-03 0. -1.
        -11    1    3    3    0    0 -0.22298847036E+02  0.67898065706E+01  0.12207803445E+02  0.26312934416E+02  0.51100000000E-03 0.  1.
         12    1    3    3    0    0 -0.27395357830E+00 -0.26785237401E+01  0.27131422344E+01  0.38223920225E+01  0.00000000000E+00 0. -1.
</event>
<event>
 7    1  0.5910662E-013  0.5052885E+02  0.7816164E-02  0.1300439E+00
        -11   -1    0    0    0    0  0.00000000000E+00  0.00000000000E+00  0.45593999997E+02  0.45594000000E+02  0.51100000000E-03 0.  1.
         11   -1    0    0    0    0 -0.00000000000E+00 -0.00000000000E+00 -0.45593999997E+02  0.45594000000E+02  0.51100000000E-03 0. -1.
    9900012    2    1    2    0    0 -0.14976624071E+02  0.32236207876E+02  0.19740662247E+02  0.50528854501E+02  0.29999983740E+02 0.  0.
         12    1    1    2    0    0  0.14976624071E+02 -0.32236207876E+02 -0.19740662247E+02  0.40659145499E+02  0.00000000000E+00 0. -1.
         11    1    3    3    0    0 -0.52981447223E+00 -0.25774202833E+00 -0.40660976726E+01  0.41085623851E+01  0.51100000000E-03 0. -1.
        -11    1    3    3    0    0 -0.16602178865E+02  0.32602616661E+02  0.19166558383E+02  0.41302783401E+02  0.51100000000E-03 0.  1.
        -12    1    3    3    0    0  0.21553692662E+01 -0.10866675658E+00  0.46402015366E+01  0.51175087140E+01  0.00000000000E+00 0.  1.
</event>
<event>
 7    1  0.5910662E-013  0.5052886E+02  0.7816164E-02  0.1300439E+00
        -11   -1    0    0    0    0  0.00000000000E+00  0.00000000000E+00  0.45593999997E+02  0.45594000000E+02  0.51100000000E-03 0.  1.
         11   -1    0    0    0    0 -0.00000000000E+00 -0.00000000000E+00 -0.45593999997E+02  0.45594000000E+02  0.51100000000E-03 0. -1.
    9900012    2    1    2    0    0 -0.23410630189E+02  0.44674402220E+01  0.32941617382E+02  0.50528858546E+02  0.29999996037E+02 0.  0.
         12    1    1    2    0    0  0.23410630189E+02 -0.44674402220E+01 -0.32941617382E+02  0.40659141454E+02  0.00000000000E+00 0. -1.
         11    1    3    3    0    0  0.39347239290E+01  0.58698451040E+01  0.29659731018E+01  0.76638195858E+01  0.51100000000E-03 0. -1.
        -11    1    3    3    0    0 -0.98310939288E+01 -0.71568765682E+01  0.10781256550E+02  0.16251362500E+02  0.51100000000E-03 0.  1.
         12    1    3    3    0    0 -0.17514260190E+02  0.57544716862E+01  0.19194387731E+02  0.26613676460E+02  0.00000000000E+00 0. -1.
</event>
<event>
 7    1  0.5910662E-013  0.5052887E+02  0.7816164E-02  0.1300439E+00
        -11   -1    0    0    0    0  0.00000000000E+00  0.00000000000E+00  0.45593999997E+02  0.45594000000E+02  0.51100000000E-03 0. -1.
         11   -1    0    0    0    0 -0.00000000000E+00 -0.00000000000E+00 -0.45593999997E+02  0.45594000000E+02  0.51100000000E-03 0.  1.
    9900012    2    1    2    0    0 -0.98357486542E+01 -0.78489818504E+01 -0.38662855057E+02  0.50528870289E+02  0.30000031730E+02 0.  0.
         12    1    1    2    0    0  0.98357486542E+01  0.78489818504E+01  0.38662855057E+02  0.40659129711E+02  0.00000000000E+00 0. -1.
         11    1    3    3    0    0  0.44240668319E+01 -0.33848550569E+01  0.22535239561E+01  0.60089917266E+01  0.51100000000E-03 0. -1.
        -11    1    3    3    0    0 -0.13798983707E+02 -0.59911784828E+01 -0.39866301803E+02  0.42610188813E+02  0.51100000000E-03 0.  1.
        -12    1    3    3    0    0 -0.46083177896E+00  0.15270516892E+01 -0.10500772102E+01  0.19096897490E+01  0.00000000000E+00 0.  1.
</event>
<event>
 7    1  0.5910662E-013  0.5052887E+02  0.7816164E-02  0.1300439E+00
        -11   -1    0    0    0    0  0.00000000000E+00  0.00000000000E+00  0.45593999997E+02  0.45594000000E+02  0.51100000000E-03 0. -1.
         11   -1    0    0    0    0 -0.00000000000E+00 -0.00000000000E+00 -0.45593999997E+02  0.45594000000E+02  0.51100000000E-03 0.  1.
    9900012    2    1    2    0    0 -0.27907607616E+02  0.29225662328E+02  0.44934146001E+01  0.50528872168E+02  0.30000037441E+02 0.  0.
         12    1    1    2    0    0  0.27907607616E+02 -0.29225662328E+02 -0.44934146001E+01  0.40659127832E+02  0.00000000000E+00 0. -1.
         11    1    3    3    0    0 -0.60482913721E+01 -0.29655831493E+01  0.35567566787E+01  0.76175475233E+01  0.51100000000E-03 0. -1.
        -11    1    3    3    0    0 -0.47981571000E+01  0.15978212542E+02 -0.69730393592E+01  0.18081727400E+02  0.51100000000E-03 0.  1.
        -12    1    3    3    0    0 -0.17061159143E+02  0.16213032935E+02  0.79096972805E+01  0.24829597245E+02  0.00000000000E+00 0.  1.
</event>
<event>
 7    1  0.5910662E-013  0.5052886E+02  0.7816164E-02  0.1300439E+00
        -11   -1    0    0    0    0  0.00000000000E+00  0.00000000000E+00  0.45593999997E+02  0.45594000000E+02  0.51100000000E-03 0.  1.
         11   -1    0    0    0    0 -0.00000000000E+00 -0.00000000000E+00 -0.45593999997E+02  0.45594000000E+02  0.51100000000E-03 0. -1.
    9900012    2    1    2    0    0  0.44288002218E+00 -0.39124777593E+02 -0.11055355923E+02  0.50528865000E+02  0.30000015654E+02 0.  0.
         12    1    1    2    0    0 -0.44288002218E+00  0.39124777593E+02  0.11055355923E+02  0.40659135000E+02  0.00000000000E+00 0. -1.
         11    1    3    3    0    0 -0.72260538010E+01 -0.12406578375E+01 -0.32402685398E+01  0.80158858448E+01  0.51100000000E-03 0. -1.
        -11    1    3    3    0    0  0.11549803723E+02 -0.21482647977E+02 -0.79642190594E+01  0.25657960083E+02  0.51100000000E-03 0.  1.
        -12    1    3    3    0    0 -0.38808698995E+01 -0.16401471778E+02  0.14913167617E+00  0.16855019072E+02  0.00000000000E+00 0.  1.
</event>
<event>
 7    1  0.5910662E-013  0.5052886E+02  0.7816164E-02  0.1300439E+00
        -11   -1    0    0    0    0  0.00000000000E+00  0.00000000000E+00  0.45593999997E+02  0.45594000000E+02  0.51100000000E-03 0. -1.
         11   -1    0    0    0    0 -0.00000000000E+00 -0.00000000000E+00 -0.45593999997E+02  0.45594000000E+02  0.51100000000E-03 0.  1.
    9900012    2    1    2    0    0 -0.25115966550E+02  0.16482399503E+02 -0.27398621416E+02  0.50528859274E+02  0.29999998248E+02 0.  0.
         12    1    1    2    0    0  0.25115966550E+02 -0.16482399503E+02  0.27398621416E+02  0.40659140726E+02  0.00000000000E+00 0. -1.
         11    1    3    3    0    0 -0.79607743297E+01 -0.40479072379E+01 -0.12209258401E+02  0.15126978280E+02  0.51100000000E-03 0. -1.
        -11    1    3    3    0    0 -0.10810319937E+02  0.21495849220E+02 -0.16055178287E+02  0.28925824118E+02  0.51100000000E-03 0.  1.
         12    1    3    3    0    0 -0.63448722827E+01 -0.96554247951E+00  0.86581527134E+00  0.64760568750E+01  0.00000000000E+00 0. -1.
</event>
<event>
 7    1  0.5910662E-013  0.5052887E+02  0.7816164E-02  0.1300439E+00
        -11   -1    0    0    0    0  0.00000000000E+00  0.00000000000E+00  0.45593999997E+02  0.45594000000E+02  0.51100000000E-03 0.  1.
         11   -1    0    0    0    0 -0.00000000000E+00 -0.00000000000E+00 -0.45593999997E+02  0.45594000000E+02  0.51100000000E-03 0. -1.
    9900012    2    1    2    0    0  0.16544872671E+02  0.41693472058E+01  0.36905940329E+02  0.50528871881E+02  0.30000036569E+02 0.  0.
         12    1    1    2    0    0 -0.16544872671E+02 -0.41693472058E+01 -0.36905940329E+02  0.40659128119E+02  0.00000000000E+00 0. -1.
         11    1    3    3    0    0 -0.15845601199E+01  0.31545528634E+01  0.70836983321E+00  0.36005308808E+01  0.51100000000E-03 0. -1.
        -11    1    3    3    0    0  0.16500402984E+02 -0.16519774682E+01  0.77409894492E+01  0.18300689772E+02  0.51100000000E-03 0.  1.
        -12    1    3    3    0    0  0.16290298063E+01  0.26667718105E+01  0.28456581047E+02  0.28627651229E+02  0.00000000000E+00 0.  1.
</event>
<event>
 7    1  0.5910662E-013  0.5052886E+02  0.7816164E-02  0.1300439E+00
        -11   -1    0    0    0    0  0.00000000000E+00  0.00000000000E+00  0.45593999997E+02  0.45594000000E+02  0.51100000000E-03 0. -1.
         11   -1    0    0    0    0 -0.00000000000E+00 -0.00000000000E+00 -0.45593999997E+02  0.45594000000E+02  0.51100000000E-03 0.  1.
    9900012    2    1    2    0    0  0.13853896804E+02 -0.16317484878E+02 -0.34568414486E+02  0.50528855278E+02  0.29999986103E+02 0.  0.
         12    1    1    2    0    0 -0.13853896804E+02  0.16317484878E+02  0.34568414486E+02  0.40659144722E+02  0.00000000000E+00 0. -1.
         11    1    3    3    0    0  0.69066002381E+01 -0.79107277433E+01  0.23001530111E+01  0.10750416011E+02  0.51100000000E-03 0. -1.
        -11    1    3    3    0    0 -0.25345117691E+01 -0.29370725335E+01 -0.11882891610E+02  0.12500130329E+02  0.51100000000E-03 0.  1.
         12    1    3    3    0    0  0.94818083353E+01 -0.54696846015E+01 -0.24985675887E+02  0.27278308938E+02  0.00000000000E+00 0. -1.
</event>
<event>
 7    1  0.5910662E-013  0.5052886E+02  0.7816164E-02  0.1300439E+00
        -11   -1    0    0    0    0  0.00000000000E+00  0.00000000000E+00  0.45593999997E+02  0.45594000000E+02  0.51100000000E-03 0.  1.
         11   -1    0    0    0    0 -0.00000000000E+00 -0.00000000000E+00 -0.45593999997E+02  0.45594000000E+02  0.51100000000E-03 0. -1.
    9900012    2    1    2    0    0  0.96192206596E+01  0.35094876806E+02  0.18137963125E+02  0.50528862153E+02  0.30000007000E+02 0.  0.
         12    1    1    2    0    0 -0.96192206596E+01 -0.35094876806E+02 -0.18137963125E+02  0.40659137847E+02  0.00000000000E+00 0. -1.
         11    1    3    3    0    0 -0.33135503434E+01  0.41475058750E+01 -0.54071627949E+01  0.75775214030E+01  0.51100000000E-03 0. -1.
        -11    1    3    3    0    0  0.10471211596E+02  0.96370384334E+01  0.69950391491E+01  0.15857154695E+02  0.51100000000E-03 0.  1.
         12    1    3    3    0    0  0.24615594073E+01  0.21310332498E+02  0.16550086771E+02  0.27094186055E+02  0.00000000000E+00 0. -1.
</event>
<event>
 7    1  0.5910662E-013  0.5052886E+02  0.7816164E-02  0.1300439E+00
        -11   -1    0    0    0    0  0.00000000000E+00  0.00000000000E+00  0.45593999997E+02  0.45594000000E+02  0.51100000000E-03 0.  1.
         11   -1    0    0    0    0 -0.00000000000E+00 -0.00000000000E+00 -0.45593999997E+02  0.45594000000E+02  0.51100000000E-03 0. -1.
    9900012    2    1    2    0    0 -0.19796115549E+02 -0.20000442289E+02  0.29347256915E+02  0.50528863622E+02  0.30000011466E+02 0.  0.
         12    1    1    2    0    0  0.19796115549E+02  0.20000442289E+02 -0.29347256915E+02  0.40659136378E+02  0.00000000000E+00 0. -1.
         11    1    3    3    0    0  0.19431856691E+01 -0.16998288723E+01 -0.55360613090E+00  0.26404296524E+01  0.51100000000E-03 0. -1.
        -11    1    3    3    0    0 -0.13791430172E+02  0.33301275178E+01  0.13667893371E+02  0.19700370680E+02  0.51100000000E-03 0.  1.
        -12    1    3    3    0    0 -0.79478710454E+01 -0.21630740935E+02  0.16232969674E+02  0.28188063289E+02  0.00000000000E+00 0.  1.
</event>
<event>
 7    1  0.6451966E-013  0.5052886E+02  0.7816164E-02  0.1300439E+00
        -11   -1    0    0    0    0  0.00000000000E+00  0.00000000000E+00  0.45593999997E+02  0.45594000000E+02  0.51100000000E-03 0. -1.
         11   -1    0    0    0    0 -0.00000000000E+00 -0.00000000000E+00 -0.45593999997E+02  0.45594000000E+02  0.51100000000E-03 0.  1.
    9900012    2    1    2    0    0  0.30286313261E+02 -0.78399804154E+00 -0.27116239486E+02  0.50528857513E+02  0.29999992898E+02 0.  0.
         12    1    1    2    0    0 -0.30286313261E+02  0.78399804154E+00  0.27116239486E+02  0.40659142487E+02  0.00000000000E+00 0. -1.
         11    1    3    3    0    0 -0.14595777616E+01  0.26601405907E+01 -0.44973905627E+01  0.54252407632E+01  0.51100000000E-03 0. -1.
        -11    1    3    3    0    0  0.19580019650E+02 -0.91827874982E+01 -0.37783046264E+01  0.21953959594E+02  0.51100000000E-03 0.  1.
        -12    1    3    3    0    0  0.12165871373E+02  0.57386488660E+01 -0.18840544297E+02  0.23149657157E+02  0.00000000000E+00 0.  1.
</event>
<event>
 7    1  0.5910662E-013  0.5052886E+02  0.7816164E-02  0.1300439E+00
        -11   -1    0    0    0    0  0.00000000000E+00  0.00000000000E+00  0.45593999997E+02  0.45594000000E+02  0.51100000000E-03 0.  1.
         11   -1    0    0    0    0 -0.00000000000E+00 -0.00000000000E+00 -0.45593999997E+02  0.45594000000E+02  0.51100000000E-03 0. -1.
    9900012    2    1    2    0    0 -0.35320247039E+01 -0.40260567771E+02  0.44471107234E+01  0.50528864378E+02  0.30000013763E+02 0.  0.
         12    1    1    2    0    0  0.35320247039E+01  0.40260567771E+02 -0.44471107234E+01  0.40659135622E+02  0.00000000000E+00 0. -1.
         11    1    3    3    0    0  0.10323301015E+02 -0.28013369447E+02  0.76542718451E+01  0.30820566013E+02  0.51100000000E-03 0. -1.
        -11    1    3    3    0    0 -0.40584512554E+01 -0.74683330529E+01 -0.20745048047E+01  0.87493197237E+01  0.51100000000E-03 0.  1.
         12    1    3    3    0    0 -0.97968744631E+01 -0.47788652712E+01 -0.11326563170E+01  0.10958978641E+02  0.00000000000E+00 0. -1.
</event>
<event>
 7    1  0.5910662E-013  0.5052888E+02  0.7816164E-02  0.1300439E+00
        -11   -1    0    0    0    0  0.00000000000E+00  0.00000000000E+00  0.45593999997E+02  0.45594000000E+02  0.51100000000E-03 0.  1.
         11   -1    0    0    0    0 -0.00000000000E+00 -0.00000000000E+00 -0.45593999997E+02  0.45594000000E+02  0.51100000000E-03 0. -1.
    9900012    2    1    2    0    0 -0.15179472360E+02  0.19895478539E+02  0.32045553917E+02  0.50528880810E+02  0.30000063710E+02 0.  0.
         12    1    1    2    0    0  0.15179472360E+02 -0.19895478539E+02 -0.32045553917E+02  0.40659119190E+02  0.00000000000E+00 0. -1.
         11    1    3    3    0    0  0.64698856533E+01  0.73049832128E+01  0.18648090336E+00  0.97599680069E+01  0.51100000000E-03 0. -1.
        -11    1    3    3    0    0 -0.73508585196E+01  0.22347415686E+01  0.11375047202E+02  0.13726648897E+02  0.51100000000E-03 0.  1.
         12    1    3    3    0    0 -0.14298499494E+02  0.10355753758E+02  0.20484025812E+02  0.27042263906E+02  0.00000000000E+00 0. -1.
</event>
<event>
 7    1  0.5910662E-013  0.5052886E+02  0.7816164E-02  0.1300439E+00
        -11   -1    0    0    0    0  0.00000000000E+00  0.00000000000E+00  0.45593999997E+02  0.45594000000E+02  0.51100000000E-03 0.  1.
         11   -1    0    0    0    0 -0.00000000000E+00 -0.00000000000E+00 -0.45593999997E+02  0.45594000000E+02  0.51100000000E-03 0. -1.
    9900012    2    1    2    0    0  0.24701648241E+02 -0.18855907032E+02  0.26219248073E+02  0.50528860495E+02  0.30000001959E+02 0.  0.
         12    1    1    2    0    0 -0.24701648241E+02  0.18855907032E+02 -0.26219248073E+02  0.40659139505E+02  0.00000000000E+00 0. -1.
         11    1    3    3    0    0  0.11809273794E+02 -0.50705426719E+01  0.23066501008E+02  0.26405166531E+02  0.51100000000E-03 0.  1.
        -11    1    3    3    0    0 -0.18142438529E+01 -0.45220634104E+01 -0.29579019081E+01  0.56999756319E+01  0.51100000000E-03 0. -1.
        -12    1    3    3    0    0  0.14706618299E+02 -0.92633009492E+01  0.61106489735E+01  0.18423718331E+02  0.00000000000E+00 0.  1.
</event>
<event>
 7    1  0.5910662E-013  0.5052886E+02  0.7816164E-02  0.1300439E+00
        -11   -1    0    0    0    0  0.00000000000E+00  0.00000000000E+00  0.45593999997E+02  0.45594000000E+02  0.51100000000E-03 0.  1.
         11   -1    0    0    0    0 -0.00000000000E+00 -0.00000000000E+00 -0.45593999997E+02  0.45594000000E+02  0.51100000000E-03 0. -1.
    9900012    2    1    2    0    0 -0.17235817535E+02 -0.64266121466E+01  0.36260047728E+02  0.50528858211E+02  0.29999995018E+02 0.  0.
         12    1    1    2    0    0  0.17235817535E+02  0.64266121466E+01 -0.36260047728E+02  0.40659141789E+02  0.00000000000E+00 0. -1.
         11    1    3    3    0    0 -0.12807518722E+02 -0.11737434215E+02  0.35887901909E+02  0.39871561312E+02  0.51100000000E-03 0.  1.
        -11    1    3    3    0    0 -0.24781598317E+01 -0.26959754155E+00 -0.29613156007E+01  0.38708331576E+01  0.51100000000E-03 0. -1.
        -12    1    3    3    0    0 -0.19501389816E+01  0.55804196102E+01  0.33334614197E+01  0.67864637412E+01  0.00000000000E+00 0.  1.
</event>
<event>
 7    1  0.5910662E-013  0.5052887E+02  0.7816164E-02  0.1300439E+00
        -11   -1    0    0    0    0  0.00000000000E+00  0.00000000000E+00  0.45593999997E+02  0.45594000000E+02  0.51100000000E-03 0.  1.
         11   -1    0    0    0    0 -0.00000000000E+00 -0.00000000000E+00 -0.45593999997E+02  0.45594000000E+02  0.51100000000E-03 0. -1.
    9900012    2    1    2    0    0 -0.29334014569E+02 -0.27404922934E+02 -0.64537249230E+01  0.50528870925E+02  0.30000033663E+02 0.  0.
         12    1    1    2    0    0  0.29334014569E+02  0.27404922934E+02  0.64537249230E+01  0.40659129075E+02  0.00000000000E+00 0. -1.
         11    1    3    3    0    0 -0.92412119697E+01 -0.15616994185E+02 -0.53100774970E+01  0.18907337976E+02  0.51100000000E-03 0. -1.
        -11    1    3    3    0    0 -0.16346808975E+02 -0.27476325657E+00 -0.74543271411E+01  0.17968323569E+02  0.51100000000E-03 0.  1.
        -12    1    3    3    0    0 -0.37459936246E+01 -0.11513165493E+02  0.63106797151E+01  0.13653209380E+02  0.00000000000E+00 0.  1.
</event>
<event>
 7    1  0.5910662E-013  0.5052885E+02  0.7816164E-02  0.1300439E+00
        -11   -1    0    0    0    0  0.00000000000E+00  0.00000000000E+00  0.45593999997E+02  0.45594000000E+02  0.51100000000E-03 0.  1.
         11   -1    0    0    0    0 -0.00000000000E+00 -0.00000000000E+00 -0.45593999997E+02  0.45594000000E+02  0.51100000000E-03 0. -1.
    9900012    2    1    2    0    0  0.71946924550E+01 -0.24969322672E+02  0.31271964316E+02  0.50528850643E+02  0.29999972016E+02 0.  0.
         12    1    1    2    0    0 -0.71946924550E+01  0.24969322672E+02 -0.31271964316E+02  0.40659149357E+02  0.00000000000E+00 0. -1.
         11    1    3    3    0    0 -0.76535486863E+01 -0.47794872417E+01  0.22828733367E+00  0.90262074624E+01  0.51100000000E-03 0. -1.
        -11    1    3    3    0    0  0.63821168893E+01 -0.12655064048E+01  0.10242993463E+02  0.12134736824E+02  0.51100000000E-03 0.  1.
         12    1    3    3    0    0  0.84661242520E+01 -0.18924329026E+02  0.20800683519E+02  0.29367906357E+02  0.00000000000E+00 0. -1.
</event>
<event>
 7    1  0.5910662E-013  0.5052887E+02  0.7816164E-02  0.1300439E+00
        -11   -1    0    0    0    0  0.00000000000E+00  0.00000000000E+00  0.45593999997E+02  0.45594000000E+02  0.51100000000E-03 0.  1.
         11   -1    0    0    0    0 -0.00000000000E+00 -0.00000000000E+00 -0.45593999997E+02  0.45594000000E+02  0.51100000000E-03 0. -1.
    9900012    2    1    2    0    0  0.10422873975E+02 -0.84834013388E+01  0.38373957331E+02  0.50528868167E+02  0.30000025281E+02 0.  0.
         12    1    1    2    0    0 -0.10422873975E+02  0.84834013388E+01 -0.38373957331E+02  0.40659131833E+02  0.00000000000E+00 0. -1.
         11    1    3    3    0    0  0.79357427966E+01  0.61547848399E+01  0.99664882850E+00  0.10092110746E+02  0.51100000000E-03 0. -1.
        -11    1    3    3    0    0  0.30614374093E+01 -0.67633035514E+01  0.20527099132E+02  0.21828341049E+02  0.51100000000E-03 0.  1.
        -12    1    3    3    0    0 -0.57430623083E+00 -0.78748826273E+01  0.16850209371E+02  0.18608416372E+02  0.00000000000E+00 0.  1.
</event>
<event>
 7    1  0.5910662E-013  0.5052888E+02  0.7816164E-02  0.1300439E+00
        -11   -1    0    0    0    0  0.00000000000E+00  0.00000000000E+00  0.45593999997E+02  0.45594000000E+02  0.51100000000E-03 0. -1.
         11   -1    0    0    0    0 -0.00000000000E+00 -0.00000000000E+00 -0.45593999997E+02  0.45594000000E+02  0.51100000000E-03 0.  1.
    9900012    2    1    2    0    0  0.23985347945E+02  0.26723174632E+01 -0.32721951872E+02  0.50528876411E+02  0.30000050339E+02 0.  0.
         12    1    1    2    0    0 -0.23985347945E+02 -0.26723174632E+01  0.32721951872E+02  0.40659123589E+02  0.00000000000E+00 0. -1.
         11    1    3    3    0    0  0.26541691165E+00  0.94855950623E+01 -0.51005770108E+01  0.10773246768E+02  0.51100000000E-03 0. -1.
        -11    1    3    3    0    0  0.23651553804E+02 -0.19781491405E+01 -0.23535089948E+02  0.33424684449E+02  0.51100000000E-03 0.  1.
         12    1    3    3    0    0  0.68377229093E-01 -0.48351284587E+01 -0.40862849133E+01  0.63309451940E+01  0.00000000000E+00 0. -1.
</event>
<event>
 7    1  0.5910662E-013  0.5052886E+02  0.7816164E-02  0.1300439E+00
        -11   -1    0    0    0    0  0.00000000000E+00  0.00000000000E+00  0.45593999997E+02  0.45594000000E+02  0.51100000000E-03 0.  1.
         11   -1    0    0    0    0 -0.00000000000E+00 -0.00000000000E+00 -0.45593999997E+02  0.45594000000E+02  0.51100000000E-03 0. -1.
    9900012    2    1    2    0    0  0.11581927927E+02 -0.34459786748E+02  0.18208455919E+02  0.50528858050E+02  0.29999994528E+02 0.  0.
         12    1    1    2    0    0 -0.11581927927E+02  0.34459786748E+02 -0.18208455919E+02  0.40659141950E+02  0.00000000000E+00 0. -1.
         11    1    3    3    0    0  0.12644353293E+00 -0.14726058373E+02 -0.13368689172E+00  0.14727208005E+02  0.51100000000E-03 0. -1.
        -11    1    3    3    0    0  0.34788612809E+01  0.36616000224E+01  0.69334292495E+01  0.85780086241E+01  0.51100000000E-03 0.  1.
        -12    1    3    3    0    0  0.79766231131E+01 -0.23395328397E+02  0.11408713561E+02  0.27223641420E+02  0.00000000000E+00 0.  1.
</event>
<event>
 7    1  0.5910662E-013  0.5052886E+02  0.7816164E-02  0.1300439E+00
        -11   -1    0    0    0    0  0.00000000000E+00  0.00000000000E+00  0.45593999997E+02  0.45594000000E+02  0.51100000000E-03 0.  1.
         11   -1    0    0    0    0 -0.00000000000E+00 -0.00000000000E+00 -0.45593999997E+02  0.45594000000E+02  0.51100000000E-03 0. -1.
    9900012    2    1    2    0    0  0.20642427089E+02 -0.20044274562E+02  0.28727740437E+02  0.50528858230E+02  0.29999995077E+02 0.  0.
         12    1    1    2    0    0 -0.20642427089E+02  0.20044274562E+02 -0.28727740437E+02  0.40659141770E+02  0.00000000000E+00 0. -1.
         11    1    3    3    0    0  0.61265562461E+01  0.29728266839E+01  0.17732903256E+02  0.18995479675E+02  0.51100000000E-03 0. -1.
        -11    1    3    3    0    0  0.33806761762E+01 -0.15205047455E+02  0.33588660208E+01  0.15934378580E+02  0.51100000000E-03 0.  1.
         12    1    3    3    0    0  0.11135194666E+02 -0.78120537909E+01  0.76359711610E+01  0.15598999976E+02  0.00000000000E+00 0. -1.
</event>
<event>
 7    1  0.5910662E-013  0.5052883E+02  0.7816164E-02  0.1300439E+00
        -11   -1    0    0    0    0  0.00000000000E+00  0.00000000000E+00  0.45593999997E+02  0.45594000000E+02  0.51100000000E-03 0.  1.
         11   -1    0    0    0    0 -0.00000000000E+00 -0.00000000000E+00 -0.45593999997E+02  0.45594000000E+02  0.51100000000E-03 0. -1.
    9900012    2    1    2    0    0 -0.23218025153E+02  0.13632954819E+02  0.30466927885E+02  0.50528833213E+02  0.29999919033E+02 0.  0.
         12    1    1    2    0    0  0.23218025153E+02 -0.13632954819E+02 -0.30466927885E+02  0.40659166787E+02  0.00000000000E+00 0. -1.
         11    1    3    3    0    0  0.52478176313E+01  0.31876771994E+01 -0.18339559809E+00  0.61428421781E+01  0.51100000000E-03 0. -1.
        -11    1    3    3    0    0 -0.82544152081E+01  0.43280402657E+01  0.16550914273E+02  0.18994737864E+02  0.51100000000E-03 0.  1.
         12    1    3    3    0    0 -0.20211427576E+02  0.61172373539E+01  0.14099409210E+02  0.25391253171E+02  0.00000000000E+00 0. -1.
</event>
<event>
 7    1  0.5910662E-013  0.5052886E+02  0.7816164E-02  0.1300439E+00
        -11   -1    0    0    0    0  0.00000000000E+00  0.00000000000E+00  0.45593999997E+02  0.45594000000E+02  0.51100000000E-03 0.  1.
         11   -1    0    0    0    0 -0.00000000000E+00 -0.00000000000E+00 -0.45593999997E+02  0.45594000000E+02  0.51100000000E-03 0. -1.
    9900012    2    1    2    0    0 -0.40388182567E+02 -0.15580970879E+01 -0.44195813172E+01  0.50528860110E+02  0.30000000790E+02 0.  0.
         12    1    1    2    0    0  0.40388182567E+02  0.15580970879E+01  0.44195813172E+01  0.40659139890E+02  0.00000000000E+00 0. -1.
         11    1    3    3    0    0 -0.18964261136E+01 -0.41015186997E+01  0.59267200574E+01  0.74528449970E+01  0.51100000000E-03 0. -1.
        -11    1    3    3    0    0 -0.18931126820E+02  0.92204063291E+01 -0.66260025401E+01  0.22075039422E+02  0.51100000000E-03 0.  1.
        -12    1    3    3    0    0 -0.19560629633E+02 -0.66769847173E+01 -0.37202988345E+01  0.21000975691E+02  0.00000000000E+00 0.  1.
</event>
<event>
 7    1  0.5910662E-013  0.5052886E+02  0.7816164E-02  0.1300439E+00
        -11   -1    0    0    0    0  0.00000000000E+00  0.00000000000E+00  0.45593999997E+02  0.45594000000E+02  0.51100000000E-03 0. -1.
         11   -1    0    0    0    0 -0.00000000000E+00 -0.00000000000E+00 -0.45593999997E+02  0.45594000000E+02  0.51100000000E-03 0.  1.
    9900012    2    1    2    0    0  0.31784341537E+02  0.15714292251E+02 -0.19899301929E+02  0.50528861235E+02  0.30000004208E+02 0.  0.
         12    1    1    2    0    0 -0.31784341537E+02 -0.15714292251E+02  0.19899301929E+02  0.40659138765E+02  0.00000000000E+00 0. -1.
         11    1    3    3    0    0 -0.48500455159E+01  0.48355114650E+01  0.60152581896E+00  0.68750960871E+01  0.51100000000E-03 0. -1.
        -11    1    3    3    0    0  0.34857611567E+02  0.10113700025E+02 -0.20568395049E+02  0.41718088253E+02  0.51100000000E-03 0.  1.
         12    1    3    3    0    0  0.17767754859E+01  0.76508076084E+00  0.67567301184E-01  0.19356768940E+01  0.00000000000E+00 0. -1.
</event>
<event>
 7    1  0.5910662E-013  0.5052886E+02  0.7816164E-02  0.1300439E+00
        -11   -1    0    0    0    0  0.00000000000E+00  0.00000000000E+00  0.45593999997E+02  0.45594000000E+02  0.51100000000E-03 0.  1.
         11   -1    0    0    0    0 -0.00000000000E+00 -0.00000000000E+00 -0.45593999997E+02  0.45594000000E+02  0.51100000000E-03 0. -1.
    9900012    2    1    2    0    0 -0.60076659568E+01 -0.22213346840E+02  0.33520754355E+02  0.50528858339E+02  0.29999995406E+02 0.  0.
         12    1    1    2    0    0  0.60076659568E+01  0.22213346840E+02 -0.33520754355E+02  0.40659141661E+02  0.00000000000E+00 0. -1.
         11    1    3    3    0    0 -0.91305323051E+01 -0.72501217318E+01  0.50256496873E+00  0.11669766798E+02  0.51100000000E-03 0. -1.
        -11    1    3    3    0    0  0.52801161425E+01 -0.75515215255E+01  0.28414634817E+02  0.29871333681E+02  0.51100000000E-03 0.  1.
        -12    1    3    3    0    0 -0.21572497942E+01 -0.74117035830E+01  0.46035545695E+01  0.89877578601E+01  0.00000000000E+00 0.  1.
</event>
<event>
 7    1  0.5910662E-013  0.5052896E+02  0.7816164E-02  0.1300438E+00
        -11   -1    0    0    0    0  0.00000000000E+00  0.00000000000E+00  0.45593999997E+02  0.45594000000E+02  0.51100000000E-03 0.  1.
         11   -1    0    0    0    0 -0.00000000000E+00 -0.00000000000E+00 -0.45593999997E+02  0.45594000000E+02  0.51100000000E-03 0. -1.
    9900012    2    1    2    0    0  0.32288145105E+01 -0.26586153376E+02  0.30592626613E+02  0.50528959215E+02  0.30000302029E+02 0.  0.
         12    1    1    2    0    0 -0.32288145105E+01  0.26586153376E+02 -0.30592626613E+02  0.40659040785E+02  0.00000000000E+00 0. -1.
         11    1    3    3    0    0  0.10512084594E+02 -0.58508075177E+01  0.54731803944E+01  0.13217094045E+02  0.51100000000E-03 0. -1.
        -11    1    3    3    0    0 -0.93688782935E+01 -0.22282007578E+02  0.24905421593E+02  0.34706537816E+02  0.51100000000E-03 0.  1.
         12    1    3    3    0    0  0.20856082103E+01  0.15466617193E+01  0.21402462544E+00  0.26053273539E+01  0.00000000000E+00 0. -1.
</event>
<event>
 7    1  0.5910662E-013  0.5052886E+02  0.7816164E-02  0.1300439E+00
        -11   -1    0    0    0    0  0.00000000000E+00  0.00000000000E+00  0.45593999997E+02  0.45594000000E+02  0.51100000000E-03 0. -1.
         11   -1    0    0    0    0 -0.00000000000E+00 -0.00000000000E+00 -0.45593999997E+02  0.45594000000E+02  0.51100000000E-03 0.  1.
    9900012    2    1    2    0    0  0.35824295366E+02  0.16184229844E+01  0.19161590159E+02  0.50528856270E+02  0.29999989117E+02 0.  0.
         12    1    1    2    0    0 -0.35824295366E+02 -0.16184229844E+01 -0.19161590159E+02  0.40659143730E+02  0.00000000000E+00 0. -1.
         11    1    3    3    0    0  0.10349798019E+02 -0.11013190993E+02 -0.14395884083E+01  0.15181604327E+02  0.51100000000E-03 0. -1.
        -11    1    3    3    0    0  0.14555391300E+02  0.49784530296E+01  0.11390233721E+02  0.19141103285E+02  0.51100000000E-03 0.  1.
         12    1    3    3    0    0  0.10919106047E+02  0.76531609480E+01  0.92109448467E+01  0.16206148658E+02  0.00000000000E+00 0. -1.
</event>
<event>
 7    1  0.5910662E-013  0.5052875E+02  0.7816164E-02  0.1300439E+00
        -11   -1    0    0    0    0  0.00000000000E+00  0.00000000000E+00  0.45593999997E+02  0.45594000000E+02  0.51100000000E-03 0.  1.
         11   -1    0    0    0    0 -0.00000000000E+00 -0.00000000000E+00 -0.45593999997E+02  0.45594000000E+02  0.51100000000E-03 0. -1.
    9900012    2    1    2    0    0  0.95003227161E+01  0.12055403944E+02  0.37650842747E+02  0.50528746988E+02  0.29999656941E+02 0.  0.
         12    1    1    2    0    0 -0.95003227161E+01 -0.12055403944E+02 -0.37650842747E+02  0.40659253012E+02  0.00000000000E+00 0. -1.
         11    1    3    3    0    0  0.13903781274E+01  0.13192685960E+01 -0.39061090119E+01  0.43510123924E+01  0.51100000000E-03 0. -1.
        -11    1    3    3    0    0 -0.11213865815E+00  0.11309976203E+02  0.29300358950E+02  0.31407629195E+02  0.51100000000E-03 0.  1.
        -12    1    3    3    0    0  0.82220832469E+01 -0.57384085512E+00  0.12256592809E+02  0.14770105400E+02  0.00000000000E+00 0.  1.
</event>
<event>
 7    1  0.5910662E-013  0.5052886E+02  0.7816164E-02  0.1300439E+00
        -11   -1    0    0    0    0  0.00000000000E+00  0.00000000000E+00  0.45593999997E+02  0.45594000000E+02  0.51100000000E-03 0.  1.
         11   -1    0    0    0    0 -0.00000000000E+00 -0.00000000000E+00 -0.45593999997E+02  0.45594000000E+02  0.51100000000E-03 0. -1.
    9900012    2    1    2    0    0 -0.23696679313E+02  0.34112892413E+01  0.32863298820E+02  0.50528856944E+02  0.29999991167E+02 0.  0.
         12    1    1    2    0    0  0.23696679313E+02 -0.34112892413E+01 -0.32863298820E+02  0.40659143056E+02  0.00000000000E+00 0. -1.
         11    1    3    3    0    0 -0.18546174229E+02  0.28231677981E+01  0.90464726273E+01  0.20827134277E+02  0.51100000000E-03 0. -1.
        -11    1    3    3    0    0  0.59933155480E+01  0.23519575617E+01  0.78891073683E+01  0.10182806635E+02  0.51100000000E-03 0.  1.
        -12    1    3    3    0    0 -0.11143820632E+02 -0.17638361185E+01  0.15927718824E+02  0.19518916032E+02  0.00000000000E+00 0.  1.
</event>
<event>
 7    1  0.5910662E-013  0.5052887E+02  0.7816164E-02  0.1300439E+00
        -11   -1    0    0    0    0  0.00000000000E+00  0.00000000000E+00  0.45593999997E+02  0.45594000000E+02  0.51100000000E-03 0.  1.
         11   -1    0    0    0    0 -0.00000000000E+00 -0.00000000000E+00 -0.45593999997E+02  0.45594000000E+02  0.51100000000E-03 0. -1.
    9900012    2    1    2    0    0  0.29549530237E+02  0.27759857808E+02  0.30627686577E+01  0.50528868251E+02  0.30000025535E+02 0.  0.
         12    1    1    2    0    0 -0.29549530237E+02 -0.27759857808E+02 -0.30627686577E+01  0.40659131749E+02  0.00000000000E+00 0. -1.
         11    1    3    3    0    0 -0.38050012866E+01 -0.19178387105E+01  0.15360901801E+01  0.45294274928E+01  0.51100000000E-03 0. -1.
        -11    1    3    3    0    0  0.32238230641E+02  0.28963059688E+02 -0.77352969447E+00  0.43344673142E+02  0.51100000000E-03 0.  1.
        -12    1    3    3    0    0  0.11163008827E+01  0.71463683088E+00  0.23002081721E+01  0.26547676162E+01  0.00000000000E+00 0.  1.
</event>
<event>
 7    1  0.5910662E-013  0.5052886E+02  0.7816164E-02  0.1300439E+00
        -11   -1    0    0    0    0  0.00000000000E+00  0.00000000000E+00  0.45593999997E+02  0.45594000000E+02  0.51100000000E-03 0.  1.
         11   -1    0    0    0    0 -0.00000000000E+00 -0.00000000000E+00 -0.45593999997E+02  0.45594000000E+02  0.51100000000E-03 0. -1.
    9900012    2    1    2    0    0 -0.38257326887E+02 -0.99697624046E+01  0.94945458864E+01  0.50528860504E+02  0.30000001988E+02 0.  0.
         12    1    1    2    0    0  0.38257326887E+02  0.99697624046E+01 -0.94945458864E+01  0.40659139496E+02  0.00000000000E+00 0. -1.
         11    1    3    3    0    0 -0.10717306512E+02  0.50372172265E+01  0.11668339365E+02  0.16624811579E+02  0.51100000000E-03 0. -1.
        -11    1    3    3    0    0 -0.14644616634E+02 -0.12907252563E+02  0.31916724744E+01  0.19780008558E+02  0.51100000000E-03 0.  1.
         12    1    3    3    0    0 -0.12895403741E+02 -0.20997270678E+01 -0.53654659526E+01  0.14124040367E+02  0.00000000000E+00 0. -1.
</event>
<event>
 7    1  0.5910662E-013  0.5052891E+02  0.7816164E-02  0.1300439E+00
        -11   -1    0    0    0    0  0.00000000000E+00  0.00000000000E+00  0.45593999997E+02  0.45594000000E+02  0.51100000000E-03 0.  1.
         11   -1    0    0    0    0 -0.00000000000E+00 -0.00000000000E+00 -0.45593999997E+02  0.45594000000E+02  0.51100000000E-03 0. -1.
    9900012    2    1    2    0    0 -0.32910121239E+02 -0.23425886625E+02  0.46166701530E+01  0.50528906461E+02  0.30000141679E+02 0.  0.
         12    1    1    2    0    0  0.32910121239E+02  0.23425886625E+02 -0.46166701530E+01  0.40659093539E+02  0.00000000000E+00 0. -1.
         11    1    3    3    0    0 -0.19445793893E+02 -0.14297481200E+02  0.75397826684E+01  0.25286462618E+02  0.51100000000E-03 0.  1.
        -11    1    3    3    0    0  0.37161958536E+01  0.23294534444E+01 -0.63676570401E-03  0.43859395389E+01  0.51100000000E-03 0. -1.
         12    1    3    3    0    0 -0.17180523199E+02 -0.11457858870E+02 -0.29224757497E+01  0.20856504304E+02  0.00000000000E+00 0. -1.
</event>
<event>
 7    1  0.5910662E-013  0.5052889E+02  0.7816164E-02  0.1300439E+00
        -11   -1    0    0    0    0  0.00000000000E+00  0.00000000000E+00  0.45593999997E+02  0.45594000000E+02  0.51100000000E-03 0.  1.
         11   -1    0    0    0    0 -0.00000000000E+00 -0.00000000000E+00 -0.45593999997E+02  0.45594000000E+02  0.51100000000E-03 0. -1.
    9900012    2    1    2    0    0  0.58028337874E+01  0.29177943455E+02  0.27715306398E+02  0.50528886963E+02  0.30000082413E+02 0.  0.
         12    1    1    2    0    0 -0.58028337874E+01 -0.29177943455E+02 -0.27715306398E+02  0.40659113037E+02  0.00000000000E+00 0. -1.
         11    1    3    3    0    0 -0.75017959535E+00  0.29682618972E+02  0.97184572452E+01  0.31242103802E+02  0.51100000000E-03 0. -1.
        -11    1    3    3    0    0  0.36857495917E+01  0.63297775248E+00  0.11541886130E+02  0.12132623236E+02  0.51100000000E-03 0.  1.
         12    1    3    3    0    0  0.28672637911E+01 -0.11376532699E+01  0.64549630230E+01  0.71541599254E+01  0.00000000000E+00 0. -1.
</event>
<event>
 7    1  0.5910662E-013  0.5052890E+02  0.7816164E-02  0.1300439E+00
        -11   -1    0    0    0    0  0.00000000000E+00  0.00000000000E+00  0.45593999997E+02  0.45594000000E+02  0.51100000000E-03 0. -1.
         11   -1    0    0    0    0 -0.00000000000E+00 -0.00000000000E+00 -0.45593999997E+02  0.45594000000E+02  0.51100000000E-03 0.  1.
    9900012    2    1    2    0    0 -0.39918050724E+02  0.76688931743E+01  0.94850034680E+00  0.50528900784E+02  0.30000124423E+02 0.  0.
         12    1    1    2    0    0  0.39918050724E+02 -0.76688931743E+01 -0.94850034680E+00  0.40659099216E+02  0.00000000000E+00 0. -1.
         11    1    3    3    0    0 -0.20307096534E+02 -0.10066336018E+02  0.15967833295E+01  0.22721333757E+02  0.51100000000E-03 0. -1.
        -11    1    3    3    0    0 -0.20293325440E+02  0.16708026689E+02 -0.14669847467E+01  0.26327348096E+02  0.51100000000E-03 0.  1.
         12    1    3    3    0    0  0.68237124956E+00  0.10272025031E+01  0.81870176398E+00  0.14802189307E+01  0.00000000000E+00 0. -1.
</event>
<event>
 7    1  0.5910662E-013  0.5052892E+02  0.7816164E-02  0.1300439E+00
        -11   -1    0    0    0    0  0.00000000000E+00  0.00000000000E+00  0.45593999997E+02  0.45594000000E+02  0.51100000000E-03 0. -1.
         11   -1    0    0    0    0 -0.00000000000E+00 -0.00000000000E+00 -0.45593999997E+02  0.45594000000E+02  0.51100000000E-03 0.  1.
    9900012    2    1    2    0    0  0.75562299445E+01 -0.31927596455E+02 -0.24014422187E+02  0.50528923531E+02  0.30000193564E+02 0.  0.
         12    1    1    2    0    0 -0.75562299445E+01  0.31927596455E+02  0.24014422187E+02  0.40659076469E+02  0.00000000000E+00 0. -1.
         11    1    3    3    0    0 -0.63442192033E+01 -0.83573022074E+00 -0.98942717039E+00  0.64750697825E+01  0.51100000000E-03 0.  1.
        -11    1    3    3    0    0  0.17191262933E+02 -0.27390373929E+02 -0.18054387213E+02  0.37036914060E+02  0.51100000000E-03 0. -1.
         12    1    3    3    0    0 -0.32908137849E+01 -0.37014923054E+01 -0.49706078041E+01  0.70169396888E+01  0.00000000000E+00 0. -1.
</event>
<event>
 7    1  0.5910662E-013  0.5052881E+02  0.7816164E-02  0.1300439E+00
        -11   -1    0    0    0    0  0.00000000000E+00  0.00000000000E+00  0.45593999997E+02  0.45594000000E+02  0.51100000000E-03 0.  1.
         11   -1    0    0    0    0 -0.00000000000E+00 -0.00000000000E+00 -0.45593999997E+02  0.45594000000E+02  0.51100000000E-03 0. -1.
    9900012    2    1    2    0    0  0.39972875329E+02  0.24261204572E+01  0.70322520791E+01  0.50528814176E+02  0.29999861169E+02 0.  0.
         12    1    1    2    0    0 -0.39972875329E+02 -0.24261204572E+01 -0.70322520791E+01  0.40659185824E+02  0.00000000000E+00 0. -1.
         11    1    3    3    0    0  0.62822096629E+00  0.47605732678E+01 -0.32637024422E+01  0.58059859897E+01  0.51100000000E-03 0. -1.
        -11    1    3    3    0    0  0.20752343758E+02 -0.72832311206E+01  0.12598057450E+02  0.25345932194E+02  0.51100000000E-03 0.  1.
        -12    1    3    3    0    0  0.18592310605E+02  0.49487783100E+01 -0.23021029289E+01  0.19376895992E+02  0.00000000000E+00 0.  1.
</event>
<event>
 7    1  0.5910662E-013  0.5052886E+02  0.7816164E-02  0.1300439E+00
        -11   -1    0    0    0    0  0.00000000000E+00  0.00000000000E+00  0.45593999997E+02  0.45594000000E+02  0.51100000000E-03 0.  1.
         11   -1    0    0    0    0 -0.00000000000E+00 -0.00000000000E+00 -0.45593999997E+02  0.45594000000E+02  0.51100000000E-03 0. -1.
    9900012    2    1    2    0    0 -0.25584611780E+02 -0.31353144920E+02  0.39463063344E+01  0.50528863388E+02  0.30000010755E+02 0.  0.
         12    1    1    2    0    0  0.25584611780E+02  0.31353144920E+02 -0.39463063344E+01  0.40659136612E+02  0.00000000000E+00 0. -1.
         11    1    3    3    0    0 -0.35984136734E+01  0.51620890992E+00  0.98530981173E+01  0.10502313810E+02  0.51100000000E-03 0. -1.
        -11    1    3    3    0    0 -0.43090011323E+01 -0.13165617117E+02 -0.20410318052E+01  0.14002384652E+02  0.51100000000E-03 0.  1.
         12    1    3    3    0    0 -0.17677196975E+02 -0.18703736713E+02 -0.38657599778E+01  0.26024164926E+02  0.00000000000E+00 0. -1.
</event>
<event>
 7    1  0.5910662E-013  0.5052887E+02  0.7816164E-02  0.1300439E+00
        -11   -1    0    0    0    0  0.00000000000E+00  0.00000000000E+00  0.45593999997E+02  0.45594000000E+02  0.51100000000E-03 0. -1.
         11   -1    0    0    0    0 -0.00000000000E+00 -0.00000000000E+00 -0.45593999997E+02  0.45594000000E+02  0.51100000000E-03 0.  1.
    9900012    2    1    2    0    0 -0.17684221565E+01 -0.17009567329E+02 -0.36887833458E+02  0.50528868739E+02  0.30000027019E+02 0.  0.
         12    1    1    2    0    0  0.17684221565E+01  0.17009567329E+02  0.36887833458E+02  0.40659131261E+02  0.00000000000E+00 0. -1.
         11    1    3    3    0    0 -0.21723172609E+01  0.97217407352E+00  0.17321660977E+01  0.29435496195E+01  0.51100000000E-03 0. -1.
        -11    1    3    3    0    0 -0.63606098741E+00 -0.91196742582E+01 -0.37493148549E+02  0.38591569294E+02  0.51100000000E-03 0.  1.
        -12    1    3    3    0    0  0.10399560917E+01 -0.88620671442E+01 -0.11268510072E+01  0.89937498260E+01  0.00000000000E+00 0.  1.
</event>
<event>
 7    1  0.5910662E-013  0.5052888E+02  0.7816164E-02  0.1300439E+00
        -11   -1    0    0    0    0  0.00000000000E+00  0.00000000000E+00  0.45593999997E+02  0.45594000000E+02  0.51100000000E-03 0. -1.
         11   -1    0    0    0    0 -0.00000000000E+00 -0.00000000000E+00 -0.45593999997E+02  0.45594000000E+02  0.51100000000E-03 0.  1.
    9900012    2    1    2    0    0  0.22590313674E+02  0.25927697145E+02 -0.21693240676E+02  0.50528875045E+02  0.30000046186E+02 0.  0.
         12    1    1    2    0    0 -0.22590313674E+02 -0.25927697145E+02  0.21693240676E+02  0.40659124955E+02  0.00000000000E+00 0. -1.
         11    1    3    3    0    0 -0.32099529418E+01  0.56935972701E+01 -0.61031687859E+01  0.89425677103E+01  0.51100000000E-03 0. -1.
        -11    1    3    3    0    0  0.23118340191E+02  0.86455168720E+01 -0.40475658638E+01  0.25011705357E+02  0.51100000000E-03 0.  1.
        -12    1    3    3    0    0  0.26819264243E+01  0.11588583003E+02 -0.11542506026E+02  0.16574601978E+02  0.00000000000E+00 0.  1.
</event>
<event>
 7    1  0.5910662E-013  0.5052886E+02  0.7816164E-02  0.1300439E+00
        -11   -1    0    0    0    0  0.00000000000E+00  0.00000000000E+00  0.45593999997E+02  0.45594000000E+02  0.51100000000E-03 0. -1.
         11   -1    0    0    0    0 -0.00000000000E+00 -0.00000000000E+00 -0.45593999997E+02  0.45594000000E+02  0.51100000000E-03 0.  1.
    9900012    2    1    2    0    0 -0.16129595274E+01 -0.40558201252E+02 -0.23656081587E+01  0.50528862906E+02  0.30000009290E+02 0.  0.
         12    1    1    2    0    0  0.16129595274E+01  0.40558201252E+02  0.23656081587E+01  0.40659137094E+02  0.00000000000E+00 0. -1.
         11    1    3    3    0    0 -0.10993305996E+02 -0.18481330889E+02  0.24986090049E+01  0.21648450646E+02  0.51100000000E-03 0. -1.
        -11    1    3    3    0    0  0.11962787875E+02 -0.11826308649E+02 -0.67812698379E+01  0.18137130172E+02  0.51100000000E-03 0.  1.
        -12    1    3    3    0    0 -0.25824414065E+01 -0.10250561714E+02  0.19170526743E+01  0.10743282088E+02  0.00000000000E+00 0.  1.
</event>
<event>
 7    1  0.5910662E-013  0.5052885E+02  0.7816164E-02  0.1300439E+00
        -11   -1    0    0    0    0  0.00000000000E+00  0.00000000000E+00  0.45593999997E+02  0.45594000000E+02  0.51100000000E-03 0.  1.
         11   -1    0    0    0    0 -0.00000000000E+00 -0.00000000000E+00 -0.45593999997E+02  0.45594000000E+02  0.51100000000E-03 0. -1.
    9900012    2    1    2    0    0  0.22601811380E+01  0.27342956012E+02  0.30007018188E+02  0.50528846014E+02  0.29999957945E+02 0.  0.
         12    1    1    2    0    0 -0.22601811380E+01 -0.27342956012E+02 -0.30007018188E+02  0.40659153986E+02  0.00000000000E+00 0. -1.
         11    1    3    3    0    0 -0.20916872736E+01 -0.40516778344E+01  0.57944395362E+01  0.73733831261E+01  0.51100000000E-03 0. -1.
        -11    1    3    3    0    0  0.24844093012E+01  0.22465456378E+02  0.25349272852E+02  0.33962547817E+02  0.51100000000E-03 0.  1.
         12    1    3    3    0    0  0.18674591104E+01  0.89291774690E+01 -0.11366942001E+01  0.91929150712E+01  0.00000000000E+00 0. -1.
</event>
<event>
 7    1  0.5910662E-013  0.5052885E+02  0.7816164E-02  0.1300439E+00
        -11   -1    0    0    0    0  0.00000000000E+00  0.00000000000E+00  0.45593999997E+02  0.45594000000E+02  0.51100000000E-03 0. -1.
         11   -1    0    0    0    0 -0.00000000000E+00 -0.00000000000E+00 -0.45593999997E+02  0.45594000000E+02  0.51100000000E-03 0.  1.
    9900012    2    1    2    0    0 -0.23158624041E+00 -0.37521613118E+02  0.15660182885E+02  0.50528850831E+02  0.29999972585E+02 0.  0.
         12    1    1    2    0    0  0.23158624041E+00  0.37521613118E+02 -0.15660182885E+02  0.40659149169E+02  0.00000000000E+00 0. -1.
         11    1    3    3    0    0 -0.11956728898E+02 -0.83498251183E+01  0.62171245315E+01  0.15853566891E+02  0.51100000000E-03 0. -1.
        -11    1    3    3    0    0  0.13220808777E+02 -0.28801945409E+02  0.96326470545E+01  0.33122948745E+02  0.51100000000E-03 0.  1.
        -12    1    3    3    0    0 -0.14956661187E+01 -0.36984259128E+00 -0.18958870108E+00  0.15523351946E+01  0.00000000000E+00 0.  1.
</event>
<event>
 7    1  0.5910662E-013  0.5052896E+02  0.7816164E-02  0.1300438E+00
        -11   -1    0    0    0    0  0.00000000000E+00  0.00000000000E+00  0.45593999997E+02  0.45594000000E+02  0.51100000000E-03 0.  1.
         11   -1    0    0    0    0 -0.00000000000E+00 -0.00000000000E+00 -0.45593999997E+02  0.45594000000E+02  0.51100000000E-03 0. -1.
    9900012    2    1    2    0    0  0.33320596861E+01  0.40499871475E+02  0.13472384641E+01  0.50528963333E+02  0.30000314545E+02 0.  0.
         12    1    1    2    0    0 -0.33320596861E+01 -0.40499871475E+02 -0.13472384641E+01  0.40659036667E+02  0.00000000000E+00 0. -1.
         11    1    3    3    0    0  0.11883003852E+02  0.27393820884E+02  0.83546847973E+01  0.31006901837E+02  0.51100000000E-03 0. -1.
        -11    1    3    3    0    0 -0.89990751048E+01  0.14256862908E+02 -0.70782406495E+01  0.18285048091E+02  0.51100000000E-03 0.  1.
         12    1    3    3    0    0  0.44813093839E+00 -0.11508123180E+01  0.70794316329E-01  0.12370134051E+01  0.00000000000E+00 0. -1.
</event>
<event>
 7    1  0.5910662E-013  0.5052885E+02  0.7816164E-02  0.1300439E+00
        -11   -1    0    0    0    0  0.00000000000E+00  0.00000000000E+00  0.45593999997E+02  0.45594000000E+02  0.51100000000E-03 0.  1.
         11   -1    0    0    0    0 -0.00000000000E+00 -0.00000000000E+00 -0.45593999997E+02  0.45594000000E+02  0.51100000000E-03 0. -1.
    9900012    2    1    2    0    0 -0.22355201296E+02 -0.67780267934E+01  0.33278666939E+02  0.50528851640E+02  0.29999975044E+02 0.  0.
         12    1    1    2    0    0  0.22355201296E+02  0.67780267934E+01 -0.33278666939E+02  0.40659148360E+02  0.00000000000E+00 0. -1.
         11    1    3    3    0    0 -0.73778931945E+01 -0.11647255454E+02  0.57325729011E+01  0.14931652953E+02  0.51100000000E-03 0. -1.
        -11    1    3    3    0    0 -0.10315177403E+02  0.10660613347E+02  0.20870393302E+02  0.25605172888E+02  0.51100000000E-03 0.  1.
        -12    1    3    3    0    0 -0.46621306980E+01 -0.57913846870E+01  0.66757007356E+01  0.99920257981E+01  0.00000000000E+00 0.  1.
</event>
<event>
 7    1  0.5910662E-013  0.5052886E+02  0.7816164E-02  0.1300439E+00
        -11   -1    0    0    0    0  0.00000000000E+00  0.00000000000E+00  0.45593999997E+02  0.45594000000E+02  0.51100000000E-03 0. -1.
         11   -1    0    0    0    0 -0.00000000000E+00 -0.00000000000E+00 -0.45593999997E+02  0.45594000000E+02  0.51100000000E-03 0.  1.
    9900012    2    1    2    0    0 -0.39352883133E+02  0.37056929947E+00 -0.10216605062E+02  0.50528858943E+02  0.29999997242E+02 0.  0.
         12    1    1    2    0    0  0.39352883133E+02 -0.37056929947E+00  0.10216605062E+02  0.40659141057E+02  0.00000000000E+00 0. -1.
         11    1    3    3    0    0 -0.62311363047E+01  0.32627171416E+01 -0.14540569164E+02  0.16152415754E+02  0.51100000000E-03 0. -1.
        -11    1    3    3    0    0 -0.24250397138E+02  0.12459899384E+01  0.37538543487E+01  0.24570829758E+02  0.51100000000E-03 0.  1.
         12    1    3    3    0    0 -0.88713496907E+01 -0.41381377805E+01  0.57010975310E+00  0.98056134309E+01  0.00000000000E+00 0. -1.
</event>
<event>
 7    1  0.5910662E-013  0.5052883E+02  0.7816164E-02  0.1300439E+00
        -11   -1    0    0    0    0  0.00000000000E+00  0.00000000000E+00  0.45593999997E+02  0.45594000000E+02  0.51100000000E-03 0.  1.
         11   -1    0    0    0    0 -0.00000000000E+00 -0.00000000000E+00 -0.45593999997E+02  0.45594000000E+02  0.51100000000E-03 0. -1.
    9900012    2    1    2    0    0  0.10052642715E+02 -0.22938078417E+02  0.32030564079E+02  0.50528830035E+02  0.29999909375E+02 0.  0.
         12    1    1    2    0    0 -0.10052642715E+02  0.22938078417E+02 -0.32030564079E+02  0.40659169965E+02  0.00000000000E+00 0. -1.
         11    1    3    3    0    0  0.17255074869E+02 -0.79769639196E+01  0.23634205748E+02  0.30330599132E+02  0.51100000000E-03 0. -1.
        -11    1    3    3    0    0 -0.39309775404E+01 -0.14128688924E+02  0.52302422522E+01  0.15570095356E+02  0.51100000000E-03 0.  1.
         12    1    3    3    0    0 -0.32714546130E+01 -0.83242557347E+00  0.31661160780E+01  0.46281355469E+01  0.00000000000E+00 0. -1.
</event>
<event>
 7    1  0.5910662E-013  0.5052901E+02  0.7816164E-02  0.1300438E+00
        -11   -1    0    0    0    0  0.00000000000E+00  0.00000000000E+00  0.45593999997E+02  0.45594000000E+02  0.51100000000E-03 0. -1.
         11   -1    0    0    0    0 -0.00000000000E+00 -0.00000000000E+00 -0.45593999997E+02  0.45594000000E+02  0.51100000000E-03 0.  1.
    9900012    2    1    2    0    0  0.38927048623E+02  0.64281041881E+01  0.98243607316E+01  0.50529007124E+02  0.30000447650E+02 0.  0.
         12    1    1    2    0    0 -0.38927048623E+02 -0.64281041881E+01 -0.98243607316E+01  0.40658992876E+02  0.00000000000E+00 0. -1.
         11    1    3    3    0    0  0.88992797536E+01  0.67905987654E+01  0.11822694887E+02  0.16281447306E+02  0.51100000000E-03 0. -1.
        -11    1    3    3    0    0  0.30958405795E+02 -0.25344566950E+01 -0.37759386425E+01  0.31290638743E+02  0.51100000000E-03 0.  1.
        -12    1    3    3    0    0 -0.93063692558E+00  0.21719621177E+01  0.17776044873E+01  0.29569210746E+01  0.00000000000E+00 0.  1.
</event>
<event>
 7    1  0.5910662E-013  0.5052887E+02  0.7816164E-02  0.1300439E+00
        -11   -1    0    0    0    0  0.00000000000E+00  0.00000000000E+00  0.45593999997E+02  0.45594000000E+02  0.51100000000E-03 0.  1.
         11   -1    0    0    0    0 -0.00000000000E+00 -0.00000000000E+00 -0.45593999997E+02  0.45594000000E+02  0.51100000000E-03 0. -1.
    9900012    2    1    2    0    0 -0.65158304454E+01 -0.36625295460E+02  0.16410249904E+02  0.50528872908E+02  0.30000039692E+02 0.  0.
         12    1    1    2    0    0  0.65158304454E+01  0.36625295460E+02 -0.16410249904E+02  0.40659127092E+02  0.00000000000E+00 0. -1.
         11    1    3    3    0    0  0.66829699954E+01 -0.24266324063E+01 -0.29759423772E+01  0.77075849712E+01  0.51100000000E-03 0. -1.
        -11    1    3    3    0    0 -0.11065146799E+02 -0.32048373693E+02  0.14081748820E+02  0.36712823102E+02  0.51100000000E-03 0.  1.
         12    1    3    3    0    0 -0.21336536422E+01 -0.21502893612E+01  0.53044434618E+01  0.61084648351E+01  0.00000000000E+00 0. -1.
</event>
<event>
 7    1  0.5910662E-013  0.5052886E+02  0.7816164E-02  0.1300439E+00
        -11   -1    0    0    0    0  0.00000000000E+00  0.00000000000E+00  0.45593999997E+02  0.45594000000E+02  0.51100000000E-03 0. -1.
         11   -1    0    0    0    0 -0.00000000000E+00 -0.00000000000E+00 -0.45593999997E+02  0.45594000000E+02  0.51100000000E-03 0.  1.
    9900012    2    1    2    0    0 -0.91508328603E+00  0.36614108340E+02 -0.17656036809E+02  0.50528856591E+02  0.29999990095E+02 0.  0.
         12    1    1    2    0    0  0.91508328603E+00 -0.36614108340E+02  0.17656036809E+02  0.40659143409E+02  0.00000000000E+00 0. -1.
         11    1    3    3    0    0  0.39218286328E+01 -0.35273864658E+01 -0.97433868460E+00  0.53640032847E+01  0.51100000000E-03 0. -1.
        -11    1    3    3    0    0  0.30176226099E+01  0.14186725165E+02 -0.30797758900E+01  0.14827482487E+02  0.51100000000E-03 0.  1.
         12    1    3    3    0    0 -0.78545345288E+01  0.25954769641E+02 -0.13601922234E+02  0.30337370820E+02  0.00000000000E+00 0. -1.
</event>
<event>
 7    1  0.5910662E-013  0.5052886E+02  0.7816164E-02  0.1300439E+00
        -11   -1    0    0    0    0  0.00000000000E+00  0.00000000000E+00  0.45593999997E+02  0.45594000000E+02  0.51100000000E-03 0.  1.
         11   -1    0    0    0    0 -0.00000000000E+00 -0.00000000000E+00 -0.45593999997E+02  0.45594000000E+02  0.51100000000E-03 0. -1.
    9900012    2    1    2    0    0 -0.34623702242E+02 -0.14232280956E+02  0.15868432652E+02  0.50528859171E+02  0.29999997935E+02 0.  0.
         12    1    1    2    0    0  0.34623702242E+02  0.14232280956E+02 -0.15868432652E+02  0.40659140829E+02  0.00000000000E+00 0. -1.
         11    1    3    3    0    0 -0.22235690109E+02 -0.21354698859E+01  0.20784376095E+02  0.30511906466E+02  0.51100000000E-03 0. -1.
        -11    1    3    3    0    0 -0.13050850282E+02 -0.97008880143E+01 -0.59620764272E+01  0.17319880973E+02  0.51100000000E-03 0.  1.
        -12    1    3    3    0    0  0.66283814910E+00 -0.23959230562E+01  0.10461329834E+01  0.26970717310E+01  0.00000000000E+00 0.  1.
</event>
<event>
 7    1  0.5910662E-013  0.5052887E+02  0.7816164E-02  0.1300439E+00
        -11   -1    0    0    0    0  0.00000000000E+00  0.00000000000E+00  0.45593999997E+02  0.45594000000E+02  0.51100000000E-03 0.  1.
         11   -1    0    0    0    0 -0.00000000000E+00 -0.00000000000E+00 -0.45593999997E+02  0.45594000000E+02  0.51100000000E-03 0. -1.
    9900012    2    1    2    0    0 -0.73905762577E+01 -0.40316592602E+01  0.39778012859E+02  0.50528865715E+02  0.30000017827E+02 0.  0.
         12    1    1    2    0    0  0.73905762577E+01  0.40316592602E+01 -0.39778012859E+02  0.40659134285E+02  0.00000000000E+00 0. -1.
         11    1    3    3    0    0 -0.74686631850E+01  0.84265556773E+01  0.97358345629E+01  0.14885370175E+02  0.51100000000E-03 0. -1.
        -11    1    3    3    0    0 -0.53706513906E+00 -0.14339368617E+02  0.16120578166E+02  0.21581913075E+02  0.51100000000E-03 0.  1.
        -12    1    3    3    0    0  0.61515206633E+00  0.18811536799E+01  0.13921600130E+02  0.14061582465E+02  0.00000000000E+00 0.  1.
</event>
<event>
 7    1  0.5910662E-013  0.5052886E+02  0.7816164E-02  0.1300439E+00
        -11   -1    0    0    0    0  0.00000000000E+00  0.00000000000E+00  0.45593999997E+02  0.45594000000E+02  0.51100000000E-03 0. -1.
         11   -1    0    0    0    0 -0.00000000000E+00 -0.00000000000E+00 -0.45593999997E+02  0.45594000000E+02  0.51100000000E-03 0.  1.
    9900012    2    1    2    0    0  0.21834351969E+02 -0.30889533461E+02  0.14908497791E+02  0.50528861916E+02  0.30000006281E+02 0.  0.
         12    1    1    2    0    0 -0.21834351969E+02  0.30889533461E+02 -0.14908497791E+02  0.40659138084E+02  0.00000000000E+00 0. -1.
         11    1    3    3    0    0  0.12264201020E+02 -0.30664253075E+02  0.11228198795E+02  0.34882366488E+02  0.51100000000E-03 0. -1.
        -11    1    3    3    0    0 -0.23750670914E+01 -0.49364422873E+00 -0.12405348617E+01  0.27246202153E+01  0.51100000000E-03 0.  1.
         12    1    3    3    0    0  0.11945218040E+02  0.26836384344E+00  0.49208338573E+01  0.12921875214E+02  0.00000000000E+00 0. -1.
</event>
<event>
 7    1  0.5910662E-013  0.5052884E+02  0.7816164E-02  0.1300439E+00
        -11   -1    0    0    0    0  0.00000000000E+00  0.00000000000E+00  0.45593999997E+02  0.45594000000E+02  0.51100000000E-03 0.  1.
         11   -1    0    0    0    0 -0.00000000000E+00 -0.00000000000E+00 -0.45593999997E+02  0.45594000000E+02  0.51100000000E-03 0. -1.
    9900012    2    1    2    0    0  0.18151778850E+02 -0.28690687547E+02  0.22372404311E+02  0.50528842336E+02  0.29999946763E+02 0.  0.
         12    1    1    2    0    0 -0.18151778850E+02  0.28690687547E+02 -0.22372404311E+02  0.40659157664E+02  0.00000000000E+00 0. -1.
         11    1    3    3    0    0 -0.46628906342E+00  0.54071218663E+01  0.41869839603E+01  0.68545771067E+01  0.51100000000E-03 0. -1.
        -11    1    3    3    0    0  0.57696185303E+01 -0.74153360000E+01  0.80518623462E+01  0.12373689566E+02  0.51100000000E-03 0.  1.
         12    1    3    3    0    0  0.12848449383E+02 -0.26682473413E+02  0.10133558005E+02  0.31300575663E+02  0.00000000000E+00 0. -1.
</event>
<event>
 7    1  0.5910662E-013  0.5052886E+02  0.7816164E-02  0.1300439E+00
        -11   -1    0    0    0    0  0.00000000000E+00  0.00000000000E+00  0.45593999997E+02  0.45594000000E+02  0.51100000000E-03 0. -1.
         11   -1    0    0    0    0 -0.00000000000E+00 -0.00000000000E+00 -0.45593999997E+02  0.45594000000E+02  0.51100000000E-03 0.  1.
    9900012    2    1    2    0    0  0.33052266190E+02 -0.53815175185E+01 -0.23059758797E+02  0.50528861951E+02  0.30000006387E+02 0.  0.
         12    1    1    2    0    0 -0.33052266190E+02  0.53815175185E+01  0.23059758797E+02  0.40659138049E+02  0.00000000000E+00 0. -1.
         11    1    3    3    0    0  0.17565491759E+02 -0.65617380825E+01 -0.77441200021E+00  0.18767062146E+02  0.51100000000E-03 0. -1.
        -11    1    3    3    0    0  0.16319668920E+02  0.57508518609E+01 -0.20394564437E+02  0.26745880984E+02  0.51100000000E-03 0.  1.
         12    1    3    3    0    0 -0.83289448914E+00 -0.45706312969E+01 -0.18907823603E+01  0.50159188208E+01  0.00000000000E+00 0. -1.
</event>
<event>
 7    1  0.5910662E-013  0.5052886E+02  0.7816164E-02  0.1300439E+00
        -11   -1    0    0    0    0  0.00000000000E+00  0.00000000000E+00  0.45593999997E+02  0.45594000000E+02  0.51100000000E-03 0. -1.
         11   -1    0    0    0    0 -0.00000000000E+00 -0.00000000000E+00 -0.45593999997E+02  0.45594000000E+02  0.51100000000E-03 0.  1.
    9900012    2    1    2    0    0  0.20096405169E+02 -0.38240857091E+01 -0.35137966324E+02  0.50528858228E+02  0.29999995071E+02 0.  0.
         12    1    1    2    0    0 -0.20096405169E+02  0.38240857091E+01  0.35137966324E+02  0.40659141772E+02  0.00000000000E+00 0. -1.
         11    1    3    3    0    0  0.26924409888E+01 -0.14193176439E+01  0.57505303032E+00  0.30974807992E+01  0.51100000000E-03 0. -1.
        -11    1    3    3    0    0  0.12777633506E+02  0.99773463132E+01 -0.27337999118E+02  0.31783353403E+02  0.51100000000E-03 0.  1.
        -12    1    3    3    0    0  0.46263306739E+01 -0.12382114378E+02 -0.83750202361E+01  0.15648024027E+02  0.00000000000E+00 0.  1.
</event>
<event>
 7    1  0.5910662E-013  0.5052886E+02  0.7816164E-02  0.1300439E+00
        -11   -1    0    0    0    0  0.00000000000E+00  0.00000000000E+00  0.45593999997E+02  0.45594000000E+02  0.51100000000E-03 0. -1.
         11   -1    0    0    0    0 -0.00000000000E+00 -0.00000000000E+00 -0.45593999997E+02  0.45594000000E+02  0.51100000000E-03 0.  1.
    9900012    2    1    2    0    0  0.22259173318E+02  0.14109428179E+02 -0.30961565988E+02  0.50528864141E+02  0.30000013043E+02 0.  0.
         12    1    1    2    0    0 -0.22259173318E+02 -0.14109428179E+02  0.30961565988E+02  0.40659135859E+02  0.00000000000E+00 0. -1.
         11    1    3    3    0    0  0.13578638220E+01  0.93087253114E+01 -0.45177301222E+01  0.10435805997E+02  0.51100000000E-03 0. -1.
        -11    1    3    3    0    0  0.19648961763E+02  0.84558209600E+00 -0.80729700449E+01  0.21259575562E+02  0.51100000000E-03 0.  1.
        -12    1    3    3    0    0  0.12523477330E+01  0.39551207715E+01 -0.18370865821E+02  0.18833482582E+02  0.00000000000E+00 0.  1.
</event>
<event>
 7    1  0.5910662E-013  0.5052886E+02  0.7816164E-02  0.1300439E+00
        -11   -1    0    0    0    0  0.00000000000E+00  0.00000000000E+00  0.45593999997E+02  0.45594000000E+02  0.51100000000E-03 0. -1.
         11   -1    0    0    0    0 -0.00000000000E+00 -0.00000000000E+00 -0.45593999997E+02  0.45594000000E+02  0.51100000000E-03 0.  1.
    9900012    2    1    2    0    0  0.30468905134E+02  0.25930270010E+02 -0.72410592516E+01  0.50528855617E+02  0.29999987134E+02 0.  0.
         12    1    1    2    0    0 -0.30468905134E+02 -0.25930270010E+02  0.72410592516E+01  0.40659144383E+02  0.00000000000E+00 0. -1.
         11    1    3    3    0    0  0.53883370483E+01  0.44480617502E+01 -0.88144710816E+01  0.11247858916E+02  0.51100000000E-03 0. -1.
        -11    1    3    3    0    0  0.59883113961E+01  0.36462338212E+01  0.96552703219E+01  0.11932273032E+02  0.51100000000E-03 0.  1.
        -12    1    3    3    0    0  0.19092256690E+02  0.17835974439E+02 -0.80818584920E+01  0.27348723670E+02  0.00000000000E+00 0.  1.
</event>
<event>
 7    1  0.5910662E-013  0.5052885E+02  0.7816164E-02  0.1300439E+00
        -11   -1    0    0    0    0  0.00000000000E+00  0.00000000000E+00  0.45593999997E+02  0.45594000000E+02  0.51100000000E-03 0.  1.
         11   -1    0    0    0    0 -0.00000000000E+00 -0.00000000000E+00 -0.45593999997E+02  0.45594000000E+02  0.51100000000E-03 0. -1.
    9900012    2    1    2    0    0  0.31472163785E+02  0.25738156831E+02  0.46559196297E+00  0.50528848678E+02  0.29999966041E+02 0.  0.
         12    1    1    2    0    0 -0.31472163785E+02 -0.25738156831E+02 -0.46559196297E+00  0.40659151322E+02  0.00000000000E+00 0. -1.
         11    1    3    3    0    0  0.13909196896E+00 -0.75701403423E+00 -0.38707855758E-02  0.76969608804E+00  0.51100000000E-03 0. -1.
        -11    1    3    3    0    0 -0.29342089600E+01  0.10123238658E+02  0.47124425324E+01  0.11545417187E+02  0.51100000000E-03 0.  1.
        -12    1    3    3    0    0  0.34267280776E+02  0.16371932207E+02 -0.42429797839E+01  0.38213735403E+02  0.00000000000E+00 0.  1.
</event>
<event>
 7    1  0.5910662E-013  0.5052884E+02  0.7816164E-02  0.1300439E+00
        -11   -1    0    0    0    0  0.00000000000E+00  0.00000000000E+00  0.45593999997E+02  0.45594000000E+02  0.51100000000E-03 0. -1.
         11   -1    0    0    0    0 -0.00000000000E+00 -0.00000000000E+00 -0.45593999997E+02  0.45594000000E+02  0.51100000000E-03 0.  1.
    9900012    2    1    2    0    0 -0.38829466918E+02  0.12057316724E+02 -0.24645610916E+00  0.50528842011E+02  0.29999945778E+02 0.  0.
         12    1    1    2    0    0  0.38829466918E+02 -0.12057316724E+02  0.24645610916E+00  0.40659157989E+02  0.00000000000E+00 0. -1.
         11    1    3    3    0    0 -0.67248691107E+01  0.13617981754E+02  0.22706323205E+01  0.15356726963E+02  0.51100000000E-03 0. -1.
        -11    1    3    3    0    0 -0.12004687656E+02 -0.63017892270E+01 -0.48269770435E+01  0.14391830350E+02  0.51100000000E-03 0.  1.
        -12    1    3    3    0    0 -0.20099910152E+02  0.47411241965E+01  0.23098886138E+01  0.20780284699E+02  0.00000000000E+00 0.  1.
</event>
<event>
 7    1  0.5910662E-013  0.5052886E+02  0.7816164E-02  0.1300439E+00
        -11   -1    0    0    0    0  0.00000000000E+00  0.00000000000E+00  0.45593999997E+02  0.45594000000E+02  0.51100000000E-03 0.  1.
         11   -1    0    0    0    0 -0.00000000000E+00 -0.00000000000E+00 -0.45593999997E+02  0.45594000000E+02  0.51100000000E-03 0. -1.
    9900012    2    1    2    0    0 -0.12619946568E+01 -0.22962274296E+02  0.33530685800E+02  0.50528861279E+02  0.30000004343E+02 0.  0.
         12    1    1    2    0    0  0.12619946568E+01  0.22962274296E+02 -0.33530685800E+02  0.40659138721E+02  0.00000000000E+00 0. -1.
         11    1    3    3    0    0  0.22782542639E+01  0.53475846214E+01  0.32924266049E+01  0.66803575491E+01  0.51100000000E-03 0. -1.
        -11    1    3    3    0    0 -0.13189938232E+01 -0.99078588438E+01  0.20735793792E+02  0.23019091121E+02  0.51100000000E-03 0.  1.
         12    1    3    3    0    0 -0.22212550974E+01 -0.18402000073E+02  0.95024654025E+01  0.20829412609E+02  0.00000000000E+00 0. -1.
</event>
<event>
 7    1  0.5910662E-013  0.5052886E+02  0.7816164E-02  0.1300439E+00
        -11   -1    0    0    0    0  0.00000000000E+00  0.00000000000E+00  0.45593999997E+02  0.45594000000E+02  0.51100000000E-03 0.  1.
         11   -1    0    0    0    0 -0.00000000000E+00 -0.00000000000E+00 -0.45593999997E+02  0.45594000000E+02  0.51100000000E-03 0. -1.
    9900012    2    1    2    0    0 -0.26599966497E+02  0.13979470093E+02  0.27389450339E+02  0.50528858450E+02  0.29999995745E+02 0.  0.
         12    1    1    2    0    0  0.26599966497E+02 -0.13979470093E+02 -0.27389450339E+02  0.40659141550E+02  0.00000000000E+00 0. -1.
         11    1    3    3    0    0 -0.13197775380E+02  0.65631582124E+01  0.27770871257E+01  0.14998951093E+02  0.51100000000E-03 0. -1.
        -11    1    3    3    0    0 -0.14924066840E+02 -0.77218493465E+00  0.22373803710E+02  0.26905596692E+02  0.51100000000E-03 0.  1.
        -12    1    3    3    0    0  0.15218757240E+01  0.81884968148E+01  0.22385595027E+01  0.86243106653E+01  0.00000000000E+00 0.  1.
</event>
<event>
 7    1  0.5910662E-013  0.5052887E+02  0.7816164E-02  0.1300439E+00
        -11   -1    0    0    0    0  0.00000000000E+00  0.00000000000E+00  0.45593999997E+02  0.45594000000E+02  0.51100000000E-03 0.  1.
         11   -1    0    0    0    0 -0.00000000000E+00 -0.00000000000E+00 -0.45593999997E+02  0.45594000000E+02  0.51100000000E-03 0. -1.
    9900012    2    1    2    0    0 -0.24305363904E+02 -0.28095127135E+02  0.16525077225E+02  0.50528867440E+02  0.30000023071E+02 0.  0.
         12    1    1    2    0    0  0.24305363904E+02  0.28095127135E+02 -0.16525077225E+02  0.40659132560E+02  0.00000000000E+00 0. -1.
         11    1    3    3    0    0  0.49110380649E+01 -0.13040132088E+02  0.94513299316E+01  0.16837190308E+02  0.51100000000E-03 0. -1.
        -11    1    3    3    0    0 -0.88676190274E+01 -0.57238254355E+01  0.22806205858E+01  0.10798058869E+02  0.51100000000E-03 0.  1.
         12    1    3    3    0    0 -0.20348782941E+02 -0.93311696122E+01  0.47931267073E+01  0.22893618262E+02  0.00000000000E+00 0. -1.
</event>
<event>
 7    1  0.5910662E-013  0.5052886E+02  0.7816164E-02  0.1300439E+00
        -11   -1    0    0    0    0  0.00000000000E+00  0.00000000000E+00  0.45593999997E+02  0.45594000000E+02  0.51100000000E-03 0.  1.
         11   -1    0    0    0    0 -0.00000000000E+00 -0.00000000000E+00 -0.45593999997E+02  0.45594000000E+02  0.51100000000E-03 0. -1.
    9900012    2    1    2    0    0 -0.11932388887E+02 -0.36687232352E+02  0.12838628278E+02  0.50528864516E+02  0.30000014183E+02 0.  0.
         12    1    1    2    0    0  0.11932388887E+02  0.36687232352E+02 -0.12838628278E+02  0.40659135484E+02  0.00000000000E+00 0. -1.
         11    1    3    3    0    0 -0.25267327860E+01 -0.29418721987E+01  0.10349050990E+02  0.11051780276E+02  0.51100000000E-03 0. -1.
        -11    1    3    3    0    0 -0.40392498335E+01 -0.33678371504E+02  0.31689061244E+01  0.34067436251E+02  0.51100000000E-03 0.  1.
        -12    1    3    3    0    0 -0.53664062671E+01 -0.66988649451E-01 -0.67932883651E+00  0.54096479896E+01  0.00000000000E+00 0.  1.
</event>
<event>
 7    1  0.5910662E-013  0.5052886E+02  0.7816164E-02  0.1300439E+00
        -11   -1    0    0    0    0  0.00000000000E+00  0.00000000000E+00  0.45593999997E+02  0.45594000000E+02  0.51100000000E-03 0. -1.
         11   -1    0    0    0    0 -0.00000000000E+00 -0.00000000000E+00 -0.45593999997E+02  0.45594000000E+02  0.51100000000E-03 0.  1.
    9900012    2    1    2    0    0  0.18722206480E+02  0.22438644276E+02 -0.28269279312E+02  0.50528856806E+02  0.29999990749E+02 0.  0.
         12    1    1    2    0    0 -0.18722206480E+02 -0.22438644276E+02  0.28269279312E+02  0.40659143194E+02  0.00000000000E+00 0. -1.
         11    1    3    3    0    0 -0.32301970084E+01 -0.23414956999E+00  0.41402777810E+01  0.52565101635E+01  0.51100000000E-03 0. -1.
        -11    1    3    3    0    0  0.16292514434E+02  0.17120038086E+02 -0.23163139368E+02  0.33091883541E+02  0.51100000000E-03 0.  1.
         12    1    3    3    0    0  0.56598890540E+01  0.55527557605E+01 -0.92464177247E+01  0.12180463102E+02  0.00000000000E+00 0. -1.
</event>
<event>
 7    1  0.5910662E-013  0.5052886E+02  0.7816164E-02  0.1300439E+00
        -11   -1    0    0    0    0  0.00000000000E+00  0.00000000000E+00  0.45593999997E+02  0.45594000000E+02  0.51100000000E-03 0.  1.
         11   -1    0    0    0    0 -0.00000000000E+00 -0.00000000000E+00 -0.45593999997E+02  0.45594000000E+02  0.51100000000E-03 0. -1.
    9900012    2    1    2    0    0  0.47174677789E+01  0.18470892577E+02  0.35912917492E+02  0.50528855671E+02  0.29999987296E+02 0.  0.
         12    1    1    2    0    0 -0.47174677789E+01 -0.18470892577E+02 -0.35912917492E+02  0.40659144329E+02  0.00000000000E+00 0. -1.
         11    1    3    3    0    0 -0.72361546927E+01  0.55354278858E+01  0.70121670650E+01  0.11496668379E+02  0.51100000000E-03 0. -1.
        -11    1    3    3    0    0  0.12301330066E+02  0.70409917461E+00  0.76288357273E+01  0.14491984400E+02  0.51100000000E-03 0.  1.
        -12    1    3    3    0    0 -0.34770759414E+00  0.12231365516E+02  0.21271914700E+02  0.24540202891E+02  0.00000000000E+00 0.  1.
</event>
<event>
 7    1  0.5910662E-013  0.5052885E+02  0.7816164E-02  0.1300439E+00
        -11   -1    0    0    0    0  0.00000000000E+00  0.00000000000E+00  0.45593999997E+02  0.45594000000E+02  0.51100000000E-03 0. -1.
         11   -1    0    0    0    0 -0.00000000000E+00 -0.00000000000E+00 -0.45593999997E+02  0.45594000000E+02  0.51100000000E-03 0.  1.
    9900012    2    1    2    0    0 -0.19584226938E+01  0.34376574084E+02 -0.21623654519E+02  0.50528847279E+02  0.29999961791E+02 0.  0.
         12    1    1    2    0    0  0.19584226938E+01 -0.34376574084E+02  0.21623654519E+02  0.40659152721E+02  0.00000000000E+00 0. -1.
         11    1    3    3    0    0 -0.23247688611E+01  0.18942565607E+02  0.49820652585E+01  0.19724257059E+02  0.51100000000E-03 0. -1.
        -11    1    3    3    0    0  0.81399402423E-01  0.60986802559E+01 -0.89481702803E+01  0.10829140241E+02  0.51100000000E-03 0.  1.
         12    1    3    3    0    0  0.28494676485E+00  0.93353282215E+01 -0.17657549497E+02  0.19975449980E+02  0.00000000000E+00 0. -1.
</event>
<event>
 7    1  0.5910662E-013  0.5052886E+02  0.7816164E-02  0.1300439E+00
        -11   -1    0    0    0    0  0.00000000000E+00  0.00000000000E+00  0.45593999997E+02  0.45594000000E+02  0.51100000000E-03 0.  1.
         11   -1    0    0    0    0 -0.00000000000E+00 -0.00000000000E+00 -0.45593999997E+02  0.45594000000E+02  0.51100000000E-03 0. -1.
    9900012    2    1    2    0    0 -0.17845277320E+02  0.44614638277E+01  0.36260265015E+02  0.50528863252E+02  0.30000010340E+02 0.  0.
         12    1    1    2    0    0  0.17845277320E+02 -0.44614638277E+01 -0.36260265015E+02  0.40659136748E+02  0.00000000000E+00 0. -1.
         11    1    3    3    0    0 -0.13049706235E+02 -0.86229554855E+01  0.22352374405E+02  0.27281474226E+02  0.51100000000E-03 0.  1.
        -11    1    3    3    0    0 -0.33548947235E+01  0.69686534310E+01 -0.27077979270E+00  0.77389127922E+01  0.51100000000E-03 0. -1.
        -12    1    3    3    0    0 -0.14406763616E+01  0.61157658821E+01  0.14178670403E+02  0.15508476234E+02  0.00000000000E+00 0.  1.
</event>
<event>
 7    1  0.5910662E-013  0.5052885E+02  0.7816164E-02  0.1300439E+00
        -11   -1    0    0    0    0  0.00000000000E+00  0.00000000000E+00  0.45593999997E+02  0.45594000000E+02  0.51100000000E-03 0.  1.
         11   -1    0    0    0    0 -0.00000000000E+00 -0.00000000000E+00 -0.45593999997E+02  0.45594000000E+02  0.51100000000E-03 0. -1.
    9900012    2    1    2    0    0  0.26377523901E+01 -0.33692631180E+01  0.40433359789E+02  0.50528852745E+02  0.29999978405E+02 0.  0.
         12    1    1    2    0    0 -0.26377523901E+01  0.33692631180E+01 -0.40433359789E+02  0.40659147255E+02  0.00000000000E+00 0. -1.
         11    1    3    3    0    0 -0.44635572556E+01  0.44062633103E+01 -0.10240123249E+01  0.63550846758E+01  0.51100000000E-03 0. -1.
        -11    1    3    3    0    0  0.59460877558E+01 -0.10593362463E+02  0.34597191377E+02  0.36667982482E+02  0.51100000000E-03 0.  1.
        -12    1    3    3    0    0  0.11552218899E+01  0.28178360351E+01  0.68601807374E+01  0.75057855875E+01  0.00000000000E+00 0.  1.
</event>
<event>
 7    1  0.5910662E-013  0.5052887E+02  0.7816164E-02  0.1300439E+00
        -11   -1    0    0    0    0  0.00000000000E+00  0.00000000000E+00  0.45593999997E+02  0.45594000000E+02  0.51100000000E-03 0.  1.
         11   -1    0    0    0    0 -0.00000000000E+00 -0.00000000000E+00 -0.45593999997E+02  0.45594000000E+02  0.51100000000E-03 0. -1.
    9900012    2    1    2    0    0 -0.11816059534E+02  0.84578525459E+01  0.37973812515E+02  0.50528868559E+02  0.30000026471E+02 0.  0.
         12    1    1    2    0    0  0.11816059534E+02 -0.84578525459E+01 -0.37973812515E+02  0.40659131441E+02  0.00000000000E+00 0. -1.
         11    1    3    3    0    0  0.37568678765E+01  0.80854494184E+01  0.50185052293E+01  0.10231028469E+02  0.51100000000E-03 0. -1.
        -11    1    3    3    0    0 -0.17223304993E+02  0.35486872291E+01  0.32125380056E+02  0.36623427747E+02  0.51100000000E-03 0.  1.
         12    1    3    3    0    0  0.16503775818E+01 -0.31762841017E+01  0.82992722991E+00  0.36744123427E+01  0.00000000000E+00 0. -1.
</event>
<event>
 7    1  0.5910662E-013  0.5052874E+02  0.7816164E-02  0.1300439E+00
        -11   -1    0    0    0    0  0.00000000000E+00  0.00000000000E+00  0.45593999997E+02  0.45594000000E+02  0.51100000000E-03 0.  1.
         11   -1    0    0    0    0 -0.00000000000E+00 -0.00000000000E+00 -0.45593999997E+02  0.45594000000E+02  0.51100000000E-03 0. -1.
    9900012    2    1    2    0    0  0.21067705514E+02 -0.34403474067E+02 -0.50722973482E+01  0.50528739753E+02  0.29999634949E+02 0.  0.
         12    1    1    2    0    0 -0.21067705514E+02  0.34403474067E+02  0.50722973482E+01  0.40659260247E+02  0.00000000000E+00 0. -1.
         11    1    3    3    0    0  0.14883023747E+02 -0.67283767279E+01 -0.60549808133E+01  0.17419478814E+02  0.51100000000E-03 0. -1.
        -11    1    3    3    0    0 -0.16595033393E+00 -0.21149522148E+02 -0.55933243020E+01  0.21877273678E+02  0.51100000000E-03 0.  1.
        -12    1    3    3    0    0  0.63506321003E+01 -0.65255751912E+01  0.65760077670E+01  0.11231987260E+02  0.00000000000E+00 0.  1.
</event>
<event>
 7    1  0.5910662E-013  0.5052886E+02  0.7816164E-02  0.1300439E+00
        -11   -1    0    0    0    0  0.00000000000E+00  0.00000000000E+00  0.45593999997E+02  0.45594000000E+02  0.51100000000E-03 0.  1.
         11   -1    0    0    0    0 -0.00000000000E+00 -0.00000000000E+00 -0.45593999997E+02  0.45594000000E+02  0.51100000000E-03 0. -1.
    9900012    2    1    2    0    0 -0.76025136278E+01 -0.39349248611E+02  0.68559581636E+01  0.50528859059E+02  0.29999997597E+02 0.  0.
         12    1    1    2    0    0  0.76025136278E+01  0.39349248611E+02 -0.68559581636E+01  0.40659140941E+02  0.00000000000E+00 0. -1.
         11    1    3    3    0    0 -0.23787451293E+01 -0.23457821173E+00 -0.62826895801E+00  0.24714727334E+01  0.51100000000E-03 0. -1.
        -11    1    3    3    0    0 -0.70905173541E+01 -0.25576218941E+02  0.16896875487E+02  0.31463038842E+02  0.51100000000E-03 0.  1.
        -12    1    3    3    0    0  0.18667488556E+01 -0.13538451458E+02 -0.94126483658E+01  0.16594347484E+02  0.00000000000E+00 0.  1.
</event>
<event>
 7    1  0.5910662E-013  0.5052886E+02  0.7816164E-02  0.1300439E+00
        -11   -1    0    0    0    0  0.00000000000E+00  0.00000000000E+00  0.45593999997E+02  0.45594000000E+02  0.51100000000E-03 0. -1.
         11   -1    0    0    0    0 -0.00000000000E+00 -0.00000000000E+00 -0.45593999997E+02  0.45594000000E+02  0.51100000000E-03 0.  1.
    9900012    2    1    2    0    0  0.23658137475E+02 -0.48547304872E+01 -0.32709167713E+02  0.50528861675E+02  0.30000005547E+02 0.  0.
         12    1    1    2    0    0 -0.23658137475E+02  0.48547304872E+01  0.32709167713E+02  0.40659138325E+02  0.00000000000E+00 0. -1.
         11    1    3    3    0    0  0.21695262263E+02 -0.64921129470E+01 -0.31897419169E+02  0.39118758737E+02  0.51100000000E-03 0. -1.
        -11    1    3    3    0    0 -0.25524853533E+01 -0.31598438344E+01 -0.22832961995E+01  0.46597463807E+01  0.51100000000E-03 0.  1.
         12    1    3    3    0    0  0.45153605651E+01  0.47972262942E+01  0.14715476558E+01  0.67503565575E+01  0.00000000000E+00 0. -1.
</event>
<event>
 7    1  0.5910662E-013  0.5052885E+02  0.7816164E-02  0.1300439E+00
        -11   -1    0    0    0    0  0.00000000000E+00  0.00000000000E+00  0.45593999997E+02  0.45594000000E+02  0.51100000000E-03 0.  1.
         11   -1    0    0    0    0 -0.00000000000E+00 -0.00000000000E+00 -0.45593999997E+02  0.45594000000E+02  0.51100000000E-03 0. -1.
    9900012    2    1    2    0    0  0.21348120332E+02  0.33736150294E+02  0.77003959926E+01  0.50528853712E+02  0.29999981344E+02 0.  0.
         12    1    1    2    0    0 -0.21348120332E+02 -0.33736150294E+02 -0.77003959926E+01  0.40659146288E+02  0.00000000000E+00 0. -1.
         11    1    3    3    0    0  0.13983288024E+02  0.24876662198E+02  0.16299296941E+01  0.28583864979E+02  0.51100000000E-03 0. -1.
        -11    1    3    3    0    0 -0.17425522247E+01 -0.28896802507E+01  0.62224881064E+01  0.70785661473E+01  0.51100000000E-03 0.  1.
        -12    1    3    3    0    0  0.91073845325E+01  0.11749168347E+02 -0.15202180790E+00  0.14866422586E+02  0.00000000000E+00 0.  1.
</event>
<event>
 7    1  0.5910662E-013  0.5052885E+02  0.7816164E-02  0.1300439E+00
        -11   -1    0    0    0    0  0.00000000000E+00  0.00000000000E+00  0.45593999997E+02  0.45594000000E+02  0.51100000000E-03 0.  1.
         11   -1    0    0    0    0 -0.00000000000E+00 -0.00000000000E+00 -0.45593999997E+02  0.45594000000E+02  0.51100000000E-03 0. -1.
    9900012    2    1    2    0    0  0.28709152852E+02 -0.13959674613E+02  0.25180910074E+02  0.50528853367E+02  0.29999980294E+02 0.  0.
         12    1    1    2    0    0 -0.28709152852E+02  0.13959674613E+02 -0.25180910074E+02  0.40659146633E+02  0.00000000000E+00 0. -1.
         11    1    3    3    0    0 -0.17042763056E+01  0.41988077011E+01  0.71651218916E+01  0.84778249463E+01  0.51100000000E-03 0. -1.
        -11    1    3    3    0    0  0.22004648646E+02 -0.15914887618E+02  0.70603950210E+01  0.28059532926E+02  0.51100000000E-03 0.  1.
        -12    1    3    3    0    0  0.84087805109E+01 -0.22435946965E+01  0.10955393162E+02  0.13991495494E+02  0.00000000000E+00 0.  1.
</event>
<event>
 7    1  0.5910662E-013  0.5052897E+02  0.7816164E-02  0.1300438E+00
        -11   -1    0    0    0    0  0.00000000000E+00  0.00000000000E+00  0.45593999997E+02  0.45594000000E+02  0.51100000000E-03 0. -1.
         11   -1    0    0    0    0 -0.00000000000E+00 -0.00000000000E+00 -0.45593999997E+02  0.45594000000E+02  0.51100000000E-03 0.  1.
    9900012    2    1    2    0    0 -0.20913516458E+02 -0.47901965909E+00 -0.34864763502E+02  0.50528974378E+02  0.30000348117E+02 0.  0.
         12    1    1    2    0    0  0.20913516458E+02  0.47901965909E+00  0.34864763502E+02  0.40659025622E+02  0.00000000000E+00 0. -1.
         11    1    3    3    0    0  0.52818068515E+01 -0.39932898340E+01  0.43141855400E-01  0.66216092301E+01  0.51100000000E-03 0. -1.
        -11    1    3    3    0    0 -0.69016951779E+01  0.21424589247E+01 -0.10883797976E+02  0.13064477993E+02  0.51100000000E-03 0.  1.
         12    1    3    3    0    0 -0.19293628131E+02  0.13718112502E+01 -0.24024107381E+02  0.30842887155E+02  0.00000000000E+00 0. -1.
</event>
<event>
 7    1  0.5910662E-013  0.5052884E+02  0.7816164E-02  0.1300439E+00
        -11   -1    0    0    0    0  0.00000000000E+00  0.00000000000E+00  0.45593999997E+02  0.45594000000E+02  0.51100000000E-03 0. -1.
         11   -1    0    0    0    0 -0.00000000000E+00 -0.00000000000E+00 -0.45593999997E+02  0.45594000000E+02  0.51100000000E-03 0.  1.
    9900012    2    1    2    0    0  0.19083557741E+02 -0.34626112687E+02 -0.94877431829E+01  0.50528842033E+02  0.29999945844E+02 0.  0.
         12    1    1    2    0    0 -0.19083557741E+02  0.34626112687E+02  0.94877431829E+01  0.40659157967E+02  0.00000000000E+00 0. -1.
         11    1    3    3    0    0  0.16413854516E+01 -0.56450477216E+00  0.66543879684E+00  0.18589300396E+01  0.51100000000E-03 0. -1.
        -11    1    3    3    0    0  0.11181965827E+02  0.41969735082E+00 -0.76108597705E+01  0.13532837557E+02  0.51100000000E-03 0.  1.
        -12    1    3    3    0    0  0.62602064619E+01 -0.34481305266E+02 -0.25423222092E+01  0.35137074437E+02  0.00000000000E+00 0.  1.
</event>
<event>
 7    1  0.5910662E-013  0.5052886E+02  0.7816164E-02  0.1300439E+00
        -11   -1    0    0    0    0  0.00000000000E+00  0.00000000000E+00  0.45593999997E+02  0.45594000000E+02  0.51100000000E-03 0.  1.
         11   -1    0    0    0    0 -0.00000000000E+00 -0.00000000000E+00 -0.45593999997E+02  0.45594000000E+02  0.51100000000E-03 0. -1.
    9900012    2    1    2    0    0  0.46643051188E+01  0.33035039717E+02  0.23239959862E+02  0.50528864178E+02  0.30000013156E+02 0.  0.
         12    1    1    2    0    0 -0.46643051188E+01 -0.33035039717E+02 -0.23239959862E+02  0.40659135822E+02  0.00000000000E+00 0. -1.
         11    1    3    3    0    0  0.56266254719E+01  0.27978379478E+01 -0.30137935790E+01  0.69692010575E+01  0.51100000000E-03 0. -1.
        -11    1    3    3    0    0  0.11197093173E+01  0.26844288108E+02  0.13244028205E+02  0.29954529479E+02  0.51100000000E-03 0.  1.
        -12    1    3    3    0    0 -0.20820296704E+01  0.33929136618E+01  0.13009725237E+02  0.13605133642E+02  0.00000000000E+00 0.  1.
</event>
<event>
 7    1  0.5910662E-013  0.5052885E+02  0.7816164E-02  0.1300439E+00
        -11   -1    0    0    0    0  0.00000000000E+00  0.00000000000E+00  0.45593999997E+02  0.45594000000E+02  0.51100000000E-03 0.  1.
         11   -1    0    0    0    0 -0.00000000000E+00 -0.00000000000E+00 -0.45593999997E+02  0.45594000000E+02  0.51100000000E-03 0. -1.
    9900012    2    1    2    0    0 -0.11237533254E+02  0.15148405225E+02  0.36019579694E+02  0.50528850282E+02  0.29999970916E+02 0.  0.
         12    1    1    2    0    0  0.11237533254E+02 -0.15148405225E+02 -0.36019579694E+02  0.40659149718E+02  0.00000000000E+00 0. -1.
         11    1    3    3    0    0  0.63502421672E+01 -0.38682891559E+01  0.56325817680E+01  0.93281945847E+01  0.51100000000E-03 0. -1.
        -11    1    3    3    0    0 -0.71140275704E+01  0.14730597173E+02  0.20017496546E+02  0.25851499949E+02  0.51100000000E-03 0.  1.
        -12    1    3    3    0    0 -0.10473747851E+02  0.42860972071E+01  0.10369501380E+02  0.15349155748E+02  0.00000000000E+00 0.  1.
</event>
<event>
 7    1  0.5910662E-013  0.5052886E+02  0.7816164E-02  0.1300439E+00
        -11   -1    0    0    0    0  0.00000000000E+00  0.00000000000E+00  0.45593999997E+02  0.45594000000E+02  0.51100000000E-03 0. -1.
         11   -1    0    0    0    0 -0.00000000000E+00 -0.00000000000E+00 -0.45593999997E+02  0.45594000000E+02  0.51100000000E-03 0.  1.
    9900012    2    1    2    0    0 -0.39069264168E+02  0.35921598678E+01  0.10670253573E+02  0.50528864170E+02  0.30000013131E+02 0.  0.
         12    1    1    2    0    0  0.39069264168E+02 -0.35921598678E+01 -0.10670253573E+02  0.40659135830E+02  0.00000000000E+00 0. -1.
         11    1    3    3    0    0 -0.31216937426E+02 -0.63393547575E+01  0.84062090586E+01  0.32944634647E+02  0.51100000000E-03 0. -1.
        -11    1    3    3    0    0  0.79522058644E+00  0.15578524902E+01 -0.37428058345E+01  0.41313285924E+01  0.51100000000E-03 0.  1.
         12    1    3    3    0    0 -0.86475473279E+01  0.83736621352E+01  0.60068503487E+01  0.13452900931E+02  0.00000000000E+00 0. -1.
</event>
<event>
 7    1  0.5910662E-013  0.5052884E+02  0.7816164E-02  0.1300439E+00
        -11   -1    0    0    0    0  0.00000000000E+00  0.00000000000E+00  0.45593999997E+02  0.45594000000E+02  0.51100000000E-03 0. -1.
         11   -1    0    0    0    0 -0.00000000000E+00 -0.00000000000E+00 -0.45593999997E+02  0.45594000000E+02  0.51100000000E-03 0.  1.
    9900012    2    1    2    0    0  0.30664811671E+02 -0.16185553150E+02 -0.21233569524E+02  0.50528840142E+02  0.29999940097E+02 0.  0.
         12    1    1    2    0    0 -0.30664811671E+02  0.16185553150E+02  0.21233569524E+02  0.40659159858E+02  0.00000000000E+00 0. -1.
         11    1    3    3    0    0  0.25580349825E+01 -0.61091265459E+01  0.52821052352E+01  0.84714583221E+01  0.51100000000E-03 0. -1.
        -11    1    3    3    0    0  0.23089589468E+02 -0.13206448715E+02 -0.20159733896E+02  0.33375953927E+02  0.51100000000E-03 0.  1.
         12    1    3    3    0    0  0.50171872203E+01  0.31300221113E+01 -0.63559408629E+01  0.86814278937E+01  0.00000000000E+00 0. -1.
</event>
<event>
 7    1  0.5910662E-013  0.5052886E+02  0.7816164E-02  0.1300439E+00
        -11   -1    0    0    0    0  0.00000000000E+00  0.00000000000E+00  0.45593999997E+02  0.45594000000E+02  0.51100000000E-03 0.  1.
         11   -1    0    0    0    0 -0.00000000000E+00 -0.00000000000E+00 -0.45593999997E+02  0.45594000000E+02  0.51100000000E-03 0. -1.
    9900012    2    1    2    0    0 -0.37550843305E+02  0.14466356311E+02  0.58158714139E+01  0.50528860091E+02  0.30000000733E+02 0.  0.
         12    1    1    2    0    0  0.37550843305E+02 -0.14466356311E+02 -0.58158714139E+01  0.40659139909E+02  0.00000000000E+00 0. -1.
         11    1    3    3    0    0 -0.19819456278E+02  0.12280110737E+02 -0.75591814115E+01  0.24510267048E+02  0.51100000000E-03 0. -1.
        -11    1    3    3    0    0 -0.15754992635E+02  0.43437821003E+01  0.15403839137E+02  0.22458105359E+02  0.51100000000E-03 0.  1.
        -12    1    3    3    0    0 -0.19763943916E+01 -0.21575365264E+01 -0.20287863121E+01  0.35604876848E+01  0.00000000000E+00 0.  1.
</event>
<event>
 7    1  0.5910662E-013  0.5052886E+02  0.7816164E-02  0.1300439E+00
        -11   -1    0    0    0    0  0.00000000000E+00  0.00000000000E+00  0.45593999997E+02  0.45594000000E+02  0.51100000000E-03 0. -1.
         11   -1    0    0    0    0 -0.00000000000E+00 -0.00000000000E+00 -0.45593999997E+02  0.45594000000E+02  0.51100000000E-03 0.  1.
    9900012    2    1    2    0    0  0.11862643028E+02  0.29180789285E+02 -0.25708455491E+02  0.50528862692E+02  0.30000008637E+02 0.  0.
         12    1    1    2    0    0 -0.11862643028E+02 -0.29180789285E+02  0.25708455491E+02  0.40659137308E+02  0.00000000000E+00 0. -1.
         11    1    3    3    0    0  0.75244653223E+01  0.12682405872E+02 -0.96896537346E-01  0.14746877170E+02  0.51100000000E-03 0. -1.
        -11    1    3    3    0    0  0.32117701596E+01  0.13903301723E+01 -0.18883760517E+02  0.19205335120E+02  0.51100000000E-03 0.  1.
        -12    1    3    3    0    0  0.11264075458E+01  0.15108053241E+02 -0.67277984367E+01  0.16576650401E+02  0.00000000000E+00 0.  1.
</event>
<event>
 7    1  0.5910662E-013  0.5052885E+02  0.7816164E-02  0.1300439E+00
        -11   -1    0    0    0    0  0.00000000000E+00  0.00000000000E+00  0.45593999997E+02  0.45594000000E+02  0.51100000000E-03 0.  1.
         11   -1    0    0    0    0 -0.00000000000E+00 -0.00000000000E+00 -0.45593999997E+02  0.45594000000E+02  0.51100000000E-03 0. -1.
    9900012    2    1    2    0    0  0.39828672300E+02 -0.79179356461E+01  0.20369896279E+01  0.50528853811E+02  0.29999981645E+02 0.  0.
         12    1    1    2    0    0 -0.39828672300E+02  0.79179356461E+01 -0.20369896279E+01  0.40659146189E+02  0.00000000000E+00 0. -1.
         11    1    3    3    0    0  0.60943469072E+01 -0.67040888878E+01  0.45465841678E+01  0.10136927537E+02  0.51100000000E-03 0. -1.
        -11    1    3    3    0    0  0.26104811355E+02 -0.48644021866E+01 -0.10690069858E+02  0.28625184337E+02  0.51100000000E-03 0.  1.
        -12    1    3    3    0    0  0.76295140374E+01  0.36505554282E+01  0.81804753177E+01  0.11766741937E+02  0.00000000000E+00 0.  1.
</event>
<event>
 7    1  0.5910662E-013  0.5052885E+02  0.7816164E-02  0.1300439E+00
        -11   -1    0    0    0    0  0.00000000000E+00  0.00000000000E+00  0.45593999997E+02  0.45594000000E+02  0.51100000000E-03 0. -1.
         11   -1    0    0    0    0 -0.00000000000E+00 -0.00000000000E+00 -0.45593999997E+02  0.45594000000E+02  0.51100000000E-03 0.  1.
    9900012    2    1    2    0    0  0.20823662349E+02 -0.14081435951E+02 -0.31957072721E+02  0.50528852826E+02  0.29999978649E+02 0.  0.
         12    1    1    2    0    0 -0.20823662349E+02  0.14081435951E+02  0.31957072721E+02  0.40659147174E+02  0.00000000000E+00 0. -1.
         11    1    3    3    0    0  0.88657240160E+00 -0.13657612635E+02 -0.84387970268E+01  0.16078858449E+02  0.51100000000E-03 0. -1.
        -11    1    3    3    0    0  0.88251939198E+01  0.66264265304E+01 -0.15541916258E+02  0.19061603750E+02  0.51100000000E-03 0.  1.
        -12    1    3    3    0    0  0.11111896027E+02 -0.70502498464E+01 -0.79763594360E+01  0.15388390626E+02  0.00000000000E+00 0.  1.
</event>
<event>
 7    1  0.5910662E-013  0.5052886E+02  0.7816164E-02  0.1300439E+00
        -11   -1    0    0    0    0  0.00000000000E+00  0.00000000000E+00  0.45593999997E+02  0.45594000000E+02  0.51100000000E-03 0.  1.
         11   -1    0    0    0    0 -0.00000000000E+00 -0.00000000000E+00 -0.45593999997E+02  0.45594000000E+02  0.51100000000E-03 0. -1.
    9900012    2    1    2    0    0  0.86077104209E+01  0.39470393508E+02 -0.46001079844E+01  0.50528860365E+02  0.30000001567E+02 0.  0.
         12    1    1    2    0    0 -0.86077104209E+01 -0.39470393508E+02  0.46001079844E+01  0.40659139635E+02  0.00000000000E+00 0. -1.
         11    1    3    3    0    0 -0.49528819161E+01  0.19886437755E+02 -0.13050300149E+02  0.24296332647E+02  0.51100000000E-03 0. -1.
        -11    1    3    3    0    0  0.12493829386E+02  0.19989270160E+02  0.74690944628E+01  0.24727597267E+02  0.51100000000E-03 0.  1.
         12    1    3    3    0    0  0.10667629514E+01 -0.40531440716E+00  0.98109770165E+00  0.15049304513E+01  0.00000000000E+00 0. -1.
</event>
<event>
 7    1  0.5910662E-013  0.5052886E+02  0.7816164E-02  0.1300439E+00
        -11   -1    0    0    0    0  0.00000000000E+00  0.00000000000E+00  0.45593999997E+02  0.45594000000E+02  0.51100000000E-03 0.  1.
         11   -1    0    0    0    0 -0.00000000000E+00 -0.00000000000E+00 -0.45593999997E+02  0.45594000000E+02  0.51100000000E-03 0. -1.
    9900012    2    1    2    0    0 -0.24211551636E+01  0.27020096037E+02  0.30285608166E+02  0.50528860263E+02  0.30000001254E+02 0.  0.
         12    1    1    2    0    0  0.24211551636E+01 -0.27020096037E+02 -0.30285608166E+02  0.40659139737E+02  0.00000000000E+00 0. -1.
         11    1    3    3    0    0  0.94514498055E+01  0.17016204755E+02  0.71358834762E+01  0.20731665658E+02  0.51100000000E-03 0. -1.
        -11    1    3    3    0    0 -0.88434950797E+01  0.11760282953E+02  0.15434188461E+02  0.21324301491E+02  0.51100000000E-03 0.  1.
         12    1    3    3    0    0 -0.30291098894E+01 -0.17563916710E+01  0.77155362289E+01  0.84728931142E+01  0.00000000000E+00 0. -1.
</event>
<event>
 7    1  0.5910662E-013  0.5052886E+02  0.7816164E-02  0.1300439E+00
        -11   -1    0    0    0    0  0.00000000000E+00  0.00000000000E+00  0.45593999997E+02  0.45594000000E+02  0.51100000000E-03 0.  1.
         11   -1    0    0    0    0 -0.00000000000E+00 -0.00000000000E+00 -0.45593999997E+02  0.45594000000E+02  0.51100000000E-03 0. -1.
    9900012    2    1    2    0    0 -0.23328466625E+02  0.37003469162E+01  0.33094653127E+02  0.50528856035E+02  0.29999988403E+02 0.  0.
         12    1    1    2    0    0  0.23328466625E+02 -0.37003469162E+01 -0.33094653127E+02  0.40659143965E+02  0.00000000000E+00 0. -1.
         11    1    3    3    0    0  0.27475036045E+01 -0.78808811931E+00 -0.84167414053E+00  0.29796433613E+01  0.51100000000E-03 0. -1.
        -11    1    3    3    0    0 -0.23285166490E+02 -0.44404444399E+01  0.21623243489E+02  0.32085529208E+02  0.51100000000E-03 0.  1.
        -12    1    3    3    0    0 -0.27908037400E+01  0.89288794754E+01  0.12313083778E+02  0.15463683466E+02  0.00000000000E+00 0.  1.
</event>
<event>
 7    1  0.5910662E-013  0.5052885E+02  0.7816164E-02  0.1300439E+00
        -11   -1    0    0    0    0  0.00000000000E+00  0.00000000000E+00  0.45593999997E+02  0.45594000000E+02  0.51100000000E-03 0.  1.
         11   -1    0    0    0    0 -0.00000000000E+00 -0.00000000000E+00 -0.45593999997E+02  0.45594000000E+02  0.51100000000E-03 0. -1.
    9900012    2    1    2    0    0 -0.21723319005E+01  0.26567972169E+02  0.30701627938E+02  0.50528854299E+02  0.29999983129E+02 0.  0.
         12    1    1    2    0    0  0.21723319005E+01 -0.26567972169E+02 -0.30701627938E+02  0.40659145701E+02  0.00000000000E+00 0. -1.
         11    1    3    3    0    0  0.53177629395E+01  0.26566914190E+02  0.23502063604E+02  0.35866788624E+02  0.51100000000E-03 0. -1.
        -11    1    3    3    0    0 -0.36856478718E+01 -0.21000026050E+01  0.90064101138E+01  0.99553721465E+01  0.51100000000E-03 0.  1.
         12    1    3    3    0    0 -0.38044469682E+01  0.21010605830E+01 -0.18068457793E+01  0.47066935292E+01  0.00000000000E+00 0. -1.
</event>
<event>
 7    1  0.5910662E-013  0.5052883E+02  0.7816164E-02  0.1300439E+00
        -11   -1    0    0    0    0  0.00000000000E+00  0.00000000000E+00  0.45593999997E+02  0.45594000000E+02  0.51100000000E-03 0.  1.
         11   -1    0    0    0    0 -0.00000000000E+00 -0.00000000000E+00 -0.45593999997E+02  0.45594000000E+02  0.51100000000E-03 0. -1.
    9900012    2    1    2    0    0  0.12774675159E+02 -0.22572732632E+02  0.31312100685E+02  0.50528828424E+02  0.29999904478E+02 0.  0.
         12    1    1    2    0    0 -0.12774675159E+02  0.22572732632E+02 -0.31312100685E+02  0.40659171576E+02  0.00000000000E+00 0. -1.
         11    1    3    3    0    0  0.40626413415E+01  0.26724817493E+01  0.13061820535E+02  0.13937660109E+02  0.51100000000E-03 0. -1.
        -11    1    3    3    0    0  0.28037337396E+01 -0.16176019224E+02  0.12854410881E+01  0.16467449100E+02  0.51100000000E-03 0.  1.
        -12    1    3    3    0    0  0.59083000782E+01 -0.90691951574E+01  0.16964839062E+02  0.20123719215E+02  0.00000000000E+00 0.  1.
</event>
<event>
 7    1  0.5910662E-013  0.5052886E+02  0.7816164E-02  0.1300439E+00
        -11   -1    0    0    0    0  0.00000000000E+00  0.00000000000E+00  0.45593999997E+02  0.45594000000E+02  0.51100000000E-03 0.  1.
         11   -1    0    0    0    0 -0.00000000000E+00 -0.00000000000E+00 -0.45593999997E+02  0.45594000000E+02  0.51100000000E-03 0. -1.
    9900012    2    1    2    0    0  0.35808132751E+01 -0.14697367857E+01  0.40474477910E+02  0.50528859429E+02  0.29999998719E+02 0.  0.
         12    1    1    2    0    0 -0.35808132751E+01  0.14697367857E+01 -0.40474477910E+02  0.40659140571E+02  0.00000000000E+00 0. -1.
         11    1    3    3    0    0  0.10513846321E+02  0.55212850374E+01  0.28915618028E+02  0.31259214948E+02  0.51100000000E-03 0. -1.
        -11    1    3    3    0    0 -0.78384833206E+01 -0.88637095122E-01  0.34003249166E+01  0.85446993570E+01  0.51100000000E-03 0.  1.
         12    1    3    3    0    0  0.90545027445E+00 -0.69023847280E+01  0.81585349648E+01  0.10724945124E+02  0.00000000000E+00 0. -1.
</event>
<event>
 7    1  0.5910662E-013  0.5052887E+02  0.7816164E-02  0.1300439E+00
        -11   -1    0    0    0    0  0.00000000000E+00  0.00000000000E+00  0.45593999997E+02  0.45594000000E+02  0.51100000000E-03 0.  1.
         11   -1    0    0    0    0 -0.00000000000E+00 -0.00000000000E+00 -0.45593999997E+02  0.45594000000E+02  0.51100000000E-03 0. -1.
    9900012    2    1    2    0    0  0.66166304454E+01 -0.28013909031E+02  0.28715959853E+02  0.50528865135E+02  0.30000016066E+02 0.  0.
         12    1    1    2    0    0 -0.66166304454E+01  0.28013909031E+02 -0.28715959853E+02  0.40659134865E+02  0.00000000000E+00 0. -1.
         11    1    3    3    0    0 -0.57776257744E+01 -0.64901044256E+00 -0.22447226716E+01  0.62322511404E+01  0.51100000000E-03 0. -1.
        -11    1    3    3    0    0  0.90579424335E+01 -0.26803945686E+02  0.27437789527E+02  0.39412309243E+02  0.51100000000E-03 0.  1.
        -12    1    3    3    0    0  0.33363137863E+01 -0.56095290244E+00  0.35228929977E+01  0.48843047522E+01  0.00000000000E+00 0.  1.
</event>
<event>
 7    1  0.5910662E-013  0.5052886E+02  0.7816164E-02  0.1300439E+00
        -11   -1    0    0    0    0  0.00000000000E+00  0.00000000000E+00  0.45593999997E+02  0.45594000000E+02  0.51100000000E-03 0. -1.
         11   -1    0    0    0    0 -0.00000000000E+00 -0.00000000000E+00 -0.45593999997E+02  0.45594000000E+02  0.51100000000E-03 0.  1.
    9900012    2    1    2    0    0  0.36286358984E+02 -0.10620651717E+02 -0.14955521125E+02  0.50528859536E+02  0.29999999045E+02 0.  0.
         12    1    1    2    0    0 -0.36286358984E+02  0.10620651717E+02  0.14955521125E+02  0.40659140464E+02  0.00000000000E+00 0. -1.
         11    1    3    3    0    0  0.26603719897E+02 -0.86984399559E+01 -0.90220609320E+01  0.29407794098E+02  0.51100000000E-03 0. -1.
        -11    1    3    3    0    0  0.14817756715E+02 -0.92984035680E-01 -0.44421929786E+01  0.15469571385E+02  0.51100000000E-03 0.  1.
         12    1    3    3    0    0 -0.51351176282E+01 -0.18292277250E+01 -0.14912672143E+01  0.56514940529E+01  0.00000000000E+00 0. -1.
</event>
<event>
 7    1  0.5910662E-013  0.5052886E+02  0.7816164E-02  0.1300439E+00
        -11   -1    0    0    0    0  0.00000000000E+00  0.00000000000E+00  0.45593999997E+02  0.45594000000E+02  0.51100000000E-03 0. -1.
         11   -1    0    0    0    0 -0.00000000000E+00 -0.00000000000E+00 -0.45593999997E+02  0.45594000000E+02  0.51100000000E-03 0.  1.
    9900012    2    1    2    0    0  0.64930216988E+01  0.10126061233E+02 -0.38839014936E+02  0.50528861691E+02  0.30000005595E+02 0.  0.
         12    1    1    2    0    0 -0.64930216988E+01 -0.10126061233E+02  0.38839014936E+02  0.40659138309E+02  0.00000000000E+00 0. -1.
         11    1    3    3    0    0  0.22587641325E+01  0.10802271216E+02 -0.35100193164E+02  0.36794220188E+02  0.51100000000E-03 0.  1.
        -11    1    3    3    0    0  0.34658408665E+01 -0.48016324122E+01  0.23237606998E+01  0.63614142126E+01  0.51100000000E-03 0. -1.
         12    1    3    3    0    0  0.76841669986E+00  0.41254224289E+01 -0.60625824718E+01  0.73732272900E+01  0.00000000000E+00 0. -1.
</event>
<event>
 7    1  0.5910662E-013  0.5052885E+02  0.7816164E-02  0.1300439E+00
        -11   -1    0    0    0    0  0.00000000000E+00  0.00000000000E+00  0.45593999997E+02  0.45594000000E+02  0.51100000000E-03 0.  1.
         11   -1    0    0    0    0 -0.00000000000E+00 -0.00000000000E+00 -0.45593999997E+02  0.45594000000E+02  0.51100000000E-03 0. -1.
    9900012    2    1    2    0    0 -0.39011042903E+01  0.56705375279E+01  0.40072350030E+02  0.50528845466E+02  0.29999956277E+02 0.  0.
         12    1    1    2    0    0  0.39011042903E+01 -0.56705375279E+01 -0.40072350030E+02  0.40659154534E+02  0.00000000000E+00 0. -1.
         11    1    3    3    0    0  0.11880597837E+02  0.16818138664E+01  0.19964539345E+02  0.23292915970E+02  0.51100000000E-03 0. -1.
        -11    1    3    3    0    0 -0.92969393961E+01  0.63169132165E+01  0.10269887305E+02  0.15225211336E+02  0.51100000000E-03 0.  1.
        -12    1    3    3    0    0 -0.64847627313E+01 -0.23281895550E+01  0.98379233800E+01  0.12010718160E+02  0.00000000000E+00 0.  1.
</event>
<event>
 7    1  0.5910662E-013  0.5052886E+02  0.7816164E-02  0.1300439E+00
        -11   -1    0    0    0    0  0.00000000000E+00  0.00000000000E+00  0.45593999997E+02  0.45594000000E+02  0.51100000000E-03 0.  1.
         11   -1    0    0    0    0 -0.00000000000E+00 -0.00000000000E+00 -0.45593999997E+02  0.45594000000E+02  0.51100000000E-03 0. -1.
    9900012    2    1    2    0    0 -0.17547001026E+02  0.21595647234E+02  0.29646184140E+02  0.50528862546E+02  0.30000008194E+02 0.  0.
         12    1    1    2    0    0  0.17547001026E+02 -0.21595647234E+02 -0.29646184140E+02  0.40659137454E+02  0.00000000000E+00 0. -1.
         11    1    3    3    0    0 -0.12675630253E+02  0.14827832028E+02  0.28805352870E+01  0.19718866315E+02  0.51100000000E-03 0. -1.
        -11    1    3    3    0    0 -0.30557477642E+00 -0.37320670847E+01  0.54243326572E+01  0.65912886225E+01  0.51100000000E-03 0.  1.
         12    1    3    3    0    0 -0.45657959960E+01  0.10499882291E+02  0.21341316196E+02  0.24218707608E+02  0.00000000000E+00 0. -1.
</event>
<event>
 7    1  0.5910662E-013  0.5052885E+02  0.7816164E-02  0.1300439E+00
        -11   -1    0    0    0    0  0.00000000000E+00  0.00000000000E+00  0.45593999997E+02  0.45594000000E+02  0.51100000000E-03 0. -1.
         11   -1    0    0    0    0 -0.00000000000E+00 -0.00000000000E+00 -0.45593999997E+02  0.45594000000E+02  0.51100000000E-03 0.  1.
    9900012    2    1    2    0    0 -0.11956713889E+02 -0.37022727422E+02  0.11811902947E+02  0.50528850918E+02  0.29999972851E+02 0.  0.
         12    1    1    2    0    0  0.11956713889E+02  0.37022727422E+02 -0.11811902947E+02  0.40659149082E+02  0.00000000000E+00 0. -1.
         11    1    3    3    0    0  0.63915873994E+00 -0.64901799233E+00  0.20816961318E+01  0.22722691952E+01  0.51100000000E-03 0. -1.
        -11    1    3    3    0    0  0.55305139696E+01 -0.24179975955E+02  0.90373992156E+01  0.26399477396E+02  0.51100000000E-03 0.  1.
        -12    1    3    3    0    0 -0.18126386599E+02 -0.12193733475E+02  0.69280759968E+00  0.21857104327E+02  0.00000000000E+00 0.  1.
</event>
<event>
 7    1  0.5910662E-013  0.5052886E+02  0.7816164E-02  0.1300439E+00
        -11   -1    0    0    0    0  0.00000000000E+00  0.00000000000E+00  0.45593999997E+02  0.45594000000E+02  0.51100000000E-03 0.  1.
         11   -1    0    0    0    0 -0.00000000000E+00 -0.00000000000E+00 -0.45593999997E+02  0.45594000000E+02  0.51100000000E-03 0. -1.
    9900012    2    1    2    0    0 -0.34526716228E+02 -0.26449427344E+01  0.21309057220E+02  0.50528858652E+02  0.29999996358E+02 0.  0.
         12    1    1    2    0    0  0.34526716228E+02  0.26449427344E+01 -0.21309057220E+02  0.40659141348E+02  0.00000000000E+00 0. -1.
         11    1    3    3    0    0 -0.47746272417E+01  0.28287009099E+01 -0.35280699549E+01  0.65761608863E+01  0.51100000000E-03 0. -1.
        -11    1    3    3    0    0 -0.27366323768E+02 -0.50850351815E+01  0.28322813972E+02  0.39710893354E+02  0.51100000000E-03 0.  1.
        -12    1    3    3    0    0 -0.23857652186E+01 -0.38860846282E+00 -0.34856867978E+01  0.42418044118E+01  0.00000000000E+00 0.  1.
</event>
<event>
 7    1  0.5910662E-013  0.5052887E+02  0.7816164E-02  0.1300439E+00
        -11   -1    0    0    0    0  0.00000000000E+00  0.00000000000E+00  0.45593999997E+02  0.45594000000E+02  0.51100000000E-03 0.  1.
         11   -1    0    0    0    0 -0.00000000000E+00 -0.00000000000E+00 -0.45593999997E+02  0.45594000000E+02  0.51100000000E-03 0. -1.
    9900012    2    1    2    0    0  0.12223543606E+02  0.57866625491E+01  0.38344031651E+02  0.50528865171E+02  0.30000016174E+02 0.  0.
         12    1    1    2    0    0 -0.12223543606E+02 -0.57866625491E+01 -0.38344031651E+02  0.40659134829E+02  0.00000000000E+00 0. -1.
         11    1    3    3    0    0 -0.61848488292E+01  0.38460260968E+01  0.21324880347E+01  0.75889246443E+01  0.51100000000E-03 0. -1.
        -11    1    3    3    0    0  0.18318476887E+02 -0.26238935312E+01  0.28634827232E+02  0.34094057307E+02  0.51100000000E-03 0.  1.
        -12    1    3    3    0    0  0.89915548142E-01  0.45645299835E+01  0.75767163843E+01  0.88458832201E+01  0.00000000000E+00 0.  1.
</event>
<event>
 7    1  0.5910662E-013  0.5052885E+02  0.7816164E-02  0.1300439E+00
        -11   -1    0    0    0    0  0.00000000000E+00  0.00000000000E+00  0.45593999997E+02  0.45594000000E+02  0.51100000000E-03 0. -1.
         11   -1    0    0    0    0 -0.00000000000E+00 -0.00000000000E+00 -0.45593999997E+02  0.45594000000E+02  0.51100000000E-03 0.  1.
    9900012    2    1    2    0    0  0.12737140081E+02  0.27937162412E+02 -0.26654205058E+02  0.50528850620E+02  0.29999971944E+02 0.  0.
         12    1    1    2    0    0 -0.12737140081E+02 -0.27937162412E+02  0.26654205058E+02  0.40659149380E+02  0.00000000000E+00 0. -1.
         11    1    3    3    0    0 -0.31144729488E+01 -0.23382725684E+01 -0.70520348536E+01  0.80559702203E+01  0.51100000000E-03 0. -1.
        -11    1    3    3    0    0  0.16128501351E+02  0.31153013217E+02 -0.15646547110E+02  0.38411628774E+02  0.51100000000E-03 0.  1.
        -12    1    3    3    0    0 -0.27688832139E+00 -0.87757823690E+00 -0.39556230941E+01  0.40612516257E+01  0.00000000000E+00 0.  1.
</event>
<event>
 7    1  0.5910662E-013  0.5052886E+02  0.7816164E-02  0.1300439E+00
        -11   -1    0    0    0    0  0.00000000000E+00  0.00000000000E+00  0.45593999997E+02  0.45594000000E+02  0.51100000000E-03 0.  1.
         11   -1    0    0    0    0 -0.00000000000E+00 -0.00000000000E+00 -0.45593999997E+02  0.45594000000E+02  0.51100000000E-03 0. -1.
    9900012    2    1    2    0    0  0.30831440663E+02  0.15241516908E+02  0.21686039326E+02  0.50528857453E+02  0.29999992713E+02 0.  0.
         12    1    1    2    0    0 -0.30831440663E+02 -0.15241516908E+02 -0.21686039326E+02  0.40659142547E+02  0.00000000000E+00 0. -1.
         11    1    3    3    0    0 -0.79722976009E+00  0.11481033608E+01 -0.31944676265E+01  0.34868811702E+01  0.51100000000E-03 0. -1.
        -11    1    3    3    0    0  0.32381508255E+02  0.77889936312E+01  0.18770634721E+02  0.38230448948E+02  0.51100000000E-03 0.  1.
         12    1    3    3    0    0 -0.75283783189E+00  0.63044199161E+01  0.61098722314E+01  0.88115273343E+01  0.00000000000E+00 0. -1.
</event>
<event>
 7    1  0.5910662E-013  0.5052886E+02  0.7816164E-02  0.1300439E+00
        -11   -1    0    0    0    0  0.00000000000E+00  0.00000000000E+00  0.45593999997E+02  0.45594000000E+02  0.51100000000E-03 0. -1.
         11   -1    0    0    0    0 -0.00000000000E+00 -0.00000000000E+00 -0.45593999997E+02  0.45594000000E+02  0.51100000000E-03 0.  1.
    9900012    2    1    2    0    0 -0.22864250607E+02  0.27820668523E+02  0.18878616573E+02  0.50528859372E+02  0.29999998548E+02 0.  0.
         12    1    1    2    0    0  0.22864250607E+02 -0.27820668523E+02 -0.18878616573E+02  0.40659140628E+02  0.00000000000E+00 0. -1.
         11    1    3    3    0    0 -0.15952699340E+02  0.48857377909E+00  0.95217464003E+01  0.18584697344E+02  0.51100000000E-03 0. -1.
        -11    1    3    3    0    0 -0.97278892809E+01  0.19667992017E+02  0.43596265524E+01  0.22371143998E+02  0.51100000000E-03 0.  1.
         12    1    3    3    0    0  0.28163380144E+01  0.76641027274E+01  0.49972436199E+01  0.95730180311E+01  0.00000000000E+00 0. -1.
</event>
<event>
 7    1  0.5910662E-013  0.5052886E+02  0.7816164E-02  0.1300439E+00
        -11   -1    0    0    0    0  0.00000000000E+00  0.00000000000E+00  0.45593999997E+02  0.45594000000E+02  0.51100000000E-03 0.  1.
         11   -1    0    0    0    0 -0.00000000000E+00 -0.00000000000E+00 -0.45593999997E+02  0.45594000000E+02  0.51100000000E-03 0. -1.
    9900012    2    1    2    0    0  0.76052746835E+01  0.36101062848E+02  0.17089130028E+02  0.50528864411E+02  0.30000013863E+02 0.  0.
         12    1    1    2    0    0 -0.76052746835E+01 -0.36101062848E+02 -0.17089130028E+02  0.40659135589E+02  0.00000000000E+00 0. -1.
         11    1    3    3    0    0 -0.26758199345E+01  0.20133650979E+02  0.16461541662E+01  0.20377284850E+02  0.51100000000E-03 0. -1.
        -11    1    3    3    0    0  0.75337188480E+01  0.84889365948E+01  0.18428662137E+02  0.21643348923E+02  0.51100000000E-03 0.  1.
        -12    1    3    3    0    0  0.27473757699E+01  0.74784752740E+01 -0.29856862752E+01  0.85082306374E+01  0.00000000000E+00 0.  1.
</event>
<event>
 7    1  0.5910662E-013  0.5052889E+02  0.7816164E-02  0.1300439E+00
        -11   -1    0    0    0    0  0.00000000000E+00  0.00000000000E+00  0.45593999997E+02  0.45594000000E+02  0.51100000000E-03 0.  1.
         11   -1    0    0    0    0 -0.00000000000E+00 -0.00000000000E+00 -0.45593999997E+02  0.45594000000E+02  0.51100000000E-03 0. -1.
    9900012    2    1    2    0    0 -0.19025593763E+02 -0.35298056472E+02  0.67258426196E+01  0.50528893177E+02  0.30000101301E+02 0.  0.
         12    1    1    2    0    0  0.19025593763E+02  0.35298056472E+02 -0.67258426196E+01  0.40659106823E+02  0.00000000000E+00 0. -1.
         11    1    3    3    0    0 -0.40074479623E+01  0.16740005375E+01 -0.45236227947E+01  0.62709712501E+01  0.51100000000E-03 0. -1.
        -11    1    3    3    0    0 -0.45275692832E+01 -0.24957457828E+02  0.12464033655E+02  0.28261735970E+02  0.51100000000E-03 0.  1.
        -12    1    3    3    0    0 -0.10490576517E+02 -0.12014599181E+02 -0.12145682405E+01  0.15996185957E+02  0.00000000000E+00 0.  1.
</event>
<event>
 7    1  0.5910662E-013  0.5052885E+02  0.7816164E-02  0.1300439E+00
        -11   -1    0    0    0    0  0.00000000000E+00  0.00000000000E+00  0.45593999997E+02  0.45594000000E+02  0.51100000000E-03 0.  1.
         11   -1    0    0    0    0 -0.00000000000E+00 -0.00000000000E+00 -0.45593999997E+02  0.45594000000E+02  0.51100000000E-03 0. -1.
    9900012    2    1    2    0    0 -0.85282538688E+00  0.27841703435E+02  0.29618891252E+02  0.50528849980E+02  0.29999970000E+02 0.  0.
         12    1    1    2    0    0  0.85282538688E+00 -0.27841703435E+02 -0.29618891252E+02  0.40659150020E+02  0.00000000000E+00 0. -1.
         11    1    3    3    0    0 -0.34097762833E+00  0.18125629190E+02  0.18079581080E+01  0.18218765382E+02  0.51100000000E-03 0. -1.
        -11    1    3    3    0    0  0.58539189146E+01  0.16084750382E+01  0.89223627450E+01  0.10791854142E+02  0.51100000000E-03 0.  1.
         12    1    3    3    0    0 -0.63657666732E+01  0.81075992072E+01  0.18888570399E+02  0.21518230456E+02  0.00000000000E+00 0. -1.
</event>
<event>
 7    1  0.5910662E-013  0.5052886E+02  0.7816164E-02  0.1300439E+00
        -11   -1    0    0    0    0  0.00000000000E+00  0.00000000000E+00  0.45593999997E+02  0.45594000000E+02  0.51100000000E-03 0. -1.
         11   -1    0    0    0    0 -0.00000000000E+00 -0.00000000000E+00 -0.45593999997E+02  0.45594000000E+02  0.51100000000E-03 0.  1.
    9900012    2    1    2    0    0 -0.10663111922E+02 -0.44374681505E+01 -0.38984264075E+02  0.50528856811E+02  0.29999990762E+02 0.  0.
         12    1    1    2    0    0  0.10663111922E+02  0.44374681505E+01  0.38984264075E+02  0.40659143189E+02  0.00000000000E+00 0. -1.
         11    1    3    3    0    0  0.32549308098E+01 -0.10102972418E+02 -0.40906429442E+01  0.11375323565E+02  0.51100000000E-03 0. -1.
        -11    1    3    3    0    0 -0.13359638386E+02  0.71012571043E+01 -0.25628228780E+02  0.29760945902E+02  0.51100000000E-03 0.  1.
         12    1    3    3    0    0 -0.55840434528E+00 -0.14357528371E+01 -0.92653923500E+01  0.93925873443E+01  0.00000000000E+00 0. -1.
</event>
<event>
 7    1  0.5910662E-013  0.5052886E+02  0.7816164E-02  0.1300439E+00
        -11   -1    0    0    0    0  0.00000000000E+00  0.00000000000E+00  0.45593999997E+02  0.45594000000E+02  0.51100000000E-03 0. -1.
         11   -1    0    0    0    0 -0.00000000000E+00 -0.00000000000E+00 -0.45593999997E+02  0.45594000000E+02  0.51100000000E-03 0.  1.
    9900012    2    1    2    0    0  0.68294286261E+01 -0.39997205099E+02 -0.25976992260E+01  0.50528861392E+02  0.30000004686E+02 0.  0.
         12    1    1    2    0    0 -0.68294286261E+01  0.39997205099E+02  0.25976992260E+01  0.40659138608E+02  0.00000000000E+00 0. -1.
         11    1    3    3    0    0 -0.11524833153E+01  0.59854006856E+00  0.26208545044E+01  0.29249524099E+01  0.51100000000E-03 0. -1.
        -11    1    3    3    0    0  0.15585282862E+02 -0.28875727790E+02 -0.69058210676E+01  0.33532060214E+02  0.51100000000E-03 0.  1.
        -12    1    3    3    0    0 -0.76033709205E+01 -0.11720017377E+02  0.16872673372E+01  0.14071848768E+02  0.00000000000E+00 0.  1.
</event>
<event>
 7    1  0.5910662E-013  0.5052885E+02  0.7816164E-02  0.1300439E+00
        -11   -1    0    0    0    0  0.00000000000E+00  0.00000000000E+00  0.45593999997E+02  0.45594000000E+02  0.51100000000E-03 0. -1.
         11   -1    0    0    0    0 -0.00000000000E+00 -0.00000000000E+00 -0.45593999997E+02  0.45594000000E+02  0.51100000000E-03 0.  1.
    9900012    2    1    2    0    0 -0.47836338567E+01 -0.29557733534E+02 -0.27506794468E+02  0.50528849660E+02  0.29999969025E+02 0.  0.
         12    1    1    2    0    0  0.47836338567E+01  0.29557733534E+02  0.27506794468E+02  0.40659150340E+02  0.00000000000E+00 0. -1.
         11    1    3    3    0    0 -0.64715761570E+01 -0.22500667720E+01  0.39906407348E+01  0.79290170998E+01  0.51100000000E-03 0. -1.
        -11    1    3    3    0    0  0.27457436074E+01 -0.22727886997E+02 -0.20865509357E+02  0.30975239083E+02  0.51100000000E-03 0.  1.
        -12    1    3    3    0    0 -0.10578013072E+01 -0.45797797648E+01 -0.10631925846E+02  0.11624593476E+02  0.00000000000E+00 0.  1.
</event>
<event>
 7    1  0.5910662E-013  0.5052889E+02  0.7816164E-02  0.1300439E+00
        -11   -1    0    0    0    0  0.00000000000E+00  0.00000000000E+00  0.45593999997E+02  0.45594000000E+02  0.51100000000E-03 0.  1.
         11   -1    0    0    0    0 -0.00000000000E+00 -0.00000000000E+00 -0.45593999997E+02  0.45594000000E+02  0.51100000000E-03 0. -1.
    9900012    2    1    2    0    0 -0.20754906062E+01 -0.23693713666E+02  0.32976712254E+02  0.50528889340E+02  0.30000089639E+02 0.  0.
         12    1    1    2    0    0  0.20754906062E+01  0.23693713666E+02 -0.32976712254E+02  0.40659110660E+02  0.00000000000E+00 0. -1.
         11    1    3    3    0    0 -0.96327089636E+01 -0.14500895868E+02  0.10521338362E+02  0.20341180500E+02  0.51100000000E-03 0.  1.
        -11    1    3    3    0    0 -0.60659332639E+00  0.42863329916E+01  0.60544627982E+01  0.74429245606E+01  0.51100000000E-03 0. -1.
         12    1    3    3    0    0  0.81638116838E+01 -0.13479150790E+02  0.16400911094E+02  0.22744784280E+02  0.00000000000E+00 0. -1.
</event>
<event>
 7    1  0.5910662E-013  0.5052886E+02  0.7816164E-02  0.1300439E+00
        -11   -1    0    0    0    0  0.00000000000E+00  0.00000000000E+00  0.45593999997E+02  0.45594000000E+02  0.51100000000E-03 0.  1.
         11   -1    0    0    0    0 -0.00000000000E+00 -0.00000000000E+00 -0.45593999997E+02  0.45594000000E+02  0.51100000000E-03 0. -1.
    9900012    2    1    2    0    0  0.41023661349E+01  0.40004479420E+02 -0.59981508794E+01  0.50528860861E+02  0.30000003073E+02 0.  0.
         12    1    1    2    0    0 -0.41023661349E+01 -0.40004479420E+02  0.59981508794E+01  0.40659139139E+02  0.00000000000E+00 0. -1.
         11    1    3    3    0    0 -0.99029413401E+01  0.12065947064E+02  0.57707614844E+01  0.16642025541E+02  0.51100000000E-03 0. -1.
        -11    1    3    3    0    0  0.78871153002E+01  0.16382097925E+02 -0.38026609813E+01  0.18575251035E+02  0.51100000000E-03 0.  1.
         12    1    3    3    0    0  0.61181921748E+01  0.11556434431E+02 -0.79662513825E+01  0.15311584285E+02  0.00000000000E+00 0. -1.
</event>
<event>
 7    1  0.5910662E-013  0.5052886E+02  0.7816164E-02  0.1300439E+00
        -11   -1    0    0    0    0  0.00000000000E+00  0.00000000000E+00  0.45593999997E+02  0.45594000000E+02  0.51100000000E-03 0.  1.
         11   -1    0    0    0    0 -0.00000000000E+00 -0.00000000000E+00 -0.45593999997E+02  0.45594000000E+02  0.51100000000E-03 0. -1.
    9900012    2    1    2    0    0 -0.35361274171E+02  0.66869913898E+01  0.18921688065E+02  0.50528857804E+02  0.29999993782E+02 0.  0.
         12    1    1    2    0    0  0.35361274171E+02 -0.66869913898E+01 -0.18921688065E+02  0.40659142196E+02  0.00000000000E+00 0. -1.
         11    1    3    3    0    0 -0.32656857068E+02  0.48197926382E+01  0.18325382779E+02  0.37756064002E+02  0.51100000000E-03 0. -1.
        -11    1    3    3    0    0  0.22055910081E+01  0.15647214203E+01  0.53104578961E+01  0.59593580313E+01  0.51100000000E-03 0.  1.
         12    1    3    3    0    0 -0.49100081108E+01  0.30247733133E+00 -0.47141526095E+01  0.68134357713E+01  0.00000000000E+00 0. -1.
</event>
<event>
 7    1  0.5910662E-013  0.5052884E+02  0.7816164E-02  0.1300439E+00
        -11   -1    0    0    0    0  0.00000000000E+00  0.00000000000E+00  0.45593999997E+02  0.45594000000E+02  0.51100000000E-03 0.  1.
         11   -1    0    0    0    0 -0.00000000000E+00 -0.00000000000E+00 -0.45593999997E+02  0.45594000000E+02  0.51100000000E-03 0. -1.
    9900012    2    1    2    0    0 -0.29884719217E+02  0.19681001603E+02  0.19306190497E+02  0.50528840413E+02  0.29999940920E+02 0.  0.
         12    1    1    2    0    0  0.29884719217E+02 -0.19681001603E+02 -0.19306190497E+02  0.40659159587E+02  0.00000000000E+00 0. -1.
         11    1    3    3    0    0 -0.65122337377E+01 -0.51670199482E+01  0.51843641696E+01  0.97971891634E+01  0.51100000000E-03 0. -1.
        -11    1    3    3    0    0 -0.23945367955E+02  0.25792344408E+02  0.10178299256E+02  0.36636367895E+02  0.51100000000E-03 0.  1.
         12    1    3    3    0    0  0.57288247548E+00 -0.94432285662E+00  0.39435270716E+01  0.40952833544E+01  0.00000000000E+00 0. -1.
</event>
<event>
 7    1  0.5910662E-013  0.5052887E+02  0.7816164E-02  0.1300439E+00
        -11   -1    0    0    0    0  0.00000000000E+00  0.00000000000E+00  0.45593999997E+02  0.45594000000E+02  0.51100000000E-03 0. -1.
         11   -1    0    0    0    0 -0.00000000000E+00 -0.00000000000E+00 -0.45593999997E+02  0.45594000000E+02  0.51100000000E-03 0.  1.
    9900012    2    1    2    0    0 -0.67865571990E+01  0.22035474345E+02 -0.33489486951E+02  0.50528865424E+02  0.30000016944E+02 0.  0.
         12    1    1    2    0    0  0.67865571990E+01 -0.22035474345E+02  0.33489486951E+02  0.40659134576E+02  0.00000000000E+00 0. -1.
         11    1    3    3    0    0 -0.25838027021E+01  0.11226260342E+02  0.27283212450E+01  0.11838441399E+02  0.51100000000E-03 0. -1.
        -11    1    3    3    0    0  0.55302130877E+00  0.79826399276E+01 -0.23376339752E+02  0.24707926527E+02  0.51100000000E-03 0.  1.
         12    1    3    3    0    0 -0.47557758056E+01  0.28265740748E+01 -0.12841468443E+02  0.13982497499E+02  0.00000000000E+00 0. -1.
</event>
<event>
 7    1  0.5910662E-013  0.5052886E+02  0.7816164E-02  0.1300439E+00
        -11   -1    0    0    0    0  0.00000000000E+00  0.00000000000E+00  0.45593999997E+02  0.45594000000E+02  0.51100000000E-03 0.  1.
         11   -1    0    0    0    0 -0.00000000000E+00 -0.00000000000E+00 -0.45593999997E+02  0.45594000000E+02  0.51100000000E-03 0. -1.
    9900012    2    1    2    0    0  0.13310107920E+02  0.35276393773E+02  0.15217833363E+02  0.50528863478E+02  0.30000011027E+02 0.  0.
         12    1    1    2    0    0 -0.13310107920E+02 -0.35276393773E+02 -0.15217833363E+02  0.40659136522E+02  0.00000000000E+00 0. -1.
         11    1    3    3    0    0  0.12828152021E+02  0.20739409000E+01 -0.18288277657E+00  0.12996005598E+02  0.51100000000E-03 0. -1.
        -11    1    3    3    0    0  0.32861859489E+00  0.24071265954E+02  0.15055837402E+02  0.28393873898E+02  0.51100000000E-03 0.  1.
        -12    1    3    3    0    0  0.15333730419E+00  0.91311869183E+01  0.34487873781E+00  0.91389839812E+01  0.00000000000E+00 0.  1.
</event>
<event>
 7    1  0.5910662E-013  0.5052888E+02  0.7816164E-02  0.1300439E+00
        -11   -1    0    0    0    0  0.00000000000E+00  0.00000000000E+00  0.45593999997E+02  0.45594000000E+02  0.51100000000E-03 0.  1.
         11   -1    0    0    0    0 -0.00000000000E+00 -0.00000000000E+00 -0.45593999997E+02  0.45594000000E+02  0.51100000000E-03 0. -1.
    9900012    2    1    2    0    0 -0.11405859047E+02  0.84847659982E+01  0.38093038043E+02  0.50528875292E+02  0.30000046939E+02 0.  0.
         12    1    1    2    0    0  0.11405859047E+02 -0.84847659982E+01 -0.38093038043E+02  0.40659124708E+02  0.00000000000E+00 0. -1.
         11    1    3    3    0    0 -0.15463615354E+02  0.85188108518E+01  0.99354864912E+01  0.20258515005E+02  0.51100000000E-03 0. -1.
        -11    1    3    3    0    0 -0.15256369184E+01  0.21060168590E+01  0.19932918285E+02  0.20101843364E+02  0.51100000000E-03 0.  1.
         12    1    3    3    0    0  0.55833932252E+01 -0.21400617126E+01  0.82246332666E+01  0.10168516923E+02  0.00000000000E+00 0. -1.
</event>
<event>
 7    1  0.5910662E-013  0.5052887E+02  0.7816164E-02  0.1300439E+00
        -11   -1    0    0    0    0  0.00000000000E+00  0.00000000000E+00  0.45593999997E+02  0.45594000000E+02  0.51100000000E-03 0.  1.
         11   -1    0    0    0    0 -0.00000000000E+00 -0.00000000000E+00 -0.45593999997E+02  0.45594000000E+02  0.51100000000E-03 0. -1.
    9900012    2    1    2    0    0 -0.11996931601E+02  0.13413803983E+02 -0.36459683519E+02  0.50528867847E+02  0.30000024309E+02 0.  0.
         12    1    1    2    0    0  0.11996931601E+02 -0.13413803983E+02  0.36459683519E+02  0.40659132153E+02  0.00000000000E+00 0. -1.
         11    1    3    3    0    0 -0.76837056120E+01  0.18885634297E+02 -0.34111088822E+02  0.39740066628E+02  0.51100000000E-03 0. -1.
        -11    1    3    3    0    0 -0.40176934444E+01 -0.11748849376E+01  0.20253562589E+01  0.46501917666E+01  0.51100000000E-03 0.  1.
         12    1    3    3    0    0 -0.29553254446E+00 -0.42969453761E+01 -0.43739509553E+01  0.61386094524E+01  0.00000000000E+00 0. -1.
</event>
<event>
 7    1  0.5910662E-013  0.5052886E+02  0.7816164E-02  0.1300439E+00
        -11   -1    0    0    0    0  0.00000000000E+00  0.00000000000E+00  0.45593999997E+02  0.45594000000E+02  0.51100000000E-03 0.  1.
         11   -1    0    0    0    0 -0.00000000000E+00 -0.00000000000E+00 -0.45593999997E+02  0.45594000000E+02  0.51100000000E-03 0. -1.
    9900012    2    1    2    0    0  0.43334848553E+01  0.34373607834E+02  0.21280074271E+02  0.50528861205E+02  0.30000004120E+02 0.  0.
         12    1    1    2    0    0 -0.43334848553E+01 -0.34373607834E+02 -0.21280074271E+02  0.40659138795E+02  0.00000000000E+00 0. -1.
         11    1    3    3    0    0 -0.13160438431E+01 -0.36691165066E+01  0.50545084563E+01  0.63829807560E+01  0.51100000000E-03 0. -1.
        -11    1    3    3    0    0 -0.47231544034E+01  0.16216516645E+02  0.66800267081E+01  0.18163324495E+02  0.51100000000E-03 0.  1.
         12    1    3    3    0    0  0.10372683102E+02  0.21826207696E+02  0.95455391069E+01  0.25982555955E+02  0.00000000000E+00 0. -1.
</event>
<event>
 7    1  0.5910662E-013  0.5052888E+02  0.7816164E-02  0.1300439E+00
        -11   -1    0    0    0    0  0.00000000000E+00  0.00000000000E+00  0.45593999997E+02  0.45594000000E+02  0.51100000000E-03 0. -1.
         11   -1    0    0    0    0 -0.00000000000E+00 -0.00000000000E+00 -0.45593999997E+02  0.45594000000E+02  0.51100000000E-03 0.  1.
    9900012    2    1    2    0    0 -0.28062796049E+02 -0.67080191299E+01 -0.28646913489E+02  0.50528884230E+02  0.30000074106E+02 0.  0.
         12    1    1    2    0    0  0.28062796049E+02  0.67080191299E+01  0.28646913489E+02  0.40659115770E+02  0.00000000000E+00 0. -1.
         11    1    3    3    0    0 -0.39402256113E+01  0.82182752941E+01 -0.36407904599E+01  0.98143151626E+01  0.51100000000E-03 0. -1.
        -11    1    3    3    0    0 -0.21404978865E+02 -0.13445247954E+02 -0.27036984006E+02  0.37012785861E+02  0.51100000000E-03 0.  1.
         12    1    3    3    0    0 -0.27175915727E+01 -0.14810464702E+01  0.20308609770E+01  0.37017832069E+01  0.00000000000E+00 0. -1.
</event>
<event>
 7    1  0.5910662E-013  0.5052887E+02  0.7816164E-02  0.1300439E+00
        -11   -1    0    0    0    0  0.00000000000E+00  0.00000000000E+00  0.45593999997E+02  0.45594000000E+02  0.51100000000E-03 0.  1.
         11   -1    0    0    0    0 -0.00000000000E+00 -0.00000000000E+00 -0.45593999997E+02  0.45594000000E+02  0.51100000000E-03 0. -1.
    9900012    2    1    2    0    0  0.22052406002E+02 -0.17341081844E+02  0.29430304002E+02  0.50528874042E+02  0.30000043138E+02 0.  0.
         12    1    1    2    0    0 -0.22052406002E+02  0.17341081844E+02 -0.29430304002E+02  0.40659125958E+02  0.00000000000E+00 0. -1.
         11    1    3    3    0    0 -0.93430281214E+00 -0.13951336441E+02  0.14388332954E+02  0.20063320655E+02  0.51100000000E-03 0. -1.
        -11    1    3    3    0    0  0.22900432027E+02  0.81186812497E-01  0.12024279609E+02  0.25865414721E+02  0.51100000000E-03 0.  1.
        -12    1    3    3    0    0  0.86276787518E-01 -0.34709322158E+01  0.30176914393E+01  0.46001386668E+01  0.00000000000E+00 0.  1.
</event>
<event>
 7    1  0.5910662E-013  0.5052886E+02  0.7816164E-02  0.1300439E+00
        -11   -1    0    0    0    0  0.00000000000E+00  0.00000000000E+00  0.45593999997E+02  0.45594000000E+02  0.51100000000E-03 0.  1.
         11   -1    0    0    0    0 -0.00000000000E+00 -0.00000000000E+00 -0.45593999997E+02  0.45594000000E+02  0.51100000000E-03 0. -1.
    9900012    2    1    2    0    0  0.25952704216E+02 -0.10073930937E+02  0.29633402289E+02  0.50528862382E+02  0.30000007696E+02 0.  0.
         12    1    1    2    0    0 -0.25952704216E+02  0.10073930937E+02 -0.29633402289E+02  0.40659137618E+02  0.00000000000E+00 0. -1.
         11    1    3    3    0    0 -0.64127350656E+01 -0.24167810507E+01  0.40677342583E+01  0.79693452633E+01  0.51100000000E-03 0. -1.
        -11    1    3    3    0    0  0.27342488139E+02 -0.37941198155E+01  0.19586669012E+02  0.33847372218E+02  0.51100000000E-03 0.  1.
         12    1    3    3    0    0  0.50229511420E+01 -0.38630300707E+01  0.59789990190E+01  0.87121449007E+01  0.00000000000E+00 0. -1.
</event>
<event>
 7    1  0.5910662E-013  0.5052886E+02  0.7816164E-02  0.1300439E+00
        -11   -1    0    0    0    0  0.00000000000E+00  0.00000000000E+00  0.45593999997E+02  0.45594000000E+02  0.51100000000E-03 0.  1.
         11   -1    0    0    0    0 -0.00000000000E+00 -0.00000000000E+00 -0.45593999997E+02  0.45594000000E+02  0.51100000000E-03 0. -1.
    9900012    2    1    2    0    0  0.28332699839E+02  0.36903413047E+01  0.28927581359E+02  0.50528862498E+02  0.30000008050E+02 0.  0.
         12    1    1    2    0    0 -0.28332699839E+02 -0.36903413047E+01 -0.28927581359E+02  0.40659137502E+02  0.00000000000E+00 0. -1.
         11    1    3    3    0    0  0.73972580421E+00  0.31647304826E+00  0.20850700266E+02  0.20866217944E+02  0.51100000000E-03 0. -1.
        -11    1    3    3    0    0  0.27938405598E+02  0.34249214212E+01  0.77764782672E+01  0.29202024050E+02  0.51100000000E-03 0.  1.
        -12    1    3    3    0    0 -0.34543156385E+00 -0.51053164726E-01  0.30040282655E+00  0.46062050447E+00  0.00000000000E+00 0.  1.
</event>
<event>
 7    1  0.5910662E-013  0.5052885E+02  0.7816164E-02  0.1300439E+00
        -11   -1    0    0    0    0  0.00000000000E+00  0.00000000000E+00  0.45593999997E+02  0.45594000000E+02  0.51100000000E-03 0.  1.
         11   -1    0    0    0    0 -0.00000000000E+00 -0.00000000000E+00 -0.45593999997E+02  0.45594000000E+02  0.51100000000E-03 0. -1.
    9900012    2    1    2    0    0 -0.71374799712E+01  0.38402373194E+02  0.11290717217E+02  0.50528853642E+02  0.29999981130E+02 0.  0.
         12    1    1    2    0    0  0.71374799712E+01 -0.38402373194E+02 -0.11290717217E+02  0.40659146358E+02  0.00000000000E+00 0. -1.
         11    1    3    3    0    0 -0.21884710044E+01 -0.17011388903E+01  0.21554640874E+01  0.35113109453E+01  0.51100000000E-03 0. -1.
        -11    1    3    3    0    0  0.54429928741E+01  0.32944720321E+02  0.80758350173E+01  0.34354037317E+02  0.51100000000E-03 0.  1.
        -12    1    3    3    0    0 -0.10392001841E+02  0.71587917632E+01  0.10594181123E+01  0.12663505380E+02  0.00000000000E+00 0.  1.
</event>
<event>
 7    1  0.5910662E-013  0.5052885E+02  0.7816164E-02  0.1300439E+00
        -11   -1    0    0    0    0  0.00000000000E+00  0.00000000000E+00  0.45593999997E+02  0.45594000000E+02  0.51100000000E-03 0.  1.
         11   -1    0    0    0    0 -0.00000000000E+00 -0.00000000000E+00 -0.45593999997E+02  0.45594000000E+02  0.51100000000E-03 0. -1.
    9900012    2    1    2    0    0  0.28760209207E+02 -0.28307998874E+02 -0.49672614431E+01  0.50528854409E+02  0.29999983462E+02 0.  0.
         12    1    1    2    0    0 -0.28760209207E+02  0.28307998874E+02  0.49672614431E+01  0.40659145591E+02  0.00000000000E+00 0. -1.
         11    1    3    3    0    0  0.89094453997E+01 -0.16472792270E+02  0.39246663480E+01  0.19134631136E+02  0.51100000000E-03 0.  1.
        -11    1    3    3    0    0  0.63463835135E+01  0.20448970041E+01 -0.99751122028E+01  0.11998377023E+02  0.51100000000E-03 0. -1.
         12    1    3    3    0    0  0.13504380294E+02 -0.13880103608E+02  0.10831844117E+01  0.19395846250E+02  0.00000000000E+00 0. -1.
</event>
<event>
 7    1  0.5910662E-013  0.5052884E+02  0.7816164E-02  0.1300439E+00
        -11   -1    0    0    0    0  0.00000000000E+00  0.00000000000E+00  0.45593999997E+02  0.45594000000E+02  0.51100000000E-03 0.  1.
         11   -1    0    0    0    0 -0.00000000000E+00 -0.00000000000E+00 -0.45593999997E+02  0.45594000000E+02  0.51100000000E-03 0. -1.
    9900012    2    1    2    0    0  0.27067392368E+02  0.30173283161E+02  0.31775505611E+01  0.50528836533E+02  0.29999929124E+02 0.  0.
         12    1    1    2    0    0 -0.27067392368E+02 -0.30173283161E+02 -0.31775505611E+01  0.40659163467E+02  0.00000000000E+00 0. -1.
         11    1    3    3    0    0  0.20425600342E+02  0.18050009634E+02 -0.34760380008E+01  0.27478916237E+02  0.51100000000E-03 0. -1.
        -11    1    3    3    0    0 -0.58610964116E+01  0.29514334902E+01  0.20195736884E+01  0.68660096808E+01  0.51100000000E-03 0.  1.
         12    1    3    3    0    0  0.12502888438E+02  0.91718400363E+01  0.46340148735E+01  0.16183910615E+02  0.00000000000E+00 0. -1.
</event>
<event>
 7    1  0.5910662E-013  0.5052885E+02  0.7816164E-02  0.1300439E+00
        -11   -1    0    0    0    0  0.00000000000E+00  0.00000000000E+00  0.45593999997E+02  0.45594000000E+02  0.51100000000E-03 0.  1.
         11   -1    0    0    0    0 -0.00000000000E+00 -0.00000000000E+00 -0.45593999997E+02  0.45594000000E+02  0.51100000000E-03 0. -1.
    9900012    2    1    2    0    0 -0.39596736740E+02 -0.82173145446E+01 -0.42119894082E+01  0.50528847604E+02  0.29999962778E+02 0.  0.
         12    1    1    2    0    0  0.39596736740E+02  0.82173145446E+01  0.42119894082E+01  0.40659152396E+02  0.00000000000E+00 0. -1.
         11    1    3    3    0    0 -0.27963060712E+02 -0.15254322062E+02 -0.86081909345E+01  0.32995879400E+02  0.51100000000E-03 0. -1.
        -11    1    3    3    0    0 -0.20121467751E+01 -0.47931714191E+00  0.48942909917E+01  0.53134324255E+01  0.51100000000E-03 0.  1.
         12    1    3    3    0    0 -0.96215292527E+01  0.75163246591E+01 -0.49808946549E+00  0.12219535779E+02  0.00000000000E+00 0. -1.
</event>
<event>
 7    1  0.5910662E-013  0.5052888E+02  0.7816164E-02  0.1300439E+00
        -11   -1    0    0    0    0  0.00000000000E+00  0.00000000000E+00  0.45593999997E+02  0.45594000000E+02  0.51100000000E-03 0.  1.
         11   -1    0    0    0    0 -0.00000000000E+00 -0.00000000000E+00 -0.45593999997E+02  0.45594000000E+02  0.51100000000E-03 0. -1.
    9900012    2    1    2    0    0  0.16036456155E+02  0.77258532472E+01  0.36555539111E+02  0.50528878341E+02  0.30000056204E+02 0.  0.
         12    1    1    2    0    0 -0.16036456155E+02 -0.77258532472E+01 -0.36555539111E+02  0.40659121659E+02  0.00000000000E+00 0. -1.
         11    1    3    3    0    0  0.21916496681E+02  0.84858446799E+01  0.36635867932E+02  0.43526189887E+02  0.51100000000E-03 0. -1.
        -11    1    3    3    0    0 -0.54919610735E+01 -0.95734060471E+00  0.11547514637E+01  0.56931176582E+01  0.51100000000E-03 0.  1.
         12    1    3    3    0    0 -0.38807945276E+00  0.19734917206E+00 -0.12350802849E+01  0.13095707952E+01  0.00000000000E+00 0. -1.
</event>
<event>
 7    1  0.5910662E-013  0.5052886E+02  0.7816164E-02  0.1300439E+00
        -11   -1    0    0    0    0  0.00000000000E+00  0.00000000000E+00  0.45593999997E+02  0.45594000000E+02  0.51100000000E-03 0.  1.
         11   -1    0    0    0    0 -0.00000000000E+00 -0.00000000000E+00 -0.45593999997E+02  0.45594000000E+02  0.51100000000E-03 0. -1.
    9900012    2    1    2    0    0 -0.26050800246E+02 -0.16395990658E+02  0.26564884971E+02  0.50528858142E+02  0.29999994808E+02 0.  0.
         12    1    1    2    0    0  0.26050800246E+02  0.16395990658E+02 -0.26564884971E+02  0.40659141858E+02  0.00000000000E+00 0. -1.
         11    1    3    3    0    0 -0.23419329545E+00  0.56136533337E+01  0.94477966640E+01  0.10992215987E+02  0.51100000000E-03 0. -1.
        -11    1    3    3    0    0 -0.53092109563E+01 -0.11033066728E+02  0.75573998629E+01  0.14388557098E+02  0.51100000000E-03 0.  1.
         12    1    3    3    0    0 -0.20507395994E+02 -0.10976577263E+02  0.95596884445E+01  0.25148085057E+02  0.00000000000E+00 0. -1.
</event>
<event>
 7    1  0.5910662E-013  0.5052886E+02  0.7816164E-02  0.1300439E+00
        -11   -1    0    0    0    0  0.00000000000E+00  0.00000000000E+00  0.45593999997E+02  0.45594000000E+02  0.51100000000E-03 0.  1.
         11   -1    0    0    0    0 -0.00000000000E+00 -0.00000000000E+00 -0.45593999997E+02  0.45594000000E+02  0.51100000000E-03 0. -1.
    9900012    2    1    2    0    0 -0.25661316899E+02 -0.14126877964E+02  0.28197410194E+02  0.50528858252E+02  0.29999995143E+02 0.  0.
         12    1    1    2    0    0  0.25661316899E+02  0.14126877964E+02 -0.28197410194E+02  0.40659141748E+02  0.00000000000E+00 0. -1.
         11    1    3    3    0    0 -0.15632524893E+02  0.86648407963E+00  0.24224161333E+01  0.15842813177E+02  0.51100000000E-03 0. -1.
        -11    1    3    3    0    0 -0.12543948289E+02 -0.12669276067E+02  0.14743021062E+02  0.23134776096E+02  0.51100000000E-03 0.  1.
        -12    1    3    3    0    0  0.25151562828E+01 -0.23240859761E+01  0.11031972999E+02  0.11551268978E+02  0.00000000000E+00 0.  1.
</event>
<event>
 7    1  0.5910662E-013  0.5052885E+02  0.7816164E-02  0.1300439E+00
        -11   -1    0    0    0    0  0.00000000000E+00  0.00000000000E+00  0.45593999997E+02  0.45594000000E+02  0.51100000000E-03 0.  1.
         11   -1    0    0    0    0 -0.00000000000E+00 -0.00000000000E+00 -0.45593999997E+02  0.45594000000E+02  0.51100000000E-03 0. -1.
    9900012    2    1    2    0    0 -0.20672692400E+02 -0.31562025397E+02  0.15154033205E+02  0.50528851206E+02  0.29999973727E+02 0.  0.
         12    1    1    2    0    0  0.20672692400E+02  0.31562025397E+02 -0.15154033205E+02  0.40659148794E+02  0.00000000000E+00 0. -1.
         11    1    3    3    0    0 -0.52579231186E+01 -0.28759670892E+02  0.13573495296E+02  0.32233588074E+02  0.51100000000E-03 0. -1.
        -11    1    3    3    0    0 -0.85764882495E+01 -0.60552364025E+01 -0.26142463622E+00  0.10501922761E+02  0.51100000000E-03 0.  1.
         12    1    3    3    0    0 -0.68382810323E+01  0.32528818974E+01  0.18419625459E+01  0.77933403709E+01  0.00000000000E+00 0. -1.
</event>
<event>
 7    1  0.5910662E-013  0.5052888E+02  0.7816164E-02  0.1300439E+00
        -11   -1    0    0    0    0  0.00000000000E+00  0.00000000000E+00  0.45593999997E+02  0.45594000000E+02  0.51100000000E-03 0.  1.
         11   -1    0    0    0    0 -0.00000000000E+00 -0.00000000000E+00 -0.45593999997E+02  0.45594000000E+02  0.51100000000E-03 0. -1.
    9900012    2    1    2    0    0 -0.25751966423E+02  0.30528777127E+02  0.76153715796E+01  0.50528881812E+02  0.30000066755E+02 0.  0.
         12    1    1    2    0    0  0.25751966423E+02 -0.30528777127E+02 -0.76153715796E+01  0.40659118188E+02  0.00000000000E+00 0. -1.
         11    1    3    3    0    0 -0.60769123985E+01 -0.37247690913E+01 -0.33923844423E+01  0.78937343221E+01  0.51100000000E-03 0. -1.
        -11    1    3    3    0    0 -0.14097149766E+02  0.16769593480E+02  0.14813342794E+01  0.21957760553E+02  0.51100000000E-03 0.  1.
         12    1    3    3    0    0 -0.55779042589E+01  0.17483952739E+02  0.95264217425E+01  0.20677386936E+02  0.00000000000E+00 0. -1.
</event>
<event>
 7    1  0.5910662E-013  0.5052885E+02  0.7816164E-02  0.1300439E+00
        -11   -1    0    0    0    0  0.00000000000E+00  0.00000000000E+00  0.45593999997E+02  0.45594000000E+02  0.51100000000E-03 0.  1.
         11   -1    0    0    0    0 -0.00000000000E+00 -0.00000000000E+00 -0.45593999997E+02  0.45594000000E+02  0.51100000000E-03 0. -1.
    9900012    2    1    2    0    0  0.23422633975E+02  0.33037723157E+02  0.36132949777E+01  0.50528845627E+02  0.29999956769E+02 0.  0.
         12    1    1    2    0    0 -0.23422633975E+02 -0.33037723157E+02 -0.36132949777E+01  0.40659154373E+02  0.00000000000E+00 0. -1.
         11    1    3    3    0    0  0.19347165091E+02  0.13479573641E+02  0.61928329429E+00  0.23588031174E+02  0.51100000000E-03 0. -1.
        -11    1    3    3    0    0  0.71518732148E+01  0.17293208347E+02  0.82430505127E+01  0.20448770805E+02  0.51100000000E-03 0.  1.
         12    1    3    3    0    0 -0.30764043311E+01  0.22649411690E+01 -0.52490388293E+01  0.64920436489E+01  0.00000000000E+00 0. -1.
</event>
<event>
 7    1  0.5910662E-013  0.5052884E+02  0.7816164E-02  0.1300439E+00
        -11   -1    0    0    0    0  0.00000000000E+00  0.00000000000E+00  0.45593999997E+02  0.45594000000E+02  0.51100000000E-03 0. -1.
         11   -1    0    0    0    0 -0.00000000000E+00 -0.00000000000E+00 -0.45593999997E+02  0.45594000000E+02  0.51100000000E-03 0.  1.
    9900012    2    1    2    0    0 -0.14397112022E+02  0.37852249809E+02  0.36190867587E+01  0.50528838189E+02  0.29999934160E+02 0.  0.
         12    1    1    2    0    0  0.14397112022E+02 -0.37852249809E+02 -0.36190867587E+01  0.40659161811E+02  0.00000000000E+00 0. -1.
         11    1    3    3    0    0 -0.32912755940E+00 -0.19312910659E+01 -0.19788047556E+01  0.27845787210E+01  0.51100000000E-03 0. -1.
        -11    1    3    3    0    0 -0.18693558270E+02  0.21771272972E+02  0.50700587868E+01  0.29140057378E+02  0.51100000000E-03 0.  1.
        -12    1    3    3    0    0  0.46255738069E+01  0.18012267902E+02  0.52783272751E+00  0.18604202090E+02  0.00000000000E+00 0.  1.
</event>
<event>
 7    1  0.5910662E-013  0.5052886E+02  0.7816164E-02  0.1300439E+00
        -11   -1    0    0    0    0  0.00000000000E+00  0.00000000000E+00  0.45593999997E+02  0.45594000000E+02  0.51100000000E-03 0.  1.
         11   -1    0    0    0    0 -0.00000000000E+00 -0.00000000000E+00 -0.45593999997E+02  0.45594000000E+02  0.51100000000E-03 0. -1.
    9900012    2    1    2    0    0  0.36608353781E+02 -0.10233537266E+02  0.14431522820E+02  0.50528859546E+02  0.29999999078E+02 0.  0.
         12    1    1    2    0    0 -0.36608353781E+02  0.10233537266E+02 -0.14431522820E+02  0.40659140454E+02  0.00000000000E+00 0. -1.
         11    1    3    3    0    0  0.13597716705E+01  0.19088914950E+01 -0.59794931030E+01  0.64223970420E+01  0.51100000000E-03 0. -1.
        -11    1    3    3    0    0  0.20112682941E+02 -0.11497185073E+02  0.79583256101E+01  0.24495718533E+02  0.51100000000E-03 0.  1.
        -12    1    3    3    0    0  0.15135899169E+02 -0.64524368822E+00  0.12452690313E+02  0.19610743971E+02  0.00000000000E+00 0.  1.
</event>
<event>
 7    1  0.5910662E-013  0.5052885E+02  0.7816164E-02  0.1300439E+00
        -11   -1    0    0    0    0  0.00000000000E+00  0.00000000000E+00  0.45593999997E+02  0.45594000000E+02  0.51100000000E-03 0. -1.
         11   -1    0    0    0    0 -0.00000000000E+00 -0.00000000000E+00 -0.45593999997E+02  0.45594000000E+02  0.51100000000E-03 0.  1.
    9900012    2    1    2    0    0 -0.22926123338E+02 -0.32619374806E+02 -0.79709062936E+01  0.50528854766E+02  0.29999984546E+02 0.  0.
         12    1    1    2    0    0  0.22926123338E+02  0.32619374806E+02  0.79709062936E+01  0.40659145234E+02  0.00000000000E+00 0. -1.
         11    1    3    3    0    0 -0.18716385780E+02 -0.34014954002E+01  0.65571428689E-01  0.19023079864E+02  0.51100000000E-03 0. -1.
        -11    1    3    3    0    0 -0.36482690213E+01 -0.29342750829E+02 -0.71038773028E+01  0.30410063566E+02  0.51100000000E-03 0.  1.
        -12    1    3    3    0    0 -0.56146853705E+00  0.12487142340E+00 -0.93260041946E+00  0.10957113365E+01  0.00000000000E+00 0.  1.
</event>
<event>
 7    1  0.5910662E-013  0.5052890E+02  0.7816164E-02  0.1300439E+00
        -11   -1    0    0    0    0  0.00000000000E+00  0.00000000000E+00  0.45593999997E+02  0.45594000000E+02  0.51100000000E-03 0.  1.
         11   -1    0    0    0    0 -0.00000000000E+00 -0.00000000000E+00 -0.45593999997E+02  0.45594000000E+02  0.51100000000E-03 0. -1.
    9900012    2    1    2    0    0  0.14592216016E+02  0.21086912818E+02  0.31552683877E+02  0.50528898678E+02  0.30000118023E+02 0.  0.
         12    1    1    2    0    0 -0.14592216016E+02 -0.21086912818E+02 -0.31552683877E+02  0.40659101322E+02  0.00000000000E+00 0. -1.
         11    1    3    3    0    0  0.90781799174E+00  0.20488661811E+02  0.20308624625E+02  0.28862599168E+02  0.51100000000E-03 0. -1.
        -11    1    3    3    0    0  0.42201781744E+01 -0.56720064316E+01  0.54093996449E+01  0.89018630389E+01  0.51100000000E-03 0.  1.
        -12    1    3    3    0    0  0.94642198497E+01  0.62702574385E+01  0.58346596069E+01  0.12764436472E+02  0.00000000000E+00 0.  1.
</event>
<event>
 7    1  0.5910662E-013  0.5052886E+02  0.7816164E-02  0.1300439E+00
        -11   -1    0    0    0    0  0.00000000000E+00  0.00000000000E+00  0.45593999997E+02  0.45594000000E+02  0.51100000000E-03 0.  1.
         11   -1    0    0    0    0 -0.00000000000E+00 -0.00000000000E+00 -0.45593999997E+02  0.45594000000E+02  0.51100000000E-03 0. -1.
    9900012    2    1    2    0    0  0.67513802600E+01 -0.36429822195E+02 -0.16746728592E+02  0.50528855898E+02  0.29999987989E+02 0.  0.
         12    1    1    2    0    0 -0.67513802600E+01  0.36429822195E+02  0.16746728592E+02  0.40659144102E+02  0.00000000000E+00 0. -1.
         11    1    3    3    0    0  0.13962328891E+02 -0.69198895592E+01 -0.49425390718E+01  0.16348094455E+02  0.51100000000E-03 0. -1.
        -11    1    3    3    0    0 -0.56531937345E+01 -0.62612800145E+01 -0.99295392217E+00  0.84940087458E+01  0.51100000000E-03 0.  1.
         12    1    3    3    0    0 -0.15577548964E+01 -0.23248652621E+02 -0.10811235598E+02  0.25686752698E+02  0.00000000000E+00 0. -1.
</event>
<event>
 7    1  0.5910662E-013  0.5052887E+02  0.7816164E-02  0.1300439E+00
        -11   -1    0    0    0    0  0.00000000000E+00  0.00000000000E+00  0.45593999997E+02  0.45594000000E+02  0.51100000000E-03 0.  1.
         11   -1    0    0    0    0 -0.00000000000E+00 -0.00000000000E+00 -0.45593999997E+02  0.45594000000E+02  0.51100000000E-03 0. -1.
    9900012    2    1    2    0    0 -0.71679713121E+00  0.38811962442E+02  0.12094725963E+02  0.50528872822E+02  0.30000039430E+02 0.  0.
         12    1    1    2    0    0  0.71679713121E+00 -0.38811962442E+02 -0.12094725963E+02  0.40659127178E+02  0.00000000000E+00 0. -1.
         11    1    3    3    0    0 -0.74280495886E+01 -0.36289512670E+00 -0.55654956419E+00  0.74577048240E+01  0.51100000000E-03 0. -1.
        -11    1    3    3    0    0  0.57068076314E+01  0.27691418698E+02  0.37788699033E+01  0.28524764344E+02  0.51100000000E-03 0.  1.
         12    1    3    3    0    0  0.10044448260E+01  0.11483438871E+02  0.88724056244E+01  0.14546403654E+02  0.00000000000E+00 0. -1.
</event>
<event>
 7    1  0.5910662E-013  0.5052886E+02  0.7816164E-02  0.1300439E+00
        -11   -1    0    0    0    0  0.00000000000E+00  0.00000000000E+00  0.45593999997E+02  0.45594000000E+02  0.51100000000E-03 0.  1.
         11   -1    0    0    0    0 -0.00000000000E+00 -0.00000000000E+00 -0.45593999997E+02  0.45594000000E+02  0.51100000000E-03 0. -1.
    9900012    2    1    2    0    0  0.13522505091E+02 -0.14959900831E+01  0.38315394436E+02  0.50528861039E+02  0.30000003615E+02 0.  0.
         12    1    1    2    0    0 -0.13522505091E+02  0.14959900831E+01 -0.38315394436E+02  0.40659138961E+02  0.00000000000E+00 0. -1.
         11    1    3    3    0    0 -0.47402655405E+01  0.64606151543E+01  0.17528289145E+02  0.19273053369E+02  0.51100000000E-03 0. -1.
        -11    1    3    3    0    0  0.16345543736E+02 -0.33074487879E+01  0.20197122164E+02  0.26192360746E+02  0.51100000000E-03 0.  1.
         12    1    3    3    0    0  0.19172268956E+01 -0.46491564494E+01  0.58998312737E+00  0.50634469239E+01  0.00000000000E+00 0. -1.
</event>
<event>
 7    1  0.5910662E-013  0.5052886E+02  0.7816164E-02  0.1300439E+00
        -11   -1    0    0    0    0  0.00000000000E+00  0.00000000000E+00  0.45593999997E+02  0.45594000000E+02  0.51100000000E-03 0. -1.
         11   -1    0    0    0    0 -0.00000000000E+00 -0.00000000000E+00 -0.45593999997E+02  0.45594000000E+02  0.51100000000E-03 0.  1.
    9900012    2    1    2    0    0  0.44286133467E+00  0.32860618315E+02 -0.23940530292E+02  0.50528863845E+02  0.30000012144E+02 0.  0.
         12    1    1    2    0    0 -0.44286133467E+00 -0.32860618315E+02  0.23940530292E+02  0.40659136155E+02  0.00000000000E+00 0. -1.
         11    1    3    3    0    0 -0.25336974616E+01  0.20562807282E+02 -0.59727945396E+01  0.21562071817E+02  0.51100000000E-03 0. -1.
        -11    1    3    3    0    0 -0.51107037869E+01  0.73275712130E+01 -0.17275889218E+02  0.19449137297E+02  0.51100000000E-03 0.  1.
         12    1    3    3    0    0  0.80872625831E+01  0.49702398200E+01 -0.69184653420E+00  0.95176547313E+01  0.00000000000E+00 0. -1.
</event>
<event>
 7    1  0.5910662E-013  0.5052887E+02  0.7816164E-02  0.1300439E+00
        -11   -1    0    0    0    0  0.00000000000E+00  0.00000000000E+00  0.45593999997E+02  0.45594000000E+02  0.51100000000E-03 0.  1.
         11   -1    0    0    0    0 -0.00000000000E+00 -0.00000000000E+00 -0.45593999997E+02  0.45594000000E+02  0.51100000000E-03 0. -1.
    9900012    2    1    2    0    0 -0.37589392890E+02 -0.77260405265E+00  0.15479199481E+02  0.50528868289E+02  0.30000025652E+02 0.  0.
         12    1    1    2    0    0  0.37589392890E+02  0.77260405265E+00 -0.15479199481E+02  0.40659131711E+02  0.00000000000E+00 0. -1.
         11    1    3    3    0    0 -0.80101647113E+01 -0.31012724185E+01 -0.39144966071E+01  0.94394869174E+01  0.51100000000E-03 0. -1.
        -11    1    3    3    0    0 -0.15560712872E+02  0.39715853659E+01  0.21481901647E+02  0.26821285839E+02  0.51100000000E-03 0.  1.
        -12    1    3    3    0    0 -0.14018515307E+02 -0.16429170000E+01 -0.20882055588E+01  0.14268095533E+02  0.00000000000E+00 0.  1.
</event>
<event>
 7    1  0.5910662E-013  0.5052886E+02  0.7816164E-02  0.1300439E+00
        -11   -1    0    0    0    0  0.00000000000E+00  0.00000000000E+00  0.45593999997E+02  0.45594000000E+02  0.51100000000E-03 0.  1.
         11   -1    0    0    0    0 -0.00000000000E+00 -0.00000000000E+00 -0.45593999997E+02  0.45594000000E+02  0.51100000000E-03 0. -1.
    9900012    2    1    2    0    0 -0.22718759094E+02 -0.45639131082E+01  0.33409490391E+02  0.50528863685E+02  0.30000011658E+02 0.  0.
         12    1    1    2    0    0  0.22718759094E+02  0.45639131082E+01 -0.33409490391E+02  0.40659136315E+02  0.00000000000E+00 0. -1.
         11    1    3    3    0    0 -0.39755113584E+01 -0.44210928674E+01  0.38164540476E+01  0.70651308878E+01  0.51100000000E-03 0. -1.
        -11    1    3    3    0    0 -0.53694051840E+01  0.12236036353E+02  0.98824560122E+01  0.16619688166E+02  0.51100000000E-03 0.  1.
        -12    1    3    3    0    0 -0.13373842552E+02 -0.12378856593E+02  0.19710580332E+02  0.26844044631E+02  0.00000000000E+00 0.  1.
</event>
<event>
 7    1  0.5910662E-013  0.5052883E+02  0.7816164E-02  0.1300439E+00
        -11   -1    0    0    0    0  0.00000000000E+00  0.00000000000E+00  0.45593999997E+02  0.45594000000E+02  0.51100000000E-03 0. -1.
         11   -1    0    0    0    0 -0.00000000000E+00 -0.00000000000E+00 -0.45593999997E+02  0.45594000000E+02  0.51100000000E-03 0.  1.
    9900012    2    1    2    0    0 -0.38254957776E+02 -0.79154762804E+01  0.11272618510E+02  0.50528825301E+02  0.29999894984E+02 0.  0.
         12    1    1    2    0    0  0.38254957776E+02  0.79154762804E+01 -0.11272618510E+02  0.40659174699E+02  0.00000000000E+00 0. -1.
         11    1    3    3    0    0 -0.76797781162E+01 -0.11621720288E+02  0.67340946164E+01  0.15472278595E+02  0.51100000000E-03 0. -1.
        -11    1    3    3    0    0 -0.21256412078E+02 -0.18509307577E+01 -0.34086626321E+01  0.21607405682E+02  0.51100000000E-03 0.  1.
         12    1    3    3    0    0 -0.93187675810E+01  0.55571747651E+01  0.79471865254E+01  0.13449141023E+02  0.00000000000E+00 0. -1.
</event>
<event>
 7    1  0.5910662E-013  0.5052886E+02  0.7816164E-02  0.1300439E+00
        -11   -1    0    0    0    0  0.00000000000E+00  0.00000000000E+00  0.45593999997E+02  0.45594000000E+02  0.51100000000E-03 0.  1.
         11   -1    0    0    0    0 -0.00000000000E+00 -0.00000000000E+00 -0.45593999997E+02  0.45594000000E+02  0.51100000000E-03 0. -1.
    9900012    2    1    2    0    0  0.21985777605E+02 -0.27895959870E+02  0.19789058337E+02  0.50528858053E+02  0.29999994539E+02 0.  0.
         12    1    1    2    0    0 -0.21985777605E+02  0.27895959870E+02 -0.19789058337E+02  0.40659141947E+02  0.00000000000E+00 0. -1.
         11    1    3    3    0    0  0.57931763030E+01 -0.18468268840E+02  0.66833654874E+01  0.20476943623E+02  0.51100000000E-03 0. -1.
        -11    1    3    3    0    0  0.17912841771E+02 -0.81799024842E+01  0.16737367742E+02  0.25844151837E+02  0.51100000000E-03 0.  1.
        -12    1    3    3    0    0 -0.17202404689E+01 -0.12477885459E+01 -0.36316748925E+01  0.42077625944E+01  0.00000000000E+00 0.  1.
</event>
<event>
 7    1  0.5910662E-013  0.5052881E+02  0.7816164E-02  0.1300439E+00
        -11   -1    0    0    0    0  0.00000000000E+00  0.00000000000E+00  0.45593999997E+02  0.45594000000E+02  0.51100000000E-03 0. -1.
         11   -1    0    0    0    0 -0.00000000000E+00 -0.00000000000E+00 -0.45593999997E+02  0.45594000000E+02  0.51100000000E-03 0.  1.
    9900012    2    1    2    0    0 -0.15287172326E+02 -0.22817536633E+02 -0.29980527887E+02  0.50528810779E+02  0.29999850844E+02 0.  0.
         12    1    1    2    0    0  0.15287172326E+02  0.22817536633E+02  0.29980527887E+02  0.40659189221E+02  0.00000000000E+00 0. -1.
         11    1    3    3    0    0  0.34771645750E+01 -0.47327292775E+01 -0.59809928073E+00  0.59031451707E+01  0.51100000000E-03 0.  1.
        -11    1    3    3    0    0 -0.19260885694E+02 -0.77520269272E+01 -0.10910951086E+02  0.23454732850E+02  0.51100000000E-03 0. -1.
        -12    1    3    3    0    0  0.49654879327E+00 -0.10332780429E+02 -0.18471477520E+02  0.21170932758E+02  0.00000000000E+00 0.  1.
</event>
<event>
 7    1  0.5910662E-013  0.5052886E+02  0.7816164E-02  0.1300439E+00
        -11   -1    0    0    0    0  0.00000000000E+00  0.00000000000E+00  0.45593999997E+02  0.45594000000E+02  0.51100000000E-03 0.  1.
         11   -1    0    0    0    0 -0.00000000000E+00 -0.00000000000E+00 -0.45593999997E+02  0.45594000000E+02  0.51100000000E-03 0. -1.
    9900012    2    1    2    0    0  0.38229519270E+02  0.53657101675E+01  0.12762384454E+02  0.50528862697E+02  0.30000008655E+02 0.  0.
         12    1    1    2    0    0 -0.38229519270E+02 -0.53657101675E+01 -0.12762384454E+02  0.40659137303E+02  0.00000000000E+00 0. -1.
         11    1    3    3    0    0  0.22437624021E+02 -0.34536932494E+01  0.26678720870E+01  0.22858095076E+02  0.51100000000E-03 0. -1.
        -11    1    3    3    0    0  0.73547742337E+01  0.14028758998E+02  0.65476775349E+01  0.17139745167E+02  0.51100000000E-03 0.  1.
        -12    1    3    3    0    0  0.84371210157E+01 -0.52093555807E+01  0.35468348321E+01  0.10531022454E+02  0.00000000000E+00 0.  1.
</event>
<event>
 7    1  0.5910662E-013  0.5052886E+02  0.7816164E-02  0.1300439E+00
        -11   -1    0    0    0    0  0.00000000000E+00  0.00000000000E+00  0.45593999997E+02  0.45594000000E+02  0.51100000000E-03 0.  1.
         11   -1    0    0    0    0 -0.00000000000E+00 -0.00000000000E+00 -0.45593999997E+02  0.45594000000E+02  0.51100000000E-03 0. -1.
    9900012    2    1    2    0    0 -0.66575154388E+00  0.11942108341E+02  0.38860119083E+02  0.50528855495E+02  0.29999986762E+02 0.  0.
         12    1    1    2    0    0  0.66575154388E+00 -0.11942108341E+02 -0.38860119083E+02  0.40659144505E+02  0.00000000000E+00 0. -1.
         11    1    3    3    0    0 -0.99410646642E+01  0.49864300715E+01  0.47635496398E+01  0.12098787416E+02  0.51100000000E-03 0. -1.
        -11    1    3    3    0    0  0.39765527449E+01  0.96027430571E+01  0.28275919208E+02  0.30125624529E+02  0.51100000000E-03 0.  1.
         12    1    3    3    0    0  0.52987603754E+01 -0.26470647874E+01  0.58206502355E+01  0.83044435496E+01  0.00000000000E+00 0. -1.
</event>
<event>
 7    1  0.5910662E-013  0.5052886E+02  0.7816164E-02  0.1300439E+00
        -11   -1    0    0    0    0  0.00000000000E+00  0.00000000000E+00  0.45593999997E+02  0.45594000000E+02  0.51100000000E-03 0. -1.
         11   -1    0    0    0    0 -0.00000000000E+00 -0.00000000000E+00 -0.45593999997E+02  0.45594000000E+02  0.51100000000E-03 0.  1.
    9900012    2    1    2    0    0  0.90056328213E+01 -0.34644802977E+02  0.19282161333E+02  0.50528861525E+02  0.30000005092E+02 0.  0.
         12    1    1    2    0    0 -0.90056328213E+01  0.34644802977E+02 -0.19282161333E+02  0.40659138475E+02  0.00000000000E+00 0. -1.
         11    1    3    3    0    0 -0.12659602212E+01 -0.33512555960E+02  0.10310397070E+02  0.35085586075E+02  0.51100000000E-03 0.  1.
        -11    1    3    3    0    0  0.90305899769E+01 -0.36323455691E+01  0.74988442873E+01  0.12287316858E+02  0.51100000000E-03 0. -1.
        -12    1    3    3    0    0  0.12410030655E+01  0.25000985517E+01  0.14729199755E+01  0.31559585915E+01  0.00000000000E+00 0.  1.
</event>
<event>
 7    1  0.5910662E-013  0.5052886E+02  0.7816164E-02  0.1300439E+00
        -11   -1    0    0    0    0  0.00000000000E+00  0.00000000000E+00  0.45593999997E+02  0.45594000000E+02  0.51100000000E-03 0. -1.
         11   -1    0    0    0    0 -0.00000000000E+00 -0.00000000000E+00 -0.45593999997E+02  0.45594000000E+02  0.51100000000E-03 0.  1.
    9900012    2    1    2    0    0  0.30048996697E+02  0.12320638038E+02 -0.24462730833E+02  0.50528861741E+02  0.30000005749E+02 0.  0.
         12    1    1    2    0    0 -0.30048996697E+02 -0.12320638038E+02  0.24462730833E+02  0.40659138259E+02  0.00000000000E+00 0. -1.
         11    1    3    3    0    0  0.13316174825E+02  0.13706503571E+02 -0.10559523188E+02  0.21833283819E+02  0.51100000000E-03 0. -1.
        -11    1    3    3    0    0  0.12913598930E+02 -0.74318735210E+01 -0.15358134113E+02  0.21397805146E+02  0.51100000000E-03 0.  1.
         12    1    3    3    0    0  0.38192229414E+01  0.60460079878E+01  0.14549264682E+01  0.72977727762E+01  0.00000000000E+00 0. -1.
</event>
<event>
 7    1  0.5910662E-013  0.5052887E+02  0.7816164E-02  0.1300439E+00
        -11   -1    0    0    0    0  0.00000000000E+00  0.00000000000E+00  0.45593999997E+02  0.45594000000E+02  0.51100000000E-03 0. -1.
         11   -1    0    0    0    0 -0.00000000000E+00 -0.00000000000E+00 -0.45593999997E+02  0.45594000000E+02  0.51100000000E-03 0.  1.
    9900012    2    1    2    0    0 -0.40364862360E+02 -0.43955159735E+01  0.21265279125E+01  0.50528870706E+02  0.30000032998E+02 0.  0.
         12    1    1    2    0    0  0.40364862360E+02  0.43955159735E+01 -0.21265279125E+01  0.40659129294E+02  0.00000000000E+00 0. -1.
         11    1    3    3    0    0 -0.11718775622E+02 -0.56389045471E+01 -0.48115059982E+01  0.13866417591E+02  0.51100000000E-03 0.  1.
        -11    1    3    3    0    0 -0.22601133442E+01  0.37933324923E+01  0.90497950572E+01  0.10069571717E+02  0.51100000000E-03 0. -1.
        -12    1    3    3    0    0 -0.26385973394E+02 -0.25499439187E+01 -0.21117611464E+01  0.26592881398E+02  0.00000000000E+00 0.  1.
</event>
<event>
 7    1  0.5910662E-013  0.5052886E+02  0.7816164E-02  0.1300439E+00
        -11   -1    0    0    0    0  0.00000000000E+00  0.00000000000E+00  0.45593999997E+02  0.45594000000E+02  0.51100000000E-03 0.  1.
         11   -1    0    0    0    0 -0.00000000000E+00 -0.00000000000E+00 -0.45593999997E+02  0.45594000000E+02  0.51100000000E-03 0. -1.
    9900012    2    1    2    0    0  0.22263339739E+02  0.31206819629E+02 -0.13551510636E+02  0.50528864148E+02  0.30000013065E+02 0.  0.
         12    1    1    2    0    0 -0.22263339739E+02 -0.31206819629E+02  0.13551510636E+02  0.40659135852E+02  0.00000000000E+00 0. -1.
         11    1    3    3    0    0 -0.63064468800E+00 -0.16000267336E+01 -0.18212100324E+01  0.25049160692E+01  0.51100000000E-03 0. -1.
        -11    1    3    3    0    0  0.25309758448E+02  0.26739853184E+02 -0.16080967887E+02  0.40177122215E+02  0.51100000000E-03 0.  1.
        -12    1    3    3    0    0 -0.24157740208E+01  0.60669931779E+01  0.43506672830E+01  0.78468258645E+01  0.00000000000E+00 0.  1.
</event>
<event>
 7    1  0.5910662E-013  0.5052876E+02  0.7816164E-02  0.1300439E+00
        -11   -1    0    0    0    0  0.00000000000E+00  0.00000000000E+00  0.45593999997E+02  0.45594000000E+02  0.51100000000E-03 0.  1.
         11   -1    0    0    0    0 -0.00000000000E+00 -0.00000000000E+00 -0.45593999997E+02  0.45594000000E+02  0.51100000000E-03 0. -1.
    9900012    2    1    2    0    0 -0.12933691580E+02 -0.13720897722E+02  0.36022636023E+02  0.50528760973E+02  0.29999699452E+02 0.  0.
         12    1    1    2    0    0  0.12933691580E+02  0.13720897722E+02 -0.36022636023E+02  0.40659239027E+02  0.00000000000E+00 0. -1.
         11    1    3    3    0    0 -0.16785518001E+02 -0.92932420589E+01  0.99951455528E+01  0.21633790639E+02  0.51100000000E-03 0. -1.
        -11    1    3    3    0    0 -0.31024985025E+01 -0.33993094578E+01  0.15999790731E+02  0.16648546647E+02  0.51100000000E-03 0.  1.
         12    1    3    3    0    0  0.69543249234E+01 -0.10283462048E+01  0.10027699740E+02  0.12246423687E+02  0.00000000000E+00 0. -1.
</event>
<event>
 7    1  0.5910662E-013  0.5052887E+02  0.7816164E-02  0.1300439E+00
        -11   -1    0    0    0    0  0.00000000000E+00  0.00000000000E+00  0.45593999997E+02  0.45594000000E+02  0.51100000000E-03 0. -1.
         11   -1    0    0    0    0 -0.00000000000E+00 -0.00000000000E+00 -0.45593999997E+02  0.45594000000E+02  0.51100000000E-03 0.  1.
    9900012    2    1    2    0    0  0.32133468308E+02 -0.81004347731E+01 -0.23558190930E+02  0.50528865862E+02  0.30000018273E+02 0.  0.
         12    1    1    2    0    0 -0.32133468308E+02  0.81004347731E+01  0.23558190930E+02  0.40659134138E+02  0.00000000000E+00 0. -1.
         11    1    3    3    0    0 -0.26333648445E+01  0.72544184102E-01  0.32195423507E+01  0.41599670999E+01  0.51100000000E-03 0. -1.
        -11    1    3    3    0    0  0.29969190100E+02 -0.11374062883E+02 -0.21983396689E+02  0.38868900061E+02  0.51100000000E-03 0.  1.
         12    1    3    3    0    0  0.47976430524E+01  0.32010839256E+01 -0.47943365910E+01  0.74999987003E+01  0.00000000000E+00 0. -1.
</event>
<event>
 7    1  0.5910662E-013  0.5052884E+02  0.7816164E-02  0.1300439E+00
        -11   -1    0    0    0    0  0.00000000000E+00  0.00000000000E+00  0.45593999997E+02  0.45594000000E+02  0.51100000000E-03 0. -1.
         11   -1    0    0    0    0 -0.00000000000E+00 -0.00000000000E+00 -0.45593999997E+02  0.45594000000E+02  0.51100000000E-03 0.  1.
    9900012    2    1    2    0    0  0.28731086904E+02 -0.28708533027E+02 -0.18740389159E+01  0.50528840575E+02  0.29999941413E+02 0.  0.
         12    1    1    2    0    0 -0.28731086904E+02  0.28708533027E+02  0.18740389159E+01  0.40659159425E+02  0.00000000000E+00 0. -1.
         11    1    3    3    0    0  0.27244778463E+01 -0.21728509485E+02  0.28605323861E+01  0.22084690393E+02  0.51100000000E-03 0. -1.
        -11    1    3    3    0    0  0.18376250563E+02 -0.16852010726E+01 -0.51141091738E+01  0.19148905982E+02  0.51100000000E-03 0.  1.
         12    1    3    3    0    0  0.76303584945E+01 -0.52948224702E+01  0.37953787182E+00  0.92952442002E+01  0.00000000000E+00 0. -1.
</event>
<event>
 7    1  0.5910662E-013  0.5052887E+02  0.7816164E-02  0.1300439E+00
        -11   -1    0    0    0    0  0.00000000000E+00  0.00000000000E+00  0.45593999997E+02  0.45594000000E+02  0.51100000000E-03 0.  1.
         11   -1    0    0    0    0 -0.00000000000E+00 -0.00000000000E+00 -0.45593999997E+02  0.45594000000E+02  0.51100000000E-03 0. -1.
    9900012    2    1    2    0    0  0.28667940218E+01 -0.14368041445E+02  0.37927634204E+02  0.50528873604E+02  0.30000041808E+02 0.  0.
         12    1    1    2    0    0 -0.28667940218E+01  0.14368041445E+02 -0.37927634204E+02  0.40659126396E+02  0.00000000000E+00 0. -1.
         11    1    3    3    0    0  0.22911222469E+01  0.85152097917E+01  0.12436763907E+02  0.15245692365E+02  0.51100000000E-03 0. -1.
        -11    1    3    3    0    0  0.21473728663E+01 -0.16135006697E+02  0.22416546559E+02  0.27702909798E+02  0.51100000000E-03 0.  1.
         12    1    3    3    0    0 -0.15717010914E+01 -0.67482445396E+01  0.30743237384E+01  0.75802714421E+01  0.00000000000E+00 0. -1.
</event>
<event>
 7    1  0.5910662E-013  0.5052886E+02  0.7816164E-02  0.1300439E+00
        -11   -1    0    0    0    0  0.00000000000E+00  0.00000000000E+00  0.45593999997E+02  0.45594000000E+02  0.51100000000E-03 0.  1.
         11   -1    0    0    0    0 -0.00000000000E+00 -0.00000000000E+00 -0.45593999997E+02  0.45594000000E+02  0.51100000000E-03 0. -1.
    9900012    2    1    2    0    0  0.16447255209E+02 -0.19187892388E+02  0.31850871736E+02  0.50528862668E+02  0.30000008567E+02 0.  0.
         12    1    1    2    0    0 -0.16447255209E+02  0.19187892388E+02 -0.31850871736E+02  0.40659137332E+02  0.00000000000E+00 0. -1.
         11    1    3    3    0    0  0.86361739418E+01 -0.17044232942E+02  0.29036082495E+01  0.19326673746E+02  0.51100000000E-03 0. -1.
        -11    1    3    3    0    0 -0.73132591679E-01 -0.34077944289E+01  0.59376360797E+01  0.68464540984E+01  0.51100000000E-03 0.  1.
         12    1    3    3    0    0  0.78842138593E+01  0.12641349836E+01  0.23009627407E+02  0.24355734824E+02  0.00000000000E+00 0. -1.
</event>
<event>
 7    1  0.5910662E-013  0.5052885E+02  0.7816164E-02  0.1300439E+00
        -11   -1    0    0    0    0  0.00000000000E+00  0.00000000000E+00  0.45593999997E+02  0.45594000000E+02  0.51100000000E-03 0.  1.
         11   -1    0    0    0    0 -0.00000000000E+00 -0.00000000000E+00 -0.45593999997E+02  0.45594000000E+02  0.51100000000E-03 0. -1.
    9900012    2    1    2    0    0  0.67242519655E+01 -0.28543320829E+02  0.28164328794E+02  0.50528854106E+02  0.29999982540E+02 0.  0.
         12    1    1    2    0    0 -0.67242519655E+01  0.28543320829E+02 -0.28164328794E+02  0.40659145894E+02  0.00000000000E+00 0. -1.
         11    1    3    3    0    0 -0.61532632631E+01  0.17295303472E+01  0.23172088933E+01  0.67987779287E+01  0.51100000000E-03 0. -1.
        -11    1    3    3    0    0  0.96675652249E+01 -0.22789337894E+02  0.25559134559E+02  0.35582089578E+02  0.51100000000E-03 0.  1.
         12    1    3    3    0    0  0.32099500037E+01 -0.74835132816E+01  0.28798534136E+00  0.81479865991E+01  0.00000000000E+00 0. -1.
</event>
<event>
 7    1  0.5910662E-013  0.5052886E+02  0.7816164E-02  0.1300439E+00
        -11   -1    0    0    0    0  0.00000000000E+00  0.00000000000E+00  0.45593999997E+02  0.45594000000E+02  0.51100000000E-03 0.  1.
         11   -1    0    0    0    0 -0.00000000000E+00 -0.00000000000E+00 -0.45593999997E+02  0.45594000000E+02  0.51100000000E-03 0. -1.
    9900012    2    1    2    0    0 -0.28337980505E+02  0.29156701765E+02  0.10705932106E+00  0.50528857626E+02  0.29999993240E+02 0.  0.
         12    1    1    2    0    0  0.28337980505E+02 -0.29156701765E+02 -0.10705932106E+00  0.40659142374E+02  0.00000000000E+00 0. -1.
         11    1    3    3    0    0  0.25451558993E+00  0.72421069419E+01  0.57919924687E+01  0.92768565884E+01  0.51100000000E-03 0. -1.
        -11    1    3    3    0    0 -0.30012885403E+02  0.17223929753E+02 -0.84555163840E+01  0.35622083094E+02  0.51100000000E-03 0.  1.
        -12    1    3    3    0    0  0.14203893082E+01  0.46906650700E+01  0.27705832363E+01  0.56299179439E+01  0.00000000000E+00 0.  1.
</event>
<event>
 7    1  0.5910662E-013  0.5052885E+02  0.7816164E-02  0.1300439E+00
        -11   -1    0    0    0    0  0.00000000000E+00  0.00000000000E+00  0.45593999997E+02  0.45594000000E+02  0.51100000000E-03 0.  1.
         11   -1    0    0    0    0 -0.00000000000E+00 -0.00000000000E+00 -0.45593999997E+02  0.45594000000E+02  0.51100000000E-03 0. -1.
    9900012    2    1    2    0    0  0.28527093969E+02 -0.25233653038E+02  0.14234959858E+02  0.50528850745E+02  0.29999972325E+02 0.  0.
         12    1    1    2    0    0 -0.28527093969E+02  0.25233653038E+02 -0.14234959858E+02  0.40659149255E+02  0.00000000000E+00 0. -1.
         11    1    3    3    0    0  0.12514781599E+01 -0.11295273149E+02 -0.28165018375E+01  0.11708205497E+02  0.51100000000E-03 0. -1.
        -11    1    3    3    0    0  0.12894061344E+02 -0.14741727542E+02  0.14059999277E+02  0.24109312076E+02  0.51100000000E-03 0.  1.
        -12    1    3    3    0    0  0.14381554466E+02  0.80334765293E+00  0.29914624181E+01  0.14711333172E+02  0.00000000000E+00 0.  1.
</event>
<event>
 7    1  0.5910662E-013  0.5052886E+02  0.7816164E-02  0.1300439E+00
        -11   -1    0    0    0    0  0.00000000000E+00  0.00000000000E+00  0.45593999997E+02  0.45594000000E+02  0.51100000000E-03 0.  1.
         11   -1    0    0    0    0 -0.00000000000E+00 -0.00000000000E+00 -0.45593999997E+02  0.45594000000E+02  0.51100000000E-03 0. -1.
    9900012    2    1    2    0    0  0.10124270755E+02  0.38230132015E+02  0.94404348700E+01  0.50528860034E+02  0.30000000559E+02 0.  0.
         12    1    1    2    0    0 -0.10124270755E+02 -0.38230132015E+02 -0.94404348700E+01  0.40659139966E+02  0.00000000000E+00 0. -1.
         11    1    3    3    0    0 -0.40874096056E+01  0.21923886755E+02  0.11958572528E+02  0.25305556404E+02  0.51100000000E-03 0. -1.
        -11    1    3    3    0    0  0.55966037197E+01  0.14540279173E+02 -0.44829044726E+01  0.16212283134E+02  0.51100000000E-03 0.  1.
         12    1    3    3    0    0  0.86150766414E+01  0.17659660874E+01  0.19647668143E+01  0.90110204967E+01  0.00000000000E+00 0. -1.
</event>
<event>
 7    1  0.5910662E-013  0.5052885E+02  0.7816164E-02  0.1300439E+00
        -11   -1    0    0    0    0  0.00000000000E+00  0.00000000000E+00  0.45593999997E+02  0.45594000000E+02  0.51100000000E-03 0. -1.
         11   -1    0    0    0    0 -0.00000000000E+00 -0.00000000000E+00 -0.45593999997E+02  0.45594000000E+02  0.51100000000E-03 0.  1.
    9900012    2    1    2    0    0  0.11740813324E+02  0.33174089752E+01 -0.38785489712E+02  0.50528854510E+02  0.29999983769E+02 0.  0.
         12    1    1    2    0    0 -0.11740813324E+02 -0.33174089752E+01  0.38785489712E+02  0.40659145490E+02  0.00000000000E+00 0. -1.
         11    1    3    3    0    0  0.13436803782E+02  0.94876667417E-01 -0.27973361566E+02  0.31033299132E+02  0.51100000000E-03 0.  1.
        -11    1    3    3    0    0 -0.18138393185E+00 -0.54875084486E+01  0.49562186037E-01  0.54907290750E+01  0.51100000000E-03 0. -1.
        -12    1    3    3    0    0 -0.15146065268E+01  0.87100407564E+01 -0.10861690331E+02  0.14004826303E+02  0.00000000000E+00 0.  1.
</event>
<event>
 7    1  0.5910662E-013  0.5052886E+02  0.7816164E-02  0.1300439E+00
        -11   -1    0    0    0    0  0.00000000000E+00  0.00000000000E+00  0.45593999997E+02  0.45594000000E+02  0.51100000000E-03 0.  1.
         11   -1    0    0    0    0 -0.00000000000E+00 -0.00000000000E+00 -0.45593999997E+02  0.45594000000E+02  0.51100000000E-03 0. -1.
    9900012    2    1    2    0    0 -0.12306496975E+02 -0.13381786630E+01  0.38728865837E+02  0.50528860327E+02  0.30000001450E+02 0.  0.
         12    1    1    2    0    0  0.12306496975E+02  0.13381786630E+01 -0.38728865837E+02  0.40659139673E+02  0.00000000000E+00 0. -1.
         11    1    3    3    0    0 -0.71631672100E+01 -0.31184776330E+01  0.22251990667E+01  0.81232615601E+01  0.51100000000E-03 0. -1.
        -11    1    3    3    0    0 -0.49570431709E+01 -0.58742124502E+01  0.33179863756E+02  0.34058508600E+02  0.51100000000E-03 0.  1.
        -12    1    3    3    0    0 -0.18628659442E+00  0.76545114202E+01  0.33238030139E+01  0.83470901667E+01  0.00000000000E+00 0.  1.
</event>
<event>
 7    1  0.5910662E-013  0.5052887E+02  0.7816164E-02  0.1300439E+00
        -11   -1    0    0    0    0  0.00000000000E+00  0.00000000000E+00  0.45593999997E+02  0.45594000000E+02  0.51100000000E-03 0.  1.
         11   -1    0    0    0    0 -0.00000000000E+00 -0.00000000000E+00 -0.45593999997E+02  0.45594000000E+02  0.51100000000E-03 0. -1.
    9900012    2    1    2    0    0 -0.18290121855E+02 -0.11055580249E+02  0.34589170313E+02  0.50528866769E+02  0.30000021031E+02 0.  0.
         12    1    1    2    0    0  0.18290121855E+02  0.11055580249E+02 -0.34589170313E+02  0.40659133231E+02  0.00000000000E+00 0. -1.
         11    1    3    3    0    0  0.29135245426E+01 -0.78395310236E+01  0.25235789841E+02  0.26585559259E+02  0.51100000000E-03 0. -1.
        -11    1    3    3    0    0 -0.15824308211E+02 -0.43435784199E+01  0.81273145104E+01  0.18311980921E+02  0.51100000000E-03 0.  1.
         12    1    3    3    0    0 -0.53793381870E+01  0.11275291943E+01  0.12260659618E+01  0.56313265894E+01  0.00000000000E+00 0. -1.
</event>
<event>
 7    1  0.5910662E-013  0.5052887E+02  0.7816164E-02  0.1300439E+00
        -11   -1    0    0    0    0  0.00000000000E+00  0.00000000000E+00  0.45593999997E+02  0.45594000000E+02  0.51100000000E-03 0.  1.
         11   -1    0    0    0    0 -0.00000000000E+00 -0.00000000000E+00 -0.45593999997E+02  0.45594000000E+02  0.51100000000E-03 0. -1.
    9900012    2    1    2    0    0 -0.15678026370E+02 -0.25279934398E+02  0.27718033822E+02  0.50528868271E+02  0.30000025597E+02 0.  0.
         12    1    1    2    0    0  0.15678026370E+02  0.25279934398E+02 -0.27718033822E+02  0.40659131729E+02  0.00000000000E+00 0. -1.
         11    1    3    3    0    0 -0.11662834006E+02 -0.34289913755E+01  0.17419149804E+02  0.21241620915E+02  0.51100000000E-03 0. -1.
        -11    1    3    3    0    0  0.12640701924E+01 -0.10964368693E+02 -0.28700408674E+01  0.11404051435E+02  0.51100000000E-03 0.  1.
        -12    1    3    3    0    0 -0.52792625558E+01 -0.10886574329E+02  0.13168924885E+02  0.17883195921E+02  0.00000000000E+00 0.  1.
</event>
<event>
 7    1  0.5910662E-013  0.5052886E+02  0.7816164E-02  0.1300439E+00
        -11   -1    0    0    0    0  0.00000000000E+00  0.00000000000E+00  0.45593999997E+02  0.45594000000E+02  0.51100000000E-03 0. -1.
         11   -1    0    0    0    0 -0.00000000000E+00 -0.00000000000E+00 -0.45593999997E+02  0.45594000000E+02  0.51100000000E-03 0.  1.
    9900012    2    1    2    0    0  0.66892166006E+00 -0.18067728268E+02 -0.36418063892E+02  0.50528860331E+02  0.30000001463E+02 0.  0.
         12    1    1    2    0    0 -0.66892166006E+00  0.18067728268E+02  0.36418063892E+02  0.40659139669E+02  0.00000000000E+00 0. -1.
         11    1    3    3    0    0 -0.12621237509E+02 -0.21055284833E+01 -0.17985619493E+02  0.22072865588E+02  0.51100000000E-03 0. -1.
        -11    1    3    3    0    0  0.31682154903E+01 -0.75437630968E+01 -0.95439895654E+01  0.12571145061E+02  0.51100000000E-03 0.  1.
         12    1    3    3    0    0  0.10121943679E+02 -0.84184366880E+01 -0.88884548336E+01  0.15884849683E+02  0.00000000000E+00 0. -1.
</event>
<event>
 7    1  0.5910662E-013  0.5052886E+02  0.7816164E-02  0.1300439E+00
        -11   -1    0    0    0    0  0.00000000000E+00  0.00000000000E+00  0.45593999997E+02  0.45594000000E+02  0.51100000000E-03 0. -1.
         11   -1    0    0    0    0 -0.00000000000E+00 -0.00000000000E+00 -0.45593999997E+02  0.45594000000E+02  0.51100000000E-03 0.  1.
    9900012    2    1    2    0    0 -0.19574285339E+02 -0.20029123042E+02 -0.29476214638E+02  0.50528860244E+02  0.30000001198E+02 0.  0.
         12    1    1    2    0    0  0.19574285339E+02  0.20029123042E+02  0.29476214638E+02  0.40659139756E+02  0.00000000000E+00 0. -1.
         11    1    3    3    0    0 -0.12768387610E+01 -0.29621507244E+01  0.42922464271E+01  0.53691744047E+01  0.51100000000E-03 0. -1.
        -11    1    3    3    0    0 -0.18900762317E+02 -0.14584337401E+02 -0.19963975214E+02  0.31120765097E+02  0.51100000000E-03 0.  1.
        -12    1    3    3    0    0  0.60331573956E+00 -0.24826349160E+01 -0.13804485851E+02  0.14038920743E+02  0.00000000000E+00 0.  1.
</event>
<event>
 7    1  0.5910662E-013  0.5052886E+02  0.7816164E-02  0.1300439E+00
        -11   -1    0    0    0    0  0.00000000000E+00  0.00000000000E+00  0.45593999997E+02  0.45594000000E+02  0.51100000000E-03 0. -1.
         11   -1    0    0    0    0 -0.00000000000E+00 -0.00000000000E+00 -0.45593999997E+02  0.45594000000E+02  0.51100000000E-03 0.  1.
    9900012    2    1    2    0    0  0.35527036008E+02 -0.15466562838E+02 -0.12319925028E+02  0.50528863189E+02  0.30000010150E+02 0.  0.
         12    1    1    2    0    0 -0.35527036008E+02  0.15466562838E+02  0.12319925028E+02  0.40659136811E+02  0.00000000000E+00 0. -1.
         11    1    3    3    0    0  0.42130606694E+01  0.59862212378E+01 -0.13880849043E+01  0.74506043295E+01  0.51100000000E-03 0. -1.
        -11    1    3    3    0    0  0.21758880272E+02 -0.23305196912E+02 -0.74635717427E+01  0.32745778006E+02  0.51100000000E-03 0.  1.
        -12    1    3    3    0    0  0.95550950659E+01  0.18524128359E+01 -0.34682683811E+01  0.10332480854E+02  0.00000000000E+00 0.  1.
</event>
<event>
 7    1  0.5910662E-013  0.5052885E+02  0.7816164E-02  0.1300439E+00
        -11   -1    0    0    0    0  0.00000000000E+00  0.00000000000E+00  0.45593999997E+02  0.45594000000E+02  0.51100000000E-03 0. -1.
         11   -1    0    0    0    0 -0.00000000000E+00 -0.00000000000E+00 -0.45593999997E+02  0.45594000000E+02  0.51100000000E-03 0.  1.
    9900012    2    1    2    0    0 -0.36061165063E+02  0.38202774685E+01 -0.18389236626E+02  0.50528853805E+02  0.29999981625E+02 0.  0.
         12    1    1    2    0    0  0.36061165063E+02 -0.38202774685E+01  0.18389236626E+02  0.40659146195E+02  0.00000000000E+00 0. -1.
         11    1    3    3    0    0 -0.49589126303E+01  0.84729677574E+01  0.78224847002E+00  0.98485486252E+01  0.51100000000E-03 0. -1.
        -11    1    3    3    0    0 -0.28153561105E+02  0.25139075907E+00 -0.10015143305E+02  0.29882926495E+02  0.51100000000E-03 0.  1.
         12    1    3    3    0    0 -0.29486913274E+01 -0.49040810480E+01 -0.91563417911E+01  0.10797378685E+02  0.00000000000E+00 0. -1.
</event>
<event>
 7    1  0.5910662E-013  0.5052886E+02  0.7816164E-02  0.1300439E+00
        -11   -1    0    0    0    0  0.00000000000E+00  0.00000000000E+00  0.45593999997E+02  0.45594000000E+02  0.51100000000E-03 0. -1.
         11   -1    0    0    0    0 -0.00000000000E+00 -0.00000000000E+00 -0.45593999997E+02  0.45594000000E+02  0.51100000000E-03 0.  1.
    9900012    2    1    2    0    0  0.64236749139E+01 -0.39162418035E+02 -0.88434850550E+01  0.50528858178E+02  0.29999994919E+02 0.  0.
         12    1    1    2    0    0 -0.64236749139E+01  0.39162418035E+02  0.88434850550E+01  0.40659141822E+02  0.00000000000E+00 0. -1.
         11    1    3    3    0    0  0.11949602986E+02 -0.11036669116E+02 -0.67582237126E+01  0.17614615088E+02  0.51100000000E-03 0.  1.
        -11    1    3    3    0    0 -0.43449879598E+01 -0.27318826450E+02 -0.63793106618E+01  0.28388251157E+02  0.51100000000E-03 0. -1.
         12    1    3    3    0    0 -0.11809401121E+01 -0.80692246846E+00  0.42940493193E+01  0.45259919327E+01  0.00000000000E+00 0. -1.
</event>
<event>
 7    1  0.5910662E-013  0.5052886E+02  0.7816164E-02  0.1300439E+00
        -11   -1    0    0    0    0  0.00000000000E+00  0.00000000000E+00  0.45593999997E+02  0.45594000000E+02  0.51100000000E-03 0. -1.
         11   -1    0    0    0    0 -0.00000000000E+00 -0.00000000000E+00 -0.45593999997E+02  0.45594000000E+02  0.51100000000E-03 0.  1.
    9900012    2    1    2    0    0  0.22495967386E+02 -0.34343579759E+01 -0.33694250463E+02  0.50528857392E+02  0.29999992529E+02 0.  0.
         12    1    1    2    0    0 -0.22495967386E+02  0.34343579759E+01  0.33694250463E+02  0.40659142608E+02  0.00000000000E+00 0. -1.
         11    1    3    3    0    0 -0.43924987131E+01  0.36170904937E+01 -0.72360209255E+01  0.92052912871E+01  0.51100000000E-03 0. -1.
        -11    1    3    3    0    0  0.19870074185E+02 -0.11497692409E+02 -0.22410014301E+02  0.32081544853E+02  0.51100000000E-03 0.  1.
        -12    1    3    3    0    0  0.70183919139E+01  0.44462439399E+01 -0.40482152362E+01  0.92420212524E+01  0.00000000000E+00 0.  1.
</event>
<event>
 7    1  0.5910662E-013  0.5052884E+02  0.7816164E-02  0.1300439E+00
        -11   -1    0    0    0    0  0.00000000000E+00  0.00000000000E+00  0.45593999997E+02  0.45594000000E+02  0.51100000000E-03 0. -1.
         11   -1    0    0    0    0 -0.00000000000E+00 -0.00000000000E+00 -0.45593999997E+02  0.45594000000E+02  0.51100000000E-03 0.  1.
    9900012    2    1    2    0    0 -0.18585773907E+02  0.24207770711E+02 -0.26864845708E+02  0.50528842490E+02  0.29999947233E+02 0.  0.
         12    1    1    2    0    0  0.18585773907E+02 -0.24207770711E+02  0.26864845708E+02  0.40659157510E+02  0.00000000000E+00 0. -1.
         11    1    3    3    0    0 -0.16348724481E+02  0.28105341751E+02 -0.21065971322E+02  0.38742304721E+02  0.51100000000E-03 0. -1.
        -11    1    3    3    0    0  0.73140686936E+00 -0.33258487223E+01 -0.75574498499E+01  0.82892263949E+01  0.51100000000E-03 0.  1.
         12    1    3    3    0    0 -0.29684562950E+01 -0.57172231815E+00  0.17585754639E+01  0.34973113740E+01  0.00000000000E+00 0. -1.
</event>
<event>
 7    1  0.5910662E-013  0.5052882E+02  0.7816164E-02  0.1300439E+00
        -11   -1    0    0    0    0  0.00000000000E+00  0.00000000000E+00  0.45593999997E+02  0.45594000000E+02  0.51100000000E-03 0.  1.
         11   -1    0    0    0    0 -0.00000000000E+00 -0.00000000000E+00 -0.45593999997E+02  0.45594000000E+02  0.51100000000E-03 0. -1.
    9900012    2    1    2    0    0 -0.58656733649E+01 -0.32668076150E+02  0.23485308431E+02  0.50528818559E+02  0.29999874492E+02 0.  0.
         12    1    1    2    0    0  0.58656733649E+01  0.32668076150E+02 -0.23485308431E+02  0.40659181441E+02  0.00000000000E+00 0. -1.
         11    1    3    3    0    0 -0.58593234659E+01 -0.12571155239E+02  0.21387649308E+02  0.25491119213E+02  0.51100000000E-03 0. -1.
        -11    1    3    3    0    0 -0.55962112773E+01 -0.13167262270E+02 -0.32231775057E+01  0.14665716820E+02  0.51100000000E-03 0.  1.
        -12    1    3    3    0    0  0.55898613784E+01 -0.69296586411E+01  0.53208366280E+01  0.10371982527E+02  0.00000000000E+00 0.  1.
</event>
<event>
 7    1  0.5910662E-013  0.5052886E+02  0.7816164E-02  0.1300439E+00
        -11   -1    0    0    0    0  0.00000000000E+00  0.00000000000E+00  0.45593999997E+02  0.45594000000E+02  0.51100000000E-03 0. -1.
         11   -1    0    0    0    0 -0.00000000000E+00 -0.00000000000E+00 -0.45593999997E+02  0.45594000000E+02  0.51100000000E-03 0.  1.
    9900012    2    1    2    0    0 -0.37863789512E+02 -0.13875670682E+02 -0.51927700266E+01  0.50528860146E+02  0.30000000901E+02 0.  0.
         12    1    1    2    0    0  0.37863789512E+02  0.13875670682E+02  0.51927700266E+01  0.40659139854E+02  0.00000000000E+00 0. -1.
         11    1    3    3    0    0 -0.86377924926E+01  0.95638372690E-01 -0.39864233254E+01  0.95137887844E+01  0.51100000000E-03 0. -1.
        -11    1    3    3    0    0 -0.20060989792E+02 -0.12233127714E+02  0.10759288495E+02  0.25842890981E+02  0.51100000000E-03 0.  1.
        -12    1    3    3    0    0 -0.91650072276E+01 -0.17381813411E+01 -0.11965635196E+02  0.15172180381E+02  0.00000000000E+00 0.  1.
</event>
<event>
 7    1  0.5910662E-013  0.5052887E+02  0.7816164E-02  0.1300439E+00
        -11   -1    0    0    0    0  0.00000000000E+00  0.00000000000E+00  0.45593999997E+02  0.45594000000E+02  0.51100000000E-03 0. -1.
         11   -1    0    0    0    0 -0.00000000000E+00 -0.00000000000E+00 -0.45593999997E+02  0.45594000000E+02  0.51100000000E-03 0.  1.
    9900012    2    1    2    0    0  0.26292489552E+02 -0.30000626268E+02 -0.78633693018E+01  0.50528866215E+02  0.30000019348E+02 0.  0.
         12    1    1    2    0    0 -0.26292489552E+02  0.30000626268E+02  0.78633693018E+01  0.40659133785E+02  0.00000000000E+00 0. -1.
         11    1    3    3    0    0  0.34188752006E+01  0.94865438309E+00 -0.10287306134E+02  0.10881972272E+02  0.51100000000E-03 0. -1.
        -11    1    3    3    0    0  0.17105589613E+02 -0.23862287663E+02 -0.21304327494E+01  0.29437199467E+02  0.51100000000E-03 0.  1.
        -12    1    3    3    0    0  0.57680247384E+01 -0.70869929884E+01  0.45543695817E+01  0.10209694476E+02  0.00000000000E+00 0.  1.
</event>
<event>
 7    1  0.5910662E-013  0.5052888E+02  0.7816164E-02  0.1300439E+00
        -11   -1    0    0    0    0  0.00000000000E+00  0.00000000000E+00  0.45593999997E+02  0.45594000000E+02  0.51100000000E-03 0.  1.
         11   -1    0    0    0    0 -0.00000000000E+00 -0.00000000000E+00 -0.45593999997E+02  0.45594000000E+02  0.51100000000E-03 0. -1.
    9900012    2    1    2    0    0  0.22570835995E+01 -0.83467643316E+01  0.39729095213E+02  0.50528881617E+02  0.30000066164E+02 0.  0.
         12    1    1    2    0    0 -0.22570835995E+01  0.83467643316E+01 -0.39729095213E+02  0.40659118383E+02  0.00000000000E+00 0. -1.
         11    1    3    3    0    0  0.19570385585E+01  0.42787652531E+01  0.35890804563E+02  0.36197896133E+02  0.51100000000E-03 0. -1.
        -11    1    3    3    0    0 -0.22646256233E+01 -0.28281095046E+01  0.44608971705E+00  0.36504422856E+01  0.51100000000E-03 0.  1.
         12    1    3    3    0    0  0.25646706644E+01 -0.97974200802E+01  0.33922009333E+01  0.10680543199E+02  0.00000000000E+00 0. -1.
</event>
<event>
 7    1  0.6162911E-013  0.5052888E+02  0.7816164E-02  0.1300439E+00
        -11   -1    0    0    0    0  0.00000000000E+00  0.00000000000E+00  0.45593999997E+02  0.45594000000E+02  0.51100000000E-03 0.  1.
         11   -1    0    0    0    0 -0.00000000000E+00 -0.00000000000E+00 -0.45593999997E+02  0.45594000000E+02  0.51100000000E-03 0. -1.
    9900012    2    1    2    0    0 -0.11413814434E+02  0.36044893148E+02 -0.14955077546E+02  0.50528882617E+02  0.30000069201E+02 0.  0.
         12    1    1    2    0    0  0.11413814434E+02 -0.36044893148E+02  0.14955077546E+02  0.40659117383E+02  0.00000000000E+00 0. -1.
         11    1    3    3    0    0 -0.11845381153E+02  0.18012083371E+01 -0.72206938572E+00  0.12003282493E+02  0.51100000000E-03 0. -1.
        -11    1    3    3    0    0 -0.46585327223E+01  0.21232110932E+02 -0.99969695251E+01  0.23925799082E+02  0.51100000000E-03 0.  1.
         12    1    3    3    0    0  0.50900994421E+01  0.13011573879E+02 -0.42360386352E+01  0.14599801042E+02  0.00000000000E+00 0. -1.
</event>
<event>
 7    1  0.5910662E-013  0.5052886E+02  0.7816164E-02  0.1300439E+00
        -11   -1    0    0    0    0  0.00000000000E+00  0.00000000000E+00  0.45593999997E+02  0.45594000000E+02  0.51100000000E-03 0.  1.
         11   -1    0    0    0    0 -0.00000000000E+00 -0.00000000000E+00 -0.45593999997E+02  0.45594000000E+02  0.51100000000E-03 0. -1.
    9900012    2    1    2    0    0  0.10829469971E+02  0.31531872493E+02  0.23272932990E+02  0.50528858190E+02  0.29999994955E+02 0.  0.
         12    1    1    2    0    0 -0.10829469971E+02 -0.31531872493E+02 -0.23272932990E+02  0.40659141810E+02  0.00000000000E+00 0. -1.
         11    1    3    3    0    0 -0.59688510957E+01  0.35531841609E+01  0.10372956326E+02  0.12484010745E+02  0.51100000000E-03 0. -1.
        -11    1    3    3    0    0  0.16084140568E+02  0.27995045850E+02  0.82278981800E+01  0.33318470533E+02  0.51100000000E-03 0.  1.
         12    1    3    3    0    0  0.71418049892E+00 -0.16357518066E-01  0.46720784835E+01  0.47263769115E+01  0.00000000000E+00 0. -1.
</event>
<event>
 7    1  0.5910662E-013  0.5052886E+02  0.7816164E-02  0.1300439E+00
        -11   -1    0    0    0    0  0.00000000000E+00  0.00000000000E+00  0.45593999997E+02  0.45594000000E+02  0.51100000000E-03 0. -1.
         11   -1    0    0    0    0 -0.00000000000E+00 -0.00000000000E+00 -0.45593999997E+02  0.45594000000E+02  0.51100000000E-03 0.  1.
    9900012    2    1    2    0    0  0.11626226517E+02 -0.36661521756E+02 -0.13188221502E+02  0.50528861951E+02  0.30000006386E+02 0.  0.
         12    1    1    2    0    0 -0.11626226517E+02  0.36661521756E+02  0.13188221502E+02  0.40659138049E+02  0.00000000000E+00 0. -1.
         11    1    3    3    0    0 -0.21757478451E+01 -0.17465467227E+02  0.53410917204E+01  0.18393033604E+02  0.51100000000E-03 0. -1.
        -11    1    3    3    0    0  0.78451563503E+01 -0.18119762210E+02 -0.16560067976E+02  0.25770295154E+02  0.51100000000E-03 0.  1.
         12    1    3    3    0    0  0.59568180120E+01 -0.10762923194E+01 -0.19692452461E+01  0.63655331924E+01  0.00000000000E+00 0. -1.
</event>
<event>
 7    1  0.5910662E-013  0.5052885E+02  0.7816164E-02  0.1300439E+00
        -11   -1    0    0    0    0  0.00000000000E+00  0.00000000000E+00  0.45593999997E+02  0.45594000000E+02  0.51100000000E-03 0.  1.
         11   -1    0    0    0    0 -0.00000000000E+00 -0.00000000000E+00 -0.45593999997E+02  0.45594000000E+02  0.51100000000E-03 0. -1.
    9900012    2    1    2    0    0 -0.72123225255E+01 -0.17566512403E+02  0.35952277844E+02  0.50528852980E+02  0.29999979117E+02 0.  0.
         12    1    1    2    0    0  0.72123225255E+01  0.17566512403E+02 -0.35952277844E+02  0.40659147020E+02  0.00000000000E+00 0. -1.
         11    1    3    3    0    0 -0.11313242279E+02 -0.74401925272E+01  0.35889707255E+01  0.14008091477E+02  0.51100000000E-03 0. -1.
        -11    1    3    3    0    0  0.31423513044E+00 -0.91766297937E+01  0.90833945117E+01  0.12915778498E+02  0.51100000000E-03 0.  1.
         12    1    3    3    0    0  0.37866846226E+01 -0.94969008238E+00  0.23279912607E+02  0.23604983005E+02  0.00000000000E+00 0. -1.
</event>
<event>
 7    1  0.5910662E-013  0.5052886E+02  0.7816164E-02  0.1300439E+00
        -11   -1    0    0    0    0  0.00000000000E+00  0.00000000000E+00  0.45593999997E+02  0.45594000000E+02  0.51100000000E-03 0.  1.
         11   -1    0    0    0    0 -0.00000000000E+00 -0.00000000000E+00 -0.45593999997E+02  0.45594000000E+02  0.51100000000E-03 0. -1.
    9900012    2    1    2    0    0 -0.35010194208E+02  0.29522730388E+01  0.20463047565E+02  0.50528856745E+02  0.29999990563E+02 0.  0.
         12    1    1    2    0    0  0.35010194208E+02 -0.29522730388E+01 -0.20463047565E+02  0.40659143255E+02  0.00000000000E+00 0. -1.
         11    1    3    3    0    0 -0.14964586033E+02 -0.98186258824E+01  0.15729962499E+02  0.23828050064E+02  0.51100000000E-03 0. -1.
        -11    1    3    3    0    0 -0.12460440876E+02  0.50414102678E+01  0.76753231077E+01  0.15478662390E+02  0.51100000000E-03 0.  1.
         12    1    3    3    0    0 -0.75851672989E+01  0.77294886534E+01 -0.29422380423E+01  0.11222144291E+02  0.00000000000E+00 0. -1.
</event>
<event>
 7    1  0.5910662E-013  0.5052886E+02  0.7816164E-02  0.1300439E+00
        -11   -1    0    0    0    0  0.00000000000E+00  0.00000000000E+00  0.45593999997E+02  0.45594000000E+02  0.51100000000E-03 0.  1.
         11   -1    0    0    0    0 -0.00000000000E+00 -0.00000000000E+00 -0.45593999997E+02  0.45594000000E+02  0.51100000000E-03 0. -1.
    9900012    2    1    2    0    0 -0.33823959084E+02  0.22559257132E+02 -0.43008553436E+00  0.50528864938E+02  0.30000015464E+02 0.  0.
         12    1    1    2    0    0  0.33823959084E+02 -0.22559257132E+02  0.43008553436E+00  0.40659135062E+02  0.00000000000E+00 0. -1.
         11    1    3    3    0    0  0.36118307236E+01  0.25503773563E+01  0.22737510389E+01  0.49718899709E+01  0.51100000000E-03 0. -1.
        -11    1    3    3    0    0 -0.18152293235E+02  0.10081292811E+02  0.68394685623E+01  0.21861302453E+02  0.51100000000E-03 0.  1.
         12    1    3    3    0    0 -0.19283496572E+02  0.99275869647E+01 -0.95433051355E+01  0.23695672514E+02  0.00000000000E+00 0. -1.
</event>
<event>
 7    1  0.5910662E-013  0.5052885E+02  0.7816164E-02  0.1300439E+00
        -11   -1    0    0    0    0  0.00000000000E+00  0.00000000000E+00  0.45593999997E+02  0.45594000000E+02  0.51100000000E-03 0.  1.
         11   -1    0    0    0    0 -0.00000000000E+00 -0.00000000000E+00 -0.45593999997E+02  0.45594000000E+02  0.51100000000E-03 0. -1.
    9900012    2    1    2    0    0 -0.38791484509E+02 -0.40518176616E+01  0.11487808292E+02  0.50528852983E+02  0.29999979128E+02 0.  0.
         12    1    1    2    0    0  0.38791484509E+02  0.40518176616E+01 -0.11487808292E+02  0.40659147017E+02  0.00000000000E+00 0. -1.
         11    1    3    3    0    0 -0.43495740676E+01 -0.88563130654E+01  0.20908503267E+01  0.10085867887E+02  0.51100000000E-03 0. -1.
        -11    1    3    3    0    0 -0.29493153726E+02  0.94567676241E+01  0.11934872804E+02  0.33192134003E+02  0.51100000000E-03 0.  1.
        -12    1    3    3    0    0 -0.49487567157E+01 -0.46522722203E+01 -0.25379148386E+01  0.72508510928E+01  0.00000000000E+00 0.  1.
</event>
<event>
 7    1  0.5910662E-013  0.5052885E+02  0.7816164E-02  0.1300439E+00
        -11   -1    0    0    0    0  0.00000000000E+00  0.00000000000E+00  0.45593999997E+02  0.45594000000E+02  0.51100000000E-03 0. -1.
         11   -1    0    0    0    0 -0.00000000000E+00 -0.00000000000E+00 -0.45593999997E+02  0.45594000000E+02  0.51100000000E-03 0.  1.
    9900012    2    1    2    0    0  0.34483502990E+02  0.18321728507E+02 -0.11329993640E+02  0.50528850109E+02  0.29999970391E+02 0.  0.
         12    1    1    2    0    0 -0.34483502990E+02 -0.18321728507E+02  0.11329993640E+02  0.40659149891E+02  0.00000000000E+00 0. -1.
         11    1    3    3    0    0  0.76062573958E+01  0.14230235453E+01  0.27093862496E+01  0.81988366060E+01  0.51100000000E-03 0. -1.
        -11    1    3    3    0    0  0.53211317529E+01  0.15721932163E+02 -0.12325391023E+02  0.20673868971E+02  0.51100000000E-03 0.  1.
        -12    1    3    3    0    0  0.21556113842E+02  0.11767727989E+01 -0.17139888665E+01  0.21656144532E+02  0.00000000000E+00 0.  1.
</event>
<event>
 7    1  0.5910662E-013  0.5052886E+02  0.7816164E-02  0.1300439E+00
        -11   -1    0    0    0    0  0.00000000000E+00  0.00000000000E+00  0.45593999997E+02  0.45594000000E+02  0.51100000000E-03 0. -1.
         11   -1    0    0    0    0 -0.00000000000E+00 -0.00000000000E+00 -0.45593999997E+02  0.45594000000E+02  0.51100000000E-03 0.  1.
    9900012    2    1    2    0    0  0.24054103781E+02  0.21249109767E+02 -0.24960788899E+02  0.50528861334E+02  0.30000004511E+02 0.  0.
         12    1    1    2    0    0 -0.24054103781E+02 -0.21249109767E+02  0.24960788899E+02  0.40659138666E+02  0.00000000000E+00 0. -1.
         11    1    3    3    0    0  0.79145782971E+01  0.17091021469E+02 -0.20889887899E+01  0.18950130314E+02  0.51100000000E-03 0. -1.
        -11    1    3    3    0    0  0.12412163105E+02 -0.37056236118E+01 -0.15265829433E+02  0.20020963709E+02  0.51100000000E-03 0.  1.
        -12    1    3    3    0    0  0.37273623782E+01  0.78637119095E+01 -0.76059706763E+01  0.11557767311E+02  0.00000000000E+00 0.  1.
</event>
<event>
 7    1  0.5910662E-013  0.5052886E+02  0.7816164E-02  0.1300439E+00
        -11   -1    0    0    0    0  0.00000000000E+00  0.00000000000E+00  0.45593999997E+02  0.45594000000E+02  0.51100000000E-03 0.  1.
         11   -1    0    0    0    0 -0.00000000000E+00 -0.00000000000E+00 -0.45593999997E+02  0.45594000000E+02  0.51100000000E-03 0. -1.
    9900012    2    1    2    0    0 -0.32035409759E+02 -0.22205382968E+02  0.11568018908E+02  0.50528861143E+02  0.30000003929E+02 0.  0.
         12    1    1    2    0    0  0.32035409759E+02  0.22205382968E+02 -0.11568018908E+02  0.40659138857E+02  0.00000000000E+00 0. -1.
         11    1    3    3    0    0 -0.57776733059E+01 -0.19515889273E+02 -0.14397072899E+01  0.20404024119E+02  0.51100000000E-03 0. -1.
        -11    1    3    3    0    0 -0.24419686781E+02 -0.42152400445E+01  0.11755954339E+02  0.27427938562E+02  0.51100000000E-03 0.  1.
         12    1    3    3    0    0 -0.18380496723E+01  0.15257463495E+01  0.12517718591E+01  0.26968984609E+01  0.00000000000E+00 0. -1.
</event>
<event>
 7    1  0.5910662E-013  0.5052886E+02  0.7816164E-02  0.1300439E+00
        -11   -1    0    0    0    0  0.00000000000E+00  0.00000000000E+00  0.45593999997E+02  0.45594000000E+02  0.51100000000E-03 0.  1.
         11   -1    0    0    0    0 -0.00000000000E+00 -0.00000000000E+00 -0.45593999997E+02  0.45594000000E+02  0.51100000000E-03 0. -1.
    9900012    2    1    2    0    0  0.87683313200E+01 -0.17121724956E+02  0.35820784529E+02  0.50528859529E+02  0.29999999023E+02 0.  0.
         12    1    1    2    0    0 -0.87683313200E+01  0.17121724956E+02 -0.35820784529E+02  0.40659140471E+02  0.00000000000E+00 0. -1.
         11    1    3    3    0    0  0.40250279384E+01 -0.16514930086E+02  0.16000028794E+02  0.23344050363E+02  0.51100000000E-03 0. -1.
        -11    1    3    3    0    0  0.42430703739E+01  0.83723023779E+01  0.12228973859E+02  0.15415800181E+02  0.51100000000E-03 0.  1.
        -12    1    3    3    0    0  0.50023300772E+00 -0.89790972478E+01  0.75917818757E+01  0.11769008985E+02  0.00000000000E+00 0.  1.
</event>
<event>
 7    1  0.5910662E-013  0.5052888E+02  0.7816164E-02  0.1300439E+00
        -11   -1    0    0    0    0  0.00000000000E+00  0.00000000000E+00  0.45593999997E+02  0.45594000000E+02  0.51100000000E-03 0.  1.
         11   -1    0    0    0    0 -0.00000000000E+00 -0.00000000000E+00 -0.45593999997E+02  0.45594000000E+02  0.51100000000E-03 0. -1.
    9900012    2    1    2    0    0  0.50313018668E+01  0.31792693378E+01  0.40221167049E+02  0.50528880103E+02  0.30000061561E+02 0.  0.
         12    1    1    2    0    0 -0.50313018668E+01 -0.31792693378E+01 -0.40221167049E+02  0.40659119897E+02  0.00000000000E+00 0. -1.
         11    1    3    3    0    0  0.69238784334E+00  0.70940174644E+01  0.58491229760E+01  0.92204514293E+01  0.51100000000E-03 0. -1.
        -11    1    3    3    0    0  0.12114935306E+01 -0.13118362999E+02  0.18985538005E+02  0.23108652448E+02  0.51100000000E-03 0.  1.
        -12    1    3    3    0    0  0.31274204928E+01  0.92036148728E+01  0.15386506068E+02  0.18199776225E+02  0.00000000000E+00 0.  1.
</event>
<event>
 7    1  0.5910662E-013  0.5052886E+02  0.7816164E-02  0.1300439E+00
        -11   -1    0    0    0    0  0.00000000000E+00  0.00000000000E+00  0.45593999997E+02  0.45594000000E+02  0.51100000000E-03 0. -1.
         11   -1    0    0    0    0 -0.00000000000E+00 -0.00000000000E+00 -0.45593999997E+02  0.45594000000E+02  0.51100000000E-03 0.  1.
    9900012    2    1    2    0    0 -0.17525381791E+02 -0.32915395214E+02  0.16205036453E+02  0.50528862583E+02  0.30000008308E+02 0.  0.
         12    1    1    2    0    0  0.17525381791E+02  0.32915395214E+02 -0.16205036453E+02  0.40659137417E+02  0.00000000000E+00 0. -1.
         11    1    3    3    0    0 -0.45703173677E+01  0.24474278193E+01  0.64178435861E+01  0.82502375923E+01  0.51100000000E-03 0. -1.
        -11    1    3    3    0    0 -0.13485646240E+02 -0.34632266117E+02  0.12663855319E+02  0.39263593094E+02  0.51100000000E-03 0.  1.
        -12    1    3    3    0    0  0.53058181636E+00 -0.73055691699E+00 -0.28766624524E+01  0.30150318966E+01  0.00000000000E+00 0.  1.
</event>
<event>
 7    1  0.5910662E-013  0.5052886E+02  0.7816164E-02  0.1300439E+00
        -11   -1    0    0    0    0  0.00000000000E+00  0.00000000000E+00  0.45593999997E+02  0.45594000000E+02  0.51100000000E-03 0.  1.
         11   -1    0    0    0    0 -0.00000000000E+00 -0.00000000000E+00 -0.45593999997E+02  0.45594000000E+02  0.51100000000E-03 0. -1.
    9900012    2    1    2    0    0  0.61124797562E+01  0.23967504135E+02  0.32270137333E+02  0.50528862937E+02  0.30000009382E+02 0.  0.
         12    1    1    2    0    0 -0.61124797562E+01 -0.23967504135E+02 -0.32270137333E+02  0.40659137063E+02  0.00000000000E+00 0. -1.
         11    1    3    3    0    0  0.13168565429E+02  0.35509402265E+01  0.13745376479E+02  0.19363772018E+02  0.51100000000E-03 0. -1.
        -11    1    3    3    0    0 -0.62015423360E+01  0.14833204610E+02  0.19667138700E+02  0.25402350901E+02  0.51100000000E-03 0.  1.
         12    1    3    3    0    0 -0.85454333684E+00  0.55833592985E+01 -0.11423778466E+01  0.57627400180E+01  0.00000000000E+00 0. -1.
</event>
<event>
 7    1  0.5910662E-013  0.5052885E+02  0.7816164E-02  0.1300439E+00
        -11   -1    0    0    0    0  0.00000000000E+00  0.00000000000E+00  0.45593999997E+02  0.45594000000E+02  0.51100000000E-03 0. -1.
         11   -1    0    0    0    0 -0.00000000000E+00 -0.00000000000E+00 -0.45593999997E+02  0.45594000000E+02  0.51100000000E-03 0.  1.
    9900012    2    1    2    0    0  0.36006538492E+02 -0.18401996226E+01 -0.18796517733E+02  0.50528853087E+02  0.29999979442E+02 0.  0.
         12    1    1    2    0    0 -0.36006538492E+02  0.18401996226E+01  0.18796517733E+02  0.40659146913E+02  0.00000000000E+00 0. -1.
         11    1    3    3    0    0  0.19904917126E+02  0.10654220231E+02 -0.96739671941E+01  0.24562242896E+02  0.51100000000E-03 0. -1.
        -11    1    3    3    0    0  0.14450360314E+02 -0.13046663399E+02 -0.11805379890E+02  0.22768296679E+02  0.51100000000E-03 0.  1.
         12    1    3    3    0    0  0.16512610523E+01  0.55224354530E+00  0.26828293510E+01  0.31983135123E+01  0.00000000000E+00 0. -1.
</event>
<event>
 7    1  0.5910662E-013  0.5052891E+02  0.7816164E-02  0.1300439E+00
        -11   -1    0    0    0    0  0.00000000000E+00  0.00000000000E+00  0.45593999997E+02  0.45594000000E+02  0.51100000000E-03 0. -1.
         11   -1    0    0    0    0 -0.00000000000E+00 -0.00000000000E+00 -0.45593999997E+02  0.45594000000E+02  0.51100000000E-03 0.  1.
    9900012    2    1    2    0    0  0.34112333162E+02  0.62327978572E+01 -0.21228808358E+02  0.50528913105E+02  0.30000161872E+02 0.  0.
         12    1    1    2    0    0 -0.34112333162E+02 -0.62327978572E+01  0.21228808358E+02  0.40659086895E+02  0.00000000000E+00 0. -1.
         11    1    3    3    0    0  0.16112749579E+02  0.10804434734E+02 -0.18688223516E+02  0.26937078672E+02  0.51100000000E-03 0. -1.
        -11    1    3    3    0    0  0.11620003051E+02  0.48452541734E+00  0.48464234479E+01  0.12599486350E+02  0.51100000000E-03 0.  1.
         12    1    3    3    0    0  0.63795805316E+01 -0.50561622939E+01 -0.73870082893E+01  0.10992348082E+02  0.00000000000E+00 0. -1.
</event>
<event>
 7    1  0.5910662E-013  0.5052886E+02  0.7816164E-02  0.1300439E+00
        -11   -1    0    0    0    0  0.00000000000E+00  0.00000000000E+00  0.45593999997E+02  0.45594000000E+02  0.51100000000E-03 0. -1.
         11   -1    0    0    0    0 -0.00000000000E+00 -0.00000000000E+00 -0.45593999997E+02  0.45594000000E+02  0.51100000000E-03 0.  1.
    9900012    2    1    2    0    0  0.38548182819E+00  0.40200305777E+02 -0.60788645324E+01  0.50528858657E+02  0.29999996372E+02 0.  0.
         12    1    1    2    0    0 -0.38548182819E+00 -0.40200305777E+02  0.60788645324E+01  0.40659141343E+02  0.00000000000E+00 0. -1.
         11    1    3    3    0    0 -0.89324338362E+01  0.20712659450E+02 -0.16442952352E+01  0.22616505982E+02  0.51100000000E-03 0.  1.
        -11    1    3    3    0    0  0.10106092877E+02  0.15219995722E+02  0.37479750910E+01  0.18650166234E+02  0.51100000000E-03 0. -1.
        -12    1    3    3    0    0 -0.78817721231E+00  0.42676506044E+01 -0.81825443882E+01  0.92621864408E+01  0.00000000000E+00 0.  1.
</event>
<event>
 7    1  0.5910662E-013  0.5052887E+02  0.7816164E-02  0.1300439E+00
        -11   -1    0    0    0    0  0.00000000000E+00  0.00000000000E+00  0.45593999997E+02  0.45594000000E+02  0.51100000000E-03 0.  1.
         11   -1    0    0    0    0 -0.00000000000E+00 -0.00000000000E+00 -0.45593999997E+02  0.45594000000E+02  0.51100000000E-03 0. -1.
    9900012    2    1    2    0    0 -0.27653439201E+02 -0.24259625395E+02  0.17318275166E+02  0.50528870906E+02  0.30000033605E+02 0.  0.
         12    1    1    2    0    0  0.27653439201E+02  0.24259625395E+02 -0.17318275166E+02  0.40659129094E+02  0.00000000000E+00 0. -1.
         11    1    3    3    0    0  0.19598902391E+01 -0.84051275448E+01  0.32700749994E+01  0.92293406892E+01  0.51100000000E-03 0. -1.
        -11    1    3    3    0    0 -0.11281274557E+02  0.25681823279E+01 -0.37504160585E+00  0.11575982574E+02  0.51100000000E-03 0.  1.
         12    1    3    3    0    0 -0.18332054883E+02 -0.18422680179E+02  0.14423241773E+02  0.29723547642E+02  0.00000000000E+00 0. -1.
</event>
<event>
 7    1  0.5910662E-013  0.5052886E+02  0.7816164E-02  0.1300439E+00
        -11   -1    0    0    0    0  0.00000000000E+00  0.00000000000E+00  0.45593999997E+02  0.45594000000E+02  0.51100000000E-03 0.  1.
         11   -1    0    0    0    0 -0.00000000000E+00 -0.00000000000E+00 -0.45593999997E+02  0.45594000000E+02  0.51100000000E-03 0. -1.
    9900012    2    1    2    0    0 -0.25508990884E+02 -0.31601856004E+02 -0.19441485100E+01  0.50528860409E+02  0.30000001700E+02 0.  0.
         12    1    1    2    0    0  0.25508990884E+02  0.31601856004E+02  0.19441485100E+01  0.40659139591E+02  0.00000000000E+00 0. -1.
         11    1    3    3    0    0 -0.11276236249E+02 -0.27884326065E+02  0.45980914375E+01  0.30427480822E+02  0.51100000000E-03 0. -1.
        -11    1    3    3    0    0 -0.88470265141E+01  0.74883772727E+00  0.19579047607E+01  0.90919759896E+01  0.51100000000E-03 0.  1.
         12    1    3    3    0    0 -0.53857281210E+01 -0.44663676665E+01 -0.85001447082E+01  0.11009403598E+02  0.00000000000E+00 0. -1.
</event>
<event>
 7    1  0.5910662E-013  0.5052884E+02  0.7816164E-02  0.1300439E+00
        -11   -1    0    0    0    0  0.00000000000E+00  0.00000000000E+00  0.45593999997E+02  0.45594000000E+02  0.51100000000E-03 0.  1.
         11   -1    0    0    0    0 -0.00000000000E+00 -0.00000000000E+00 -0.45593999997E+02  0.45594000000E+02  0.51100000000E-03 0. -1.
    9900012    2    1    2    0    0  0.51522920417E+01 -0.15017605083E+02  0.37431169210E+02  0.50528843539E+02  0.29999950422E+02 0.  0.
         12    1    1    2    0    0 -0.51522920417E+01  0.15017605083E+02 -0.37431169210E+02  0.40659156461E+02  0.00000000000E+00 0. -1.
         11    1    3    3    0    0  0.28539460974E+01 -0.14241124945E+02  0.20235522656E+01  0.14664563139E+02  0.51100000000E-03 0. -1.
        -11    1    3    3    0    0 -0.50494230854E+00  0.18149817096E+01  0.12298181285E+02  0.12441639302E+02  0.51100000000E-03 0.  1.
         12    1    3    3    0    0  0.28032882528E+01 -0.25914618472E+01  0.23109435659E+02  0.23422641098E+02  0.00000000000E+00 0. -1.
</event>
<event>
 7    1  0.5910662E-013  0.5052886E+02  0.7816164E-02  0.1300439E+00
        -11   -1    0    0    0    0  0.00000000000E+00  0.00000000000E+00  0.45593999997E+02  0.45594000000E+02  0.51100000000E-03 0. -1.
         11   -1    0    0    0    0 -0.00000000000E+00 -0.00000000000E+00 -0.45593999997E+02  0.45594000000E+02  0.51100000000E-03 0.  1.
    9900012    2    1    2    0    0 -0.19754678476E+02  0.10668522311E+02 -0.33898397798E+02  0.50528855109E+02  0.29999985590E+02 0.  0.
         12    1    1    2    0    0  0.19754678476E+02 -0.10668522311E+02  0.33898397798E+02  0.40659144891E+02  0.00000000000E+00 0. -1.
         11    1    3    3    0    0  0.26084528892E+01  0.92636814745E+01 -0.38049047479E+01  0.10348773905E+02  0.51100000000E-03 0. -1.
        -11    1    3    3    0    0 -0.76657595444E+01 -0.35842312022E+01 -0.19863455073E+02  0.21590910828E+02  0.51100000000E-03 0.  1.
        -12    1    3    3    0    0 -0.14697371821E+02  0.49890720390E+01 -0.10230037978E+02  0.18589170376E+02  0.00000000000E+00 0.  1.
</event>
<event>
 7    1  0.5910662E-013  0.5052886E+02  0.7816164E-02  0.1300439E+00
        -11   -1    0    0    0    0  0.00000000000E+00  0.00000000000E+00  0.45593999997E+02  0.45594000000E+02  0.51100000000E-03 0.  1.
         11   -1    0    0    0    0 -0.00000000000E+00 -0.00000000000E+00 -0.45593999997E+02  0.45594000000E+02  0.51100000000E-03 0. -1.
    9900012    2    1    2    0    0 -0.20663916487E+02 -0.24420875680E+02  0.25095597621E+02  0.50528860394E+02  0.30000001653E+02 0.  0.
         12    1    1    2    0    0  0.20663916487E+02  0.24420875680E+02 -0.25095597621E+02  0.40659139606E+02  0.00000000000E+00 0. -1.
         11    1    3    3    0    0 -0.39923932065E+01 -0.11299025130E+02 -0.55719602549E+01  0.13215669251E+02  0.51100000000E-03 0. -1.
        -11    1    3    3    0    0 -0.10888717532E+02 -0.81758330201E+01  0.18725886778E+02  0.23153126159E+02  0.51100000000E-03 0.  1.
         12    1    3    3    0    0 -0.57828057487E+01 -0.49460175305E+01  0.11941671098E+02  0.14160064984E+02  0.00000000000E+00 0. -1.
</event>
<event>
 7    1  0.5910662E-013  0.5052886E+02  0.7816164E-02  0.1300439E+00
        -11   -1    0    0    0    0  0.00000000000E+00  0.00000000000E+00  0.45593999997E+02  0.45594000000E+02  0.51100000000E-03 0.  1.
         11   -1    0    0    0    0 -0.00000000000E+00 -0.00000000000E+00 -0.45593999997E+02  0.45594000000E+02  0.51100000000E-03 0. -1.
    9900012    2    1    2    0    0  0.29323517811E+02 -0.31893606470E+01  0.27984369654E+02  0.50528860030E+02  0.30000000547E+02 0.  0.
         12    1    1    2    0    0 -0.29323517811E+02  0.31893606470E+01 -0.27984369654E+02  0.40659139970E+02  0.00000000000E+00 0. -1.
         11    1    3    3    0    0  0.59641809328E+01  0.11082797545E+02  0.65408985491E+01  0.14183906715E+02  0.51100000000E-03 0. -1.
        -11    1    3    3    0    0  0.12674058058E+02 -0.13509032261E+02  0.12057225187E+02  0.22102089941E+02  0.51100000000E-03 0.  1.
         12    1    3    3    0    0  0.10685278820E+02 -0.76312593090E+00  0.93862459179E+01  0.14242863374E+02  0.00000000000E+00 0. -1.
</event>
<event>
 7    1  0.5910662E-013  0.5052887E+02  0.7816164E-02  0.1300439E+00
        -11   -1    0    0    0    0  0.00000000000E+00  0.00000000000E+00  0.45593999997E+02  0.45594000000E+02  0.51100000000E-03 0. -1.
         11   -1    0    0    0    0 -0.00000000000E+00 -0.00000000000E+00 -0.45593999997E+02  0.45594000000E+02  0.51100000000E-03 0.  1.
    9900012    2    1    2    0    0 -0.12039510024E+02 -0.10120281932E+02 -0.37493934026E+02  0.50528868224E+02  0.30000025455E+02 0.  0.
         12    1    1    2    0    0  0.12039510024E+02  0.10120281932E+02  0.37493934026E+02  0.40659131776E+02  0.00000000000E+00 0. -1.
         11    1    3    3    0    0 -0.51732799218E+01 -0.12332312043E+02 -0.95964054839E+01  0.16460247384E+02  0.51100000000E-03 0. -1.
        -11    1    3    3    0    0  0.30421745379E+01  0.23356413104E+01 -0.22421202229E+02  0.22746875739E+02  0.51100000000E-03 0.  1.
         12    1    3    3    0    0 -0.99084046403E+01 -0.12361119905E+00 -0.54763263133E+01  0.11321745101E+02  0.00000000000E+00 0. -1.
</event>
<event>
 7    1  0.5910662E-013  0.5052889E+02  0.7816164E-02  0.1300439E+00
        -11   -1    0    0    0    0  0.00000000000E+00  0.00000000000E+00  0.45593999997E+02  0.45594000000E+02  0.51100000000E-03 0.  1.
         11   -1    0    0    0    0 -0.00000000000E+00 -0.00000000000E+00 -0.45593999997E+02  0.45594000000E+02  0.51100000000E-03 0. -1.
    9900012    2    1    2    0    0  0.11492260412E+02 -0.38973820206E+02 -0.14604278779E+01  0.50528885887E+02  0.30000079143E+02 0.  0.
         12    1    1    2    0    0 -0.11492260412E+02  0.38973820206E+02  0.14604278779E+01  0.40659114113E+02  0.00000000000E+00 0. -1.
         11    1    3    3    0    0  0.42267855748E+01  0.84794440011E+00 -0.28474728655E+01  0.51665102324E+01  0.51100000000E-03 0. -1.
        -11    1    3    3    0    0  0.65339382872E+00 -0.29326967155E+02 -0.72876825458E+01  0.30225953139E+02  0.51100000000E-03 0.  1.
         12    1    3    3    0    0  0.66120810082E+01 -0.10494797451E+02  0.86747275334E+01  0.15136422516E+02  0.00000000000E+00 0. -1.
</event>
<event>
 7    1  0.5910662E-013  0.5052887E+02  0.7816164E-02  0.1300439E+00
        -11   -1    0    0    0    0  0.00000000000E+00  0.00000000000E+00  0.45593999997E+02  0.45594000000E+02  0.51100000000E-03 0.  1.
         11   -1    0    0    0    0 -0.00000000000E+00 -0.00000000000E+00 -0.45593999997E+02  0.45594000000E+02  0.51100000000E-03 0. -1.
    9900012    2    1    2    0    0 -0.29190450997E+02  0.28102739422E+02  0.33642614956E+01  0.50528872515E+02  0.30000038497E+02 0.  0.
         12    1    1    2    0    0  0.29190450997E+02 -0.28102739422E+02 -0.33642614956E+01  0.40659127485E+02  0.00000000000E+00 0. -1.
         11    1    3    3    0    0  0.84399769259E+00 -0.90365645364E+00  0.43949655016E+01  0.45655940591E+01  0.51100000000E-03 0. -1.
        -11    1    3    3    0    0 -0.20099193819E+02  0.87612415307E+01 -0.62828473203E+01  0.22808137058E+02  0.51100000000E-03 0.  1.
        -12    1    3    3    0    0 -0.99352548703E+01  0.20245154345E+02  0.52521433143E+01  0.23155141398E+02  0.00000000000E+00 0.  1.
</event>
<event>
 7    1  0.5910662E-013  0.5052888E+02  0.7816164E-02  0.1300439E+00
        -11   -1    0    0    0    0  0.00000000000E+00  0.00000000000E+00  0.45593999997E+02  0.45594000000E+02  0.51100000000E-03 0.  1.
         11   -1    0    0    0    0 -0.00000000000E+00 -0.00000000000E+00 -0.45593999997E+02  0.45594000000E+02  0.51100000000E-03 0. -1.
    9900012    2    1    2    0    0 -0.14918722595E+02  0.37823180260E+02  0.54489601829E-01  0.50528877801E+02  0.30000054565E+02 0.  0.
         12    1    1    2    0    0  0.14918722595E+02 -0.37823180260E+02 -0.54489601829E-01  0.40659122199E+02  0.00000000000E+00 0. -1.
         11    1    3    3    0    0 -0.15435626077E+01  0.27618509975E+02 -0.31013283395E+01  0.27834922606E+02  0.51100000000E-03 0. -1.
        -11    1    3    3    0    0 -0.11791810090E+02  0.10528998153E+02 -0.32058231931E+01  0.16130216673E+02  0.51100000000E-03 0.  1.
        -12    1    3    3    0    0 -0.15833498970E+01 -0.32432786816E+00  0.63616411345E+01  0.65637385221E+01  0.00000000000E+00 0.  1.
</event>
<event>
 7    1  0.5910662E-013  0.5052885E+02  0.7816164E-02  0.1300439E+00
        -11   -1    0    0    0    0  0.00000000000E+00  0.00000000000E+00  0.45593999997E+02  0.45594000000E+02  0.51100000000E-03 0.  1.
         11   -1    0    0    0    0 -0.00000000000E+00 -0.00000000000E+00 -0.45593999997E+02  0.45594000000E+02  0.51100000000E-03 0. -1.
    9900012    2    1    2    0    0  0.13828635348E+02 -0.41443298267E+01  0.38009997271E+02  0.50528849518E+02  0.29999968596E+02 0.  0.
         12    1    1    2    0    0 -0.13828635348E+02  0.41443298267E+01 -0.38009997271E+02  0.40659150482E+02  0.00000000000E+00 0. -1.
         11    1    3    3    0    0  0.65151143386E+01 -0.16455747968E+01  0.44968269683E+01  0.80855478664E+01  0.51100000000E-03 0. -1.
        -11    1    3    3    0    0 -0.11182276941E+01  0.10212959447E+02  0.17743118031E+02  0.20503004940E+02  0.51100000000E-03 0.  1.
        -12    1    3    3    0    0  0.84317487035E+01 -0.12711714477E+02  0.15770052272E+02  0.21940296712E+02  0.00000000000E+00 0.  1.
</event>
<event>
 7    1  0.5910662E-013  0.5052886E+02  0.7816164E-02  0.1300439E+00
        -11   -1    0    0    0    0  0.00000000000E+00  0.00000000000E+00  0.45593999997E+02  0.45594000000E+02  0.51100000000E-03 0. -1.
         11   -1    0    0    0    0 -0.00000000000E+00 -0.00000000000E+00 -0.45593999997E+02  0.45594000000E+02  0.51100000000E-03 0.  1.
    9900012    2    1    2    0    0  0.38718621347E+02 -0.93944675801E+01 -0.81103811582E+01  0.50528856592E+02  0.29999990098E+02 0.  0.
         12    1    1    2    0    0 -0.38718621347E+02  0.93944675801E+01  0.81103811582E+01  0.40659143408E+02  0.00000000000E+00 0. -1.
         11    1    3    3    0    0 -0.81948648928E+00  0.37795808327E+01  0.40344081258E+01  0.55886705542E+01  0.51100000000E-03 0. -1.
        -11    1    3    3    0    0  0.38476065252E+02 -0.14089337928E+02 -0.96767865467E+01  0.42101748641E+02  0.51100000000E-03 0.  1.
        -12    1    3    3    0    0  0.10620425842E+01  0.91528951495E+00 -0.24680027372E+01  0.28384373972E+01  0.00000000000E+00 0.  1.
</event>
<event>
 7    1  0.5910662E-013  0.5052886E+02  0.7816164E-02  0.1300439E+00
        -11   -1    0    0    0    0  0.00000000000E+00  0.00000000000E+00  0.45593999997E+02  0.45594000000E+02  0.51100000000E-03 0.  1.
         11   -1    0    0    0    0 -0.00000000000E+00 -0.00000000000E+00 -0.45593999997E+02  0.45594000000E+02  0.51100000000E-03 0. -1.
    9900012    2    1    2    0    0  0.36773838457E+02 -0.16883392618E+02  0.39751313363E+01  0.50528858220E+02  0.29999995046E+02 0.  0.
         12    1    1    2    0    0 -0.36773838457E+02  0.16883392618E+02 -0.39751313363E+01  0.40659141780E+02  0.00000000000E+00 0. -1.
         11    1    3    3    0    0  0.29256221083E+02 -0.31780414856E+01  0.97270824793E+01  0.30994234198E+02  0.51100000000E-03 0.  1.
        -11    1    3    3    0    0  0.95402027083E+01 -0.13491467064E+02 -0.44244701471E+01  0.17105878744E+02  0.51100000000E-03 0. -1.
        -12    1    3    3    0    0 -0.20225853343E+01 -0.21388406810E+00 -0.13274809960E+01  0.24287452777E+01  0.00000000000E+00 0.  1.
</event>
<event>
 7    1  0.5910662E-013  0.5052886E+02  0.7816164E-02  0.1300439E+00
        -11   -1    0    0    0    0  0.00000000000E+00  0.00000000000E+00  0.45593999997E+02  0.45594000000E+02  0.51100000000E-03 0.  1.
         11   -1    0    0    0    0 -0.00000000000E+00 -0.00000000000E+00 -0.45593999997E+02  0.45594000000E+02  0.51100000000E-03 0. -1.
    9900012    2    1    2    0    0  0.74013626276E+01  0.11204954538E+02  0.38377528180E+02  0.50528857804E+02  0.29999993780E+02 0.  0.
         12    1    1    2    0    0 -0.74013626276E+01 -0.11204954538E+02 -0.38377528180E+02  0.40659142196E+02  0.00000000000E+00 0. -1.
         11    1    3    3    0    0  0.17711027564E+02  0.64085507849E+01  0.20282949199E+02  0.27679379491E+02  0.51100000000E-03 0. -1.
        -11    1    3    3    0    0  0.12947246217E+01  0.11310839867E+01  0.15766882739E+01  0.23327256600E+01  0.51100000000E-03 0.  1.
         12    1    3    3    0    0 -0.11604389558E+02  0.36653197666E+01  0.16517890707E+02  0.20516752653E+02  0.00000000000E+00 0. -1.
</event>
<event>
 7    1  0.5910662E-013  0.5052886E+02  0.7816164E-02  0.1300439E+00
        -11   -1    0    0    0    0  0.00000000000E+00  0.00000000000E+00  0.45593999997E+02  0.45594000000E+02  0.51100000000E-03 0.  1.
         11   -1    0    0    0    0 -0.00000000000E+00 -0.00000000000E+00 -0.45593999997E+02  0.45594000000E+02  0.51100000000E-03 0. -1.
    9900012    2    1    2    0    0 -0.34219766472E+01  0.14097770855E+02  0.37983009061E+02  0.50528855339E+02  0.29999986288E+02 0.  0.
         12    1    1    2    0    0  0.34219766472E+01 -0.14097770855E+02 -0.37983009061E+02  0.40659144661E+02  0.00000000000E+00 0. -1.
         11    1    3    3    0    0 -0.11798922119E+02  0.17746612027E+02  0.22773634040E+02  0.31189665103E+02  0.51100000000E-03 0. -1.
        -11    1    3    3    0    0  0.87922325257E+01 -0.58329172789E+00  0.10541106181E+02  0.13738941073E+02  0.51100000000E-03 0.  1.
         12    1    3    3    0    0 -0.41528705432E+00 -0.30655494433E+01  0.46682688391E+01  0.56002491624E+01  0.00000000000E+00 0. -1.
</event>
<event>
 7    1  0.5910662E-013  0.5052886E+02  0.7816164E-02  0.1300439E+00
        -11   -1    0    0    0    0  0.00000000000E+00  0.00000000000E+00  0.45593999997E+02  0.45594000000E+02  0.51100000000E-03 0.  1.
         11   -1    0    0    0    0 -0.00000000000E+00 -0.00000000000E+00 -0.45593999997E+02  0.45594000000E+02  0.51100000000E-03 0. -1.
    9900012    2    1    2    0    0 -0.14413804631E+02  0.63059816637E+01  0.37491899250E+02  0.50528859846E+02  0.29999999988E+02 0.  0.
         12    1    1    2    0    0  0.14413804631E+02 -0.63059816637E+01 -0.37491899250E+02  0.40659140154E+02  0.00000000000E+00 0. -1.
         11    1    3    3    0    0 -0.16012759534E+02 -0.45280116512E+01  0.74524433307E+01  0.18233218840E+02  0.51100000000E-03 0. -1.
        -11    1    3    3    0    0  0.21521733222E+00  0.74633865966E+00  0.77711242667E+01  0.78098471512E+01  0.51100000000E-03 0.  1.
         12    1    3    3    0    0  0.13837375706E+01  0.10087654655E+02  0.22268331653E+02  0.24485793855E+02  0.00000000000E+00 0. -1.
</event>
<event>
 7    1  0.5910662E-013  0.5052885E+02  0.7816164E-02  0.1300439E+00
        -11   -1    0    0    0    0  0.00000000000E+00  0.00000000000E+00  0.45593999997E+02  0.45594000000E+02  0.51100000000E-03 0.  1.
         11   -1    0    0    0    0 -0.00000000000E+00 -0.00000000000E+00 -0.45593999997E+02  0.45594000000E+02  0.51100000000E-03 0. -1.
    9900012    2    1    2    0    0 -0.36943823155E+02 -0.14487326194E+01 -0.16918088647E+02  0.50528848275E+02  0.29999964817E+02 0.  0.
         12    1    1    2    0    0  0.36943823155E+02  0.14487326194E+01  0.16918088647E+02  0.40659151725E+02  0.00000000000E+00 0. -1.
         11    1    3    3    0    0 -0.59006746094E+01  0.55472705669E+01  0.19366990907E+01  0.83271228655E+01  0.51100000000E-03 0. -1.
        -11    1    3    3    0    0 -0.16123940895E+02 -0.68409731630E+01 -0.20758720855E+02  0.27160723032E+02  0.51100000000E-03 0.  1.
        -12    1    3    3    0    0 -0.14919207650E+02 -0.15503002331E+00  0.19039331172E+01  0.15041002378E+02  0.00000000000E+00 0.  1.
</event>
<event>
 7    1  0.5910662E-013  0.5052886E+02  0.7816164E-02  0.1300439E+00
        -11   -1    0    0    0    0  0.00000000000E+00  0.00000000000E+00  0.45593999997E+02  0.45594000000E+02  0.51100000000E-03 0.  1.
         11   -1    0    0    0    0 -0.00000000000E+00 -0.00000000000E+00 -0.45593999997E+02  0.45594000000E+02  0.51100000000E-03 0. -1.
    9900012    2    1    2    0    0 -0.10164564044E+02 -0.31395735620E+02  0.23751946375E+02  0.50528861619E+02  0.30000005376E+02 0.  0.
         12    1    1    2    0    0  0.10164564044E+02  0.31395735620E+02 -0.23751946375E+02  0.40659138381E+02  0.00000000000E+00 0. -1.
         11    1    3    3    0    0 -0.15191524385E+02 -0.28371279285E+02  0.76485020198E+01  0.33078867647E+02  0.51100000000E-03 0. -1.
        -11    1    3    3    0    0  0.44567013755E+01 -0.19552109076E+01  0.88851990355E+01  0.10130735364E+02  0.51100000000E-03 0.  1.
         12    1    3    3    0    0  0.57025896568E+00 -0.10692454269E+01  0.72182453198E+01  0.73192586078E+01  0.00000000000E+00 0. -1.
</event>
<event>
 7    1  0.5910662E-013  0.5052885E+02  0.7816164E-02  0.1300439E+00
        -11   -1    0    0    0    0  0.00000000000E+00  0.00000000000E+00  0.45593999997E+02  0.45594000000E+02  0.51100000000E-03 0. -1.
         11   -1    0    0    0    0 -0.00000000000E+00 -0.00000000000E+00 -0.45593999997E+02  0.45594000000E+02  0.51100000000E-03 0.  1.
    9900012    2    1    2    0    0 -0.31521353323E+02 -0.25401523355E+02  0.37859346214E+01  0.50528850906E+02  0.29999972813E+02 0.  0.
         12    1    1    2    0    0  0.31521353323E+02  0.25401523355E+02 -0.37859346214E+01  0.40659149094E+02  0.00000000000E+00 0. -1.
         11    1    3    3    0    0 -0.16125434598E+01 -0.43953977118E+01  0.52676781285E+01  0.70475705446E+01  0.51100000000E-03 0. -1.
        -11    1    3    3    0    0 -0.33743911627E+02 -0.19256392766E+02  0.42642575057E+00  0.38854112697E+02  0.51100000000E-03 0.  1.
        -12    1    3    3    0    0  0.38351017637E+01 -0.17497328779E+01 -0.19081692577E+01  0.46271676648E+01  0.00000000000E+00 0.  1.
</event>
<event>
 7    1  0.5910662E-013  0.5052886E+02  0.7816164E-02  0.1300439E+00
        -11   -1    0    0    0    0  0.00000000000E+00  0.00000000000E+00  0.45593999997E+02  0.45594000000E+02  0.51100000000E-03 0.  1.
         11   -1    0    0    0    0 -0.00000000000E+00 -0.00000000000E+00 -0.45593999997E+02  0.45594000000E+02  0.51100000000E-03 0. -1.
    9900012    2    1    2    0    0 -0.50662517086E+01 -0.39608316582E+01  0.40147355758E+02  0.50528864887E+02  0.30000015311E+02 0.  0.
         12    1    1    2    0    0  0.50662517086E+01  0.39608316582E+01 -0.40147355758E+02  0.40659135113E+02  0.00000000000E+00 0. -1.
         11    1    3    3    0    0  0.39833432816E+01 -0.25654944000E+01  0.10555147672E+02  0.11569785126E+02  0.51100000000E-03 0. -1.
        -11    1    3    3    0    0 -0.80782061109E+01  0.78517822438E+01  0.27076861640E+02  0.29326853477E+02  0.51100000000E-03 0.  1.
        -12    1    3    3    0    0 -0.97138887930E+00 -0.92471195021E+01  0.25153464458E+01  0.96322262838E+01  0.00000000000E+00 0.  1.
</event>
<event>
 7    1  0.5910662E-013  0.5052887E+02  0.7816164E-02  0.1300439E+00
        -11   -1    0    0    0    0  0.00000000000E+00  0.00000000000E+00  0.45593999997E+02  0.45594000000E+02  0.51100000000E-03 0.  1.
         11   -1    0    0    0    0 -0.00000000000E+00 -0.00000000000E+00 -0.45593999997E+02  0.45594000000E+02  0.51100000000E-03 0. -1.
    9900012    2    1    2    0    0 -0.26474141345E+02  0.29332626448E+02  0.95855126049E+01  0.50528865895E+02  0.30000018373E+02 0.  0.
         12    1    1    2    0    0  0.26474141345E+02 -0.29332626448E+02 -0.95855126049E+01  0.40659134105E+02  0.00000000000E+00 0. -1.
         11    1    3    3    0    0 -0.10126554964E+02  0.12158621361E+02  0.18564656376E+02  0.24393147715E+02  0.51100000000E-03 0. -1.
        -11    1    3    3    0    0 -0.12801516100E+02  0.92904138530E+01 -0.68244253335E+01  0.17226821687E+02  0.51100000000E-03 0.  1.
        -12    1    3    3    0    0 -0.35460702810E+01  0.78835912340E+01 -0.21547184373E+01  0.89088964932E+01  0.00000000000E+00 0.  1.
</event>
<event>
 7    1  0.5912920E-013  0.5052885E+02  0.7816164E-02  0.1300439E+00
        -11   -1    0    0    0    0  0.00000000000E+00  0.00000000000E+00  0.45593999997E+02  0.45594000000E+02  0.51100000000E-03 0. -1.
         11   -1    0    0    0    0 -0.00000000000E+00 -0.00000000000E+00 -0.45593999997E+02  0.45594000000E+02  0.51100000000E-03 0.  1.
    9900012    2    1    2    0    0 -0.28763523507E+02 -0.28640480902E+02  0.23555647182E+01  0.50528854461E+02  0.29999983620E+02 0.  0.
         12    1    1    2    0    0  0.28763523507E+02  0.28640480902E+02 -0.23555647182E+01  0.40659145539E+02  0.00000000000E+00 0. -1.
         11    1    3    3    0    0  0.60155126652E+00  0.24675299648E+01 -0.34330416052E+01  0.42704031399E+01  0.51100000000E-03 0. -1.
        -11    1    3    3    0    0 -0.26196750141E+02 -0.20539848110E+02  0.95001160735E+01  0.34618019643E+02  0.51100000000E-03 0.  1.
        -12    1    3    3    0    0 -0.31683246322E+01 -0.10568162757E+02 -0.37115097501E+01  0.11640431678E+02  0.00000000000E+00 0.  1.
</event>
<event>
 7    1  0.5910662E-013  0.5052886E+02  0.7816164E-02  0.1300439E+00
        -11   -1    0    0    0    0  0.00000000000E+00  0.00000000000E+00  0.45593999997E+02  0.45594000000E+02  0.51100000000E-03 0.  1.
         11   -1    0    0    0    0 -0.00000000000E+00 -0.00000000000E+00 -0.45593999997E+02  0.45594000000E+02  0.51100000000E-03 0. -1.
    9900012    2    1    2    0    0 -0.21065456636E+01 -0.11608418407E+02  0.38909804300E+02  0.50528858553E+02  0.29999996059E+02 0.  0.
         12    1    1    2    0    0  0.21065456636E+01  0.11608418407E+02 -0.38909804300E+02  0.40659141447E+02  0.00000000000E+00 0. -1.
         11    1    3    3    0    0  0.56972521939E+01  0.46477194068E+01  0.11328005981E+02  0.13504950870E+02  0.51100000000E-03 0. -1.
        -11    1    3    3    0    0 -0.11556834061E+02 -0.50213385715E+01  0.16849106024E+02  0.21039644214E+02  0.51100000000E-03 0.  1.
        -12    1    3    3    0    0  0.37530362039E+01 -0.11234799242E+02  0.10732692295E+02  0.15984263469E+02  0.00000000000E+00 0.  1.
</event>
<event>
 7    1  0.5910662E-013  0.5052886E+02  0.7816164E-02  0.1300439E+00
        -11   -1    0    0    0    0  0.00000000000E+00  0.00000000000E+00  0.45593999997E+02  0.45594000000E+02  0.51100000000E-03 0.  1.
         11   -1    0    0    0    0 -0.00000000000E+00 -0.00000000000E+00 -0.45593999997E+02  0.45594000000E+02  0.51100000000E-03 0. -1.
    9900012    2    1    2    0    0  0.16069633676E+02 -0.32449854949E+02  0.18491598070E+02  0.50528863119E+02  0.30000009937E+02 0.  0.
         12    1    1    2    0    0 -0.16069633676E+02  0.32449854949E+02 -0.18491598070E+02  0.40659136881E+02  0.00000000000E+00 0. -1.
         11    1    3    3    0    0  0.51094821569E+01 -0.33715357184E+01 -0.75985117885E+01  0.97576350963E+01  0.51100000000E-03 0. -1.
        -11    1    3    3    0    0  0.10925300402E+02 -0.25447004486E+02  0.23313423021E+02  0.36199833141E+02  0.51100000000E-03 0.  1.
         12    1    3    3    0    0  0.34851116406E-01 -0.36313147442E+01  0.27766868373E+01  0.45713948816E+01  0.00000000000E+00 0. -1.
</event>
<event>
 7    1  0.5910662E-013  0.5052886E+02  0.7816164E-02  0.1300439E+00
        -11   -1    0    0    0    0  0.00000000000E+00  0.00000000000E+00  0.45593999997E+02  0.45594000000E+02  0.51100000000E-03 0.  1.
         11   -1    0    0    0    0 -0.00000000000E+00 -0.00000000000E+00 -0.45593999997E+02  0.45594000000E+02  0.51100000000E-03 0. -1.
    9900012    2    1    2    0    0 -0.31532660859E+02 -0.15950536379E+02  0.20110622458E+02  0.50528862684E+02  0.30000008614E+02 0.  0.
         12    1    1    2    0    0  0.31532660859E+02  0.15950536379E+02 -0.20110622458E+02  0.40659137316E+02  0.00000000000E+00 0. -1.
         11    1    3    3    0    0  0.31149634246E+00  0.19356116487E+01  0.21993389216E+01  0.29463052081E+01  0.51100000000E-03 0. -1.
        -11    1    3    3    0    0 -0.23241168114E+02 -0.23540703517E+02  0.98765385756E+01  0.34523363565E+02  0.51100000000E-03 0.  1.
        -12    1    3    3    0    0 -0.86029890876E+01  0.56545554887E+01  0.80347449604E+01  0.13059193911E+02  0.00000000000E+00 0.  1.
</event>
<event>
 7    1  0.5910662E-013  0.5052886E+02  0.7816164E-02  0.1300439E+00
        -11   -1    0    0    0    0  0.00000000000E+00  0.00000000000E+00  0.45593999997E+02  0.45594000000E+02  0.51100000000E-03 0. -1.
         11   -1    0    0    0    0 -0.00000000000E+00 -0.00000000000E+00 -0.45593999997E+02  0.45594000000E+02  0.51100000000E-03 0.  1.
    9900012    2    1    2    0    0 -0.25277564456E+01  0.19326045774E+02 -0.35683053472E+02  0.50528857080E+02  0.29999991580E+02 0.  0.
         12    1    1    2    0    0  0.25277564456E+01 -0.19326045774E+02  0.35683053472E+02  0.40659142920E+02  0.00000000000E+00 0. -1.
         11    1    3    3    0    0  0.68796433784E+00 -0.67302976632E+01 -0.27871187757E+01  0.73169824994E+01  0.51100000000E-03 0. -1.
        -11    1    3    3    0    0 -0.94584614652E+00  0.55927196196E+01 -0.18634327978E+01  0.59703868995E+01  0.51100000000E-03 0.  1.
         12    1    3    3    0    0 -0.22698746369E+01  0.20463623818E+02 -0.31032501898E+02  0.37241487681E+02  0.00000000000E+00 0. -1.
</event>
<event>
 7    1  0.5910662E-013  0.5052886E+02  0.7816164E-02  0.1300439E+00
        -11   -1    0    0    0    0  0.00000000000E+00  0.00000000000E+00  0.45593999997E+02  0.45594000000E+02  0.51100000000E-03 0.  1.
         11   -1    0    0    0    0 -0.00000000000E+00 -0.00000000000E+00 -0.45593999997E+02  0.45594000000E+02  0.51100000000E-03 0. -1.
    9900012    2    1    2    0    0  0.40221580239E+02 -0.46755042973E+01  0.36782959015E+01  0.50528859354E+02  0.29999998492E+02 0.  0.
         12    1    1    2    0    0 -0.40221580239E+02  0.46755042973E+01 -0.36782959015E+01  0.40659140646E+02  0.00000000000E+00 0. -1.
         11    1    3    3    0    0  0.11460543004E+02  0.82034946449E+01  0.10640388612E+02  0.17659536812E+02  0.51100000000E-03 0. -1.
        -11    1    3    3    0    0  0.15703075225E+02 -0.37583408446E+01 -0.44130658855E+01  0.16738782757E+02  0.51100000000E-03 0.  1.
         12    1    3    3    0    0  0.13057962010E+02 -0.91206580976E+01 -0.25490268249E+01  0.16130539785E+02  0.00000000000E+00 0. -1.
</event>
<event>
 7    1  0.5910662E-013  0.5052886E+02  0.7816164E-02  0.1300439E+00
        -11   -1    0    0    0    0  0.00000000000E+00  0.00000000000E+00  0.45593999997E+02  0.45594000000E+02  0.51100000000E-03 0.  1.
         11   -1    0    0    0    0 -0.00000000000E+00 -0.00000000000E+00 -0.45593999997E+02  0.45594000000E+02  0.51100000000E-03 0. -1.
    9900012    2    1    2    0    0  0.33201901066E+02 -0.22966612849E+02 -0.48305292503E+01  0.50528861384E+02  0.30000004662E+02 0.  0.
         12    1    1    2    0    0 -0.33201901066E+02  0.22966612849E+02  0.48305292503E+01  0.40659138616E+02  0.00000000000E+00 0. -1.
         11    1    3    3    0    0  0.23140122741E+02 -0.10160193199E+02 -0.12340179086E+02  0.28124274683E+02  0.51100000000E-03 0. -1.
        -11    1    3    3    0    0 -0.74462206446E+00 -0.90089063512E+01  0.60039088503E+01  0.10851809868E+02  0.51100000000E-03 0.  1.
        -12    1    3    3    0    0  0.10806400389E+02 -0.37975132986E+01  0.15057409854E+01  0.11552776833E+02  0.00000000000E+00 0.  1.
</event>
<event>
 7    1  0.5910662E-013  0.5052887E+02  0.7816164E-02  0.1300439E+00
        -11   -1    0    0    0    0  0.00000000000E+00  0.00000000000E+00  0.45593999997E+02  0.45594000000E+02  0.51100000000E-03 0.  1.
         11   -1    0    0    0    0 -0.00000000000E+00 -0.00000000000E+00 -0.45593999997E+02  0.45594000000E+02  0.51100000000E-03 0. -1.
    9900012    2    1    2    0    0  0.12344855816E+02  0.34731514910E+02 -0.17160746827E+02  0.50528870340E+02  0.30000031885E+02 0.  0.
         12    1    1    2    0    0 -0.12344855816E+02 -0.34731514910E+02  0.17160746827E+02  0.40659129660E+02  0.00000000000E+00 0. -1.
         11    1    3    3    0    0 -0.59514799548E+01  0.28271738059E+01  0.15412317042E+00  0.65906585099E+01  0.51100000000E-03 0. -1.
        -11    1    3    3    0    0  0.64187468034E+01  0.21946572137E+02 -0.34161485674E+01  0.23119740707E+02  0.51100000000E-03 0.  1.
         12    1    3    3    0    0  0.11877588968E+02  0.99577689671E+01 -0.13898721430E+02  0.20818471123E+02  0.00000000000E+00 0. -1.
</event>
<event>
 7    1  0.5910662E-013  0.5052886E+02  0.7816164E-02  0.1300439E+00
        -11   -1    0    0    0    0  0.00000000000E+00  0.00000000000E+00  0.45593999997E+02  0.45594000000E+02  0.51100000000E-03 0.  1.
         11   -1    0    0    0    0 -0.00000000000E+00 -0.00000000000E+00 -0.45593999997E+02  0.45594000000E+02  0.51100000000E-03 0. -1.
    9900012    2    1    2    0    0 -0.24498675016E+02 -0.32434267426E+02 -0.99957237252E+00  0.50528856798E+02  0.29999990722E+02 0.  0.
         12    1    1    2    0    0  0.24498675016E+02  0.32434267426E+02  0.99957237252E+00  0.40659143202E+02  0.00000000000E+00 0. -1.
         11    1    3    3    0    0 -0.89525231321E+01  0.21801202695E+01  0.30965417883E+01  0.97205537974E+01  0.51100000000E-03 0.  1.
        -11    1    3    3    0    0 -0.11099058064E+02 -0.31358771726E+02  0.10307565588E+01  0.33280987266E+02  0.51100000000E-03 0. -1.
        -12    1    3    3    0    0 -0.44470938194E+01 -0.32556159702E+01 -0.51268707196E+01  0.75273157340E+01  0.00000000000E+00 0.  1.
</event>
<event>
 7    1  0.5910662E-013  0.5052885E+02  0.7816164E-02  0.1300439E+00
        -11   -1    0    0    0    0  0.00000000000E+00  0.00000000000E+00  0.45593999997E+02  0.45594000000E+02  0.51100000000E-03 0.  1.
         11   -1    0    0    0    0 -0.00000000000E+00 -0.00000000000E+00 -0.45593999997E+02  0.45594000000E+02  0.51100000000E-03 0. -1.
    9900012    2    1    2    0    0 -0.19513808696E+02 -0.14137586691E+02  0.32749137512E+02  0.50528854718E+02  0.29999984402E+02 0.  0.
         12    1    1    2    0    0  0.19513808696E+02  0.14137586691E+02 -0.32749137512E+02  0.40659145282E+02  0.00000000000E+00 0. -1.
         11    1    3    3    0    0  0.76847677620E+01 -0.23774616439E+01  0.10899960438E+02  0.13546848978E+02  0.51100000000E-03 0. -1.
        -11    1    3    3    0    0 -0.22510708037E+02 -0.84113550638E+01  0.18411637389E+02  0.30273276366E+02  0.51100000000E-03 0.  1.
        -12    1    3    3    0    0 -0.46878684206E+01 -0.33487699835E+01  0.34375396845E+01  0.67087293740E+01  0.00000000000E+00 0.  1.
</event>
<event>
 7    1  0.5910662E-013  0.5052886E+02  0.7816164E-02  0.1300439E+00
        -11   -1    0    0    0    0  0.00000000000E+00  0.00000000000E+00  0.45593999997E+02  0.45594000000E+02  0.51100000000E-03 0.  1.
         11   -1    0    0    0    0 -0.00000000000E+00 -0.00000000000E+00 -0.45593999997E+02  0.45594000000E+02  0.51100000000E-03 0. -1.
    9900012    2    1    2    0    0  0.55529744883E+01  0.60484048207E+01  0.39821437647E+02  0.50528860525E+02  0.30000002052E+02 0.  0.
         12    1    1    2    0    0 -0.55529744883E+01 -0.60484048207E+01 -0.39821437647E+02  0.40659139475E+02  0.00000000000E+00 0. -1.
         11    1    3    3    0    0  0.87075596028E+01  0.15784473677E+02  0.17843753370E+02  0.25364753854E+02  0.51100000000E-03 0.  1.
        -11    1    3    3    0    0 -0.77482189121E+00 -0.92497021504E+01  0.13783708783E+02  0.16617700410E+02  0.51100000000E-03 0. -1.
        -12    1    3    3    0    0 -0.23797632233E+01 -0.48636670641E+00  0.81939754944E+01  0.85464062608E+01  0.00000000000E+00 0.  1.
</event>
<event>
 7    1  0.5910662E-013  0.5052891E+02  0.7816164E-02  0.1300439E+00
        -11   -1    0    0    0    0  0.00000000000E+00  0.00000000000E+00  0.45593999997E+02  0.45594000000E+02  0.51100000000E-03 0.  1.
         11   -1    0    0    0    0 -0.00000000000E+00 -0.00000000000E+00 -0.45593999997E+02  0.45594000000E+02  0.51100000000E-03 0. -1.
    9900012    2    1    2    0    0  0.39265639469E+02  0.47738752326E+01  0.94117706525E+01  0.50528908096E+02  0.30000146648E+02 0.  0.
         12    1    1    2    0    0 -0.39265639469E+02 -0.47738752326E+01 -0.94117706525E+01  0.40659091904E+02  0.00000000000E+00 0. -1.
         11    1    3    3    0    0  0.21444325383E+02  0.27005430865E+01 -0.40937321454E+01  0.21997969616E+02  0.51100000000E-03 0. -1.
        -11    1    3    3    0    0  0.17172096710E+02 -0.38565932907E+01  0.14078766611E+02  0.22538098562E+02  0.51100000000E-03 0.  1.
        -12    1    3    3    0    0  0.64921737639E+00  0.59299254368E+01 -0.57326381307E+00  0.59928399183E+01  0.00000000000E+00 0.  1.
</event>
<event>
 7    1  0.5910662E-013  0.5052886E+02  0.7816164E-02  0.1300439E+00
        -11   -1    0    0    0    0  0.00000000000E+00  0.00000000000E+00  0.45593999997E+02  0.45594000000E+02  0.51100000000E-03 0.  1.
         11   -1    0    0    0    0 -0.00000000000E+00 -0.00000000000E+00 -0.45593999997E+02  0.45594000000E+02  0.51100000000E-03 0. -1.
    9900012    2    1    2    0    0 -0.21378817962E+02 -0.32052667222E+02  0.12989923323E+02  0.50528862756E+02  0.30000008833E+02 0.  0.
         12    1    1    2    0    0  0.21378817962E+02  0.32052667222E+02 -0.12989923323E+02  0.40659137244E+02  0.00000000000E+00 0. -1.
         11    1    3    3    0    0 -0.21230979117E+02 -0.22906283416E+02  0.16603327449E+01  0.31276332893E+02  0.51100000000E-03 0. -1.
        -11    1    3    3    0    0  0.21151416505E+01 -0.10986895107E+02  0.11841162925E+02  0.16291065894E+02  0.51100000000E-03 0.  1.
         12    1    3    3    0    0 -0.22629804961E+01  0.18405113005E+01 -0.51157234674E+00  0.29614639689E+01  0.00000000000E+00 0. -1.
</event>
<event>
 7    1  0.5910662E-013  0.5052887E+02  0.7816164E-02  0.1300439E+00
        -11   -1    0    0    0    0  0.00000000000E+00  0.00000000000E+00  0.45593999997E+02  0.45594000000E+02  0.51100000000E-03 0. -1.
         11   -1    0    0    0    0 -0.00000000000E+00 -0.00000000000E+00 -0.45593999997E+02  0.45594000000E+02  0.51100000000E-03 0.  1.
    9900012    2    1    2    0    0 -0.21138630433E+02  0.11915425665E+02 -0.32624318600E+02  0.50528865363E+02  0.30000016756E+02 0.  0.
         12    1    1    2    0    0  0.21138630433E+02 -0.11915425665E+02  0.32624318600E+02  0.40659134637E+02  0.00000000000E+00 0. -1.
         11    1    3    3    0    0 -0.40586299684E+01  0.14637612548E+02 -0.26911888900E+02  0.30902782120E+02  0.51100000000E-03 0. -1.
        -11    1    3    3    0    0 -0.97113600260E+01 -0.18979765545E+01 -0.69728797398E+01  0.12105117954E+02  0.51100000000E-03 0.  1.
         12    1    3    3    0    0 -0.73686404384E+01 -0.82421032839E+00  0.12604500396E+01  0.75209652890E+01  0.00000000000E+00 0. -1.
</event>
<event>
 7    1  0.5910662E-013  0.5052886E+02  0.7816164E-02  0.1300439E+00
        -11   -1    0    0    0    0  0.00000000000E+00  0.00000000000E+00  0.45593999997E+02  0.45594000000E+02  0.51100000000E-03 0.  1.
         11   -1    0    0    0    0 -0.00000000000E+00 -0.00000000000E+00 -0.45593999997E+02  0.45594000000E+02  0.51100000000E-03 0. -1.
    9900012    2    1    2    0    0 -0.33444837505E+02 -0.22546614268E+02  0.51243345649E+01  0.50528858649E+02  0.29999996349E+02 0.  0.
         12    1    1    2    0    0  0.33444837505E+02  0.22546614268E+02 -0.51243345649E+01  0.40659141351E+02  0.00000000000E+00 0. -1.
         11    1    3    3    0    0 -0.70483044078E+01 -0.16164882394E+02 -0.89191377519E+01  0.19761908722E+02  0.51100000000E-03 0. -1.
        -11    1    3    3    0    0 -0.11340667831E+02 -0.26871456381E+01  0.41256301586E+01  0.12363345946E+02  0.51100000000E-03 0.  1.
         12    1    3    3    0    0 -0.15055865267E+02 -0.36945862354E+01  0.99178421582E+01  0.18403603980E+02  0.00000000000E+00 0. -1.
</event>
<event>
 7    1  0.5910662E-013  0.5052887E+02  0.7816164E-02  0.1300439E+00
        -11   -1    0    0    0    0  0.00000000000E+00  0.00000000000E+00  0.45593999997E+02  0.45594000000E+02  0.51100000000E-03 0. -1.
         11   -1    0    0    0    0 -0.00000000000E+00 -0.00000000000E+00 -0.45593999997E+02  0.45594000000E+02  0.51100000000E-03 0.  1.
    9900012    2    1    2    0    0 -0.28635909711E+02  0.17861206273E+02 -0.22674365319E+02  0.50528869942E+02  0.30000030675E+02 0.  0.
         12    1    1    2    0    0  0.28635909711E+02 -0.17861206273E+02  0.22674365319E+02  0.40659130058E+02  0.00000000000E+00 0. -1.
         11    1    3    3    0    0 -0.57537000661E+01  0.10126507382E+02 -0.80684492802E+01  0.14168665789E+02  0.51100000000E-03 0. -1.
        -11    1    3    3    0    0 -0.60842067675E+01 -0.93665367595E-01  0.60695761277E+01  0.85945389534E+01  0.51100000000E-03 0.  1.
        -12    1    3    3    0    0 -0.16798002877E+02  0.78283642586E+01 -0.20675492166E+02  0.27765665199E+02  0.00000000000E+00 0.  1.
</event>
<event>
 7    1  0.5910662E-013  0.5052886E+02  0.7816164E-02  0.1300439E+00
        -11   -1    0    0    0    0  0.00000000000E+00  0.00000000000E+00  0.45593999997E+02  0.45594000000E+02  0.51100000000E-03 0.  1.
         11   -1    0    0    0    0 -0.00000000000E+00 -0.00000000000E+00 -0.45593999997E+02  0.45594000000E+02  0.51100000000E-03 0. -1.
    9900012    2    1    2    0    0 -0.35156311003E+02 -0.19575234229E+02  0.58317772395E+01  0.50528860508E+02  0.30000001999E+02 0.  0.
         12    1    1    2    0    0  0.35156311003E+02  0.19575234229E+02 -0.58317772395E+01  0.40659139492E+02  0.00000000000E+00 0. -1.
         11    1    3    3    0    0 -0.36712189255E+02 -0.15873253775E+02  0.32131531221E+01  0.40125669821E+02  0.51100000000E-03 0. -1.
        -11    1    3    3    0    0  0.40013483771E+00 -0.20690360156E+01  0.60636518781E+01  0.64194152601E+01  0.51100000000E-03 0.  1.
         12    1    3    3    0    0  0.11557434143E+01 -0.16329444385E+01 -0.34450277607E+01  0.39837754268E+01  0.00000000000E+00 0. -1.
</event>
<event>
 7    1  0.5910662E-013  0.5052887E+02  0.7816164E-02  0.1300439E+00
        -11   -1    0    0    0    0  0.00000000000E+00  0.00000000000E+00  0.45593999997E+02  0.45594000000E+02  0.51100000000E-03 0.  1.
         11   -1    0    0    0    0 -0.00000000000E+00 -0.00000000000E+00 -0.45593999997E+02  0.45594000000E+02  0.51100000000E-03 0. -1.
    9900012    2    1    2    0    0  0.26566831854E+02 -0.38834398094E+01  0.30533378429E+02  0.50528869934E+02  0.30000030650E+02 0.  0.
         12    1    1    2    0    0 -0.26566831854E+02  0.38834398094E+01 -0.30533378429E+02  0.40659130066E+02  0.00000000000E+00 0. -1.
         11    1    3    3    0    0  0.27643375139E+00 -0.16544922784E+01 -0.52071932959E+01  0.54707058594E+01  0.51100000000E-03 0. -1.
        -11    1    3    3    0    0  0.14663342378E+02 -0.39014761592E+01  0.24382341407E+02  0.28718177147E+02  0.51100000000E-03 0.  1.
         12    1    3    3    0    0  0.11627055724E+02  0.16725286281E+01  0.11358230317E+02  0.16339986927E+02  0.00000000000E+00 0. -1.
</event>
<event>
 7    1  0.5910662E-013  0.5052885E+02  0.7816164E-02  0.1300439E+00
        -11   -1    0    0    0    0  0.00000000000E+00  0.00000000000E+00  0.45593999997E+02  0.45594000000E+02  0.51100000000E-03 0.  1.
         11   -1    0    0    0    0 -0.00000000000E+00 -0.00000000000E+00 -0.45593999997E+02  0.45594000000E+02  0.51100000000E-03 0. -1.
    9900012    2    1    2    0    0 -0.45537838655E+00  0.37873999720E+02  0.14782392225E+02  0.50528851655E+02  0.29999975090E+02 0.  0.
         12    1    1    2    0    0  0.45537838655E+00 -0.37873999720E+02 -0.14782392225E+02  0.40659148345E+02  0.00000000000E+00 0. -1.
         11    1    3    3    0    0  0.97060092204E+01  0.66005584089E+01  0.28505489988E+00  0.11741177234E+02  0.51100000000E-03 0. -1.
        -11    1    3    3    0    0 -0.54989902386E+01  0.28911920470E+02  0.80954126413E+01  0.30523331158E+02  0.51100000000E-03 0.  1.
        -12    1    3    3    0    0 -0.46623973683E+01  0.23615208417E+01  0.64019246835E+01  0.82643432624E+01  0.00000000000E+00 0.  1.
</event>
<event>
 7    1  0.5910662E-013  0.5052889E+02  0.7816164E-02  0.1300439E+00
        -11   -1    0    0    0    0  0.00000000000E+00  0.00000000000E+00  0.45593999997E+02  0.45594000000E+02  0.51100000000E-03 0. -1.
         11   -1    0    0    0    0 -0.00000000000E+00 -0.00000000000E+00 -0.45593999997E+02  0.45594000000E+02  0.51100000000E-03 0.  1.
    9900012    2    1    2    0    0 -0.34940855261E+02 -0.20709681465E+02  0.18463873244E+01  0.50528887627E+02  0.30000084432E+02 0.  0.
         12    1    1    2    0    0  0.34940855261E+02  0.20709681465E+02 -0.18463873244E+01  0.40659112373E+02  0.00000000000E+00 0. -1.
         11    1    3    3    0    0 -0.32800918066E+02 -0.66778113852E+01  0.49759618906E+01  0.33841595528E+02  0.51100000000E-03 0. -1.
        -11    1    3    3    0    0 -0.37417640475E+01 -0.13410669747E+02 -0.10108724322E+01  0.13959538839E+02  0.51100000000E-03 0.  1.
         12    1    3    3    0    0  0.16018268524E+01 -0.62120033249E+00 -0.21187021340E+01  0.27277532606E+01  0.00000000000E+00 0. -1.
</event>
<event>
 7    1  0.5910662E-013  0.5052887E+02  0.7816164E-02  0.1300439E+00
        -11   -1    0    0    0    0  0.00000000000E+00  0.00000000000E+00  0.45593999997E+02  0.45594000000E+02  0.51100000000E-03 0.  1.
         11   -1    0    0    0    0 -0.00000000000E+00 -0.00000000000E+00 -0.45593999997E+02  0.45594000000E+02  0.51100000000E-03 0. -1.
    9900012    2    1    2    0    0 -0.23395328393E+02 -0.32900006078E+02  0.48386782992E+01  0.50528873125E+02  0.30000040351E+02 0.  0.
         12    1    1    2    0    0  0.23395328393E+02  0.32900006078E+02 -0.48386782992E+01  0.40659126875E+02  0.00000000000E+00 0. -1.
         11    1    3    3    0    0 -0.87378204393E+00  0.10791574144E+01 -0.49591736548E+01  0.51499009102E+01  0.51100000000E-03 0. -1.
        -11    1    3    3    0    0 -0.16841369857E+02 -0.34665564657E+02  0.78209509120E+01  0.39325569100E+02  0.51100000000E-03 0.  1.
        -12    1    3    3    0    0 -0.56801764921E+01  0.68640116405E+00  0.19769010420E+01  0.60534031148E+01  0.00000000000E+00 0.  1.
</event>
<event>
 7    1  0.5910662E-013  0.5052887E+02  0.7816164E-02  0.1300439E+00
        -11   -1    0    0    0    0  0.00000000000E+00  0.00000000000E+00  0.45593999997E+02  0.45594000000E+02  0.51100000000E-03 0.  1.
         11   -1    0    0    0    0 -0.00000000000E+00 -0.00000000000E+00 -0.45593999997E+02  0.45594000000E+02  0.51100000000E-03 0. -1.
    9900012    2    1    2    0    0 -0.36253007082E+02 -0.86683221871E+01  0.16240223358E+02  0.50528865888E+02  0.30000018352E+02 0.  0.
         12    1    1    2    0    0  0.36253007082E+02  0.86683221871E+01 -0.16240223358E+02  0.40659134112E+02  0.00000000000E+00 0. -1.
         11    1    3    3    0    0 -0.11535082192E+02 -0.15547406192E+01 -0.67158811531E+01  0.13437946253E+02  0.51100000000E-03 0.  1.
        -11    1    3    3    0    0 -0.15049233218E+02 -0.44019362462E+01  0.21983170454E+02  0.27002152629E+02  0.51100000000E-03 0. -1.
         12    1    3    3    0    0 -0.96686916724E+01 -0.27116453217E+01  0.97293405710E+00  0.10088767005E+02  0.00000000000E+00 0. -1.
</event>
<event>
 7    1  0.5910662E-013  0.5052884E+02  0.7816164E-02  0.1300439E+00
        -11   -1    0    0    0    0  0.00000000000E+00  0.00000000000E+00  0.45593999997E+02  0.45594000000E+02  0.51100000000E-03 0. -1.
         11   -1    0    0    0    0 -0.00000000000E+00 -0.00000000000E+00 -0.45593999997E+02  0.45594000000E+02  0.51100000000E-03 0.  1.
    9900012    2    1    2    0    0 -0.36587719224E+02  0.26650757610E+01 -0.17532915672E+02  0.50528844096E+02  0.29999952115E+02 0.  0.
         12    1    1    2    0    0  0.36587719224E+02 -0.26650757610E+01  0.17532915672E+02  0.40659155904E+02  0.00000000000E+00 0. -1.
         11    1    3    3    0    0 -0.75662508130E+01  0.37008556280E+01 -0.25536623280E+00  0.84267251005E+01  0.51100000000E-03 0. -1.
        -11    1    3    3    0    0  0.27427346354E+01  0.20929989484E+01 -0.82342145581E+01  0.89277952221E+01  0.51100000000E-03 0.  1.
        -12    1    3    3    0    0 -0.31764203047E+02 -0.31287788155E+01 -0.90433348812E+01  0.33174323774E+02  0.00000000000E+00 0.  1.
</event>
<event>
 7    1  0.5910662E-013  0.5052886E+02  0.7816164E-02  0.1300439E+00
        -11   -1    0    0    0    0  0.00000000000E+00  0.00000000000E+00  0.45593999997E+02  0.45594000000E+02  0.51100000000E-03 0. -1.
         11   -1    0    0    0    0 -0.00000000000E+00 -0.00000000000E+00 -0.45593999997E+02  0.45594000000E+02  0.51100000000E-03 0.  1.
    9900012    2    1    2    0    0 -0.28865229383E+02  0.28515978083E+02  0.26082901403E+01  0.50528860181E+02  0.30000001006E+02 0.  0.
         12    1    1    2    0    0  0.28865229383E+02 -0.28515978083E+02 -0.26082901403E+01  0.40659139819E+02  0.00000000000E+00 0. -1.
         11    1    3    3    0    0 -0.10286126566E+02  0.16219520323E+02 -0.60610222660E+01  0.20139841866E+02  0.51100000000E-03 0. -1.
        -11    1    3    3    0    0 -0.22380178214E+02  0.10058827651E+02  0.85261169359E+01  0.25975893841E+02  0.51100000000E-03 0.  1.
         12    1    3    3    0    0  0.38010753961E+01  0.22376301092E+01  0.14319547041E+00  0.44131244731E+01  0.00000000000E+00 0. -1.
</event>
<event>
 7    1  0.5910662E-013  0.5052885E+02  0.7816164E-02  0.1300439E+00
        -11   -1    0    0    0    0  0.00000000000E+00  0.00000000000E+00  0.45593999997E+02  0.45594000000E+02  0.51100000000E-03 0.  1.
         11   -1    0    0    0    0 -0.00000000000E+00 -0.00000000000E+00 -0.45593999997E+02  0.45594000000E+02  0.51100000000E-03 0. -1.
    9900012    2    1    2    0    0 -0.74093613312E+01  0.37394637885E+02  0.14138920194E+02  0.50528847991E+02  0.29999963953E+02 0.  0.
         12    1    1    2    0    0  0.74093613312E+01 -0.37394637885E+02 -0.14138920194E+02  0.40659152009E+02  0.00000000000E+00 0. -1.
         11    1    3    3    0    0  0.30045427844E+01  0.13099019634E+02 -0.40051453514E+01  0.14023294273E+02  0.51100000000E-03 0. -1.
        -11    1    3    3    0    0  0.75173260407E+00  0.17462893360E+02  0.15023735558E+02  0.23048435452E+02  0.51100000000E-03 0.  1.
        -12    1    3    3    0    0 -0.11165636720E+02  0.68327248906E+01  0.31203299865E+01  0.13457118266E+02  0.00000000000E+00 0.  1.
</event>
<event>
 7    1  0.5910662E-013  0.5052886E+02  0.7816164E-02  0.1300439E+00
        -11   -1    0    0    0    0  0.00000000000E+00  0.00000000000E+00  0.45593999997E+02  0.45594000000E+02  0.51100000000E-03 0.  1.
         11   -1    0    0    0    0 -0.00000000000E+00 -0.00000000000E+00 -0.45593999997E+02  0.45594000000E+02  0.51100000000E-03 0. -1.
    9900012    2    1    2    0    0 -0.23685246287E+02 -0.65515413211E+01  0.32392162338E+02  0.50528858761E+02  0.29999996690E+02 0.  0.
         12    1    1    2    0    0  0.23685246287E+02  0.65515413211E+01 -0.32392162338E+02  0.40659141239E+02  0.00000000000E+00 0. -1.
         11    1    3    3    0    0 -0.13272462975E+02 -0.96625276703E+01  0.29427261354E+01  0.16678799470E+02  0.51100000000E-03 0. -1.
        -11    1    3    3    0    0 -0.10967370705E+02 -0.10915988831E+01  0.26457924767E+02  0.28661761836E+02  0.51100000000E-03 0.  1.
         12    1    3    3    0    0  0.55458739294E+00  0.42025852323E+01  0.29915114348E+01  0.51882974544E+01  0.00000000000E+00 0. -1.
</event>
<event>
 7    1  0.5910662E-013  0.5052882E+02  0.7816164E-02  0.1300439E+00
        -11   -1    0    0    0    0  0.00000000000E+00  0.00000000000E+00  0.45593999997E+02  0.45594000000E+02  0.51100000000E-03 0.  1.
         11   -1    0    0    0    0 -0.00000000000E+00 -0.00000000000E+00 -0.45593999997E+02  0.45594000000E+02  0.51100000000E-03 0. -1.
    9900012    2    1    2    0    0 -0.29392327002E+02 -0.28046207721E+02  0.16340076435E+01  0.50528823482E+02  0.29999889457E+02 0.  0.
         12    1    1    2    0    0  0.29392327002E+02  0.28046207721E+02 -0.16340076435E+01  0.40659176518E+02  0.00000000000E+00 0. -1.
         11    1    3    3    0    0 -0.77575440419E+01  0.34183883552E+01  0.22091059022E+01  0.87604233720E+01  0.51100000000E-03 0. -1.
        -11    1    3    3    0    0 -0.23573205103E+02 -0.27966356755E+02 -0.36014785180E+01  0.36753010173E+02  0.51100000000E-03 0.  1.
         12    1    3    3    0    0  0.19384221432E+01 -0.34982393209E+01  0.30263802594E+01  0.50153899376E+01  0.00000000000E+00 0. -1.
</event>
<event>
 7    1  0.6003985E-013  0.5052895E+02  0.7816164E-02  0.1300438E+00
        -11   -1    0    0    0    0  0.00000000000E+00  0.00000000000E+00  0.45593999997E+02  0.45594000000E+02  0.51100000000E-03 0.  1.
         11   -1    0    0    0    0 -0.00000000000E+00 -0.00000000000E+00 -0.45593999997E+02  0.45594000000E+02  0.51100000000E-03 0. -1.
    9900012    2    1    2    0    0 -0.81778339422E+01  0.36830660901E+02 -0.15158613571E+02  0.50528952842E+02  0.30000282657E+02 0.  0.
         12    1    1    2    0    0  0.81778339422E+01 -0.36830660901E+02  0.15158613571E+02  0.40659047158E+02  0.00000000000E+00 0. -1.
         11    1    3    3    0    0 -0.14532157792E+01 -0.30007004033E+01  0.29203118607E+01  0.44321846347E+01  0.51100000000E-03 0. -1.
        -11    1    3    3    0    0 -0.85183664297E+01  0.31067382444E+02 -0.92214825138E+01  0.33507917849E+02  0.51100000000E-03 0.  1.
        -12    1    3    3    0    0  0.17937482667E+01  0.87639788608E+01 -0.88574429176E+01  0.12588850359E+02  0.00000000000E+00 0.  1.
</event>
<event>
 7    1  0.5910662E-013  0.5052886E+02  0.7816164E-02  0.1300439E+00
        -11   -1    0    0    0    0  0.00000000000E+00  0.00000000000E+00  0.45593999997E+02  0.45594000000E+02  0.51100000000E-03 0.  1.
         11   -1    0    0    0    0 -0.00000000000E+00 -0.00000000000E+00 -0.45593999997E+02  0.45594000000E+02  0.51100000000E-03 0. -1.
    9900012    2    1    2    0    0  0.22110269213E+02  0.28746759245E+01  0.34000563191E+02  0.50528855104E+02  0.29999985574E+02 0.  0.
         12    1    1    2    0    0 -0.22110269213E+02 -0.28746759245E+01 -0.34000563191E+02  0.40659144896E+02  0.00000000000E+00 0. -1.
         11    1    3    3    0    0  0.81929900997E+00 -0.16927162397E+01  0.12207478452E+02  0.12351480460E+02  0.51100000000E-03 0. -1.
        -11    1    3    3    0    0  0.24311972033E+02  0.89775121069E+01  0.16975461159E+02  0.30981187673E+02  0.51100000000E-03 0.  1.
        -12    1    3    3    0    0 -0.30210018301E+01 -0.44101199427E+01  0.48176235798E+01  0.71961869712E+01  0.00000000000E+00 0.  1.
</event>
<event>
 7    1  0.5910662E-013  0.5052886E+02  0.7816164E-02  0.1300439E+00
        -11   -1    0    0    0    0  0.00000000000E+00  0.00000000000E+00  0.45593999997E+02  0.45594000000E+02  0.51100000000E-03 0.  1.
         11   -1    0    0    0    0 -0.00000000000E+00 -0.00000000000E+00 -0.45593999997E+02  0.45594000000E+02  0.51100000000E-03 0. -1.
    9900012    2    1    2    0    0 -0.15873315312E+02  0.12059670758E+02  0.35436811521E+02  0.50528863160E+02  0.30000010062E+02 0.  0.
         12    1    1    2    0    0  0.15873315312E+02 -0.12059670758E+02 -0.35436811521E+02  0.40659136840E+02  0.00000000000E+00 0. -1.
         11    1    3    3    0    0  0.21954334146E+01  0.12307248817E+01  0.20270721500E+02  0.20426374176E+02  0.51100000000E-03 0.  1.
        -11    1    3    3    0    0 -0.16196381701E+02  0.54485235190E+01  0.17013376698E+02  0.24113568290E+02  0.51100000000E-03 0. -1.
         12    1    3    3    0    0 -0.18723670263E+01  0.53804223570E+01 -0.18472866767E+01  0.59889206946E+01  0.00000000000E+00 0. -1.
</event>
<event>
 7    1  0.5910662E-013  0.5052885E+02  0.7816164E-02  0.1300439E+00
        -11   -1    0    0    0    0  0.00000000000E+00  0.00000000000E+00  0.45593999997E+02  0.45594000000E+02  0.51100000000E-03 0.  1.
         11   -1    0    0    0    0 -0.00000000000E+00 -0.00000000000E+00 -0.45593999997E+02  0.45594000000E+02  0.51100000000E-03 0. -1.
    9900012    2    1    2    0    0 -0.16670432948E+02 -0.16711636370E+02  0.33105650032E+02  0.50528853564E+02  0.29999980894E+02 0.  0.
         12    1    1    2    0    0  0.16670432948E+02  0.16711636370E+02 -0.33105650032E+02  0.40659146436E+02  0.00000000000E+00 0. -1.
         11    1    3    3    0    0 -0.15917482293E+02 -0.14612397623E+01  0.18501270985E+02  0.24449918048E+02  0.51100000000E-03 0. -1.
        -11    1    3    3    0    0 -0.41642234788E+01 -0.11887177534E+01  0.99951989199E+01  0.10893016515E+02  0.51100000000E-03 0.  1.
         12    1    3    3    0    0  0.34112728247E+01 -0.14061678854E+02  0.46091801274E+01  0.15185919002E+02  0.00000000000E+00 0. -1.
</event>
<event>
 7    1  0.5910662E-013  0.5052885E+02  0.7816164E-02  0.1300439E+00
        -11   -1    0    0    0    0  0.00000000000E+00  0.00000000000E+00  0.45593999997E+02  0.45594000000E+02  0.51100000000E-03 0.  1.
         11   -1    0    0    0    0 -0.00000000000E+00 -0.00000000000E+00 -0.45593999997E+02  0.45594000000E+02  0.51100000000E-03 0. -1.
    9900012    2    1    2    0    0 -0.17363228586E+02 -0.62501721794E+01  0.36230095801E+02  0.50528853416E+02  0.29999980443E+02 0.  0.
         12    1    1    2    0    0  0.17363228586E+02  0.62501721794E+01 -0.36230095801E+02  0.40659146584E+02  0.00000000000E+00 0. -1.
         11    1    3    3    0    0  0.37894398643E+01  0.15416920928E+01  0.54237473578E+01  0.67936517909E+01  0.51100000000E-03 0. -1.
        -11    1    3    3    0    0 -0.14465707282E+02 -0.15010178476E+02  0.23898669543E+02  0.31712908275E+02  0.51100000000E-03 0.  1.
        -12    1    3    3    0    0 -0.66869611683E+01  0.72183142041E+01  0.69076789003E+01  0.12022293350E+02  0.00000000000E+00 0.  1.
</event>
<event>
 7    1  0.5910662E-013  0.5052885E+02  0.7816164E-02  0.1300439E+00
        -11   -1    0    0    0    0  0.00000000000E+00  0.00000000000E+00  0.45593999997E+02  0.45594000000E+02  0.51100000000E-03 0. -1.
         11   -1    0    0    0    0 -0.00000000000E+00 -0.00000000000E+00 -0.45593999997E+02  0.45594000000E+02  0.51100000000E-03 0.  1.
    9900012    2    1    2    0    0  0.30783827964E+02 -0.19102576171E+02 -0.18455732370E+02  0.50528849273E+02  0.29999967851E+02 0.  0.
         12    1    1    2    0    0 -0.30783827964E+02  0.19102576171E+02  0.18455732370E+02  0.40659150727E+02  0.00000000000E+00 0. -1.
         11    1    3    3    0    0  0.42544625958E+01 -0.15852470759E+02 -0.85737660715E+01  0.18517849391E+02  0.51100000000E-03 0. -1.
        -11    1    3    3    0    0  0.11126194343E+02  0.46039828744E+01  0.10959634927E+00  0.12041630724E+02  0.51100000000E-03 0.  1.
         12    1    3    3    0    0  0.15403171025E+02 -0.78540882863E+01 -0.99915626482E+01  0.19969369159E+02  0.00000000000E+00 0. -1.
</event>
<event>
 7    1  0.5910662E-013  0.5052887E+02  0.7816164E-02  0.1300439E+00
        -11   -1    0    0    0    0  0.00000000000E+00  0.00000000000E+00  0.45593999997E+02  0.45594000000E+02  0.51100000000E-03 0.  1.
         11   -1    0    0    0    0 -0.00000000000E+00 -0.00000000000E+00 -0.45593999997E+02  0.45594000000E+02  0.51100000000E-03 0. -1.
    9900012    2    1    2    0    0  0.31801355805E+02  0.14757620341E+02  0.20592514862E+02  0.50528865017E+02  0.30000015707E+02 0.  0.
         12    1    1    2    0    0 -0.31801355805E+02 -0.14757620341E+02 -0.20592514862E+02  0.40659134983E+02  0.00000000000E+00 0. -1.
         11    1    3    3    0    0  0.60212563917E+01  0.28789608639E+01 -0.24819076837E+01  0.71206607981E+01  0.51100000000E-03 0. -1.
        -11    1    3    3    0    0  0.24865284767E+02  0.17191768882E+02  0.23053051315E+02  0.38016870978E+02  0.51100000000E-03 0.  1.
        -12    1    3    3    0    0  0.91481464680E+00 -0.53131094046E+01  0.21371231296E-01  0.53913332408E+01  0.00000000000E+00 0.  1.
</event>
<event>
 7    1  0.5910662E-013  0.5052886E+02  0.7816164E-02  0.1300439E+00
        -11   -1    0    0    0    0  0.00000000000E+00  0.00000000000E+00  0.45593999997E+02  0.45594000000E+02  0.51100000000E-03 0.  1.
         11   -1    0    0    0    0 -0.00000000000E+00 -0.00000000000E+00 -0.45593999997E+02  0.45594000000E+02  0.51100000000E-03 0. -1.
    9900012    2    1    2    0    0 -0.36227893573E+01 -0.12771777197E+01  0.40477276748E+02  0.50528859348E+02  0.29999998474E+02 0.  0.
         12    1    1    2    0    0  0.36227893573E+01  0.12771777197E+01 -0.40477276748E+02  0.40659140652E+02  0.00000000000E+00 0. -1.
         11    1    3    3    0    0  0.11992238058E+02 -0.25491179234E+01  0.17980115304E+02  0.21762268320E+02  0.51100000000E-03 0. -1.
        -11    1    3    3    0    0 -0.13061125391E+02 -0.53763013003E+00  0.11763405701E+02  0.17585782797E+02  0.51100000000E-03 0.  1.
         12    1    3    3    0    0 -0.25539020240E+01  0.18095703337E+01  0.10733755743E+02  0.11180808231E+02  0.00000000000E+00 0. -1.
</event>
<event>
 7    1  0.5910662E-013  0.5052887E+02  0.7816164E-02  0.1300439E+00
        -11   -1    0    0    0    0  0.00000000000E+00  0.00000000000E+00  0.45593999997E+02  0.45594000000E+02  0.51100000000E-03 0.  1.
         11   -1    0    0    0    0 -0.00000000000E+00 -0.00000000000E+00 -0.45593999997E+02  0.45594000000E+02  0.51100000000E-03 0. -1.
    9900012    2    1    2    0    0 -0.35561617271E+02 -0.10780582468E+02  0.16501978239E+02  0.50528869819E+02  0.30000030303E+02 0.  0.
         12    1    1    2    0    0  0.35561617271E+02  0.10780582468E+02 -0.16501978239E+02  0.40659130181E+02  0.00000000000E+00 0. -1.
         11    1    3    3    0    0 -0.12890290066E+02 -0.56722920250E+01  0.17499036424E+02  0.22462207168E+02  0.51100000000E-03 0. -1.
        -11    1    3    3    0    0  0.15034325283E+01  0.83368324614E+00 -0.26043040458E+01  0.31205347212E+01  0.51100000000E-03 0.  1.
        -12    1    3    3    0    0 -0.24174759733E+02 -0.59419736891E+01  0.16072458605E+01  0.24946127931E+02  0.00000000000E+00 0.  1.
</event>
<event>
 7    1  0.5910662E-013  0.5052886E+02  0.7816164E-02  0.1300439E+00
        -11   -1    0    0    0    0  0.00000000000E+00  0.00000000000E+00  0.45593999997E+02  0.45594000000E+02  0.51100000000E-03 0.  1.
         11   -1    0    0    0    0 -0.00000000000E+00 -0.00000000000E+00 -0.45593999997E+02  0.45594000000E+02  0.51100000000E-03 0. -1.
    9900012    2    1    2    0    0 -0.35356079749E+02  0.19036799874E+02  0.63807062119E+01  0.50528861588E+02  0.30000005283E+02 0.  0.
         12    1    1    2    0    0  0.35356079749E+02 -0.19036799874E+02 -0.63807062119E+01  0.40659138412E+02  0.00000000000E+00 0. -1.
         11    1    3    3    0    0 -0.18283165825E+02  0.15753535122E+02  0.13304296363E+02  0.27558162554E+02  0.51100000000E-03 0.  1.
        -11    1    3    3    0    0 -0.12902424510E+02 -0.31641088268E+01 -0.75260580787E+01  0.15268454191E+02  0.51100000000E-03 0. -1.
         12    1    3    3    0    0 -0.41704894136E+01  0.64473735788E+01  0.60246792798E+00  0.77022448427E+01  0.00000000000E+00 0. -1.
</event>
<event>
 7    1  0.5910662E-013  0.5052886E+02  0.7816164E-02  0.1300439E+00
        -11   -1    0    0    0    0  0.00000000000E+00  0.00000000000E+00  0.45593999997E+02  0.45594000000E+02  0.51100000000E-03 0.  1.
         11   -1    0    0    0    0 -0.00000000000E+00 -0.00000000000E+00 -0.45593999997E+02  0.45594000000E+02  0.51100000000E-03 0. -1.
    9900012    2    1    2    0    0 -0.11445242384E+02 -0.97258970609E+01  0.37783318110E+02  0.50528858663E+02  0.29999996391E+02 0.  0.
         12    1    1    2    0    0  0.11445242384E+02  0.97258970609E+01 -0.37783318110E+02  0.40659141337E+02  0.00000000000E+00 0. -1.
         11    1    3    3    0    0 -0.59890479149E+01 -0.34903017334E+01 -0.25656467894E+01  0.73914440285E+01  0.51100000000E-03 0. -1.
        -11    1    3    3    0    0 -0.80143888663E+01  0.39036496531E+00  0.24198984742E+02  0.25494581317E+02  0.51100000000E-03 0.  1.
         12    1    3    3    0    0  0.25581943973E+01 -0.66259602928E+01  0.16149980157E+02  0.17642833317E+02  0.00000000000E+00 0. -1.
</event>
<event>
 7    1  0.5910662E-013  0.5052886E+02  0.7816164E-02  0.1300439E+00
        -11   -1    0    0    0    0  0.00000000000E+00  0.00000000000E+00  0.45593999997E+02  0.45594000000E+02  0.51100000000E-03 0. -1.
         11   -1    0    0    0    0 -0.00000000000E+00 -0.00000000000E+00 -0.45593999997E+02  0.45594000000E+02  0.51100000000E-03 0.  1.
    9900012    2    1    2    0    0  0.28967159696E+02  0.54590422915E+01 -0.28004792124E+02  0.50528857541E+02  0.29999992981E+02 0.  0.
         12    1    1    2    0    0 -0.28967159696E+02 -0.54590422915E+01  0.28004792124E+02  0.40659142459E+02  0.00000000000E+00 0. -1.
         11    1    3    3    0    0 -0.46496099608E+01  0.13286170589E+00 -0.33950847975E+01  0.57587434449E+01  0.51100000000E-03 0. -1.
        -11    1    3    3    0    0  0.32669848600E+02  0.14749947515E+01 -0.24392746552E+02  0.40798292877E+02  0.51100000000E-03 0.  1.
        -12    1    3    3    0    0  0.94692105686E+00  0.38511858341E+01 -0.21696077422E+00  0.39718212188E+01  0.00000000000E+00 0.  1.
</event>
<event>
 7    1  0.5910662E-013  0.5052886E+02  0.7816164E-02  0.1300439E+00
        -11   -1    0    0    0    0  0.00000000000E+00  0.00000000000E+00  0.45593999997E+02  0.45594000000E+02  0.51100000000E-03 0.  1.
         11   -1    0    0    0    0 -0.00000000000E+00 -0.00000000000E+00 -0.45593999997E+02  0.45594000000E+02  0.51100000000E-03 0. -1.
    9900012    2    1    2    0    0  0.27719172193E+02  0.39380474479E+01  0.29483978892E+02  0.50528859132E+02  0.29999997818E+02 0.  0.
         12    1    1    2    0    0 -0.27719172193E+02 -0.39380474479E+01 -0.29483978892E+02  0.40659140868E+02  0.00000000000E+00 0. -1.
         11    1    3    3    0    0 -0.21196369442E+01 -0.42047777256E+01  0.36433689657E+01  0.59537512695E+01  0.51100000000E-03 0.  1.
        -11    1    3    3    0    0  0.23443628651E+02  0.64300446133E+01  0.28483294733E+02  0.37446592331E+02  0.51100000000E-03 0. -1.
         12    1    3    3    0    0  0.63951804863E+01  0.17127805603E+01 -0.26426848068E+01  0.71285155319E+01  0.00000000000E+00 0. -1.
</event>
<event>
 7    1  0.5910662E-013  0.5052885E+02  0.7816164E-02  0.1300439E+00
        -11   -1    0    0    0    0  0.00000000000E+00  0.00000000000E+00  0.45593999997E+02  0.45594000000E+02  0.51100000000E-03 0. -1.
         11   -1    0    0    0    0 -0.00000000000E+00 -0.00000000000E+00 -0.45593999997E+02  0.45594000000E+02  0.51100000000E-03 0.  1.
    9900012    2    1    2    0    0  0.44341187664E+01  0.14561140257E+02 -0.37702492783E+02  0.50528853712E+02  0.29999981342E+02 0.  0.
         12    1    1    2    0    0 -0.44341187664E+01 -0.14561140257E+02  0.37702492783E+02  0.40659146288E+02  0.00000000000E+00 0. -1.
         11    1    3    3    0    0 -0.11449466404E+01  0.10617872242E+02 -0.10772266904E+01  0.10733616881E+02  0.51100000000E-03 0. -1.
        -11    1    3    3    0    0  0.28436650915E+01  0.66727549885E+01 -0.34751941210E+02  0.35500838137E+02  0.51100000000E-03 0.  1.
        -12    1    3    3    0    0  0.27354003153E+01 -0.27294869731E+01 -0.18733248831E+01  0.42943986936E+01  0.00000000000E+00 0.  1.
</event>
<event>
 7    1  0.5910662E-013  0.5052883E+02  0.7816164E-02  0.1300439E+00
        -11   -1    0    0    0    0  0.00000000000E+00  0.00000000000E+00  0.45593999997E+02  0.45594000000E+02  0.51100000000E-03 0.  1.
         11   -1    0    0    0    0 -0.00000000000E+00 -0.00000000000E+00 -0.45593999997E+02  0.45594000000E+02  0.51100000000E-03 0. -1.
    9900012    2    1    2    0    0 -0.20822002968E+02  0.48297321856E+01  0.34587369278E+02  0.50528828413E+02  0.29999904445E+02 0.  0.
         12    1    1    2    0    0  0.20822002968E+02 -0.48297321856E+01 -0.34587369278E+02  0.40659171587E+02  0.00000000000E+00 0. -1.
         11    1    3    3    0    0 -0.84123665101E+01  0.67074513086E+01  0.24221458099E+02  0.26503525163E+02  0.51100000000E-03 0.  1.
        -11    1    3    3    0    0  0.25094327807E+01 -0.57068255764E+01  0.36318059818E+01  0.72149238382E+01  0.51100000000E-03 0. -1.
        -12    1    3    3    0    0 -0.14919069238E+02  0.38291064534E+01  0.67341051963E+01  0.16810379412E+02  0.00000000000E+00 0.  1.
</event>
<event>
 7    1  0.5910662E-013  0.5052887E+02  0.7816164E-02  0.1300439E+00
        -11   -1    0    0    0    0  0.00000000000E+00  0.00000000000E+00  0.45593999997E+02  0.45594000000E+02  0.51100000000E-03 0. -1.
         11   -1    0    0    0    0 -0.00000000000E+00 -0.00000000000E+00 -0.45593999997E+02  0.45594000000E+02  0.51100000000E-03 0.  1.
    9900012    2    1    2    0    0 -0.28853649711E+02 -0.28570863372E+02  0.20826329691E+01  0.50528871928E+02  0.30000036712E+02 0.  0.
         12    1    1    2    0    0  0.28853649711E+02  0.28570863372E+02 -0.20826329691E+01  0.40659128072E+02  0.00000000000E+00 0. -1.
         11    1    3    3    0    0  0.22332733146E+01  0.35612421277E+01 -0.12264652744E+01  0.43788323238E+01  0.51100000000E-03 0. -1.
        -11    1    3    3    0    0 -0.27208734477E+02 -0.28956087655E+02 -0.68656969287E+00  0.39739673154E+02  0.51100000000E-03 0.  1.
        -12    1    3    3    0    0 -0.38781885485E+01 -0.31760178448E+01  0.39956679364E+01  0.64103664502E+01  0.00000000000E+00 0.  1.
</event>
<event>
 7    1  0.5910662E-013  0.5052886E+02  0.7816164E-02  0.1300439E+00
        -11   -1    0    0    0    0  0.00000000000E+00  0.00000000000E+00  0.45593999997E+02  0.45594000000E+02  0.51100000000E-03 0.  1.
         11   -1    0    0    0    0 -0.00000000000E+00 -0.00000000000E+00 -0.45593999997E+02  0.45594000000E+02  0.51100000000E-03 0. -1.
    9900012    2    1    2    0    0 -0.36668226354E+02 -0.10766241935E+02 -0.13881450763E+02  0.50528862471E+02  0.30000007965E+02 0.  0.
         12    1    1    2    0    0  0.36668226354E+02  0.10766241935E+02  0.13881450763E+02  0.40659137529E+02  0.00000000000E+00 0. -1.
         11    1    3    3    0    0 -0.17345669462E+02  0.47326139823E+01 -0.17348844596E+01  0.18063214236E+02  0.51100000000E-03 0.  1.
        -11    1    3    3    0    0 -0.17899779250E+02 -0.15571640186E+02 -0.38351612269E+01  0.24033030129E+02  0.51100000000E-03 0. -1.
         12    1    3    3    0    0 -0.14227776422E+01  0.72784268999E-01 -0.83114050764E+01  0.84326181055E+01  0.00000000000E+00 0. -1.
</event>
<event>
 7    1  0.5910662E-013  0.5052886E+02  0.7816164E-02  0.1300439E+00
        -11   -1    0    0    0    0  0.00000000000E+00  0.00000000000E+00  0.45593999997E+02  0.45594000000E+02  0.51100000000E-03 0.  1.
         11   -1    0    0    0    0 -0.00000000000E+00 -0.00000000000E+00 -0.45593999997E+02  0.45594000000E+02  0.51100000000E-03 0. -1.
    9900012    2    1    2    0    0  0.14644864930E+02  0.29630521291E+02  0.23679643762E+02  0.50528863395E+02  0.30000010774E+02 0.  0.
         12    1    1    2    0    0 -0.14644864930E+02 -0.29630521291E+02 -0.23679643762E+02  0.40659136605E+02  0.00000000000E+00 0. -1.
         11    1    3    3    0    0  0.18740169791E+01 -0.54379195766E+00 -0.24447488405E+01  0.31280099881E+01  0.51100000000E-03 0. -1.
        -11    1    3    3    0    0  0.11772795689E+02  0.29152291875E+02  0.29885629655E+02  0.43377479180E+02  0.51100000000E-03 0.  1.
        -12    1    3    3    0    0  0.99805226189E+00  0.10220213741E+01 -0.37612370519E+01  0.40233742266E+01  0.00000000000E+00 0.  1.
</event>
<event>
 7    1  0.5910662E-013  0.5052887E+02  0.7816164E-02  0.1300439E+00
        -11   -1    0    0    0    0  0.00000000000E+00  0.00000000000E+00  0.45593999997E+02  0.45594000000E+02  0.51100000000E-03 0.  1.
         11   -1    0    0    0    0 -0.00000000000E+00 -0.00000000000E+00 -0.45593999997E+02  0.45594000000E+02  0.51100000000E-03 0. -1.
    9900012    2    1    2    0    0  0.35205978336E+02  0.14899271140E+02  0.13846138115E+02  0.50528871482E+02  0.30000035358E+02 0.  0.
         12    1    1    2    0    0 -0.35205978336E+02 -0.14899271140E+02 -0.13846138115E+02  0.40659128518E+02  0.00000000000E+00 0. -1.
         11    1    3    3    0    0 -0.21665643710E+00 -0.23615511291E+01  0.90035652106E+01  0.93106417883E+01  0.51100000000E-03 0. -1.
        -11    1    3    3    0    0  0.17023509003E+02  0.47914628111E+01 -0.23876294729E+01  0.17845412560E+02  0.51100000000E-03 0.  1.
         12    1    3    3    0    0  0.18399125770E+02  0.12469359458E+02  0.72302023778E+01  0.23372817135E+02  0.00000000000E+00 0. -1.
</event>
<event>
 7    1  0.5910662E-013  0.5052883E+02  0.7816164E-02  0.1300439E+00
        -11   -1    0    0    0    0  0.00000000000E+00  0.00000000000E+00  0.45593999997E+02  0.45594000000E+02  0.51100000000E-03 0.  1.
         11   -1    0    0    0    0 -0.00000000000E+00 -0.00000000000E+00 -0.45593999997E+02  0.45594000000E+02  0.51100000000E-03 0. -1.
    9900012    2    1    2    0    0  0.38276354051E+02  0.54025572674E+01  0.12605590924E+02  0.50528833420E+02  0.29999919663E+02 0.  0.
         12    1    1    2    0    0 -0.38276354051E+02 -0.54025572674E+01 -0.12605590924E+02  0.40659166580E+02  0.00000000000E+00 0. -1.
         11    1    3    3    0    0  0.31991883182E+01  0.50479146641E+01  0.14147642494E+02  0.15358126082E+02  0.51100000000E-03 0. -1.
        -11    1    3    3    0    0  0.80617461739E+01  0.12275435946E+00 -0.12047096145E+01  0.81521865485E+01  0.51100000000E-03 0.  1.
         12    1    3    3    0    0  0.27015419558E+02  0.23188824384E+00 -0.33734195464E+00  0.27018520790E+02  0.00000000000E+00 0. -1.
</event>
<event>
 7    1  0.5910662E-013  0.5052887E+02  0.7816164E-02  0.1300439E+00
        -11   -1    0    0    0    0  0.00000000000E+00  0.00000000000E+00  0.45593999997E+02  0.45594000000E+02  0.51100000000E-03 0.  1.
         11   -1    0    0    0    0 -0.00000000000E+00 -0.00000000000E+00 -0.45593999997E+02  0.45594000000E+02  0.51100000000E-03 0. -1.
    9900012    2    1    2    0    0 -0.39027713736E+01 -0.34384706475E+02  0.21345385116E+02  0.50528866591E+02  0.30000020491E+02 0.  0.
         12    1    1    2    0    0  0.39027713736E+01  0.34384706475E+02 -0.21345385116E+02  0.40659133409E+02  0.00000000000E+00 0. -1.
         11    1    3    3    0    0  0.42386750417E+01 -0.56148252402E+01 -0.47606371469E+01  0.84944861465E+01  0.51100000000E-03 0. -1.
        -11    1    3    3    0    0 -0.71357995740E+01 -0.26359276008E+02  0.27761970484E+02  0.38941726626E+02  0.51100000000E-03 0.  1.
        -12    1    3    3    0    0 -0.10056468413E+01 -0.24106052272E+01 -0.16559482212E+01  0.30926538186E+01  0.00000000000E+00 0.  1.
</event>
<event>
 7    1  0.5910662E-013  0.5052886E+02  0.7816164E-02  0.1300439E+00
        -11   -1    0    0    0    0  0.00000000000E+00  0.00000000000E+00  0.45593999997E+02  0.45594000000E+02  0.51100000000E-03 0. -1.
         11   -1    0    0    0    0 -0.00000000000E+00 -0.00000000000E+00 -0.45593999997E+02  0.45594000000E+02  0.51100000000E-03 0.  1.
    9900012    2    1    2    0    0  0.38175096182E+02  0.10546563661E+02 -0.91977184161E+01  0.50528855916E+02  0.29999988043E+02 0.  0.
         12    1    1    2    0    0 -0.38175096182E+02 -0.10546563661E+02  0.91977184161E+01  0.40659144084E+02  0.00000000000E+00 0. -1.
         11    1    3    3    0    0 -0.25545728449E+01  0.76617131217E+00  0.12061561462E+01  0.29270589010E+01  0.51100000000E-03 0. -1.
        -11    1    3    3    0    0  0.22530794534E+02  0.15096224792E+02 -0.90635879802E+01  0.28595127778E+02  0.51100000000E-03 0.  1.
        -12    1    3    3    0    0  0.18198874493E+02 -0.53158324430E+01 -0.13402865820E+01  0.19006669237E+02  0.00000000000E+00 0.  1.
</event>
<event>
 7    1  0.5910662E-013  0.5052886E+02  0.7816164E-02  0.1300439E+00
        -11   -1    0    0    0    0  0.00000000000E+00  0.00000000000E+00  0.45593999997E+02  0.45594000000E+02  0.51100000000E-03 0. -1.
         11   -1    0    0    0    0 -0.00000000000E+00 -0.00000000000E+00 -0.45593999997E+02  0.45594000000E+02  0.51100000000E-03 0.  1.
    9900012    2    1    2    0    0  0.90211268190E+01  0.20688568071E+02 -0.33819640672E+02  0.50528859907E+02  0.30000000174E+02 0.  0.
         12    1    1    2    0    0 -0.90211268190E+01 -0.20688568071E+02  0.33819640672E+02  0.40659140093E+02  0.00000000000E+00 0. -1.
         11    1    3    3    0    0  0.20356472928E+01 -0.42279731701E+00  0.10564105625E+01  0.23320851206E+01  0.51100000000E-03 0. -1.
        -11    1    3    3    0    0  0.14778354471E+02  0.20733175038E+02 -0.26450664248E+02  0.36713784161E+02  0.51100000000E-03 0.  1.
        -12    1    3    3    0    0 -0.77928749443E+01  0.37819035033E+00 -0.84253869861E+01  0.11482990625E+02  0.00000000000E+00 0.  1.
</event>
<event>
 7    1  0.5910662E-013  0.5052887E+02  0.7816164E-02  0.1300439E+00
        -11   -1    0    0    0    0  0.00000000000E+00  0.00000000000E+00  0.45593999997E+02  0.45594000000E+02  0.51100000000E-03 0.  1.
         11   -1    0    0    0    0 -0.00000000000E+00 -0.00000000000E+00 -0.45593999997E+02  0.45594000000E+02  0.51100000000E-03 0. -1.
    9900012    2    1    2    0    0 -0.35403874017E+02  0.14200276727E+02  0.14074180753E+02  0.50528871647E+02  0.30000035858E+02 0.  0.
         12    1    1    2    0    0  0.35403874017E+02 -0.14200276727E+02 -0.14074180753E+02  0.40659128353E+02  0.00000000000E+00 0. -1.
         11    1    3    3    0    0 -0.47583346376E+01  0.84082266218E+01  0.16623060186E+02  0.19226704181E+02  0.51100000000E-03 0. -1.
        -11    1    3    3    0    0 -0.12564149020E+02  0.21577732996E+01 -0.71317117289E+00  0.12768024106E+02  0.51100000000E-03 0.  1.
         12    1    3    3    0    0 -0.18081390360E+02  0.36342768055E+01 -0.18357082608E+01  0.18534143360E+02  0.00000000000E+00 0. -1.
</event>
<event>
 7    1  0.5910662E-013  0.5052886E+02  0.7816164E-02  0.1300439E+00
        -11   -1    0    0    0    0  0.00000000000E+00  0.00000000000E+00  0.45593999997E+02  0.45594000000E+02  0.51100000000E-03 0. -1.
         11   -1    0    0    0    0 -0.00000000000E+00 -0.00000000000E+00 -0.45593999997E+02  0.45594000000E+02  0.51100000000E-03 0.  1.
    9900012    2    1    2    0    0  0.11007510844E+02  0.10529251038E+01 -0.39126607837E+02  0.50528863425E+02  0.30000010866E+02 0.  0.
         12    1    1    2    0    0 -0.11007510844E+02 -0.10529251038E+01  0.39126607837E+02  0.40659136575E+02  0.00000000000E+00 0. -1.
         11    1    3    3    0    0 -0.80669113310E+01 -0.40259341688E+01 -0.41036018407E+01  0.99056929431E+01  0.51100000000E-03 0. -1.
        -11    1    3    3    0    0  0.32687312371E+01  0.29753955394E+01 -0.10247443066E+02  0.11160092838E+02  0.51100000000E-03 0.  1.
         12    1    3    3    0    0  0.15805690938E+02  0.21034637333E+01 -0.24775562930E+02  0.29463077643E+02  0.00000000000E+00 0. -1.
</event>
<event>
 7    1  0.5910662E-013  0.5052886E+02  0.7816164E-02  0.1300439E+00
        -11   -1    0    0    0    0  0.00000000000E+00  0.00000000000E+00  0.45593999997E+02  0.45594000000E+02  0.51100000000E-03 0.  1.
         11   -1    0    0    0    0 -0.00000000000E+00 -0.00000000000E+00 -0.45593999997E+02  0.45594000000E+02  0.51100000000E-03 0. -1.
    9900012    2    1    2    0    0  0.16777984047E+02  0.88662363851E+01  0.35959075151E+02  0.50528856108E+02  0.29999988625E+02 0.  0.
         12    1    1    2    0    0 -0.16777984047E+02 -0.88662363851E+01 -0.35959075151E+02  0.40659143892E+02  0.00000000000E+00 0. -1.
         11    1    3    3    0    0  0.97159425883E+01  0.26361549459E+01  0.85290569914E+01  0.13194455908E+02  0.51100000000E-03 0. -1.
        -11    1    3    3    0    0 -0.49548578063E+01  0.58159594355E+01  0.23458601643E+02  0.24671481337E+02  0.51100000000E-03 0.  1.
        -12    1    3    3    0    0  0.12016899265E+02  0.41412200379E+00  0.39714165167E+01  0.12662918863E+02  0.00000000000E+00 0.  1.
</event>
<event>
 7    1  0.5910662E-013  0.5052886E+02  0.7816164E-02  0.1300439E+00
        -11   -1    0    0    0    0  0.00000000000E+00  0.00000000000E+00  0.45593999997E+02  0.45594000000E+02  0.51100000000E-03 0. -1.
         11   -1    0    0    0    0 -0.00000000000E+00 -0.00000000000E+00 -0.45593999997E+02  0.45594000000E+02  0.51100000000E-03 0.  1.
    9900012    2    1    2    0    0 -0.13762559868E+02  0.88486217667E+01 -0.37221760645E+02  0.50528860477E+02  0.30000001905E+02 0.  0.
         12    1    1    2    0    0  0.13762559868E+02 -0.88486217667E+01  0.37221760645E+02  0.40659139523E+02  0.00000000000E+00 0. -1.
         11    1    3    3    0    0  0.37666598026E+01 -0.16373428393E+01 -0.22938520495E+02  0.23303311790E+02  0.51100000000E-03 0. -1.
        -11    1    3    3    0    0 -0.12700953453E+02  0.98799088522E+01 -0.15355937809E+02  0.22242563787E+02  0.51100000000E-03 0.  1.
         12    1    3    3    0    0 -0.48282662175E+01  0.60605575371E+00  0.10726976591E+01  0.49829848997E+01  0.00000000000E+00 0. -1.
</event>
<event>
 7    1  0.5910662E-013  0.5052885E+02  0.7816164E-02  0.1300439E+00
        -11   -1    0    0    0    0  0.00000000000E+00  0.00000000000E+00  0.45593999997E+02  0.45594000000E+02  0.51100000000E-03 0.  1.
         11   -1    0    0    0    0 -0.00000000000E+00 -0.00000000000E+00 -0.45593999997E+02  0.45594000000E+02  0.51100000000E-03 0. -1.
    9900012    2    1    2    0    0  0.28049717096E+01  0.38206074026E+02  0.13623312480E+02  0.50528848487E+02  0.29999965462E+02 0.  0.
         12    1    1    2    0    0 -0.28049717096E+01 -0.38206074026E+02 -0.13623312480E+02  0.40659151513E+02  0.00000000000E+00 0. -1.
         11    1    3    3    0    0 -0.44971216907E+01  0.28919142567E+01 -0.65210747232E+01  0.84327745953E+01  0.51100000000E-03 0. -1.
        -11    1    3    3    0    0  0.67717438907E-02  0.11833675748E+02  0.32774312740E+01  0.12279148325E+02  0.51100000000E-03 0.  1.
         12    1    3    3    0    0  0.72953216564E+01  0.23480484022E+02  0.16866955929E+02  0.29816925567E+02  0.00000000000E+00 0. -1.
</event>
<event>
 7    1  0.5910662E-013  0.5052886E+02  0.7816164E-02  0.1300439E+00
        -11   -1    0    0    0    0  0.00000000000E+00  0.00000000000E+00  0.45593999997E+02  0.45594000000E+02  0.51100000000E-03 0. -1.
         11   -1    0    0    0    0 -0.00000000000E+00 -0.00000000000E+00 -0.45593999997E+02  0.45594000000E+02  0.51100000000E-03 0.  1.
    9900012    2    1    2    0    0 -0.49051734336E+01  0.39005102816E+02 -0.10378200684E+02  0.50528858082E+02  0.29999994625E+02 0.  0.
         12    1    1    2    0    0  0.49051734336E+01 -0.39005102816E+02  0.10378200684E+02  0.40659141918E+02  0.00000000000E+00 0. -1.
         11    1    3    3    0    0  0.69469446310E+01  0.50679827916E+01 -0.22635132989E+01  0.88920178811E+01  0.51100000000E-03 0. -1.
        -11    1    3    3    0    0 -0.14314126938E+02  0.14450881886E+02 -0.83675768184E+01  0.21994057364E+02  0.51100000000E-03 0.  1.
        -12    1    3    3    0    0  0.24620088737E+01  0.19486238138E+02  0.25288943279E+00  0.19642782836E+02  0.00000000000E+00 0.  1.
</event>
<event>
 7    1  0.5910662E-013  0.5052883E+02  0.7816164E-02  0.1300439E+00
        -11   -1    0    0    0    0  0.00000000000E+00  0.00000000000E+00  0.45593999997E+02  0.45594000000E+02  0.51100000000E-03 0. -1.
         11   -1    0    0    0    0 -0.00000000000E+00 -0.00000000000E+00 -0.45593999997E+02  0.45594000000E+02  0.51100000000E-03 0.  1.
    9900012    2    1    2    0    0  0.63367277712E+01  0.35521890478E+02 -0.18740572979E+02  0.50528832553E+02  0.29999917027E+02 0.  0.
         12    1    1    2    0    0 -0.63367277712E+01 -0.35521890478E+02  0.18740572979E+02  0.40659167447E+02  0.00000000000E+00 0. -1.
         11    1    3    3    0    0 -0.74933298419E+01  0.32305667106E+01  0.83406616182E+00  0.82025739872E+01  0.51100000000E-03 0. -1.
        -11    1    3    3    0    0  0.45488631751E+01  0.21998023113E+02 -0.67815035185E+01  0.23464738807E+02  0.51100000000E-03 0.  1.
         12    1    3    3    0    0  0.92811944381E+01  0.10293300654E+02 -0.12793135622E+02  0.18861519758E+02  0.00000000000E+00 0. -1.
</event>
<event>
 7    1  0.5910662E-013  0.5052889E+02  0.7816164E-02  0.1300439E+00
        -11   -1    0    0    0    0  0.00000000000E+00  0.00000000000E+00  0.45593999997E+02  0.45594000000E+02  0.51100000000E-03 0.  1.
         11   -1    0    0    0    0 -0.00000000000E+00 -0.00000000000E+00 -0.45593999997E+02  0.45594000000E+02  0.51100000000E-03 0. -1.
    9900012    2    1    2    0    0  0.22839434641E+02  0.26150896573E+01  0.33536314833E+02  0.50528894240E+02  0.30000104532E+02 0.  0.
         12    1    1    2    0    0 -0.22839434641E+02 -0.26150896573E+01 -0.33536314833E+02  0.40659105760E+02  0.00000000000E+00 0. -1.
         11    1    3    3    0    0  0.11602509242E+02 -0.12704235624E+02  0.11527148548E+02  0.20709683180E+02  0.51100000000E-03 0. -1.
        -11    1    3    3    0    0  0.20906821042E+01  0.72406453700E+01  0.11303824073E+02  0.13585813776E+02  0.51100000000E-03 0.  1.
         12    1    3    3    0    0  0.91462432939E+01  0.80786799110E+01  0.10705342212E+02  0.16233397284E+02  0.00000000000E+00 0. -1.
</event>
<event>
 7    1  0.5910662E-013  0.5052886E+02  0.7816164E-02  0.1300439E+00
        -11   -1    0    0    0    0  0.00000000000E+00  0.00000000000E+00  0.45593999997E+02  0.45594000000E+02  0.51100000000E-03 0. -1.
         11   -1    0    0    0    0 -0.00000000000E+00 -0.00000000000E+00 -0.45593999997E+02  0.45594000000E+02  0.51100000000E-03 0.  1.
    9900012    2    1    2    0    0 -0.19853816094E+02  0.35370195375E+02 -0.28179520346E+01  0.50528860953E+02  0.30000003352E+02 0.  0.
         12    1    1    2    0    0  0.19853816094E+02 -0.35370195375E+02  0.28179520346E+01  0.40659139047E+02  0.00000000000E+00 0. -1.
         11    1    3    3    0    0  0.54421720327E+01  0.99363148084E+00  0.35149504489E+01  0.65543433594E+01  0.51100000000E-03 0. -1.
        -11    1    3    3    0    0 -0.11279869335E+02  0.22052483711E+02 -0.49498375797E+01  0.25259619600E+02  0.51100000000E-03 0.  1.
        -12    1    3    3    0    0 -0.14016118792E+02  0.12324080184E+02 -0.13830649038E+01  0.18714897993E+02  0.00000000000E+00 0.  1.
</event>
<event>
 7    1  0.5910662E-013  0.5052886E+02  0.7816164E-02  0.1300439E+00
        -11   -1    0    0    0    0  0.00000000000E+00  0.00000000000E+00  0.45593999997E+02  0.45594000000E+02  0.51100000000E-03 0. -1.
         11   -1    0    0    0    0 -0.00000000000E+00 -0.00000000000E+00 -0.45593999997E+02  0.45594000000E+02  0.51100000000E-03 0.  1.
    9900012    2    1    2    0    0 -0.30658766744E+02 -0.24792548115E+02 -0.99264969218E+01  0.50528858821E+02  0.29999996872E+02 0.  0.
         12    1    1    2    0    0  0.30658766744E+02  0.24792548115E+02  0.99264969218E+01  0.40659141179E+02  0.00000000000E+00 0. -1.
         11    1    3    3    0    0 -0.79155654650E+00 -0.82483403940E+01  0.53884601363E+01  0.98841885819E+01  0.51100000000E-03 0. -1.
        -11    1    3    3    0    0 -0.25452696739E+02 -0.19634370894E+02 -0.14197655736E+02  0.35141453020E+02  0.51100000000E-03 0.  1.
        -12    1    3    3    0    0 -0.44145134589E+01  0.30901631735E+01 -0.11173013218E+01  0.55032172191E+01  0.00000000000E+00 0.  1.
</event>
<event>
 7    1  0.5910662E-013  0.5052891E+02  0.7816164E-02  0.1300439E+00
        -11   -1    0    0    0    0  0.00000000000E+00  0.00000000000E+00  0.45593999997E+02  0.45594000000E+02  0.51100000000E-03 0. -1.
         11   -1    0    0    0    0 -0.00000000000E+00 -0.00000000000E+00 -0.45593999997E+02  0.45594000000E+02  0.51100000000E-03 0.  1.
    9900012    2    1    2    0    0 -0.38850269084E+01 -0.35182584954E+02  0.20006354136E+02  0.50528906012E+02  0.30000140315E+02 0.  0.
         12    1    1    2    0    0  0.38850269084E+01  0.35182584954E+02 -0.20006354136E+02  0.40659093988E+02  0.00000000000E+00 0. -1.
         11    1    3    3    0    0  0.71076999178E+00  0.22604792402E+01 -0.38232042140E+01  0.44979830035E+01  0.51100000000E-03 0. -1.
        -11    1    3    3    0    0 -0.80453781427E+01 -0.23311458659E+02  0.17058237555E+02  0.29985591257E+02  0.51100000000E-03 0.  1.
         12    1    3    3    0    0  0.34495812425E+01 -0.14131605535E+02  0.67713207941E+01  0.16045331752E+02  0.00000000000E+00 0. -1.
</event>
<event>
 7    1  0.5910662E-013  0.5052888E+02  0.7816164E-02  0.1300439E+00
        -11   -1    0    0    0    0  0.00000000000E+00  0.00000000000E+00  0.45593999997E+02  0.45594000000E+02  0.51100000000E-03 0. -1.
         11   -1    0    0    0    0 -0.00000000000E+00 -0.00000000000E+00 -0.45593999997E+02  0.45594000000E+02  0.51100000000E-03 0.  1.
    9900012    2    1    2    0    0 -0.30295657488E+02  0.23655630955E+02 -0.13256994948E+02  0.50528884742E+02  0.30000075661E+02 0.  0.
         12    1    1    2    0    0  0.30295657488E+02 -0.23655630955E+02  0.13256994948E+02  0.40659115258E+02  0.00000000000E+00 0. -1.
         11    1    3    3    0    0  0.34472203056E+01  0.74965381295E+01 -0.40295509470E+01  0.91825210513E+01  0.51100000000E-03 0. -1.
        -11    1    3    3    0    0 -0.29504648812E+02  0.95968375242E+01 -0.11690199629E+02  0.33155457463E+02  0.51100000000E-03 0.  1.
         12    1    3    3    0    0 -0.42382289818E+01  0.65622553017E+01  0.24627556271E+01  0.81909062274E+01  0.00000000000E+00 0. -1.
</event>
<event>
 7    1  0.5910662E-013  0.5052885E+02  0.7816164E-02  0.1300439E+00
        -11   -1    0    0    0    0  0.00000000000E+00  0.00000000000E+00  0.45593999997E+02  0.45594000000E+02  0.51100000000E-03 0.  1.
         11   -1    0    0    0    0 -0.00000000000E+00 -0.00000000000E+00 -0.45593999997E+02  0.45594000000E+02  0.51100000000E-03 0. -1.
    9900012    2    1    2    0    0  0.31257818040E+02 -0.23319099046E+02 -0.11503676898E+02  0.50528854029E+02  0.29999982305E+02 0.  0.
         12    1    1    2    0    0 -0.31257818040E+02  0.23319099046E+02  0.11503676898E+02  0.40659145971E+02  0.00000000000E+00 0. -1.
         11    1    3    3    0    0  0.31037886499E+01 -0.11706485592E+02 -0.14459309964E+02  0.18861255361E+02  0.51100000000E-03 0. -1.
        -11    1    3    3    0    0  0.13681237944E+02 -0.15346105389E+01  0.27026008691E+01  0.14029802312E+02  0.51100000000E-03 0.  1.
        -12    1    3    3    0    0  0.14472791446E+02 -0.10078002915E+02  0.25303219705E+00  0.17637796356E+02  0.00000000000E+00 0.  1.
</event>
<event>
 7    1  0.5910662E-013  0.5052886E+02  0.7816164E-02  0.1300439E+00
        -11   -1    0    0    0    0  0.00000000000E+00  0.00000000000E+00  0.45593999997E+02  0.45594000000E+02  0.51100000000E-03 0.  1.
         11   -1    0    0    0    0 -0.00000000000E+00 -0.00000000000E+00 -0.45593999997E+02  0.45594000000E+02  0.51100000000E-03 0. -1.
    9900012    2    1    2    0    0 -0.10526834989E+02 -0.15279490375E+02  0.36178567812E+02  0.50528857732E+02  0.29999993564E+02 0.  0.
         12    1    1    2    0    0  0.10526834989E+02  0.15279490375E+02 -0.36178567812E+02  0.40659142268E+02  0.00000000000E+00 0. -1.
         11    1    3    3    0    0 -0.63592043713E+01  0.12309027212E+01 -0.62246998858E+00  0.65070785221E+01  0.51100000000E-03 0. -1.
        -11    1    3    3    0    0 -0.42224893220E+01 -0.44797827539E+01  0.29084784031E+02  0.29729152897E+02  0.51100000000E-03 0.  1.
         12    1    3    3    0    0  0.54858704357E-01 -0.12030610343E+02  0.77162537697E+01  0.14292626313E+02  0.00000000000E+00 0. -1.
</event>
<event>
 7    1  0.5910662E-013  0.5052886E+02  0.7816164E-02  0.1300439E+00
        -11   -1    0    0    0    0  0.00000000000E+00  0.00000000000E+00  0.45593999997E+02  0.45594000000E+02  0.51100000000E-03 0.  1.
         11   -1    0    0    0    0 -0.00000000000E+00 -0.00000000000E+00 -0.45593999997E+02  0.45594000000E+02  0.51100000000E-03 0. -1.
    9900012    2    1    2    0    0  0.45559856525E+01 -0.34859789372E+02 -0.20425562107E+02  0.50528861941E+02  0.30000006355E+02 0.  0.
         12    1    1    2    0    0 -0.45559856525E+01  0.34859789372E+02  0.20425562107E+02  0.40659138059E+02  0.00000000000E+00 0. -1.
         11    1    3    3    0    0 -0.62319226853E+01 -0.21162346929E+02 -0.13490091141E+02  0.25858544955E+02  0.51100000000E-03 0.  1.
        -11    1    3    3    0    0  0.13965048400E+02 -0.14526356955E+02 -0.71462937654E+01  0.21380064033E+02  0.51100000000E-03 0. -1.
        -12    1    3    3    0    0 -0.31771400621E+01  0.82891451207E+00  0.21082280001E+00  0.32902529531E+01  0.00000000000E+00 0.  1.
</event>
<event>
 7    1  0.5910662E-013  0.5052888E+02  0.7816164E-02  0.1300439E+00
        -11   -1    0    0    0    0  0.00000000000E+00  0.00000000000E+00  0.45593999997E+02  0.45594000000E+02  0.51100000000E-03 0. -1.
         11   -1    0    0    0    0 -0.00000000000E+00 -0.00000000000E+00 -0.45593999997E+02  0.45594000000E+02  0.51100000000E-03 0.  1.
    9900012    2    1    2    0    0  0.28130431275E+01 -0.14240480453E+02 -0.37979726140E+02  0.50528879340E+02  0.30000059242E+02 0.  0.
         12    1    1    2    0    0 -0.28130431275E+01  0.14240480453E+02  0.37979726140E+02  0.40659120660E+02  0.00000000000E+00 0. -1.
         11    1    3    3    0    0 -0.81595961238E+01 -0.12184652037E+02 -0.10478776872E+02  0.18023582306E+02  0.51100000000E-03 0. -1.
        -11    1    3    3    0    0  0.90388716163E+01 -0.21789850947E+01 -0.63350049352E+01  0.11250842810E+02  0.51100000000E-03 0.  1.
         12    1    3    3    0    0  0.19337676350E+01  0.12315667861E+00 -0.21165944333E+02  0.21254454224E+02  0.00000000000E+00 0. -1.
</event>
<event>
 7    1  0.5910662E-013  0.5052886E+02  0.7816164E-02  0.1300439E+00
        -11   -1    0    0    0    0  0.00000000000E+00  0.00000000000E+00  0.45593999997E+02  0.45594000000E+02  0.51100000000E-03 0.  1.
         11   -1    0    0    0    0 -0.00000000000E+00 -0.00000000000E+00 -0.45593999997E+02  0.45594000000E+02  0.51100000000E-03 0. -1.
    9900012    2    1    2    0    0  0.25974358111E+02  0.10379360652E+02  0.29508767641E+02  0.50528858660E+02  0.29999996383E+02 0.  0.
         12    1    1    2    0    0 -0.25974358111E+02 -0.10379360652E+02 -0.29508767641E+02  0.40659141340E+02  0.00000000000E+00 0. -1.
         11    1    3    3    0    0 -0.29442129677E+01 -0.37080004379E+01  0.54107025369E+01  0.71898094168E+01  0.51100000000E-03 0. -1.
        -11    1    3    3    0    0  0.28527199225E+02  0.85267700378E+01  0.23080729829E+02  0.37672629223E+02  0.51100000000E-03 0.  1.
         12    1    3    3    0    0  0.39137185335E+00  0.55605910524E+01  0.10173352750E+01  0.56664200199E+01  0.00000000000E+00 0. -1.
</event>
<event>
 7    1  0.5910662E-013  0.5052886E+02  0.7816164E-02  0.1300439E+00
        -11   -1    0    0    0    0  0.00000000000E+00  0.00000000000E+00  0.45593999997E+02  0.45594000000E+02  0.51100000000E-03 0.  1.
         11   -1    0    0    0    0 -0.00000000000E+00 -0.00000000000E+00 -0.45593999997E+02  0.45594000000E+02  0.51100000000E-03 0. -1.
    9900012    2    1    2    0    0  0.31890961392E+02  0.14716335520E+02  0.20483208527E+02  0.50528858577E+02  0.29999996132E+02 0.  0.
         12    1    1    2    0    0 -0.31890961392E+02 -0.14716335520E+02 -0.20483208527E+02  0.40659141423E+02  0.00000000000E+00 0. -1.
         11    1    3    3    0    0 -0.45836611193E+01  0.43381628993E+01  0.20270628139E+01  0.66286190500E+01  0.51100000000E-03 0. -1.
        -11    1    3    3    0    0  0.31072480594E+02  0.12886216332E+02  0.17324585733E+02  0.37837744286E+02  0.51100000000E-03 0.  1.
         12    1    3    3    0    0  0.54021419181E+01 -0.25080437113E+01  0.11315599797E+01  0.60624952411E+01  0.00000000000E+00 0. -1.
</event>
<event>
 7    1  0.5910662E-013  0.5052888E+02  0.7816164E-02  0.1300439E+00
        -11   -1    0    0    0    0  0.00000000000E+00  0.00000000000E+00  0.45593999997E+02  0.45594000000E+02  0.51100000000E-03 0.  1.
         11   -1    0    0    0    0 -0.00000000000E+00 -0.00000000000E+00 -0.45593999997E+02  0.45594000000E+02  0.51100000000E-03 0. -1.
    9900012    2    1    2    0    0 -0.30285472101E+02  0.20262791933E+02  0.18038106805E+02  0.50528882272E+02  0.30000068154E+02 0.  0.
         12    1    1    2    0    0  0.30285472101E+02 -0.20262791933E+02 -0.18038106805E+02  0.40659117728E+02  0.00000000000E+00 0. -1.
         11    1    3    3    0    0 -0.79027362524E+00 -0.46785649940E+01  0.61598240093E+01  0.77754057703E+01  0.51100000000E-03 0. -1.
        -11    1    3    3    0    0 -0.27200245671E+02  0.17285658612E+02  0.12864134840E+02  0.34700624255E+02  0.51100000000E-03 0.  1.
        -12    1    3    3    0    0 -0.22949528043E+01  0.76556983150E+01 -0.98585204359E+00  0.80528522473E+01  0.00000000000E+00 0.  1.
</event>
<event>
 7    1  0.5910662E-013  0.5052882E+02  0.7816164E-02  0.1300439E+00
        -11   -1    0    0    0    0  0.00000000000E+00  0.00000000000E+00  0.45593999997E+02  0.45594000000E+02  0.51100000000E-03 0. -1.
         11   -1    0    0    0    0 -0.00000000000E+00 -0.00000000000E+00 -0.45593999997E+02  0.45594000000E+02  0.51100000000E-03 0.  1.
    9900012    2    1    2    0    0 -0.29693693682E+02  0.58249398582E+01  0.27157389287E+02  0.50528817006E+02  0.29999869771E+02 0.  0.
         12    1    1    2    0    0  0.29693693682E+02 -0.58249398582E+01 -0.27157389287E+02  0.40659182994E+02  0.00000000000E+00 0. -1.
         11    1    3    3    0    0 -0.46943002840E+01 -0.89356181902E+01  0.11988090342E+02  0.15671504009E+02  0.51100000000E-03 0. -1.
        -11    1    3    3    0    0 -0.19299880966E+02  0.16428917712E+02  0.13348839901E+02  0.28645877006E+02  0.51100000000E-03 0.  1.
        -12    1    3    3    0    0 -0.56995124325E+01 -0.16683596637E+01  0.18204590436E+01  0.62114359906E+01  0.00000000000E+00 0.  1.
</event>
<event>
 7    1  0.5910662E-013  0.5052892E+02  0.7816164E-02  0.1300439E+00
        -11   -1    0    0    0    0  0.00000000000E+00  0.00000000000E+00  0.45593999997E+02  0.45594000000E+02  0.51100000000E-03 0. -1.
         11   -1    0    0    0    0 -0.00000000000E+00 -0.00000000000E+00 -0.45593999997E+02  0.45594000000E+02  0.51100000000E-03 0.  1.
    9900012    2    1    2    0    0  0.38065396876E+02  0.73811924017E+01 -0.12235368592E+02  0.50528921246E+02  0.30000186618E+02 0.  0.
         12    1    1    2    0    0 -0.38065396876E+02 -0.73811924017E+01  0.12235368592E+02  0.40659078754E+02  0.00000000000E+00 0. -1.
         11    1    3    3    0    0  0.84256302179E+01 -0.44359867281E+01  0.70996898429E+01  0.11877492115E+02  0.51100000000E-03 0. -1.
        -11    1    3    3    0    0  0.96430677299E+01  0.34055113893E+01 -0.11964595063E+02  0.15739688635E+02  0.51100000000E-03 0.  1.
         12    1    3    3    0    0  0.19996698928E+02  0.84116677406E+01 -0.73704633721E+01  0.22911740495E+02  0.00000000000E+00 0. -1.
</event>
<event>
 7    1  0.5910662E-013  0.5052885E+02  0.7816164E-02  0.1300439E+00
        -11   -1    0    0    0    0  0.00000000000E+00  0.00000000000E+00  0.45593999997E+02  0.45594000000E+02  0.51100000000E-03 0.  1.
         11   -1    0    0    0    0 -0.00000000000E+00 -0.00000000000E+00 -0.45593999997E+02  0.45594000000E+02  0.51100000000E-03 0. -1.
    9900012    2    1    2    0    0  0.26952977358E+02  0.29914689602E+02 -0.56404388310E+01  0.50528853518E+02  0.29999980754E+02 0.  0.
         12    1    1    2    0    0 -0.26952977358E+02 -0.29914689602E+02  0.56404388310E+01  0.40659146482E+02  0.00000000000E+00 0. -1.
         11    1    3    3    0    0 -0.11999689791E+01 -0.17170713967E+01  0.41692989531E+01  0.46659740413E+01  0.51100000000E-03 0. -1.
        -11    1    3    3    0    0  0.22638551902E+02  0.30402767159E+02 -0.46105187529E+01  0.38184933764E+02  0.51100000000E-03 0.  1.
         12    1    3    3    0    0  0.55143944347E+01  0.12289938397E+01 -0.51992190312E+01  0.76779457131E+01  0.00000000000E+00 0. -1.
</event>
<event>
 7    1  0.5910662E-013  0.5052885E+02  0.7816164E-02  0.1300439E+00
        -11   -1    0    0    0    0  0.00000000000E+00  0.00000000000E+00  0.45593999997E+02  0.45594000000E+02  0.51100000000E-03 0.  1.
         11   -1    0    0    0    0 -0.00000000000E+00 -0.00000000000E+00 -0.45593999997E+02  0.45594000000E+02  0.51100000000E-03 0. -1.
    9900012    2    1    2    0    0 -0.38802832097E+02  0.10807127359E+02  0.55418993348E+01  0.50528850615E+02  0.29999971928E+02 0.  0.
         12    1    1    2    0    0  0.38802832097E+02 -0.10807127359E+02 -0.55418993348E+01  0.40659149385E+02  0.00000000000E+00 0. -1.
         11    1    3    3    0    0 -0.35064717254E+01  0.60620854801E+01 -0.32940146934E+01  0.77391703296E+01  0.51100000000E-03 0. -1.
        -11    1    3    3    0    0 -0.37282559266E+02  0.71494819672E+01  0.57366356799E+01  0.38392880942E+02  0.51100000000E-03 0.  1.
         12    1    3    3    0    0  0.19861988941E+01 -0.24044400886E+01  0.30992783483E+01  0.43967993435E+01  0.00000000000E+00 0. -1.
</event>
<event>
 7    1  0.5910662E-013  0.5052886E+02  0.7816164E-02  0.1300439E+00
        -11   -1    0    0    0    0  0.00000000000E+00  0.00000000000E+00  0.45593999997E+02  0.45594000000E+02  0.51100000000E-03 0.  1.
         11   -1    0    0    0    0 -0.00000000000E+00 -0.00000000000E+00 -0.45593999997E+02  0.45594000000E+02  0.51100000000E-03 0. -1.
    9900012    2    1    2    0    0  0.71408328296E+01 -0.38617945436E+02  0.10527500871E+02  0.50528862309E+02  0.30000007475E+02 0.  0.
         12    1    1    2    0    0 -0.71408328296E+01  0.38617945436E+02 -0.10527500871E+02  0.40659137691E+02  0.00000000000E+00 0. -1.
         11    1    3    3    0    0  0.52337710769E+01 -0.27458753987E+02 -0.65338721782E+01  0.28706567474E+02  0.51100000000E-03 0. -1.
        -11    1    3    3    0    0  0.34803665026E+01 -0.45226446458E+01  0.36442340143E+01  0.67710935156E+01  0.51100000000E-03 0.  1.
         12    1    3    3    0    0 -0.15733047500E+01 -0.66365468025E+01  0.13417139035E+02  0.15051201320E+02  0.00000000000E+00 0. -1.
</event>
<event>
 7    1  0.5910662E-013  0.5052888E+02  0.7816164E-02  0.1300439E+00
        -11   -1    0    0    0    0  0.00000000000E+00  0.00000000000E+00  0.45593999997E+02  0.45594000000E+02  0.51100000000E-03 0. -1.
         11   -1    0    0    0    0 -0.00000000000E+00 -0.00000000000E+00 -0.45593999997E+02  0.45594000000E+02  0.51100000000E-03 0.  1.
    9900012    2    1    2    0    0 -0.21649218541E+02  0.33054910263E+02 -0.95837490129E+01  0.50528880468E+02  0.30000062672E+02 0.  0.
         12    1    1    2    0    0  0.21649218541E+02 -0.33054910263E+02  0.95837490129E+01  0.40659119532E+02  0.00000000000E+00 0. -1.
         11    1    3    3    0    0  0.22757204642E+01  0.35727149067E+01 -0.24679088558E+01  0.49024248916E+01  0.51100000000E-03 0. -1.
        -11    1    3    3    0    0 -0.10633424454E+02  0.28136707929E+02  0.81550532467E+00  0.30090016581E+02  0.51100000000E-03 0.  1.
        -12    1    3    3    0    0 -0.13291514552E+02  0.13454874275E+01 -0.79313454817E+01  0.15536438995E+02  0.00000000000E+00 0.  1.
</event>
<event>
 7    1  0.5910662E-013  0.5052886E+02  0.7816164E-02  0.1300439E+00
        -11   -1    0    0    0    0  0.00000000000E+00  0.00000000000E+00  0.45593999997E+02  0.45594000000E+02  0.51100000000E-03 0. -1.
         11   -1    0    0    0    0 -0.00000000000E+00 -0.00000000000E+00 -0.45593999997E+02  0.45594000000E+02  0.51100000000E-03 0.  1.
    9900012    2    1    2    0    0  0.40177922207E+02  0.62173536348E+01 -0.49510235901E+00  0.50528855328E+02  0.29999986256E+02 0.  0.
         12    1    1    2    0    0 -0.40177922207E+02 -0.62173536348E+01  0.49510235901E+00  0.40659144672E+02  0.00000000000E+00 0. -1.
         11    1    3    3    0    0  0.89354143155E+01  0.81538707457E+01  0.80808099124E+00  0.12123540418E+02  0.51100000000E-03 0. -1.
        -11    1    3    3    0    0  0.24526242900E+02 -0.94789486039E+00 -0.10730855721E+02  0.26787802452E+02  0.51100000000E-03 0.  1.
        -12    1    3    3    0    0  0.67162649918E+01 -0.98862225057E+00  0.94276723704E+01  0.11617512458E+02  0.00000000000E+00 0.  1.
</event>
<event>
 7    1  0.5910662E-013  0.5052885E+02  0.7816164E-02  0.1300439E+00
        -11   -1    0    0    0    0  0.00000000000E+00  0.00000000000E+00  0.45593999997E+02  0.45594000000E+02  0.51100000000E-03 0.  1.
         11   -1    0    0    0    0 -0.00000000000E+00 -0.00000000000E+00 -0.45593999997E+02  0.45594000000E+02  0.51100000000E-03 0. -1.
    9900012    2    1    2    0    0 -0.24139267880E+02  0.63792278256E+01  0.32089993661E+02  0.50528849805E+02  0.29999969467E+02 0.  0.
         12    1    1    2    0    0  0.24139267880E+02 -0.63792278256E+01 -0.32089993661E+02  0.40659150195E+02  0.00000000000E+00 0. -1.
         11    1    3    3    0    0 -0.17401778823E+02 -0.47196991812E+00  0.28664281508E+02  0.33536333974E+02  0.51100000000E-03 0. -1.
        -11    1    3    3    0    0 -0.31170900001E+01  0.40680352479E-01  0.76056340694E+01  0.82197064923E+01  0.51100000000E-03 0.  1.
         12    1    3    3    0    0 -0.36203990574E+01  0.68105173913E+01 -0.41799219162E+01  0.87728093389E+01  0.00000000000E+00 0. -1.
</event>
<event>
 7    1  0.5910662E-013  0.5052885E+02  0.7816164E-02  0.1300439E+00
        -11   -1    0    0    0    0  0.00000000000E+00  0.00000000000E+00  0.45593999997E+02  0.45594000000E+02  0.51100000000E-03 0.  1.
         11   -1    0    0    0    0 -0.00000000000E+00 -0.00000000000E+00 -0.45593999997E+02  0.45594000000E+02  0.51100000000E-03 0. -1.
    9900012    2    1    2    0    0  0.24084496385E+02  0.32328228274E+02  0.52904758529E+01  0.50528850424E+02  0.29999971349E+02 0.  0.
         12    1    1    2    0    0 -0.24084496385E+02 -0.32328228274E+02 -0.52904758529E+01  0.40659149576E+02  0.00000000000E+00 0. -1.
         11    1    3    3    0    0 -0.29589489484E+01 -0.16308278475E+01 -0.13493445655E+01  0.36380914453E+01  0.51100000000E-03 0. -1.
        -11    1    3    3    0    0  0.15662753231E+02  0.26131184463E+02 -0.21117436271E+01  0.30538829409E+02  0.51100000000E-03 0.  1.
        -12    1    3    3    0    0  0.11380692102E+02  0.78278716584E+01  0.87515640455E+01  0.16351929570E+02  0.00000000000E+00 0.  1.
</event>
<event>
 7    1  0.5910662E-013  0.5052886E+02  0.7816164E-02  0.1300439E+00
        -11   -1    0    0    0    0  0.00000000000E+00  0.00000000000E+00  0.45593999997E+02  0.45594000000E+02  0.51100000000E-03 0. -1.
         11   -1    0    0    0    0 -0.00000000000E+00 -0.00000000000E+00 -0.45593999997E+02  0.45594000000E+02  0.51100000000E-03 0.  1.
    9900012    2    1    2    0    0 -0.49920551554E+01  0.40322100184E+02  0.15405678594E+01  0.50528859241E+02  0.29999998150E+02 0.  0.
         12    1    1    2    0    0  0.49920551554E+01 -0.40322100184E+02 -0.15405678594E+01  0.40659140759E+02  0.00000000000E+00 0. -1.
         11    1    3    3    0    0  0.28775562827E+01  0.14944093847E+02 -0.11822182576E+02  0.19270969674E+02  0.51100000000E-03 0. -1.
        -11    1    3    3    0    0  0.45892150857E+00  0.11022261791E+02  0.21797114898E+01  0.11245088100E+02  0.51100000000E-03 0.  1.
         12    1    3    3    0    0 -0.83285329467E+01  0.14355744546E+02  0.11183038945E+02  0.20012801467E+02  0.00000000000E+00 0. -1.
</event>
<event>
 7    1  0.5910662E-013  0.5052886E+02  0.7816164E-02  0.1300439E+00
        -11   -1    0    0    0    0  0.00000000000E+00  0.00000000000E+00  0.45593999997E+02  0.45594000000E+02  0.51100000000E-03 0.  1.
         11   -1    0    0    0    0 -0.00000000000E+00 -0.00000000000E+00 -0.45593999997E+02  0.45594000000E+02  0.51100000000E-03 0. -1.
    9900012    2    1    2    0    0  0.36678764800E+02 -0.14585767878E+02  0.97513712973E+01  0.50528860142E+02  0.30000000886E+02 0.  0.
         12    1    1    2    0    0 -0.36678764800E+02  0.14585767878E+02 -0.97513712973E+01  0.40659139858E+02  0.00000000000E+00 0. -1.
         11    1    3    3    0    0  0.19205214753E+02  0.20183979364E+01  0.12260505696E+01  0.19349868325E+02  0.51100000000E-03 0. -1.
        -11    1    3    3    0    0  0.20432352997E+02 -0.16343511339E+02  0.51211604236E+01  0.26661164570E+02  0.51100000000E-03 0.  1.
        -12    1    3    3    0    0 -0.29588029499E+01 -0.26065447511E+00  0.34041603041E+01  0.45178272464E+01  0.00000000000E+00 0.  1.
</event>
<event>
 7    1  0.5910662E-013  0.5052888E+02  0.7816164E-02  0.1300439E+00
        -11   -1    0    0    0    0  0.00000000000E+00  0.00000000000E+00  0.45593999997E+02  0.45594000000E+02  0.51100000000E-03 0. -1.
         11   -1    0    0    0    0 -0.00000000000E+00 -0.00000000000E+00 -0.45593999997E+02  0.45594000000E+02  0.51100000000E-03 0.  1.
    9900012    2    1    2    0    0 -0.28353094031E+02 -0.18925612818E+02 -0.22160490481E+02  0.50528879252E+02  0.30000058974E+02 0.  0.
         12    1    1    2    0    0  0.28353094031E+02  0.18925612818E+02  0.22160490481E+02  0.40659120748E+02  0.00000000000E+00 0. -1.
         11    1    3    3    0    0 -0.16867722913E+02 -0.19070536772E+02 -0.23256885523E+02  0.34483157824E+02  0.51100000000E-03 0. -1.
        -11    1    3    3    0    0 -0.16421136822E+01 -0.21684587609E+01 -0.39097455681E+01  0.47628627328E+01  0.51100000000E-03 0.  1.
         12    1    3    3    0    0 -0.98432574356E+01  0.23133827150E+01  0.50061406094E+01  0.11282858695E+02  0.00000000000E+00 0. -1.
</event>
<event>
 7    1  0.5910662E-013  0.5052886E+02  0.7816164E-02  0.1300439E+00
        -11   -1    0    0    0    0  0.00000000000E+00  0.00000000000E+00  0.45593999997E+02  0.45594000000E+02  0.51100000000E-03 0.  1.
         11   -1    0    0    0    0 -0.00000000000E+00 -0.00000000000E+00 -0.45593999997E+02  0.45594000000E+02  0.51100000000E-03 0. -1.
    9900012    2    1    2    0    0 -0.40188832954E+02 -0.49377891350E+01  0.36934702944E+01  0.50528858610E+02  0.29999996231E+02 0.  0.
         12    1    1    2    0    0  0.40188832954E+02  0.49377891350E+01 -0.36934702944E+01  0.40659141390E+02  0.00000000000E+00 0. -1.
         11    1    3    3    0    0 -0.10093181045E+02 -0.75901129448E+01 -0.98246043488E+01  0.16000155280E+02  0.51100000000E-03 0. -1.
        -11    1    3    3    0    0 -0.24386180933E+02  0.46364381960E+01  0.13940372984E+02  0.28469569348E+02  0.51100000000E-03 0.  1.
        -12    1    3    3    0    0 -0.57094709755E+01 -0.19841143863E+01 -0.42229834085E+00  0.60591339816E+01  0.00000000000E+00 0.  1.
</event>
<event>
 7    1  0.5910662E-013  0.5052886E+02  0.7816164E-02  0.1300439E+00
        -11   -1    0    0    0    0  0.00000000000E+00  0.00000000000E+00  0.45593999997E+02  0.45594000000E+02  0.51100000000E-03 0.  1.
         11   -1    0    0    0    0 -0.00000000000E+00 -0.00000000000E+00 -0.45593999997E+02  0.45594000000E+02  0.51100000000E-03 0. -1.
    9900012    2    1    2    0    0  0.26656031298E+02  0.20087890557E+02  0.23218492025E+02  0.50528859287E+02  0.29999998289E+02 0.  0.
         12    1    1    2    0    0 -0.26656031298E+02 -0.20087890557E+02 -0.23218492025E+02  0.40659140713E+02  0.00000000000E+00 0. -1.
         11    1    3    3    0    0  0.14106957301E+02 -0.33376090725E+01  0.18169253673E+01  0.14609828770E+02  0.51100000000E-03 0. -1.
        -11    1    3    3    0    0 -0.76958459651E-01  0.17396689488E+01  0.65111513462E+01  0.67399898197E+01  0.51100000000E-03 0.  1.
         12    1    3    3    0    0  0.12626032457E+02  0.21685830681E+02  0.14890415311E+02  0.29179040698E+02  0.00000000000E+00 0. -1.
</event>
<event>
 7    1  0.5910662E-013  0.5052886E+02  0.7816164E-02  0.1300439E+00
        -11   -1    0    0    0    0  0.00000000000E+00  0.00000000000E+00  0.45593999997E+02  0.45594000000E+02  0.51100000000E-03 0.  1.
         11   -1    0    0    0    0 -0.00000000000E+00 -0.00000000000E+00 -0.45593999997E+02  0.45594000000E+02  0.51100000000E-03 0. -1.
    9900012    2    1    2    0    0 -0.25735087834E+02  0.10759881570E+02  0.29582019028E+02  0.50528860228E+02  0.30000001149E+02 0.  0.
         12    1    1    2    0    0  0.25735087834E+02 -0.10759881570E+02 -0.29582019028E+02  0.40659139772E+02  0.00000000000E+00 0. -1.
         11    1    3    3    0    0 -0.93570819581E+00  0.51560202337E+00 -0.23648656695E+01  0.25949923256E+01  0.51100000000E-03 0. -1.
        -11    1    3    3    0    0 -0.23621408894E+02 -0.17356889916E+01  0.21789630908E+02  0.32183405503E+02  0.51100000000E-03 0.  1.
        -12    1    3    3    0    0 -0.11779707446E+01  0.11979968538E+02  0.10157253790E+02  0.15750462399E+02  0.00000000000E+00 0.  1.
</event>
<event>
 7    1  0.5910662E-013  0.5052887E+02  0.7816164E-02  0.1300439E+00
        -11   -1    0    0    0    0  0.00000000000E+00  0.00000000000E+00  0.45593999997E+02  0.45594000000E+02  0.51100000000E-03 0.  1.
         11   -1    0    0    0    0 -0.00000000000E+00 -0.00000000000E+00 -0.45593999997E+02  0.45594000000E+02  0.51100000000E-03 0. -1.
    9900012    2    1    2    0    0  0.21419780144E+02  0.13491791156E+02  0.31817131186E+02  0.50528865148E+02  0.30000016103E+02 0.  0.
         12    1    1    2    0    0 -0.21419780144E+02 -0.13491791156E+02 -0.31817131186E+02  0.40659134852E+02  0.00000000000E+00 0. -1.
         11    1    3    3    0    0  0.61804614640E+01 -0.49887574150E+01  0.69162081400E+00  0.79727124660E+01  0.51100000000E-03 0. -1.
        -11    1    3    3    0    0  0.12574143683E+02  0.14374511734E+02  0.11420632339E+02  0.22252337411E+02  0.51100000000E-03 0.  1.
        -12    1    3    3    0    0  0.26651749975E+01  0.41060368373E+01  0.19704878033E+02  0.20303815271E+02  0.00000000000E+00 0.  1.
</event>
<event>
 7    1  0.5910662E-013  0.5052886E+02  0.7816164E-02  0.1300439E+00
        -11   -1    0    0    0    0  0.00000000000E+00  0.00000000000E+00  0.45593999997E+02  0.45594000000E+02  0.51100000000E-03 0.  1.
         11   -1    0    0    0    0 -0.00000000000E+00 -0.00000000000E+00 -0.45593999997E+02  0.45594000000E+02  0.51100000000E-03 0. -1.
    9900012    2    1    2    0    0  0.33026280275E+02  0.22419901494E+02  0.77316434647E+01  0.50528862251E+02  0.30000007298E+02 0.  0.
         12    1    1    2    0    0 -0.33026280275E+02 -0.22419901494E+02 -0.77316434647E+01  0.40659137749E+02  0.00000000000E+00 0. -1.
         11    1    3    3    0    0  0.13706039065E+02 -0.42431735441E+00  0.13821575170E+02  0.19469758408E+02  0.51100000000E-03 0. -1.
        -11    1    3    3    0    0  0.15266749762E+02  0.14383419474E+02 -0.53594929352E+01  0.21649031591E+02  0.51100000000E-03 0.  1.
         12    1    3    3    0    0  0.40534914491E+01  0.84607993745E+01 -0.73043876953E+00  0.94100722515E+01  0.00000000000E+00 0. -1.
</event>
<event>
 7    1  0.5910662E-013  0.5052886E+02  0.7816164E-02  0.1300439E+00
        -11   -1    0    0    0    0  0.00000000000E+00  0.00000000000E+00  0.45593999997E+02  0.45594000000E+02  0.51100000000E-03 0.  1.
         11   -1    0    0    0    0 -0.00000000000E+00 -0.00000000000E+00 -0.45593999997E+02  0.45594000000E+02  0.51100000000E-03 0. -1.
    9900012    2    1    2    0    0  0.46806008915E+01  0.34833550250E+02  0.20442153800E+02  0.50528857120E+02  0.29999991702E+02 0.  0.
         12    1    1    2    0    0 -0.46806008915E+01 -0.34833550250E+02 -0.20442153800E+02  0.40659142880E+02  0.00000000000E+00 0. -1.
         11    1    3    3    0    0  0.90226558870E+01  0.72319749082E+01 -0.43036505676E+01  0.12338200387E+02  0.51100000000E-03 0. -1.
        -11    1    3    3    0    0 -0.12676896750E+01  0.22327819968E+02  0.15887393197E+02  0.27432605500E+02  0.51100000000E-03 0.  1.
         12    1    3    3    0    0 -0.30743653204E+01  0.52737553738E+01  0.88584111703E+01  0.10758051233E+02  0.00000000000E+00 0. -1.
</event>
<event>
 7    1  0.5910662E-013  0.5052886E+02  0.7816164E-02  0.1300439E+00
        -11   -1    0    0    0    0  0.00000000000E+00  0.00000000000E+00  0.45593999997E+02  0.45594000000E+02  0.51100000000E-03 0. -1.
         11   -1    0    0    0    0 -0.00000000000E+00 -0.00000000000E+00 -0.45593999997E+02  0.45594000000E+02  0.51100000000E-03 0.  1.
    9900012    2    1    2    0    0 -0.18588136655E+02 -0.33989077978E+02 -0.12344604313E+02  0.50528862014E+02  0.30000006579E+02 0.  0.
         12    1    1    2    0    0  0.18588136655E+02  0.33989077978E+02  0.12344604313E+02  0.40659137986E+02  0.00000000000E+00 0. -1.
         11    1    3    3    0    0  0.13471889176E+01 -0.36665845939E+00  0.54525243830E+01  0.56284437293E+01  0.51100000000E-03 0. -1.
        -11    1    3    3    0    0 -0.28915297086E+01 -0.14822887693E+02 -0.10835712509E+02  0.18587404591E+02  0.51100000000E-03 0.  1.
         12    1    3    3    0    0 -0.17043795864E+02 -0.18799531826E+02 -0.69614161876E+01  0.26313013694E+02  0.00000000000E+00 0. -1.
</event>
<event>
 7    1  0.5910662E-013  0.5052883E+02  0.7816164E-02  0.1300439E+00
        -11   -1    0    0    0    0  0.00000000000E+00  0.00000000000E+00  0.45593999997E+02  0.45594000000E+02  0.51100000000E-03 0.  1.
         11   -1    0    0    0    0 -0.00000000000E+00 -0.00000000000E+00 -0.45593999997E+02  0.45594000000E+02  0.51100000000E-03 0. -1.
    9900012    2    1    2    0    0  0.33988883334E+02 -0.56310264584E+01  0.21592014198E+02  0.50528834657E+02  0.29999923422E+02 0.  0.
         12    1    1    2    0    0 -0.33988883334E+02  0.56310264584E+01 -0.21592014198E+02  0.40659165343E+02  0.00000000000E+00 0. -1.
         11    1    3    3    0    0  0.69499157153E+00  0.14872113236E+01  0.49857192116E+01  0.52490196345E+01  0.51100000000E-03 0.  1.
        -11    1    3    3    0    0  0.21782743115E+02  0.56899920969E+01  0.18289474226E+01  0.22587805485E+02  0.51100000000E-03 0. -1.
        -12    1    3    3    0    0  0.11511148647E+02 -0.12808229879E+02  0.14777347564E+02  0.22692009537E+02  0.00000000000E+00 0.  1.
</event>
<event>
 7    1  0.5910662E-013  0.5052884E+02  0.7816164E-02  0.1300439E+00
        -11   -1    0    0    0    0  0.00000000000E+00  0.00000000000E+00  0.45593999997E+02  0.45594000000E+02  0.51100000000E-03 0.  1.
         11   -1    0    0    0    0 -0.00000000000E+00 -0.00000000000E+00 -0.45593999997E+02  0.45594000000E+02  0.51100000000E-03 0. -1.
    9900012    2    1    2    0    0 -0.32119098216E+02  0.21487041966E+02  0.12642704965E+02  0.50528838283E+02  0.29999934445E+02 0.  0.
         12    1    1    2    0    0  0.32119098216E+02 -0.21487041966E+02 -0.12642704965E+02  0.40659161717E+02  0.00000000000E+00 0. -1.
         11    1    3    3    0    0 -0.12959942425E+02  0.11855111062E+02 -0.36544847617E+01  0.17940429902E+02  0.51100000000E-03 0. -1.
        -11    1    3    3    0    0 -0.77247687401E+01 -0.52890296154E+01  0.44262144336E+01  0.10355542518E+02  0.51100000000E-03 0.  1.
        -12    1    3    3    0    0 -0.11434387052E+02  0.14920960520E+02  0.11870975293E+02  0.22232865863E+02  0.00000000000E+00 0.  1.
</event>
<event>
 7    1  0.5910662E-013  0.5052886E+02  0.7816164E-02  0.1300439E+00
        -11   -1    0    0    0    0  0.00000000000E+00  0.00000000000E+00  0.45593999997E+02  0.45594000000E+02  0.51100000000E-03 0.  1.
         11   -1    0    0    0    0 -0.00000000000E+00 -0.00000000000E+00 -0.45593999997E+02  0.45594000000E+02  0.51100000000E-03 0. -1.
    9900012    2    1    2    0    0 -0.17760679099E+02  0.31230372828E+02  0.19036484195E+02  0.50528860320E+02  0.30000001429E+02 0.  0.
         12    1    1    2    0    0  0.17760679099E+02 -0.31230372828E+02 -0.19036484195E+02  0.40659139680E+02  0.00000000000E+00 0. -1.
         11    1    3    3    0    0 -0.13134324252E+01  0.10327476536E+02  0.20480364293E+02  0.22974490162E+02  0.51100000000E-03 0. -1.
        -11    1    3    3    0    0 -0.12081349451E+02  0.16497009203E+02  0.18501870389E+01  0.20531281244E+02  0.51100000000E-03 0.  1.
         12    1    3    3    0    0 -0.43658972224E+01  0.44058870887E+01 -0.32940671368E+01  0.70230889142E+01  0.00000000000E+00 0. -1.
</event>
<event>
 7    1  0.5910662E-013  0.5052886E+02  0.7816164E-02  0.1300439E+00
        -11   -1    0    0    0    0  0.00000000000E+00  0.00000000000E+00  0.45593999997E+02  0.45594000000E+02  0.51100000000E-03 0. -1.
         11   -1    0    0    0    0 -0.00000000000E+00 -0.00000000000E+00 -0.45593999997E+02  0.45594000000E+02  0.51100000000E-03 0.  1.
    9900012    2    1    2    0    0  0.28033946951E+02 -0.20043715906E+02 -0.21575748763E+02  0.50528860023E+02  0.30000000526E+02 0.  0.
         12    1    1    2    0    0 -0.28033946951E+02  0.20043715906E+02  0.21575748763E+02  0.40659139977E+02  0.00000000000E+00 0. -1.
         11    1    3    3    0    0 -0.69173134459E+00  0.47493137175E+01 -0.46916190912E+01  0.67116140382E+01  0.51100000000E-03 0. -1.
        -11    1    3    3    0    0  0.26215602618E+02 -0.14747019779E+02 -0.12556509718E+02  0.32594452742E+02  0.51100000000E-03 0.  1.
        -12    1    3    3    0    0  0.25100756777E+01 -0.10046009845E+02 -0.43276199533E+01  0.11222793243E+02  0.00000000000E+00 0.  1.
</event>
<event>
 7    1  0.5910662E-013  0.5052886E+02  0.7816164E-02  0.1300439E+00
        -11   -1    0    0    0    0  0.00000000000E+00  0.00000000000E+00  0.45593999997E+02  0.45594000000E+02  0.51100000000E-03 0.  1.
         11   -1    0    0    0    0 -0.00000000000E+00 -0.00000000000E+00 -0.45593999997E+02  0.45594000000E+02  0.51100000000E-03 0. -1.
    9900012    2    1    2    0    0 -0.24369285144E+02 -0.28253338255E+02  0.16157127059E+02  0.50528856677E+02  0.29999990354E+02 0.  0.
         12    1    1    2    0    0  0.24369285144E+02  0.28253338255E+02 -0.16157127059E+02  0.40659143323E+02  0.00000000000E+00 0. -1.
         11    1    3    3    0    0 -0.19852085593E+02 -0.16484591614E+02  0.10078424148E+02  0.27702377094E+02  0.51100000000E-03 0. -1.
        -11    1    3    3    0    0  0.28892428891E+01  0.33324318211E+01 -0.10893933846E+01  0.45430831515E+01  0.51100000000E-03 0.  1.
        -12    1    3    3    0    0 -0.74064424397E+01 -0.15101178462E+02  0.71680962956E+01  0.18283396431E+02  0.00000000000E+00 0.  1.
</event>
<event>
 7    1  0.5910662E-013  0.5052886E+02  0.7816164E-02  0.1300439E+00
        -11   -1    0    0    0    0  0.00000000000E+00  0.00000000000E+00  0.45593999997E+02  0.45594000000E+02  0.51100000000E-03 0. -1.
         11   -1    0    0    0    0 -0.00000000000E+00 -0.00000000000E+00 -0.45593999997E+02  0.45594000000E+02  0.51100000000E-03 0.  1.
    9900012    2    1    2    0    0  0.20080517472E+02  0.14619542628E+02 -0.32190179049E+02  0.50528857906E+02  0.29999994090E+02 0.  0.
         12    1    1    2    0    0 -0.20080517472E+02 -0.14619542628E+02  0.32190179049E+02  0.40659142094E+02  0.00000000000E+00 0. -1.
         11    1    3    3    0    0 -0.55094215622E+01  0.74120104177E+01 -0.43718740547E+01  0.10217871960E+02  0.51100000000E-03 0. -1.
        -11    1    3    3    0    0  0.26742903710E+02  0.73726330777E+01 -0.27588706001E+02  0.39123845880E+02  0.51100000000E-03 0.  1.
        -12    1    3    3    0    0 -0.11529646753E+01 -0.16510086717E+00 -0.22959899343E+00  0.11871400661E+01  0.00000000000E+00 0.  1.
</event>
<event>
 7    1  0.5910662E-013  0.5052886E+02  0.7816164E-02  0.1300439E+00
        -11   -1    0    0    0    0  0.00000000000E+00  0.00000000000E+00  0.45593999997E+02  0.45594000000E+02  0.51100000000E-03 0.  1.
         11   -1    0    0    0    0 -0.00000000000E+00 -0.00000000000E+00 -0.45593999997E+02  0.45594000000E+02  0.51100000000E-03 0. -1.
    9900012    2    1    2    0    0 -0.75396454114E+01  0.15596789143E+01  0.39923506957E+02  0.50528864999E+02  0.30000015652E+02 0.  0.
         12    1    1    2    0    0  0.75396454114E+01 -0.15596789143E+01 -0.39923506957E+02  0.40659135001E+02  0.00000000000E+00 0. -1.
         11    1    3    3    0    0  0.75387598328E+01 -0.43161607299E+01  0.30712714701E+01  0.92138402399E+01  0.51100000000E-03 0. -1.
        -11    1    3    3    0    0 -0.15710655529E+02  0.70846308044E+01  0.35017406131E+02  0.39028648749E+02  0.51100000000E-03 0.  1.
        -12    1    3    3    0    0  0.63225028521E+00 -0.12087911603E+01  0.18348293562E+01  0.22863760099E+01  0.00000000000E+00 0.  1.
</event>
<event>
 7    1  0.5910662E-013  0.5052886E+02  0.7816164E-02  0.1300439E+00
        -11   -1    0    0    0    0  0.00000000000E+00  0.00000000000E+00  0.45593999997E+02  0.45594000000E+02  0.51100000000E-03 0.  1.
         11   -1    0    0    0    0 -0.00000000000E+00 -0.00000000000E+00 -0.45593999997E+02  0.45594000000E+02  0.51100000000E-03 0. -1.
    9900012    2    1    2    0    0 -0.33584335716E+01 -0.37450005087E+02  0.15472028590E+02  0.50528860489E+02  0.30000001942E+02 0.  0.
         12    1    1    2    0    0  0.33584335716E+01  0.37450005087E+02 -0.15472028590E+02  0.40659139511E+02  0.00000000000E+00 0. -1.
         11    1    3    3    0    0 -0.12202644578E+01 -0.37927010019E+01 -0.35974992737E+01  0.53680189570E+01  0.51100000000E-03 0. -1.
        -11    1    3    3    0    0  0.10274768658E+02 -0.18729188646E+02  0.11979451754E+02  0.24492052648E+02  0.51100000000E-03 0.  1.
        -12    1    3    3    0    0 -0.12412937771E+02 -0.14928115440E+02  0.70900761091E+01  0.20668788884E+02  0.00000000000E+00 0.  1.
</event>
<event>
 7    1  0.5910662E-013  0.5052884E+02  0.7816164E-02  0.1300439E+00
        -11   -1    0    0    0    0  0.00000000000E+00  0.00000000000E+00  0.45593999997E+02  0.45594000000E+02  0.51100000000E-03 0. -1.
         11   -1    0    0    0    0 -0.00000000000E+00 -0.00000000000E+00 -0.45593999997E+02  0.45594000000E+02  0.51100000000E-03 0.  1.
    9900012    2    1    2    0    0  0.33876938429E+02  0.15867978993E+02 -0.15928833957E+02  0.50528837860E+02  0.29999933160E+02 0.  0.
         12    1    1    2    0    0 -0.33876938429E+02 -0.15867978993E+02  0.15928833957E+02  0.40659162140E+02  0.00000000000E+00 0. -1.
         11    1    3    3    0    0  0.11610283847E+02  0.17881171186E+02 -0.17601337104E+02  0.27646736554E+02  0.51100000000E-03 0. -1.
        -11    1    3    3    0    0  0.21309626294E+02 -0.27438111458E+01  0.10133178429E+01  0.21509427833E+02  0.51100000000E-03 0.  1.
        -12    1    3    3    0    0  0.95702828756E+00  0.73061895297E+00  0.65918530381E+00  0.13726734726E+01  0.00000000000E+00 0.  1.
</event>
<event>
 7    1  0.5910662E-013  0.5052886E+02  0.7816164E-02  0.1300439E+00
        -11   -1    0    0    0    0  0.00000000000E+00  0.00000000000E+00  0.45593999997E+02  0.45594000000E+02  0.51100000000E-03 0.  1.
         11   -1    0    0    0    0 -0.00000000000E+00 -0.00000000000E+00 -0.45593999997E+02  0.45594000000E+02  0.51100000000E-03 0. -1.
    9900012    2    1    2    0    0  0.73169449048E+01 -0.29729584299E+02  0.26754063501E+02  0.50528858603E+02  0.29999996209E+02 0.  0.
         12    1    1    2    0    0 -0.73169449048E+01  0.29729584299E+02 -0.26754063501E+02  0.40659141397E+02  0.00000000000E+00 0. -1.
         11    1    3    3    0    0  0.10434413061E+02 -0.13237288711E+02  0.29253272947E+01  0.17107317978E+02  0.51100000000E-03 0. -1.
        -11    1    3    3    0    0 -0.17187531216E+01 -0.17087001718E+02  0.25762669774E+02  0.30961829631E+02  0.51100000000E-03 0.  1.
        -12    1    3    3    0    0 -0.13987150345E+01  0.59470613006E+00 -0.19339335673E+01  0.24597109935E+01  0.00000000000E+00 0.  1.
</event>
<event>
 7    1  0.5910662E-013  0.5052885E+02  0.7816164E-02  0.1300439E+00
        -11   -1    0    0    0    0  0.00000000000E+00  0.00000000000E+00  0.45593999997E+02  0.45594000000E+02  0.51100000000E-03 0.  1.
         11   -1    0    0    0    0 -0.00000000000E+00 -0.00000000000E+00 -0.45593999997E+02  0.45594000000E+02  0.51100000000E-03 0. -1.
    9900012    2    1    2    0    0  0.32058200832E+02 -0.25008720898E+02 -0.46142491230E-01  0.50528849853E+02  0.29999969614E+02 0.  0.
         12    1    1    2    0    0 -0.32058200832E+02  0.25008720898E+02  0.46142491230E-01  0.40659150147E+02  0.00000000000E+00 0. -1.
         11    1    3    3    0    0  0.17168537792E+02  0.16250333596E+01  0.59638614411E+01  0.18247385206E+02  0.51100000000E-03 0. -1.
        -11    1    3    3    0    0  0.20058576304E+00 -0.74300268683E+01 -0.29974403680E+00  0.74387754813E+01  0.51100000000E-03 0.  1.
         12    1    3    3    0    0  0.14689077277E+02 -0.19203727389E+02 -0.57102598955E+01  0.24842689165E+02  0.00000000000E+00 0. -1.
</event>
<event>
 7    1  0.5910662E-013  0.5052885E+02  0.7816164E-02  0.1300439E+00
        -11   -1    0    0    0    0  0.00000000000E+00  0.00000000000E+00  0.45593999997E+02  0.45594000000E+02  0.51100000000E-03 0.  1.
         11   -1    0    0    0    0 -0.00000000000E+00 -0.00000000000E+00 -0.45593999997E+02  0.45594000000E+02  0.51100000000E-03 0. -1.
    9900012    2    1    2    0    0  0.25873667336E+02 -0.24993118346E+02  0.18948987236E+02  0.50528846746E+02  0.29999960169E+02 0.  0.
         12    1    1    2    0    0 -0.25873667336E+02  0.24993118346E+02 -0.18948987236E+02  0.40659153254E+02  0.00000000000E+00 0. -1.
         11    1    3    3    0    0  0.80199424267E+01 -0.61471129668E+01 -0.47706937256E+01  0.11174345316E+02  0.51100000000E-03 0. -1.
        -11    1    3    3    0    0  0.56777457725E+01 -0.66680038905E+01  0.19861631647E+02  0.21706761271E+02  0.51100000000E-03 0.  1.
        -12    1    3    3    0    0  0.12175979137E+02 -0.12178001489E+02  0.38580493147E+01  0.17647740159E+02  0.00000000000E+00 0.  1.
</event>
<event>
 7    1  0.5910662E-013  0.5052885E+02  0.7816164E-02  0.1300439E+00
        -11   -1    0    0    0    0  0.00000000000E+00  0.00000000000E+00  0.45593999997E+02  0.45594000000E+02  0.51100000000E-03 0.  1.
         11   -1    0    0    0    0 -0.00000000000E+00 -0.00000000000E+00 -0.45593999997E+02  0.45594000000E+02  0.51100000000E-03 0. -1.
    9900012    2    1    2    0    0  0.28653261797E+02  0.26661697174E+02 -0.11014110121E+02  0.50528854294E+02  0.29999983112E+02 0.  0.
         12    1    1    2    0    0 -0.28653261797E+02 -0.26661697174E+02  0.11014110121E+02  0.40659145706E+02  0.00000000000E+00 0. -1.
         11    1    3    3    0    0  0.28951374876E+01  0.52519874862E+01 -0.13411979225E+02  0.14691711290E+02  0.51100000000E-03 0. -1.
        -11    1    3    3    0    0  0.62746742233E+01  0.13139457224E+02  0.16985959684E+01  0.14659539600E+02  0.51100000000E-03 0.  1.
         12    1    3    3    0    0  0.19483450086E+02  0.82702524635E+01  0.69927313538E+00  0.21177603405E+02  0.00000000000E+00 0. -1.
</event>
<event>
 7    1  0.5910662E-013  0.5052887E+02  0.7816164E-02  0.1300439E+00
        -11   -1    0    0    0    0  0.00000000000E+00  0.00000000000E+00  0.45593999997E+02  0.45594000000E+02  0.51100000000E-03 0.  1.
         11   -1    0    0    0    0 -0.00000000000E+00 -0.00000000000E+00 -0.45593999997E+02  0.45594000000E+02  0.51100000000E-03 0. -1.
    9900012    2    1    2    0    0  0.16529240209E+01  0.18642964751E+02  0.36095325772E+02  0.50528870212E+02  0.30000031496E+02 0.  0.
         12    1    1    2    0    0 -0.16529240209E+01 -0.18642964751E+02 -0.36095325772E+02  0.40659129788E+02  0.00000000000E+00 0. -1.
         11    1    3    3    0    0  0.12976791668E+02  0.52014995421E+01  0.97682927508E+01  0.17054977661E+02  0.51100000000E-03 0. -1.
        -11    1    3    3    0    0 -0.87733595595E+01  0.15204527461E+02  0.21850394415E+02  0.28028364733E+02  0.51100000000E-03 0.  1.
         12    1    3    3    0    0 -0.25505080874E+01 -0.17630622518E+01  0.44766386065E+01  0.54455278184E+01  0.00000000000E+00 0. -1.
</event>
<event>
 7    1  0.5910662E-013  0.5052888E+02  0.7816164E-02  0.1300439E+00
        -11   -1    0    0    0    0  0.00000000000E+00  0.00000000000E+00  0.45593999997E+02  0.45594000000E+02  0.51100000000E-03 0. -1.
         11   -1    0    0    0    0 -0.00000000000E+00 -0.00000000000E+00 -0.45593999997E+02  0.45594000000E+02  0.51100000000E-03 0.  1.
    9900012    2    1    2    0    0  0.35086746272E+02 -0.15725777968E+02 -0.13220595524E+02  0.50528880449E+02  0.30000062612E+02 0.  0.
         12    1    1    2    0    0 -0.35086746272E+02  0.15725777968E+02  0.13220595524E+02  0.40659119551E+02  0.00000000000E+00 0. -1.
         11    1    3    3    0    0  0.34100276646E+01  0.39151502443E+01  0.47382880377E+01  0.70290869890E+01  0.51100000000E-03 0. -1.
        -11    1    3    3    0    0 -0.54301457015E-01  0.14702623145E+01 -0.32950702889E+00  0.15077118641E+01  0.51100000000E-03 0.  1.
         12    1    3    3    0    0  0.31731020064E+02 -0.21111190527E+02 -0.17629376533E+02  0.41992081596E+02  0.00000000000E+00 0. -1.
</event>
<event>
 7    1  0.5910662E-013  0.5052887E+02  0.7816164E-02  0.1300439E+00
        -11   -1    0    0    0    0  0.00000000000E+00  0.00000000000E+00  0.45593999997E+02  0.45594000000E+02  0.51100000000E-03 0. -1.
         11   -1    0    0    0    0 -0.00000000000E+00 -0.00000000000E+00 -0.45593999997E+02  0.45594000000E+02  0.51100000000E-03 0.  1.
    9900012    2    1    2    0    0 -0.76277279794E+01 -0.39919513056E+02  0.11895602835E+01  0.50528870516E+02  0.30000032421E+02 0.  0.
         12    1    1    2    0    0  0.76277279794E+01  0.39919513056E+02 -0.11895602835E+01  0.40659129484E+02  0.00000000000E+00 0. -1.
         11    1    3    3    0    0 -0.52202776362E+01 -0.11679606258E+01  0.11441202148E+01  0.54703237518E+01  0.51100000000E-03 0. -1.
        -11    1    3    3    0    0  0.60537541524E+01 -0.30372756582E+02 -0.62416669738E+01  0.31592889842E+02  0.51100000000E-03 0.  1.
        -12    1    3    3    0    0 -0.84612044956E+01 -0.83787958482E+01  0.62871070424E+01  0.13465656922E+02  0.00000000000E+00 0.  1.
</event>
<event>
 7    1  0.5910662E-013  0.5052886E+02  0.7816164E-02  0.1300439E+00
        -11   -1    0    0    0    0  0.00000000000E+00  0.00000000000E+00  0.45593999997E+02  0.45594000000E+02  0.51100000000E-03 0. -1.
         11   -1    0    0    0    0 -0.00000000000E+00 -0.00000000000E+00 -0.45593999997E+02  0.45594000000E+02  0.51100000000E-03 0.  1.
    9900012    2    1    2    0    0 -0.40009317263E+02  0.68642302541E+01 -0.23027917518E+01  0.50528856199E+02  0.29999988902E+02 0.  0.
         12    1    1    2    0    0  0.40009317263E+02 -0.68642302541E+01  0.23027917518E+01  0.40659143801E+02  0.00000000000E+00 0. -1.
         11    1    3    3    0    0 -0.13929965165E+02  0.45470106478E+01  0.78065127108E+01  0.16603038165E+02  0.51100000000E-03 0. -1.
        -11    1    3    3    0    0 -0.25074021207E+02 -0.44401221685E+01 -0.89814742242E+01  0.27001631504E+02  0.51100000000E-03 0.  1.
        -12    1    3    3    0    0 -0.10053308904E+01  0.67573417748E+01 -0.11278302384E+01  0.69241865303E+01  0.00000000000E+00 0.  1.
</event>
<event>
 7    1  0.5910662E-013  0.5052886E+02  0.7816164E-02  0.1300439E+00
        -11   -1    0    0    0    0  0.00000000000E+00  0.00000000000E+00  0.45593999997E+02  0.45594000000E+02  0.51100000000E-03 0. -1.
         11   -1    0    0    0    0 -0.00000000000E+00 -0.00000000000E+00 -0.45593999997E+02  0.45594000000E+02  0.51100000000E-03 0.  1.
    9900012    2    1    2    0    0  0.28390825698E+02  0.55576361452E+01 -0.28569908604E+02  0.50528856121E+02  0.29999988664E+02 0.  0.
         12    1    1    2    0    0 -0.28390825698E+02 -0.55576361452E+01  0.28569908604E+02  0.40659143879E+02  0.00000000000E+00 0. -1.
         11    1    3    3    0    0  0.25846422285E+00 -0.35677788698E+01 -0.11969231308E+02  0.12492331575E+02  0.51100000000E-03 0. -1.
        -11    1    3    3    0    0  0.25168993138E+02  0.63977731642E+01 -0.19990393241E+02  0.32772328865E+02  0.51100000000E-03 0.  1.
         12    1    3    3    0    0  0.29633683372E+01  0.27276418507E+01  0.33897159452E+01  0.52641956800E+01  0.00000000000E+00 0. -1.
</event>
<event>
 7    1  0.5910662E-013  0.5052887E+02  0.7816164E-02  0.1300439E+00
        -11   -1    0    0    0    0  0.00000000000E+00  0.00000000000E+00  0.45593999997E+02  0.45594000000E+02  0.51100000000E-03 0.  1.
         11   -1    0    0    0    0 -0.00000000000E+00 -0.00000000000E+00 -0.45593999997E+02  0.45594000000E+02  0.51100000000E-03 0. -1.
    9900012    2    1    2    0    0  0.24337973168E+01  0.31667324947E+02  0.25385463032E+02  0.50528873447E+02  0.30000041330E+02 0.  0.
         12    1    1    2    0    0 -0.24337973168E+01 -0.31667324947E+02 -0.25385463032E+02  0.40659126553E+02  0.00000000000E+00 0. -1.
         11    1    3    3    0    0  0.86224763553E+01 -0.75849814797E+00  0.10215413560E+02  0.13389439585E+02  0.51100000000E-03 0. -1.
        -11    1    3    3    0    0 -0.37739905814E+01  0.27067318942E+02  0.15179889954E+02  0.31261986803E+02  0.51100000000E-03 0.  1.
         12    1    3    3    0    0 -0.24146884571E+01  0.53585041530E+01 -0.98404811353E-02  0.58774470595E+01  0.00000000000E+00 0. -1.
</event>
<event>
 7    1  0.5910662E-013  0.5052887E+02  0.7816164E-02  0.1300439E+00
        -11   -1    0    0    0    0  0.00000000000E+00  0.00000000000E+00  0.45593999997E+02  0.45594000000E+02  0.51100000000E-03 0.  1.
         11   -1    0    0    0    0 -0.00000000000E+00 -0.00000000000E+00 -0.45593999997E+02  0.45594000000E+02  0.51100000000E-03 0. -1.
    9900012    2    1    2    0    0  0.26756325069E+02 -0.99664160029E+01  0.28947104826E+02  0.50528865025E+02  0.30000015730E+02 0.  0.
         12    1    1    2    0    0 -0.26756325069E+02  0.99664160029E+01 -0.28947104826E+02  0.40659134975E+02  0.00000000000E+00 0. -1.
         11    1    3    3    0    0  0.37570446389E+01  0.51024939898E+01  0.25522125332E+01  0.68311505919E+01  0.51100000000E-03 0. -1.
        -11    1    3    3    0    0  0.85786234734E+01 -0.17913879024E+02  0.17798042840E+02  0.26669648884E+02  0.51100000000E-03 0.  1.
        -12    1    3    3    0    0  0.14420656956E+02  0.28449690314E+01  0.85968494527E+01  0.17028065549E+02  0.00000000000E+00 0.  1.
</event>
<event>
 7    1  0.5910662E-013  0.5052885E+02  0.7816164E-02  0.1300439E+00
        -11   -1    0    0    0    0  0.00000000000E+00  0.00000000000E+00  0.45593999997E+02  0.45594000000E+02  0.51100000000E-03 0.  1.
         11   -1    0    0    0    0 -0.00000000000E+00 -0.00000000000E+00 -0.45593999997E+02  0.45594000000E+02  0.51100000000E-03 0. -1.
    9900012    2    1    2    0    0 -0.37975552806E+02  0.13303270263E+02 -0.58349442872E+01  0.50528853606E+02  0.29999981022E+02 0.  0.
         12    1    1    2    0    0  0.37975552806E+02 -0.13303270263E+02  0.58349442872E+01  0.40659146394E+02  0.00000000000E+00 0. -1.
         11    1    3    3    0    0 -0.12796096316E+02 -0.42016585274E+01  0.63518194663E+01  0.14890924287E+02  0.51100000000E-03 0. -1.
        -11    1    3    3    0    0 -0.41778473763E+01  0.66282530600E+01 -0.87388413696E+01  0.11736928732E+02  0.51100000000E-03 0.  1.
        -12    1    3    3    0    0 -0.21001609113E+02  0.10876675731E+02 -0.34479223839E+01  0.23901000587E+02  0.00000000000E+00 0.  1.
</event>
<event>
 7    1  0.5910662E-013  0.5052887E+02  0.7816164E-02  0.1300439E+00
        -11   -1    0    0    0    0  0.00000000000E+00  0.00000000000E+00  0.45593999997E+02  0.45594000000E+02  0.51100000000E-03 0. -1.
         11   -1    0    0    0    0 -0.00000000000E+00 -0.00000000000E+00 -0.45593999997E+02  0.45594000000E+02  0.51100000000E-03 0.  1.
    9900012    2    1    2    0    0 -0.92070511286E+01 -0.13559950282E+02 -0.37209174721E+02  0.50528871559E+02  0.30000035592E+02 0.  0.
         12    1    1    2    0    0  0.92070511286E+01  0.13559950282E+02  0.37209174721E+02  0.40659128441E+02  0.00000000000E+00 0. -1.
         11    1    3    3    0    0 -0.14300772653E+02 -0.12426573659E-02 -0.71362315862E+01  0.15982424770E+02  0.51100000000E-03 0. -1.
        -11    1    3    3    0    0 -0.99495334350E+00 -0.72271085416E+01 -0.19382888390E+02  0.20710320920E+02  0.51100000000E-03 0.  1.
         12    1    3    3    0    0  0.60886748684E+01 -0.63315990829E+01 -0.10690054745E+02  0.13836125868E+02  0.00000000000E+00 0. -1.
</event>
<event>
 7    1  0.5910662E-013  0.5052886E+02  0.7816164E-02  0.1300439E+00
        -11   -1    0    0    0    0  0.00000000000E+00  0.00000000000E+00  0.45593999997E+02  0.45594000000E+02  0.51100000000E-03 0.  1.
         11   -1    0    0    0    0 -0.00000000000E+00 -0.00000000000E+00 -0.45593999997E+02  0.45594000000E+02  0.51100000000E-03 0. -1.
    9900012    2    1    2    0    0 -0.77263079666E+01  0.32554874269E+01  0.39785319660E+02  0.50528859655E+02  0.29999999407E+02 0.  0.
         12    1    1    2    0    0  0.77263079666E+01 -0.32554874269E+01 -0.39785319660E+02  0.40659140345E+02  0.00000000000E+00 0. -1.
         11    1    3    3    0    0 -0.10051344565E+02 -0.36220053311E+00  0.62744849164E+01  0.11854529852E+02  0.51100000000E-03 0. -1.
        -11    1    3    3    0    0  0.11617809564E+01 -0.57161281538E+01  0.25974936088E+02  0.26621817389E+02  0.51100000000E-03 0.  1.
        -12    1    3    3    0    0  0.11632556418E+01  0.93338161138E+01  0.75358986554E+01  0.12052512414E+02  0.00000000000E+00 0.  1.
</event>
<event>
 7    1  0.5910662E-013  0.5052886E+02  0.7816164E-02  0.1300439E+00
        -11   -1    0    0    0    0  0.00000000000E+00  0.00000000000E+00  0.45593999997E+02  0.45594000000E+02  0.51100000000E-03 0.  1.
         11   -1    0    0    0    0 -0.00000000000E+00 -0.00000000000E+00 -0.45593999997E+02  0.45594000000E+02  0.51100000000E-03 0. -1.
    9900012    2    1    2    0    0  0.11952149862E+02  0.33714118296E+02  0.19330551654E+02  0.50528857288E+02  0.29999992212E+02 0.  0.
         12    1    1    2    0    0 -0.11952149862E+02 -0.33714118296E+02 -0.19330551654E+02  0.40659142712E+02  0.00000000000E+00 0. -1.
         11    1    3    3    0    0 -0.70582322369E+01  0.64477788053E+01  0.78126816837E+00  0.95918128654E+01  0.51100000000E-03 0. -1.
        -11    1    3    3    0    0  0.88395957881E+01  0.60934441703E+01  0.12890453955E+02  0.16775944652E+02  0.51100000000E-03 0.  1.
         12    1    3    3    0    0  0.10170786311E+02  0.21172895321E+02  0.56588295306E+01  0.24161099770E+02  0.00000000000E+00 0. -1.
</event>
<event>
 7    1  0.5910662E-013  0.5052887E+02  0.7816164E-02  0.1300439E+00
        -11   -1    0    0    0    0  0.00000000000E+00  0.00000000000E+00  0.45593999997E+02  0.45594000000E+02  0.51100000000E-03 0. -1.
         11   -1    0    0    0    0 -0.00000000000E+00 -0.00000000000E+00 -0.45593999997E+02  0.45594000000E+02  0.51100000000E-03 0.  1.
    9900012    2    1    2    0    0  0.35653929468E+02 -0.17543536841E+02 -0.86131583040E+01  0.50528869815E+02  0.30000030290E+02 0.  0.
         12    1    1    2    0    0 -0.35653929468E+02  0.17543536841E+02  0.86131583040E+01  0.40659130185E+02  0.00000000000E+00 0. -1.
         11    1    3    3    0    0  0.86966917063E+01 -0.60560580139E+01  0.68270443268E+01  0.12606221472E+02  0.51100000000E-03 0. -1.
        -11    1    3    3    0    0  0.29788952062E+02 -0.10581573580E+02 -0.13512755946E+02  0.34379440628E+02  0.51100000000E-03 0.  1.
        -12    1    3    3    0    0 -0.28317142997E+01 -0.90590524681E+00 -0.19274466850E+01  0.35432077154E+01  0.00000000000E+00 0.  1.
</event>
<event>
 7    1  0.5910662E-013  0.5052888E+02  0.7816164E-02  0.1300439E+00
        -11   -1    0    0    0    0  0.00000000000E+00  0.00000000000E+00  0.45593999997E+02  0.45594000000E+02  0.51100000000E-03 0.  1.
         11   -1    0    0    0    0 -0.00000000000E+00 -0.00000000000E+00 -0.45593999997E+02  0.45594000000E+02  0.51100000000E-03 0. -1.
    9900012    2    1    2    0    0 -0.39066147530E+01 -0.55408467255E+01  0.40089920155E+02  0.50528876555E+02  0.30000050777E+02 0.  0.
         12    1    1    2    0    0  0.39066147530E+01  0.55408467255E+01 -0.40089920155E+02  0.40659123445E+02  0.00000000000E+00 0. -1.
         11    1    3    3    0    0  0.74160246821E+01  0.29357741027E+01  0.10040290600E+02  0.12822777673E+02  0.51100000000E-03 0. -1.
        -11    1    3    3    0    0 -0.33599838752E+01 -0.12879633058E+02  0.21070611891E+02  0.24922783253E+02  0.51100000000E-03 0.  1.
        -12    1    3    3    0    0 -0.79626555598E+01  0.44030122293E+01  0.89790176639E+01  0.12783315629E+02  0.00000000000E+00 0.  1.
</event>
<event>
 7    1  0.5910662E-013  0.5052886E+02  0.7816164E-02  0.1300439E+00
        -11   -1    0    0    0    0  0.00000000000E+00  0.00000000000E+00  0.45593999997E+02  0.45594000000E+02  0.51100000000E-03 0.  1.
         11   -1    0    0    0    0 -0.00000000000E+00 -0.00000000000E+00 -0.45593999997E+02  0.45594000000E+02  0.51100000000E-03 0. -1.
    9900012    2    1    2    0    0 -0.29918038582E+02 -0.55633225435E+01  0.26965273796E+02  0.50528861037E+02  0.30000003609E+02 0.  0.
         12    1    1    2    0    0  0.29918038582E+02  0.55633225435E+01 -0.26965273796E+02  0.40659138963E+02  0.00000000000E+00 0. -1.
         11    1    3    3    0    0  0.32103877898E+01  0.28127041188E+01 -0.21748905162E+01  0.47904115939E+01  0.51100000000E-03 0. -1.
        -11    1    3    3    0    0 -0.34498208911E+01 -0.38805186474E+01  0.51412123166E+01  0.73069660940E+01  0.51100000000E-03 0.  1.
         12    1    3    3    0    0 -0.29678605480E+02 -0.44955080149E+01  0.23998951995E+02  0.38431483349E+02  0.00000000000E+00 0. -1.
</event>
<event>
 7    1  0.5910662E-013  0.5052886E+02  0.7816164E-02  0.1300439E+00
        -11   -1    0    0    0    0  0.00000000000E+00  0.00000000000E+00  0.45593999997E+02  0.45594000000E+02  0.51100000000E-03 0. -1.
         11   -1    0    0    0    0 -0.00000000000E+00 -0.00000000000E+00 -0.45593999997E+02  0.45594000000E+02  0.51100000000E-03 0.  1.
    9900012    2    1    2    0    0 -0.16292521677E+02  0.17097804785E+02 -0.33096589195E+02  0.50528863174E+02  0.30000010105E+02 0.  0.
         12    1    1    2    0    0  0.16292521677E+02 -0.17097804785E+02  0.33096589195E+02  0.40659136826E+02  0.00000000000E+00 0. -1.
         11    1    3    3    0    0  0.51467418208E+01 -0.27740647287E+01 -0.71382231080E+01  0.92270588970E+01  0.51100000000E-03 0. -1.
        -11    1    3    3    0    0 -0.10562041280E+02  0.15963787833E+02 -0.99962526689E+01  0.21594543423E+02  0.51100000000E-03 0.  1.
        -12    1    3    3    0    0 -0.10877222218E+02  0.39080816803E+01 -0.15962113418E+02  0.19707260854E+02  0.00000000000E+00 0.  1.
</event>
<event>
 7    1  0.5910662E-013  0.5052886E+02  0.7816164E-02  0.1300439E+00
        -11   -1    0    0    0    0  0.00000000000E+00  0.00000000000E+00  0.45593999997E+02  0.45594000000E+02  0.51100000000E-03 0.  1.
         11   -1    0    0    0    0 -0.00000000000E+00 -0.00000000000E+00 -0.45593999997E+02  0.45594000000E+02  0.51100000000E-03 0. -1.
    9900012    2    1    2    0    0  0.27082878856E+01  0.28345117662E+02  0.29023872809E+02  0.50528859437E+02  0.29999998744E+02 0.  0.
         12    1    1    2    0    0 -0.27082878856E+01 -0.28345117662E+02 -0.29023872809E+02  0.40659140563E+02  0.00000000000E+00 0. -1.
         11    1    3    3    0    0 -0.69924865959E+01  0.12806391336E+02 -0.35004860218E+00  0.14595241078E+02  0.51100000000E-03 0. -1.
        -11    1    3    3    0    0  0.41686961646E+01  0.12192685586E+02  0.25007165224E+02  0.28131795576E+02  0.51100000000E-03 0.  1.
        -12    1    3    3    0    0  0.55320783170E+01  0.33460407393E+01  0.43667561867E+01  0.78018227825E+01  0.00000000000E+00 0.  1.
</event>
<event>
 7    1  0.5910662E-013  0.5052885E+02  0.7816164E-02  0.1300439E+00
        -11   -1    0    0    0    0  0.00000000000E+00  0.00000000000E+00  0.45593999997E+02  0.45594000000E+02  0.51100000000E-03 0.  1.
         11   -1    0    0    0    0 -0.00000000000E+00 -0.00000000000E+00 -0.45593999997E+02  0.45594000000E+02  0.51100000000E-03 0. -1.
    9900012    2    1    2    0    0  0.70038998366E+01 -0.11442279717E+02  0.38382109245E+02  0.50528847425E+02  0.29999962233E+02 0.  0.
         12    1    1    2    0    0 -0.70038998366E+01  0.11442279717E+02 -0.38382109245E+02  0.40659152575E+02  0.00000000000E+00 0. -1.
         11    1    3    3    0    0 -0.53134740957E+01 -0.15535829195E+02  0.18384551093E+02  0.24649274125E+02  0.51100000000E-03 0. -1.
        -11    1    3    3    0    0  0.10595157322E+02  0.67883284411E+00  0.19248702926E+02  0.21982509804E+02  0.51100000000E-03 0.  1.
         12    1    3    3    0    0  0.17222166107E+01  0.34147166333E+01  0.74885522550E+00  0.38970634956E+01  0.00000000000E+00 0. -1.
</event>
<event>
 7    1  0.5910662E-013  0.5052886E+02  0.7816164E-02  0.1300439E+00
        -11   -1    0    0    0    0  0.00000000000E+00  0.00000000000E+00  0.45593999997E+02  0.45594000000E+02  0.51100000000E-03 0.  1.
         11   -1    0    0    0    0 -0.00000000000E+00 -0.00000000000E+00 -0.45593999997E+02  0.45594000000E+02  0.51100000000E-03 0. -1.
    9900012    2    1    2    0    0 -0.37540642451E+02  0.11064458514E+02 -0.11020144223E+02  0.50528860111E+02  0.30000000792E+02 0.  0.
         12    1    1    2    0    0  0.37540642451E+02 -0.11064458514E+02  0.11020144223E+02  0.40659139889E+02  0.00000000000E+00 0. -1.
         11    1    3    3    0    0 -0.61324508213E-01  0.75743229710E+01 -0.42911584307E+01  0.87056401317E+01  0.51100000000E-03 0. -1.
        -11    1    3    3    0    0 -0.13923202213E+02 -0.40381428827E+01  0.37354154687E+01  0.14970487192E+02  0.51100000000E-03 0.  1.
        -12    1    3    3    0    0 -0.23556115730E+02  0.75282784260E+01 -0.10464401261E+02  0.26852732786E+02  0.00000000000E+00 0.  1.
</event>
<event>
 7    1  0.5910662E-013  0.5052886E+02  0.7816164E-02  0.1300439E+00
        -11   -1    0    0    0    0  0.00000000000E+00  0.00000000000E+00  0.45593999997E+02  0.45594000000E+02  0.51100000000E-03 0.  1.
         11   -1    0    0    0    0 -0.00000000000E+00 -0.00000000000E+00 -0.45593999997E+02  0.45594000000E+02  0.51100000000E-03 0. -1.
    9900012    2    1    2    0    0 -0.25011656557E+02  0.15556337039E+02  0.28028251409E+02  0.50528862493E+02  0.30000008033E+02 0.  0.
         12    1    1    2    0    0  0.25011656557E+02 -0.15556337039E+02 -0.28028251409E+02  0.40659137507E+02  0.00000000000E+00 0. -1.
         11    1    3    3    0    0 -0.40291549746E+01  0.88472709968E+00 -0.37672279987E+01  0.55864871704E+01  0.51100000000E-03 0. -1.
        -11    1    3    3    0    0 -0.14605281364E+02  0.18833789370E+02  0.21224626139E+02  0.31914113191E+02  0.51100000000E-03 0.  1.
        -12    1    3    3    0    0 -0.63772202182E+01 -0.41621794314E+01  0.10570853269E+02  0.13028262131E+02  0.00000000000E+00 0.  1.
</event>
<event>
 7    1  0.5910662E-013  0.5052886E+02  0.7816164E-02  0.1300439E+00
        -11   -1    0    0    0    0  0.00000000000E+00  0.00000000000E+00  0.45593999997E+02  0.45594000000E+02  0.51100000000E-03 0.  1.
         11   -1    0    0    0    0 -0.00000000000E+00 -0.00000000000E+00 -0.45593999997E+02  0.45594000000E+02  0.51100000000E-03 0. -1.
    9900012    2    1    2    0    0 -0.15172329692E+02  0.20289572111E+02  0.31800928568E+02  0.50528863481E+02  0.30000011036E+02 0.  0.
         12    1    1    2    0    0  0.15172329692E+02 -0.20289572111E+02 -0.31800928568E+02  0.40659136519E+02  0.00000000000E+00 0. -1.
         11    1    3    3    0    0 -0.75400014131E+01  0.41357882646E+01 -0.26654131759E+01  0.90033767854E+01  0.51100000000E-03 0. -1.
        -11    1    3    3    0    0 -0.83378941062E+01  0.18712272170E+02  0.31056768414E+02  0.37204737231E+02  0.51100000000E-03 0.  1.
        -12    1    3    3    0    0  0.70556582720E+00 -0.25584883240E+01  0.34095733297E+01  0.43207494641E+01  0.00000000000E+00 0.  1.
</event>
<event>
 7    1  0.5910662E-013  0.5052886E+02  0.7816164E-02  0.1300439E+00
        -11   -1    0    0    0    0  0.00000000000E+00  0.00000000000E+00  0.45593999997E+02  0.45594000000E+02  0.51100000000E-03 0. -1.
         11   -1    0    0    0    0 -0.00000000000E+00 -0.00000000000E+00 -0.45593999997E+02  0.45594000000E+02  0.51100000000E-03 0.  1.
    9900012    2    1    2    0    0  0.19938395876E+02 -0.16149816806E+02 -0.31540601191E+02  0.50528859128E+02  0.29999997805E+02 0.  0.
         12    1    1    2    0    0 -0.19938395876E+02  0.16149816806E+02  0.31540601191E+02  0.40659140872E+02  0.00000000000E+00 0. -1.
         11    1    3    3    0    0  0.17305138649E+02 -0.66890816599E+01 -0.12349322361E+02  0.22287157740E+02  0.51100000000E-03 0. -1.
        -11    1    3    3    0    0 -0.47025802228E+01 -0.25778903143E+01 -0.17161272605E+02  0.17979684561E+02  0.51100000000E-03 0.  1.
        -12    1    3    3    0    0  0.73358374499E+01 -0.68828448314E+01 -0.20300062247E+01  0.10262016826E+02  0.00000000000E+00 0.  1.
</event>
<event>
 7    1  0.5910662E-013  0.5052887E+02  0.7816164E-02  0.1300439E+00
        -11   -1    0    0    0    0  0.00000000000E+00  0.00000000000E+00  0.45593999997E+02  0.45594000000E+02  0.51100000000E-03 0.  1.
         11   -1    0    0    0    0 -0.00000000000E+00 -0.00000000000E+00 -0.45593999997E+02  0.45594000000E+02  0.51100000000E-03 0. -1.
    9900012    2    1    2    0    0  0.18557919875E+02  0.31585336825E+02  0.17639009827E+02  0.50528873594E+02  0.30000041777E+02 0.  0.
         12    1    1    2    0    0 -0.18557919875E+02 -0.31585336825E+02 -0.17639009827E+02  0.40659126406E+02  0.00000000000E+00 0. -1.
         11    1    3    3    0    0  0.11823352127E+00 -0.42575140743E+01  0.23918401218E+00  0.42658662088E+01  0.51100000000E-03 0. -1.
        -11    1    3    3    0    0  0.20001238282E+02  0.25581455206E+02  0.13692868040E+02  0.35241382190E+02  0.51100000000E-03 0.  1.
         12    1    3    3    0    0 -0.15615519286E+01  0.10261395693E+02  0.37069577743E+01  0.11021625195E+02  0.00000000000E+00 0. -1.
</event>
<event>
 7    1  0.5910662E-013  0.5052892E+02  0.7816164E-02  0.1300439E+00
        -11   -1    0    0    0    0  0.00000000000E+00  0.00000000000E+00  0.45593999997E+02  0.45594000000E+02  0.51100000000E-03 0.  1.
         11   -1    0    0    0    0 -0.00000000000E+00 -0.00000000000E+00 -0.45593999997E+02  0.45594000000E+02  0.51100000000E-03 0. -1.
    9900012    2    1    2    0    0 -0.28960920800E+02 -0.24477584696E+02  0.14672210079E+02  0.50528919406E+02  0.30000181027E+02 0.  0.
         12    1    1    2    0    0  0.28960920800E+02  0.24477584696E+02 -0.14672210079E+02  0.40659080594E+02  0.00000000000E+00 0. -1.
         11    1    3    3    0    0  0.45403762505E+01  0.12069448516E+00  0.77429847483E+00  0.46075071399E+01  0.51100000000E-03 0. -1.
        -11    1    3    3    0    0 -0.11246147259E+02 -0.16719047573E+02  0.59211309238E+01  0.21001480223E+02  0.51100000000E-03 0.  1.
         12    1    3    3    0    0 -0.22255149792E+02 -0.78792316083E+01  0.79767806801E+01  0.24919932043E+02  0.00000000000E+00 0. -1.
</event>
<event>
 7    1  0.5910662E-013  0.5052886E+02  0.7816164E-02  0.1300439E+00
        -11   -1    0    0    0    0  0.00000000000E+00  0.00000000000E+00  0.45593999997E+02  0.45594000000E+02  0.51100000000E-03 0.  1.
         11   -1    0    0    0    0 -0.00000000000E+00 -0.00000000000E+00 -0.45593999997E+02  0.45594000000E+02  0.51100000000E-03 0. -1.
    9900012    2    1    2    0    0 -0.38313786075E+02 -0.10376748836E+02 -0.88058073161E+01  0.50528863729E+02  0.30000011792E+02 0.  0.
         12    1    1    2    0    0  0.38313786075E+02  0.10376748836E+02  0.88058073161E+01  0.40659136271E+02  0.00000000000E+00 0. -1.
         11    1    3    3    0    0 -0.17212538925E+02 -0.64829013644E+01 -0.47365845622E+01  0.18993018188E+02  0.51100000000E-03 0. -1.
        -11    1    3    3    0    0 -0.76488995063E+01  0.53051819773E+01  0.71609199890E+01  0.11744334584E+02  0.51100000000E-03 0.  1.
        -12    1    3    3    0    0 -0.13452347644E+02 -0.91990294489E+01 -0.11230142743E+02  0.19791510957E+02  0.00000000000E+00 0.  1.
</event>
<event>
 7    1  0.5910662E-013  0.5052886E+02  0.7816164E-02  0.1300439E+00
        -11   -1    0    0    0    0  0.00000000000E+00  0.00000000000E+00  0.45593999997E+02  0.45594000000E+02  0.51100000000E-03 0. -1.
         11   -1    0    0    0    0 -0.00000000000E+00 -0.00000000000E+00 -0.45593999997E+02  0.45594000000E+02  0.51100000000E-03 0.  1.
    9900012    2    1    2    0    0 -0.39903377858E+02 -0.16423592399E+01 -0.76281291358E+01  0.50528864957E+02  0.30000015522E+02 0.  0.
         12    1    1    2    0    0  0.39903377858E+02  0.16423592399E+01  0.76281291358E+01  0.40659135043E+02  0.00000000000E+00 0. -1.
         11    1    3    3    0    0 -0.97190229447E+01  0.90945243509E+01 -0.35722713367E+01  0.13781542110E+02  0.51100000000E-03 0. -1.
        -11    1    3    3    0    0 -0.25963716283E+02 -0.13380956509E+02 -0.81227171816E+01  0.30317372825E+02  0.51100000000E-03 0.  1.
        -12    1    3    3    0    0 -0.42206386303E+01  0.26440729184E+01  0.40668593825E+01  0.64299500218E+01  0.00000000000E+00 0.  1.
</event>
<event>
 7    1  0.5910662E-013  0.5052887E+02  0.7816164E-02  0.1300439E+00
        -11   -1    0    0    0    0  0.00000000000E+00  0.00000000000E+00  0.45593999997E+02  0.45594000000E+02  0.51100000000E-03 0.  1.
         11   -1    0    0    0    0 -0.00000000000E+00 -0.00000000000E+00 -0.45593999997E+02  0.45594000000E+02  0.51100000000E-03 0. -1.
    9900012    2    1    2    0    0 -0.14620657139E+02 -0.31976194316E+02  0.20418712915E+02  0.50528874884E+02  0.30000045698E+02 0.  0.
         12    1    1    2    0    0  0.14620657139E+02  0.31976194316E+02 -0.20418712915E+02  0.40659125116E+02  0.00000000000E+00 0. -1.
         11    1    3    3    0    0  0.70698702143E+01  0.37862268559E+00  0.18083307137E+01  0.73072895259E+01  0.51100000000E-03 0. -1.
        -11    1    3    3    0    0 -0.13214652812E+02 -0.19881743088E+02  0.12532650184E+02  0.26962531002E+02  0.51100000000E-03 0.  1.
         12    1    3    3    0    0 -0.84758745409E+01 -0.12473073913E+02  0.60777320166E+01  0.16259054356E+02  0.00000000000E+00 0. -1.
</event>
<event>
 7    1  0.5910662E-013  0.5052886E+02  0.7816164E-02  0.1300439E+00
        -11   -1    0    0    0    0  0.00000000000E+00  0.00000000000E+00  0.45593999997E+02  0.45594000000E+02  0.51100000000E-03 0. -1.
         11   -1    0    0    0    0 -0.00000000000E+00 -0.00000000000E+00 -0.45593999997E+02  0.45594000000E+02  0.51100000000E-03 0.  1.
    9900012    2    1    2    0    0 -0.17723303554E+02 -0.33835037249E+02 -0.13937020381E+02  0.50528858696E+02  0.29999996492E+02 0.  0.
         12    1    1    2    0    0  0.17723303554E+02  0.33835037249E+02  0.13937020381E+02  0.40659141304E+02  0.00000000000E+00 0. -1.
         11    1    3    3    0    0  0.11889952657E+01 -0.23313973462E+02 -0.13424300991E+02  0.26928923589E+02  0.51100000000E-03 0. -1.
        -11    1    3    3    0    0 -0.13816897587E+02 -0.56015789754E+01  0.36968586771E+01  0.15360700188E+02  0.51100000000E-03 0.  1.
        -12    1    3    3    0    0 -0.50954012334E+01 -0.49194848115E+01 -0.42095780671E+01  0.82392349185E+01  0.00000000000E+00 0.  1.
</event>
<event>
 7    1  0.5910662E-013  0.5052884E+02  0.7816164E-02  0.1300439E+00
        -11   -1    0    0    0    0  0.00000000000E+00  0.00000000000E+00  0.45593999997E+02  0.45594000000E+02  0.51100000000E-03 0.  1.
         11   -1    0    0    0    0 -0.00000000000E+00 -0.00000000000E+00 -0.45593999997E+02  0.45594000000E+02  0.51100000000E-03 0. -1.
    9900012    2    1    2    0    0  0.12683356150E+02 -0.38437958035E+02  0.38500607227E+01  0.50528842253E+02  0.29999946512E+02 0.  0.
         12    1    1    2    0    0 -0.12683356150E+02  0.38437958035E+02 -0.38500607227E+01  0.40659157747E+02  0.00000000000E+00 0. -1.
         11    1    3    3    0    0  0.12137871928E+02 -0.36365248434E+01  0.71259371118E+01  0.14537235908E+02  0.51100000000E-03 0. -1.
        -11    1    3    3    0    0  0.19476621636E+01 -0.12850128644E+02  0.25330946033E+01  0.13241441108E+02  0.51100000000E-03 0.  1.
         12    1    3    3    0    0 -0.14021779417E+01 -0.21951304548E+02 -0.58089709923E+01  0.22750165237E+02  0.00000000000E+00 0. -1.
</event>
<event>
 7    1  0.5910662E-013  0.5052887E+02  0.7816164E-02  0.1300439E+00
        -11   -1    0    0    0    0  0.00000000000E+00  0.00000000000E+00  0.45593999997E+02  0.45594000000E+02  0.51100000000E-03 0.  1.
         11   -1    0    0    0    0 -0.00000000000E+00 -0.00000000000E+00 -0.45593999997E+02  0.45594000000E+02  0.51100000000E-03 0. -1.
    9900012    2    1    2    0    0  0.28680114456E+02 -0.28127478681E+02  0.62817765013E+01  0.50528871404E+02  0.30000035119E+02 0.  0.
         12    1    1    2    0    0 -0.28680114456E+02  0.28127478681E+02 -0.62817765013E+01  0.40659128596E+02  0.00000000000E+00 0. -1.
         11    1    3    3    0    0  0.25068946700E+01  0.20711063974E+01  0.77784963257E+01  0.84308367287E+01  0.51100000000E-03 0. -1.
        -11    1    3    3    0    0  0.77752892586E+01 -0.14753017003E+02 -0.58736634325E+01  0.17680683135E+02  0.51100000000E-03 0.  1.
        -12    1    3    3    0    0  0.18397930528E+02 -0.15445568076E+02  0.43769436081E+01  0.24417351540E+02  0.00000000000E+00 0.  1.
</event>
<event>
 7    1  0.5910662E-013  0.5052884E+02  0.7816164E-02  0.1300439E+00
        -11   -1    0    0    0    0  0.00000000000E+00  0.00000000000E+00  0.45593999997E+02  0.45594000000E+02  0.51100000000E-03 0.  1.
         11   -1    0    0    0    0 -0.00000000000E+00 -0.00000000000E+00 -0.45593999997E+02  0.45594000000E+02  0.51100000000E-03 0. -1.
    9900012    2    1    2    0    0 -0.16840208833E+02 -0.37007444416E+02 -0.15472001657E+00  0.50528837268E+02  0.29999931360E+02 0.  0.
         12    1    1    2    0    0  0.16840208833E+02  0.37007444416E+02  0.15472001657E+00  0.40659162732E+02  0.00000000000E+00 0. -1.
         11    1    3    3    0    0 -0.12456742560E+02 -0.85239368125E+01 -0.97065240552E+01  0.17945599558E+02  0.51100000000E-03 0. -1.
        -11    1    3    3    0    0 -0.75749157749E+01 -0.11095212862E+02  0.49290454650E+01  0.14310086894E+02  0.51100000000E-03 0.  1.
         12    1    3    3    0    0  0.31914495013E+01 -0.17388294741E+02  0.46227585736E+01  0.18273150817E+02  0.00000000000E+00 0. -1.
</event>
<event>
 7    1  0.5910662E-013  0.5052886E+02  0.7816164E-02  0.1300439E+00
        -11   -1    0    0    0    0  0.00000000000E+00  0.00000000000E+00  0.45593999997E+02  0.45594000000E+02  0.51100000000E-03 0.  1.
         11   -1    0    0    0    0 -0.00000000000E+00 -0.00000000000E+00 -0.45593999997E+02  0.45594000000E+02  0.51100000000E-03 0. -1.
    9900012    2    1    2    0    0  0.24466739537E+02 -0.79980534899E+01  0.31473402465E+02  0.50528864914E+02  0.30000015392E+02 0.  0.
         12    1    1    2    0    0 -0.24466739537E+02  0.79980534899E+01 -0.31473402465E+02  0.40659135086E+02  0.00000000000E+00 0. -1.
         11    1    3    3    0    0 -0.44360723377E+01 -0.53451877200E+01  0.73897238800E+01  0.10141882904E+02  0.51100000000E-03 0. -1.
        -11    1    3    3    0    0  0.30067384950E+02 -0.68534211401E+00  0.21717956364E+02  0.37096993954E+02  0.51100000000E-03 0.  1.
        -12    1    3    3    0    0 -0.11645730747E+01 -0.19675236559E+01  0.23657222209E+01  0.32899880561E+01  0.00000000000E+00 0.  1.
</event>
<event>
 7    1  0.5910662E-013  0.5052886E+02  0.7816164E-02  0.1300439E+00
        -11   -1    0    0    0    0  0.00000000000E+00  0.00000000000E+00  0.45593999997E+02  0.45594000000E+02  0.51100000000E-03 0.  1.
         11   -1    0    0    0    0 -0.00000000000E+00 -0.00000000000E+00 -0.45593999997E+02  0.45594000000E+02  0.51100000000E-03 0. -1.
    9900012    2    1    2    0    0  0.40866199426E+01  0.33703640591E+02  0.22372515798E+02  0.50528864314E+02  0.30000013567E+02 0.  0.
         12    1    1    2    0    0 -0.40866199426E+01 -0.33703640591E+02 -0.22372515798E+02  0.40659135686E+02  0.00000000000E+00 0. -1.
         11    1    3    3    0    0 -0.61558702325E+01  0.32590375801E+01 -0.10780970293E+01  0.70482875746E+01  0.51100000000E-03 0. -1.
        -11    1    3    3    0    0  0.22955106658E+01  0.26933651202E+02  0.13320472512E+02  0.30135127749E+02  0.51100000000E-03 0.  1.
        -12    1    3    3    0    0  0.79469795093E+01  0.35109518093E+01  0.10130140315E+02  0.13345448989E+02  0.00000000000E+00 0.  1.
</event>
<event>
 7    1  0.5910662E-013  0.5052886E+02  0.7816164E-02  0.1300439E+00
        -11   -1    0    0    0    0  0.00000000000E+00  0.00000000000E+00  0.45593999997E+02  0.45594000000E+02  0.51100000000E-03 0. -1.
         11   -1    0    0    0    0 -0.00000000000E+00 -0.00000000000E+00 -0.45593999997E+02  0.45594000000E+02  0.51100000000E-03 0.  1.
    9900012    2    1    2    0    0 -0.23673163418E+02 -0.47489948442E+01 -0.32713816227E+02  0.50528863384E+02  0.30000010741E+02 0.  0.
         12    1    1    2    0    0  0.23673163418E+02  0.47489948442E+01  0.32713816227E+02  0.40659136616E+02  0.00000000000E+00 0. -1.
         11    1    3    3    0    0 -0.65863692651E+01  0.21395461444E+00 -0.11990162070E+02  0.13681740510E+02  0.51100000000E-03 0.  1.
        -11    1    3    3    0    0  0.11918146530E+01 -0.11070429644E+02 -0.87196568787E+01  0.14142391984E+02  0.51100000000E-03 0. -1.
        -12    1    3    3    0    0 -0.18278608806E+02  0.61074801858E+01 -0.12003997278E+02  0.22704730890E+02  0.00000000000E+00 0.  1.
</event>
<event>
 7    1  0.5910662E-013  0.5052887E+02  0.7816164E-02  0.1300439E+00
        -11   -1    0    0    0    0  0.00000000000E+00  0.00000000000E+00  0.45593999997E+02  0.45594000000E+02  0.51100000000E-03 0.  1.
         11   -1    0    0    0    0 -0.00000000000E+00 -0.00000000000E+00 -0.45593999997E+02  0.45594000000E+02  0.51100000000E-03 0. -1.
    9900012    2    1    2    0    0  0.35006836773E+02  0.13364784220E+02  0.15781900839E+02  0.50528874675E+02  0.30000045063E+02 0.  0.
         12    1    1    2    0    0 -0.35006836773E+02 -0.13364784220E+02 -0.15781900839E+02  0.40659125325E+02  0.00000000000E+00 0. -1.
         11    1    3    3    0    0  0.16426007626E+02  0.17790546578E+02 -0.66900724835E+00  0.24223229451E+02  0.51100000000E-03 0. -1.
        -11    1    3    3    0    0  0.87144986625E+01 -0.40668252985E+01  0.40000043019E+01  0.10415449564E+02  0.51100000000E-03 0.  1.
         12    1    3    3    0    0  0.98663304839E+01 -0.35893706013E+00  0.12450903786E+02  0.15890195660E+02  0.00000000000E+00 0. -1.
</event>
<event>
 7    1  0.5910662E-013  0.5052886E+02  0.7816164E-02  0.1300439E+00
        -11   -1    0    0    0    0  0.00000000000E+00  0.00000000000E+00  0.45593999997E+02  0.45594000000E+02  0.51100000000E-03 0.  1.
         11   -1    0    0    0    0 -0.00000000000E+00 -0.00000000000E+00 -0.45593999997E+02  0.45594000000E+02  0.51100000000E-03 0. -1.
    9900012    2    1    2    0    0  0.21709707446E+02  0.32796003610E+02 -0.10309064750E+02  0.50528855073E+02  0.29999985478E+02 0.  0.
         12    1    1    2    0    0 -0.21709707446E+02 -0.32796003610E+02  0.10309064750E+02  0.40659144927E+02  0.00000000000E+00 0. -1.
         11    1    3    3    0    0  0.26016232050E+02  0.21958591321E+02 -0.60527337248E+01  0.34578311825E+02  0.51100000000E-03 0. -1.
        -11    1    3    3    0    0  0.22171089892E+01  0.14260531676E+01  0.16050864860E+01  0.30863413284E+01  0.51100000000E-03 0.  1.
         12    1    3    3    0    0 -0.65236335927E+01  0.94113591221E+01 -0.58614175114E+01  0.12864201919E+02  0.00000000000E+00 0. -1.
</event>
<event>
 7    1  0.5910662E-013  0.5052886E+02  0.7816164E-02  0.1300439E+00
        -11   -1    0    0    0    0  0.00000000000E+00  0.00000000000E+00  0.45593999997E+02  0.45594000000E+02  0.51100000000E-03 0.  1.
         11   -1    0    0    0    0 -0.00000000000E+00 -0.00000000000E+00 -0.45593999997E+02  0.45594000000E+02  0.51100000000E-03 0. -1.
    9900012    2    1    2    0    0  0.32263494479E+02 -0.14726838713E+02  0.19883472810E+02  0.50528863936E+02  0.30000012420E+02 0.  0.
         12    1    1    2    0    0 -0.32263494479E+02  0.14726838713E+02 -0.19883472810E+02  0.40659136064E+02  0.00000000000E+00 0. -1.
         11    1    3    3    0    0  0.20967032851E+02 -0.17594258730E+01  0.13696142870E+02  0.25105704048E+02  0.51100000000E-03 0. -1.
        -11    1    3    3    0    0  0.12634762070E+02 -0.39220699162E+01 -0.17119164157E+01  0.13339808959E+02  0.51100000000E-03 0.  1.
         12    1    3    3    0    0 -0.13383004418E+01 -0.90453429240E+01  0.78992463557E+01  0.12083350929E+02  0.00000000000E+00 0. -1.
</event>
<event>
 7    1  0.5910662E-013  0.5052888E+02  0.7816164E-02  0.1300439E+00
        -11   -1    0    0    0    0  0.00000000000E+00  0.00000000000E+00  0.45593999997E+02  0.45594000000E+02  0.51100000000E-03 0. -1.
         11   -1    0    0    0    0 -0.00000000000E+00 -0.00000000000E+00 -0.45593999997E+02  0.45594000000E+02  0.51100000000E-03 0.  1.
    9900012    2    1    2    0    0 -0.18342264301E+02  0.25957487938E+02 -0.25356144764E+02  0.50528881502E+02  0.30000065814E+02 0.  0.
         12    1    1    2    0    0  0.18342264301E+02 -0.25957487938E+02  0.25356144764E+02  0.40659118498E+02  0.00000000000E+00 0. -1.
         11    1    3    3    0    0  0.21295004675E+01  0.83811189169E+01 -0.79314515956E+01  0.11733961446E+02  0.51100000000E-03 0.  1.
        -11    1    3    3    0    0 -0.11366063257E+02  0.75614875072E+01  0.32971553968E+01  0.14044027957E+02  0.51100000000E-03 0. -1.
        -12    1    3    3    0    0 -0.91057015114E+01  0.10014881514E+02 -0.20721848565E+02  0.24750892099E+02  0.00000000000E+00 0.  1.
</event>
<event>
 7    1  0.5910662E-013  0.5052886E+02  0.7816164E-02  0.1300439E+00
        -11   -1    0    0    0    0  0.00000000000E+00  0.00000000000E+00  0.45593999997E+02  0.45594000000E+02  0.51100000000E-03 0.  1.
         11   -1    0    0    0    0 -0.00000000000E+00 -0.00000000000E+00 -0.45593999997E+02  0.45594000000E+02  0.51100000000E-03 0. -1.
    9900012    2    1    2    0    0  0.15544172228E+01 -0.23622678979E+02  0.33056287607E+02  0.50528864183E+02  0.30000013170E+02 0.  0.
         12    1    1    2    0    0 -0.15544172228E+01  0.23622678979E+02 -0.33056287607E+02  0.40659135817E+02  0.00000000000E+00 0. -1.
         11    1    3    3    0    0  0.29968006609E+01 -0.21698450377E+02  0.11702925342E+02  0.24834693974E+02  0.51100000000E-03 0. -1.
        -11    1    3    3    0    0  0.14509264090E+01 -0.45994963229E+01  0.21209507996E+02  0.21750949026E+02  0.51100000000E-03 0.  1.
         12    1    3    3    0    0 -0.28933098470E+01  0.26752677204E+01  0.14385426934E+00  0.39432211829E+01  0.00000000000E+00 0. -1.
</event>
<event>
 7    1  0.5910662E-013  0.5052886E+02  0.7816164E-02  0.1300439E+00
        -11   -1    0    0    0    0  0.00000000000E+00  0.00000000000E+00  0.45593999997E+02  0.45594000000E+02  0.51100000000E-03 0.  1.
         11   -1    0    0    0    0 -0.00000000000E+00 -0.00000000000E+00 -0.45593999997E+02  0.45594000000E+02  0.51100000000E-03 0. -1.
    9900012    2    1    2    0    0  0.18972574795E+02 -0.22604844013E+02  0.27968337710E+02  0.50528862264E+02  0.30000007337E+02 0.  0.
         12    1    1    2    0    0 -0.18972574795E+02  0.22604844013E+02 -0.27968337710E+02  0.40659137736E+02  0.00000000000E+00 0. -1.
         11    1    3    3    0    0  0.56305258214E+01 -0.10086413593E+02  0.97553157992E+01  0.15119680777E+02  0.51100000000E-03 0. -1.
        -11    1    3    3    0    0  0.18960346041E+02 -0.29150097164E+01  0.10474839993E+02  0.21856675795E+02  0.51100000000E-03 0.  1.
        -12    1    3    3    0    0 -0.56182970678E+01 -0.96034207036E+01  0.77381819178E+01  0.13552505692E+02  0.00000000000E+00 0.  1.
</event>
<event>
 7    1  0.5910662E-013  0.5052886E+02  0.7816164E-02  0.1300439E+00
        -11   -1    0    0    0    0  0.00000000000E+00  0.00000000000E+00  0.45593999997E+02  0.45594000000E+02  0.51100000000E-03 0.  1.
         11   -1    0    0    0    0 -0.00000000000E+00 -0.00000000000E+00 -0.45593999997E+02  0.45594000000E+02  0.51100000000E-03 0. -1.
    9900012    2    1    2    0    0 -0.80658001822E+01  0.10111187001E+02  0.38547014026E+02  0.50528861723E+02  0.30000005692E+02 0.  0.
         12    1    1    2    0    0  0.80658001822E+01 -0.10111187001E+02 -0.38547014026E+02  0.40659138277E+02  0.00000000000E+00 0. -1.
         11    1    3    3    0    0  0.92265311723E+01  0.54334000537E+01  0.10385232168E+02  0.14916559961E+02  0.51100000000E-03 0. -1.
        -11    1    3    3    0    0 -0.43816148654E+01  0.68585073142E+01  0.14887939142E+02  0.16967274489E+02  0.51100000000E-03 0.  1.
         12    1    3    3    0    0 -0.12910716489E+02 -0.21807203674E+01  0.13273842715E+02  0.18645027273E+02  0.00000000000E+00 0. -1.
</event>
<event>
 7    1  0.5910662E-013  0.5052885E+02  0.7816164E-02  0.1300439E+00
        -11   -1    0    0    0    0  0.00000000000E+00  0.00000000000E+00  0.45593999997E+02  0.45594000000E+02  0.51100000000E-03 0. -1.
         11   -1    0    0    0    0 -0.00000000000E+00 -0.00000000000E+00 -0.45593999997E+02  0.45594000000E+02  0.51100000000E-03 0.  1.
    9900012    2    1    2    0    0 -0.25214743923E+02  0.12276919366E+02 -0.29439093808E+02  0.50528852143E+02  0.29999976574E+02 0.  0.
         12    1    1    2    0    0  0.25214743923E+02 -0.12276919366E+02  0.29439093808E+02  0.40659147857E+02  0.00000000000E+00 0. -1.
         11    1    3    3    0    0 -0.17428920211E+02  0.48847463014E+01 -0.25246448715E+02  0.31064629068E+02  0.51100000000E-03 0.  1.
        -11    1    3    3    0    0  0.45593305139E+01  0.61916634664E+00  0.48468931211E+00  0.46266387033E+01  0.51100000000E-03 0. -1.
         12    1    3    3    0    0 -0.12345154225E+02  0.67730067182E+01 -0.46773344054E+01  0.14837584372E+02  0.00000000000E+00 0. -1.
</event>
<event>
 7    1  0.5910662E-013  0.5052885E+02  0.7816164E-02  0.1300439E+00
        -11   -1    0    0    0    0  0.00000000000E+00  0.00000000000E+00  0.45593999997E+02  0.45594000000E+02  0.51100000000E-03 0.  1.
         11   -1    0    0    0    0 -0.00000000000E+00 -0.00000000000E+00 -0.45593999997E+02  0.45594000000E+02  0.51100000000E-03 0. -1.
    9900012    2    1    2    0    0  0.19437415932E+02  0.33615593204E+02  0.12055906559E+02  0.50528854319E+02  0.29999983187E+02 0.  0.
         12    1    1    2    0    0 -0.19437415932E+02 -0.33615593204E+02 -0.12055906559E+02  0.40659145681E+02  0.00000000000E+00 0. -1.
         11    1    3    3    0    0  0.13070242672E+02  0.20001597117E+01  0.42278552528E+01  0.13881881814E+02  0.51100000000E-03 0. -1.
        -11    1    3    3    0    0 -0.65578274649E-01  0.21511612543E+02  0.11132654891E+02  0.24221679956E+02  0.51100000000E-03 0.  1.
         12    1    3    3    0    0  0.64327515342E+01  0.10103820949E+02 -0.33046035849E+01  0.12425292549E+02  0.00000000000E+00 0. -1.
</event>
<event>
 7    1  0.5910662E-013  0.5052886E+02  0.7816164E-02  0.1300439E+00
        -11   -1    0    0    0    0  0.00000000000E+00  0.00000000000E+00  0.45593999997E+02  0.45594000000E+02  0.51100000000E-03 0.  1.
         11   -1    0    0    0    0 -0.00000000000E+00 -0.00000000000E+00 -0.45593999997E+02  0.45594000000E+02  0.51100000000E-03 0. -1.
    9900012    2    1    2    0    0  0.10022795499E+02 -0.19243094620E+02  0.34386221280E+02  0.50528864076E+02  0.30000012845E+02 0.  0.
         12    1    1    2    0    0 -0.10022795499E+02  0.19243094620E+02 -0.34386221280E+02  0.40659135924E+02  0.00000000000E+00 0. -1.
         11    1    3    3    0    0  0.75135440529E+01 -0.63985939355E+01  0.64518253946E+01  0.11790733640E+02  0.51100000000E-03 0. -1.
        -11    1    3    3    0    0 -0.16380290720E+01  0.66785216835E+01  0.68867367050E+01  0.97320570191E+01  0.51100000000E-03 0.  1.
        -12    1    3    3    0    0  0.41472805180E+01 -0.19523022368E+02  0.21047659180E+02  0.29006073417E+02  0.00000000000E+00 0.  1.
</event>
<event>
 7    1  0.5910662E-013  0.5052886E+02  0.7816164E-02  0.1300439E+00
        -11   -1    0    0    0    0  0.00000000000E+00  0.00000000000E+00  0.45593999997E+02  0.45594000000E+02  0.51100000000E-03 0.  1.
         11   -1    0    0    0    0 -0.00000000000E+00 -0.00000000000E+00 -0.45593999997E+02  0.45594000000E+02  0.51100000000E-03 0. -1.
    9900012    2    1    2    0    0  0.20084766937E+02 -0.30819629715E+02  0.17318155660E+02  0.50528856451E+02  0.29999989668E+02 0.  0.
         12    1    1    2    0    0 -0.20084766937E+02  0.30819629715E+02 -0.17318155660E+02  0.40659143549E+02  0.00000000000E+00 0. -1.
         11    1    3    3    0    0 -0.67368189246E+01 -0.14402000076E+02  0.47512872039E+01  0.16594489018E+02  0.51100000000E-03 0. -1.
        -11    1    3    3    0    0  0.18268289184E+02 -0.12113921164E+02  0.80978031788E+01  0.23367753257E+02  0.51100000000E-03 0.  1.
         12    1    3    3    0    0  0.85532966773E+01 -0.43037084742E+01  0.44690652778E+01  0.10566614176E+02  0.00000000000E+00 0. -1.
</event>
<event>
 7    1  0.5910662E-013  0.5052887E+02  0.7816164E-02  0.1300439E+00
        -11   -1    0    0    0    0  0.00000000000E+00  0.00000000000E+00  0.45593999997E+02  0.45594000000E+02  0.51100000000E-03 0.  1.
         11   -1    0    0    0    0 -0.00000000000E+00 -0.00000000000E+00 -0.45593999997E+02  0.45594000000E+02  0.51100000000E-03 0. -1.
    9900012    2    1    2    0    0 -0.24280813090E+02  0.19228983943E+02 -0.26341096266E+02  0.50528867443E+02  0.30000023079E+02 0.  0.
         12    1    1    2    0    0  0.24280813090E+02 -0.19228983943E+02  0.26341096266E+02  0.40659132557E+02  0.00000000000E+00 0. -1.
         11    1    3    3    0    0 -0.27453956158E+01  0.11561304049E+02 -0.32121847974E+01  0.12309308666E+02  0.51100000000E-03 0. -1.
        -11    1    3    3    0    0 -0.23213227165E+02  0.44552489482E+01 -0.11986262589E+02  0.26502332911E+02  0.51100000000E-03 0.  1.
        -12    1    3    3    0    0  0.16778096905E+01  0.32124309456E+01 -0.11142648880E+02  0.11717225866E+02  0.00000000000E+00 0.  1.
</event>
<event>
 7    1  0.5910662E-013  0.5052887E+02  0.7816164E-02  0.1300439E+00
        -11   -1    0    0    0    0  0.00000000000E+00  0.00000000000E+00  0.45593999997E+02  0.45594000000E+02  0.51100000000E-03 0.  1.
         11   -1    0    0    0    0 -0.00000000000E+00 -0.00000000000E+00 -0.45593999997E+02  0.45594000000E+02  0.51100000000E-03 0. -1.
    9900012    2    1    2    0    0 -0.39839865706E+02 -0.16301908459E+01 -0.79556703333E+01  0.50528866806E+02  0.30000021143E+02 0.  0.
         12    1    1    2    0    0  0.39839865706E+02  0.16301908459E+01  0.79556703333E+01  0.40659133194E+02  0.00000000000E+00 0. -1.
         11    1    3    3    0    0 -0.34425094300E+01 -0.30933820419E+01 -0.88734632235E+01  0.10007908546E+02  0.51100000000E-03 0. -1.
        -11    1    3    3    0    0 -0.26034301052E+02 -0.63021337751E+01  0.43188051778E+01  0.27132154352E+02  0.51100000000E-03 0.  1.
        -12    1    3    3    0    0 -0.10363055224E+02  0.77653249712E+01 -0.34010122876E+01  0.13388803907E+02  0.00000000000E+00 0.  1.
</event>
<event>
 7    1  0.5910662E-013  0.5052887E+02  0.7816164E-02  0.1300439E+00
        -11   -1    0    0    0    0  0.00000000000E+00  0.00000000000E+00  0.45593999997E+02  0.45594000000E+02  0.51100000000E-03 0.  1.
         11   -1    0    0    0    0 -0.00000000000E+00 -0.00000000000E+00 -0.45593999997E+02  0.45594000000E+02  0.51100000000E-03 0. -1.
    9900012    2    1    2    0    0  0.39726116414E+02  0.52937148650E+01  0.68540068960E+01  0.50528866304E+02  0.30000019617E+02 0.  0.
         12    1    1    2    0    0 -0.39726116414E+02 -0.52937148650E+01 -0.68540068960E+01  0.40659133696E+02  0.00000000000E+00 0. -1.
         11    1    3    3    0    0  0.26775802282E+02  0.34559254853E+01 -0.19174310550E+01  0.27065911234E+02  0.51100000000E-03 0. -1.
        -11    1    3    3    0    0  0.34943575580E+01  0.26123552389E+01  0.12522466685E+02  0.13260735529E+02  0.51100000000E-03 0.  1.
        -12    1    3    3    0    0  0.94559565739E+01 -0.77456585915E+00 -0.37510287341E+01  0.10202219541E+02  0.00000000000E+00 0.  1.
</event>
<event>
 7    1  0.5910662E-013  0.5052886E+02  0.7816164E-02  0.1300439E+00
        -11   -1    0    0    0    0  0.00000000000E+00  0.00000000000E+00  0.45593999997E+02  0.45594000000E+02  0.51100000000E-03 0.  1.
         11   -1    0    0    0    0 -0.00000000000E+00 -0.00000000000E+00 -0.45593999997E+02  0.45594000000E+02  0.51100000000E-03 0. -1.
    9900012    2    1    2    0    0  0.40564693775E+02  0.11440877640E+01 -0.25223856998E+01  0.50528858992E+02  0.29999997392E+02 0.  0.
         12    1    1    2    0    0 -0.40564693775E+02 -0.11440877640E+01  0.25223856998E+01  0.40659141008E+02  0.00000000000E+00 0. -1.
         11    1    3    3    0    0  0.14344211464E+02 -0.65349220243E+01 -0.24216820234E+00  0.15764525178E+02  0.51100000000E-03 0. -1.
        -11    1    3    3    0    0  0.14865391153E+02  0.94396919561E+01 -0.10622028559E+02  0.20564900421E+02  0.51100000000E-03 0.  1.
        -12    1    3    3    0    0  0.11355091158E+02 -0.17606821677E+01  0.83418110612E+01  0.14199433393E+02  0.00000000000E+00 0.  1.
</event>
<event>
 7    1  0.5910662E-013  0.5052886E+02  0.7816164E-02  0.1300439E+00
        -11   -1    0    0    0    0  0.00000000000E+00  0.00000000000E+00  0.45593999997E+02  0.45594000000E+02  0.51100000000E-03 0. -1.
         11   -1    0    0    0    0 -0.00000000000E+00 -0.00000000000E+00 -0.45593999997E+02  0.45594000000E+02  0.51100000000E-03 0.  1.
    9900012    2    1    2    0    0  0.10123806887E+02 -0.32692411427E+02 -0.21951781493E+02  0.50528856606E+02  0.29999990141E+02 0.  0.
         12    1    1    2    0    0 -0.10123806887E+02  0.32692411427E+02  0.21951781493E+02  0.40659143394E+02  0.00000000000E+00 0. -1.
         11    1    3    3    0    0  0.76306747093E+01 -0.13591834859E+01 -0.96907024138E+01  0.12409040648E+02  0.51100000000E-03 0.  1.
        -11    1    3    3    0    0 -0.62901858569E+01 -0.19720913695E+02 -0.11164416051E+02  0.23518610952E+02  0.51100000000E-03 0. -1.
         12    1    3    3    0    0  0.87833180349E+01 -0.11612314246E+02 -0.10966630277E+01  0.14601205006E+02  0.00000000000E+00 0. -1.
</event>
<event>
 7    1  0.5910662E-013  0.5052889E+02  0.7816164E-02  0.1300439E+00
        -11   -1    0    0    0    0  0.00000000000E+00  0.00000000000E+00  0.45593999997E+02  0.45594000000E+02  0.51100000000E-03 0.  1.
         11   -1    0    0    0    0 -0.00000000000E+00 -0.00000000000E+00 -0.45593999997E+02  0.45594000000E+02  0.51100000000E-03 0. -1.
    9900012    2    1    2    0    0  0.14455481614E+02 -0.52398351559E+01  0.37639695989E+02  0.50528886196E+02  0.30000080083E+02 0.  0.
         12    1    1    2    0    0 -0.14455481614E+02  0.52398351559E+01 -0.37639695989E+02  0.40659113804E+02  0.00000000000E+00 0. -1.
         11    1    3    3    0    0 -0.65354663481E+00  0.11579826722E+01 -0.37587959434E+01  0.39870533327E+01  0.51100000000E-03 0. -1.
        -11    1    3    3    0    0  0.10963983138E+02 -0.10674156393E+02  0.30436374918E+02  0.34066397804E+02  0.51100000000E-03 0.  1.
         12    1    3    3    0    0  0.41450451106E+01  0.42763385645E+01  0.10962117015E+02  0.12475435060E+02  0.00000000000E+00 0. -1.
</event>
<event>
 7    1  0.5910662E-013  0.5052886E+02  0.7816164E-02  0.1300439E+00
        -11   -1    0    0    0    0  0.00000000000E+00  0.00000000000E+00  0.45593999997E+02  0.45594000000E+02  0.51100000000E-03 0. -1.
         11   -1    0    0    0    0 -0.00000000000E+00 -0.00000000000E+00 -0.45593999997E+02  0.45594000000E+02  0.51100000000E-03 0.  1.
    9900012    2    1    2    0    0  0.14329598143E+02  0.37856423971E+02 -0.38366067146E+01  0.50528858717E+02  0.29999996556E+02 0.  0.
         12    1    1    2    0    0 -0.14329598143E+02 -0.37856423971E+02  0.38366067146E+01  0.40659141283E+02  0.00000000000E+00 0. -1.
         11    1    3    3    0    0  0.95481643731E+01  0.28947006087E+02  0.89511440017E+01  0.31768216562E+02  0.51100000000E-03 0. -1.
        -11    1    3    3    0    0  0.33601099881E+01  0.10178558793E+02 -0.12993451723E+02  0.16844084605E+02  0.51100000000E-03 0.  1.
         12    1    3    3    0    0  0.14213237819E+01 -0.12691409094E+01  0.20570100633E+00  0.19165575506E+01  0.00000000000E+00 0. -1.
</event>
<event>
 7    1  0.5910662E-013  0.5052894E+02  0.7816164E-02  0.1300439E+00
        -11   -1    0    0    0    0  0.00000000000E+00  0.00000000000E+00  0.45593999997E+02  0.45594000000E+02  0.51100000000E-03 0.  1.
         11   -1    0    0    0    0 -0.00000000000E+00 -0.00000000000E+00 -0.45593999997E+02  0.45594000000E+02  0.51100000000E-03 0. -1.
    9900012    2    1    2    0    0 -0.54094660306E+00 -0.25540139146E+02  0.31631757724E+02  0.50528936711E+02  0.30000233625E+02 0.  0.
         12    1    1    2    0    0  0.54094660306E+00  0.25540139146E+02 -0.31631757724E+02  0.40659063289E+02  0.00000000000E+00 0. -1.
         11    1    3    3    0    0  0.31763733332E+01 -0.72924067060E+00 -0.11100588755E+01  0.34428724165E+01  0.51100000000E-03 0. -1.
        -11    1    3    3    0    0 -0.29789827680E+01 -0.28989983227E+02  0.25657217967E+02  0.38827648653E+02  0.51100000000E-03 0.  1.
        -12    1    3    3    0    0 -0.73833716833E+00  0.41790847510E+01  0.70845986321E+01  0.82584156415E+01  0.00000000000E+00 0.  1.
</event>
<event>
 7    1  0.5910662E-013  0.5052886E+02  0.7816164E-02  0.1300439E+00
        -11   -1    0    0    0    0  0.00000000000E+00  0.00000000000E+00  0.45593999997E+02  0.45594000000E+02  0.51100000000E-03 0.  1.
         11   -1    0    0    0    0 -0.00000000000E+00 -0.00000000000E+00 -0.45593999997E+02  0.45594000000E+02  0.51100000000E-03 0. -1.
    9900012    2    1    2    0    0 -0.32642128524E+02 -0.41330493875E+00  0.24238110806E+02  0.50528863376E+02  0.30000010718E+02 0.  0.
         12    1    1    2    0    0  0.32642128524E+02  0.41330493875E+00 -0.24238110806E+02  0.40659136624E+02  0.00000000000E+00 0. -1.
         11    1    3    3    0    0  0.25355742797E+01 -0.32648612084E+01  0.10384633987E+02  0.11177167752E+02  0.51100000000E-03 0. -1.
        -11    1    3    3    0    0 -0.25005246726E+02  0.84879705207E+00  0.14581133696E+02  0.28958457838E+02  0.51100000000E-03 0.  1.
         12    1    3    3    0    0 -0.10172456078E+02  0.20027592176E+01 -0.72765687776E+00  0.10393237786E+02  0.00000000000E+00 0. -1.
</event>
<event>
 7    1  0.5910662E-013  0.5052886E+02  0.7816164E-02  0.1300439E+00
        -11   -1    0    0    0    0  0.00000000000E+00  0.00000000000E+00  0.45593999997E+02  0.45594000000E+02  0.51100000000E-03 0.  1.
         11   -1    0    0    0    0 -0.00000000000E+00 -0.00000000000E+00 -0.45593999997E+02  0.45594000000E+02  0.51100000000E-03 0. -1.
    9900012    2    1    2    0    0 -0.31882126518E+02 -0.33900642124E+01  0.25004055567E+02  0.50528864231E+02  0.30000013316E+02 0.  0.
         12    1    1    2    0    0  0.31882126518E+02  0.33900642124E+01 -0.25004055567E+02  0.40659135769E+02  0.00000000000E+00 0. -1.
         11    1    3    3    0    0 -0.18412884642E+02 -0.11521329957E+02  0.24393089974E+01  0.21856934677E+02  0.51100000000E-03 0. -1.
        -11    1    3    3    0    0 -0.51375010056E+01  0.55274853242E+01  0.16191796947E+02  0.17863966504E+02  0.51100000000E-03 0.  1.
         12    1    3    3    0    0 -0.83317408707E+01  0.26037804205E+01  0.63729496225E+01  0.10807963051E+02  0.00000000000E+00 0. -1.
</event>
<event>
 7    1  0.5910662E-013  0.5052883E+02  0.7816164E-02  0.1300439E+00
        -11   -1    0    0    0    0  0.00000000000E+00  0.00000000000E+00  0.45593999997E+02  0.45594000000E+02  0.51100000000E-03 0.  1.
         11   -1    0    0    0    0 -0.00000000000E+00 -0.00000000000E+00 -0.45593999997E+02  0.45594000000E+02  0.51100000000E-03 0. -1.
    9900012    2    1    2    0    0  0.97558487175E+01  0.13783546667E+02  0.36986553636E+02  0.50528832611E+02  0.29999917204E+02 0.  0.
         12    1    1    2    0    0 -0.97558487175E+01 -0.13783546667E+02 -0.36986553636E+02  0.40659167389E+02  0.00000000000E+00 0. -1.
         11    1    3    3    0    0 -0.30454069013E+01  0.65045807030E-01  0.19421675663E+02  0.19659100182E+02  0.51100000000E-03 0. -1.
        -11    1    3    3    0    0  0.13510128268E+02  0.29197678145E+01  0.61131240561E+01  0.15113533535E+02  0.51100000000E-03 0.  1.
        -12    1    3    3    0    0 -0.70887264973E+00  0.10798733046E+02  0.11451753917E+02  0.15756198894E+02  0.00000000000E+00 0.  1.
</event>
<event>
 7    1  0.5910662E-013  0.5052886E+02  0.7816164E-02  0.1300439E+00
        -11   -1    0    0    0    0  0.00000000000E+00  0.00000000000E+00  0.45593999997E+02  0.45594000000E+02  0.51100000000E-03 0.  1.
         11   -1    0    0    0    0 -0.00000000000E+00 -0.00000000000E+00 -0.45593999997E+02  0.45594000000E+02  0.51100000000E-03 0. -1.
    9900012    2    1    2    0    0 -0.14491597598E+02  0.23598420979E+02  0.29770345910E+02  0.50528863644E+02  0.30000011531E+02 0.  0.
         12    1    1    2    0    0  0.14491597598E+02 -0.23598420979E+02 -0.29770345910E+02  0.40659136356E+02  0.00000000000E+00 0. -1.
         11    1    3    3    0    0  0.15694144120E+01  0.62051285107E+01 -0.11289474406E+01  0.64993233506E+01  0.51100000000E-03 0. -1.
        -11    1    3    3    0    0 -0.11792052318E+02  0.21688600299E+02  0.27957176110E+02  0.37296803846E+02  0.51100000000E-03 0.  1.
         12    1    3    3    0    0 -0.42689596919E+01 -0.42953078305E+01  0.29421172404E+01  0.67327364471E+01  0.00000000000E+00 0. -1.
</event>
<event>
 7    1  0.5910662E-013  0.5052886E+02  0.7816164E-02  0.1300439E+00
        -11   -1    0    0    0    0  0.00000000000E+00  0.00000000000E+00  0.45593999997E+02  0.45594000000E+02  0.51100000000E-03 0. -1.
         11   -1    0    0    0    0 -0.00000000000E+00 -0.00000000000E+00 -0.45593999997E+02  0.45594000000E+02  0.51100000000E-03 0.  1.
    9900012    2    1    2    0    0  0.30146408700E+02  0.27282940871E+02 -0.22198234285E-01  0.50528864337E+02  0.30000013638E+02 0.  0.
         12    1    1    2    0    0 -0.30146408700E+02 -0.27282940871E+02  0.22198234285E-01  0.40659135663E+02  0.00000000000E+00 0. -1.
         11    1    3    3    0    0  0.18070456354E+02  0.19447666643E+02  0.48776996664E+00  0.26551667566E+02  0.51100000000E-03 0.  1.
        -11    1    3    3    0    0 -0.77293107903E+00 -0.50147143837E+01  0.23324972050E+01  0.55843823540E+01  0.51100000000E-03 0. -1.
         12    1    3    3    0    0  0.12848883425E+02  0.12849988612E+02 -0.28424654060E+01  0.18392814417E+02  0.00000000000E+00 0. -1.
</event>
<event>
 7    1  0.5910662E-013  0.5052886E+02  0.7816164E-02  0.1300439E+00
        -11   -1    0    0    0    0  0.00000000000E+00  0.00000000000E+00  0.45593999997E+02  0.45594000000E+02  0.51100000000E-03 0. -1.
         11   -1    0    0    0    0 -0.00000000000E+00 -0.00000000000E+00 -0.45593999997E+02  0.45594000000E+02  0.51100000000E-03 0.  1.
    9900012    2    1    2    0    0  0.12709936535E+01 -0.38809516846E+02  0.12057023991E+02  0.50528857729E+02  0.29999993553E+02 0.  0.
         12    1    1    2    0    0 -0.12709936535E+01  0.38809516846E+02 -0.12057023991E+02  0.40659142271E+02  0.00000000000E+00 0. -1.
         11    1    3    3    0    0  0.82043372715E+01 -0.65173012850E+01  0.82654643541E+01  0.13345571076E+02  0.51100000000E-03 0. -1.
        -11    1    3    3    0    0 -0.50099736137E+01 -0.12678513037E+02 -0.63276089699E+01  0.15029409968E+02  0.51100000000E-03 0.  1.
        -12    1    3    3    0    0 -0.19233700043E+01 -0.19613702524E+02  0.10119168607E+02  0.22153876685E+02  0.00000000000E+00 0.  1.
</event>
<event>
 7    1  0.5910662E-013  0.5052886E+02  0.7816164E-02  0.1300439E+00
        -11   -1    0    0    0    0  0.00000000000E+00  0.00000000000E+00  0.45593999997E+02  0.45594000000E+02  0.51100000000E-03 0.  1.
         11   -1    0    0    0    0 -0.00000000000E+00 -0.00000000000E+00 -0.45593999997E+02  0.45594000000E+02  0.51100000000E-03 0. -1.
    9900012    2    1    2    0    0  0.23976099579E+02  0.26756156295E+02  0.19037341797E+02  0.50528860395E+02  0.30000001658E+02 0.  0.
         12    1    1    2    0    0 -0.23976099579E+02 -0.26756156295E+02 -0.19037341797E+02  0.40659139605E+02  0.00000000000E+00 0. -1.
         11    1    3    3    0    0  0.59627784052E+01  0.19423735935E+02  0.67972031343E+01  0.21425177122E+02  0.51100000000E-03 0. -1.
        -11    1    3    3    0    0  0.16029043355E+02 -0.24092238292E+01  0.56033712832E+01  0.17150287471E+02  0.51100000000E-03 0.  1.
        -12    1    3    3    0    0  0.19842778183E+01  0.97416441885E+01  0.66367673796E+01  0.11953395802E+02  0.00000000000E+00 0.  1.
</event>
<event>
 7    1  0.5910662E-013  0.5052886E+02  0.7816164E-02  0.1300439E+00
        -11   -1    0    0    0    0  0.00000000000E+00  0.00000000000E+00  0.45593999997E+02  0.45594000000E+02  0.51100000000E-03 0. -1.
         11   -1    0    0    0    0 -0.00000000000E+00 -0.00000000000E+00 -0.45593999997E+02  0.45594000000E+02  0.51100000000E-03 0.  1.
    9900012    2    1    2    0    0 -0.16627988363E+02  0.81761067708E+01 -0.36191529331E+02  0.50528861861E+02  0.30000006111E+02 0.  0.
         12    1    1    2    0    0  0.16627988363E+02 -0.81761067708E+01  0.36191529331E+02  0.40659138139E+02  0.00000000000E+00 0. -1.
         11    1    3    3    0    0 -0.92027106815E+01 -0.91517855048E+01 -0.59007870249E+01  0.14257080682E+02  0.51100000000E-03 0. -1.
        -11    1    3    3    0    0 -0.44495886626E+01  0.35649773868E+01 -0.10984868407E+02  0.12376398394E+02  0.51100000000E-03 0.  1.
         12    1    3    3    0    0 -0.29756890187E+01  0.13762914889E+02 -0.19305873900E+02  0.23895382784E+02  0.00000000000E+00 0. -1.
</event>
<event>
 7    1  0.5910662E-013  0.5052886E+02  0.7816164E-02  0.1300439E+00
        -11   -1    0    0    0    0  0.00000000000E+00  0.00000000000E+00  0.45593999997E+02  0.45594000000E+02  0.51100000000E-03 0.  1.
         11   -1    0    0    0    0 -0.00000000000E+00 -0.00000000000E+00 -0.45593999997E+02  0.45594000000E+02  0.51100000000E-03 0. -1.
    9900012    2    1    2    0    0  0.42406513922E+01 -0.12893797708E+02  0.38326656021E+02  0.50528859511E+02  0.29999998969E+02 0.  0.
         12    1    1    2    0    0 -0.42406513922E+01  0.12893797708E+02 -0.38326656021E+02  0.40659140489E+02  0.00000000000E+00 0. -1.
         11    1    3    3    0    0 -0.14345798120E+01 -0.12470670244E+02  0.39201193318E+02  0.41161987238E+02  0.51100000000E-03 0. -1.
        -11    1    3    3    0    0  0.60421482647E+01  0.11980314883E+01 -0.28483249464E+01  0.67864416568E+01  0.51100000000E-03 0.  1.
        -12    1    3    3    0    0 -0.36691706055E+00 -0.16211589521E+01  0.19737876493E+01  0.25804306156E+01  0.00000000000E+00 0.  1.
</event>
<event>
 7    1  0.5910662E-013  0.5052886E+02  0.7816164E-02  0.1300439E+00
        -11   -1    0    0    0    0  0.00000000000E+00  0.00000000000E+00  0.45593999997E+02  0.45594000000E+02  0.51100000000E-03 0.  1.
         11   -1    0    0    0    0 -0.00000000000E+00 -0.00000000000E+00 -0.45593999997E+02  0.45594000000E+02  0.51100000000E-03 0. -1.
    9900012    2    1    2    0    0  0.35656505445E+02  0.18910054558E+02  0.49182591448E+01  0.50528858138E+02  0.29999994795E+02 0.  0.
         12    1    1    2    0    0 -0.35656505445E+02 -0.18910054558E+02 -0.49182591448E+01  0.40659141862E+02  0.00000000000E+00 0. -1.
         11    1    3    3    0    0  0.62780606546E+01  0.18166603797E+02  0.21724851726E+01  0.19343195992E+02  0.51100000000E-03 0. -1.
        -11    1    3    3    0    0  0.14949918565E+02  0.92842971936E+00 -0.36266254867E+01  0.15411504129E+02  0.51100000000E-03 0.  1.
         12    1    3    3    0    0  0.14428526226E+02 -0.18497895830E+00  0.63723994588E+01  0.15774158017E+02  0.00000000000E+00 0. -1.
</event>
<event>
 7    1  0.5910662E-013  0.5052886E+02  0.7816164E-02  0.1300439E+00
        -11   -1    0    0    0    0  0.00000000000E+00  0.00000000000E+00  0.45593999997E+02  0.45594000000E+02  0.51100000000E-03 0.  1.
         11   -1    0    0    0    0 -0.00000000000E+00 -0.00000000000E+00 -0.45593999997E+02  0.45594000000E+02  0.51100000000E-03 0. -1.
    9900012    2    1    2    0    0  0.59991048500E+01  0.88661887231E+01  0.39224572019E+02  0.50528860664E+02  0.30000002473E+02 0.  0.
         12    1    1    2    0    0 -0.59991048500E+01 -0.88661887231E+01 -0.39224572019E+02  0.40659139336E+02  0.00000000000E+00 0. -1.
         11    1    3    3    0    0  0.49591504917E+01  0.16653824718E+02  0.17206324339E+02  0.24454051788E+02  0.51100000000E-03 0. -1.
        -11    1    3    3    0    0  0.31235480377E+01 -0.89957004076E+01  0.21632468380E+02  0.23635627063E+02  0.51100000000E-03 0.  1.
         12    1    3    3    0    0 -0.20835936794E+01  0.12080644132E+01  0.38577929994E+00  0.24391818127E+01  0.00000000000E+00 0. -1.
</event>
<event>
 7    1  0.5910662E-013  0.5052887E+02  0.7816164E-02  0.1300439E+00
        -11   -1    0    0    0    0  0.00000000000E+00  0.00000000000E+00  0.45593999997E+02  0.45594000000E+02  0.51100000000E-03 0. -1.
         11   -1    0    0    0    0 -0.00000000000E+00 -0.00000000000E+00 -0.45593999997E+02  0.45594000000E+02  0.51100000000E-03 0.  1.
    9900012    2    1    2    0    0  0.17942012108E+02  0.25724197200E+02 -0.25874975262E+02  0.50528874765E+02  0.30000045335E+02 0.  0.
         12    1    1    2    0    0 -0.17942012108E+02 -0.25724197200E+02  0.25874975262E+02  0.40659125235E+02  0.00000000000E+00 0. -1.
         11    1    3    3    0    0  0.31131057207E+01  0.19669415437E+02  0.18440355155E+00  0.19915103209E+02  0.51100000000E-03 0. -1.
        -11    1    3    3    0    0  0.11615423979E+02  0.42668582577E+01 -0.20616735150E+02  0.24045247392E+02  0.51100000000E-03 0.  1.
         12    1    3    3    0    0  0.32134824090E+01  0.17879235045E+01 -0.54426436635E+01  0.65685241645E+01  0.00000000000E+00 0. -1.
</event>
<event>
 7    1  0.5910662E-013  0.5052873E+02  0.7816164E-02  0.1300439E+00
        -11   -1    0    0    0    0  0.00000000000E+00  0.00000000000E+00  0.45593999997E+02  0.45594000000E+02  0.51100000000E-03 0.  1.
         11   -1    0    0    0    0 -0.00000000000E+00 -0.00000000000E+00 -0.45593999997E+02  0.45594000000E+02  0.51100000000E-03 0. -1.
    9900012    2    1    2    0    0  0.31259351225E+02 -0.15996426855E+02  0.20497401182E+02  0.50528730868E+02  0.29999607942E+02 0.  0.
         12    1    1    2    0    0 -0.31259351225E+02  0.15996426855E+02 -0.20497401182E+02  0.40659269132E+02  0.00000000000E+00 0. -1.
         11    1    3    3    0    0 -0.51640823061E+00 -0.11696614713E+02  0.17543450985E+01  0.11838716155E+02  0.51100000000E-03 0. -1.
        -11    1    3    3    0    0  0.12119299953E+02 -0.35417169693E+01  0.13169983472E+02  0.18244715820E+02  0.51100000000E-03 0.  1.
        -12    1    3    3    0    0  0.19656459503E+02 -0.75809517310E+00  0.55730726116E+01  0.20445298893E+02  0.00000000000E+00 0.  1.
</event>
<event>
 7    1  0.5910662E-013  0.5052885E+02  0.7816164E-02  0.1300439E+00
        -11   -1    0    0    0    0  0.00000000000E+00  0.00000000000E+00  0.45593999997E+02  0.45594000000E+02  0.51100000000E-03 0. -1.
         11   -1    0    0    0    0 -0.00000000000E+00 -0.00000000000E+00 -0.45593999997E+02  0.45594000000E+02  0.51100000000E-03 0.  1.
    9900012    2    1    2    0    0 -0.32216267687E+02  0.58048897295E+01 -0.24116014030E+02  0.50528846281E+02  0.29999958756E+02 0.  0.
         12    1    1    2    0    0  0.32216267687E+02 -0.58048897295E+01  0.24116014030E+02  0.40659153719E+02  0.00000000000E+00 0. -1.
         11    1    3    3    0    0 -0.20431923009E+02  0.11345848868E+01 -0.29132022550E+02  0.35600919915E+02  0.51100000000E-03 0. -1.
        -11    1    3    3    0    0 -0.49161417728E+01  0.44908065830E+01  0.44013030120E+00  0.66730434315E+01  0.51100000000E-03 0.  1.
         12    1    3    3    0    0 -0.68682029056E+01  0.17949825972E+00  0.45758782193E+01  0.82548829341E+01  0.00000000000E+00 0. -1.
</event>
<event>
 7    1  0.5910662E-013  0.5052890E+02  0.7816164E-02  0.1300439E+00
        -11   -1    0    0    0    0  0.00000000000E+00  0.00000000000E+00  0.45593999997E+02  0.45594000000E+02  0.51100000000E-03 0.  1.
         11   -1    0    0    0    0 -0.00000000000E+00 -0.00000000000E+00 -0.45593999997E+02  0.45594000000E+02  0.51100000000E-03 0. -1.
    9900012    2    1    2    0    0  0.29471043930E+02  0.10994617552E+02  0.25763113801E+02  0.50528904115E+02  0.30000134549E+02 0.  0.
         12    1    1    2    0    0 -0.29471043930E+02 -0.10994617552E+02 -0.25763113801E+02  0.40659095885E+02  0.00000000000E+00 0. -1.
         11    1    3    3    0    0 -0.53713284932E+00 -0.15014718998E+00 -0.30967143589E+01  0.31465371376E+01  0.51100000000E-03 0. -1.
        -11    1    3    3    0    0  0.26065473359E+02  0.21478881176E+01  0.14268789219E+02  0.29792963445E+02  0.51100000000E-03 0.  1.
        -12    1    3    3    0    0  0.39427034198E+01  0.89968766248E+01  0.14591038941E+02  0.17589403533E+02  0.00000000000E+00 0.  1.
</event>
<event>
 7    1  0.5910662E-013  0.5052884E+02  0.7816164E-02  0.1300439E+00
        -11   -1    0    0    0    0  0.00000000000E+00  0.00000000000E+00  0.45593999997E+02  0.45594000000E+02  0.51100000000E-03 0.  1.
         11   -1    0    0    0    0 -0.00000000000E+00 -0.00000000000E+00 -0.45593999997E+02  0.45594000000E+02  0.51100000000E-03 0. -1.
    9900012    2    1    2    0    0 -0.19467009479E+02 -0.33811856761E+01  0.35535477173E+02  0.50528843435E+02  0.29999950105E+02 0.  0.
         12    1    1    2    0    0  0.19467009479E+02  0.33811856761E+01 -0.35535477173E+02  0.40659156565E+02  0.00000000000E+00 0. -1.
         11    1    3    3    0    0  0.35652811071E+01 -0.12836442115E+01 -0.14881004865E+01  0.40710459533E+01  0.51100000000E-03 0. -1.
        -11    1    3    3    0    0 -0.19963414159E+02 -0.14916548339E+01  0.38190319221E+02  0.43119176957E+02  0.51100000000E-03 0.  1.
        -12    1    3    3    0    0 -0.30688764275E+01 -0.60588663069E+00 -0.11667415608E+01  0.33386205245E+01  0.00000000000E+00 0.  1.
</event>
<event>
 7    1  0.5910662E-013  0.5052886E+02  0.7816164E-02  0.1300439E+00
        -11   -1    0    0    0    0  0.00000000000E+00  0.00000000000E+00  0.45593999997E+02  0.45594000000E+02  0.51100000000E-03 0. -1.
         11   -1    0    0    0    0 -0.00000000000E+00 -0.00000000000E+00 -0.45593999997E+02  0.45594000000E+02  0.51100000000E-03 0.  1.
    9900012    2    1    2    0    0 -0.15893024943E+02 -0.96960620782E+01 -0.36146427227E+02  0.50528855113E+02  0.29999985601E+02 0.  0.
         12    1    1    2    0    0  0.15893024943E+02  0.96960620782E+01  0.36146427227E+02  0.40659144887E+02  0.00000000000E+00 0. -1.
         11    1    3    3    0    0 -0.11865054365E+01 -0.40868160114E+01  0.45413582880E+01  0.62236480960E+01  0.51100000000E-03 0. -1.
        -11    1    3    3    0    0 -0.74535100768E+01 -0.24682905269E+00 -0.11096286623E+02  0.13369491917E+02  0.51100000000E-03 0.  1.
         12    1    3    3    0    0 -0.72530094296E+01 -0.53624170141E+01 -0.29591498893E+02  0.30935715100E+02  0.00000000000E+00 0. -1.
</event>
<event>
 7    1  0.5910662E-013  0.5052886E+02  0.7816164E-02  0.1300439E+00
        -11   -1    0    0    0    0  0.00000000000E+00  0.00000000000E+00  0.45593999997E+02  0.45594000000E+02  0.51100000000E-03 0.  1.
         11   -1    0    0    0    0 -0.00000000000E+00 -0.00000000000E+00 -0.45593999997E+02  0.45594000000E+02  0.51100000000E-03 0. -1.
    9900012    2    1    2    0    0 -0.21413639862E+02  0.11812296358E+02  0.32482163557E+02  0.50528864904E+02  0.30000015362E+02 0.  0.
         12    1    1    2    0    0  0.21413639862E+02 -0.11812296358E+02 -0.32482163557E+02  0.40659135096E+02  0.00000000000E+00 0. -1.
         11    1    3    3    0    0 -0.13568137484E+02 -0.83719732000E+00  0.33380481492E+01  0.13997779104E+02  0.51100000000E-03 0. -1.
        -11    1    3    3    0    0  0.14363652332E+01  0.12428741642E+02  0.14080622995E+02  0.18836154280E+02  0.51100000000E-03 0.  1.
        -12    1    3    3    0    0 -0.92818676108E+01  0.22075203644E+00  0.15063492413E+02  0.17694931520E+02  0.00000000000E+00 0.  1.
</event>
<event>
 7    1  0.5910662E-013  0.5052887E+02  0.7816164E-02  0.1300439E+00
        -11   -1    0    0    0    0  0.00000000000E+00  0.00000000000E+00  0.45593999997E+02  0.45594000000E+02  0.51100000000E-03 0.  1.
         11   -1    0    0    0    0 -0.00000000000E+00 -0.00000000000E+00 -0.45593999997E+02  0.45594000000E+02  0.51100000000E-03 0. -1.
    9900012    2    1    2    0    0 -0.15744948428E+02 -0.15625062048E+02  0.34075192219E+02  0.50528872000E+02  0.30000036930E+02 0.  0.
         12    1    1    2    0    0  0.15744948428E+02  0.15625062048E+02 -0.34075192219E+02  0.40659128000E+02  0.00000000000E+00 0. -1.
         11    1    3    3    0    0 -0.49089372427E+01 -0.49654930916E+00 -0.20712145786E+01  0.53510892499E+01  0.51100000000E-03 0. -1.
        -11    1    3    3    0    0 -0.25338262594E+00 -0.20835177754E+01  0.24841921867E+02  0.24930429828E+02  0.51100000000E-03 0.  1.
        -12    1    3    3    0    0 -0.10582628559E+02 -0.13044994963E+02  0.11304484931E+02  0.20247352922E+02  0.00000000000E+00 0.  1.
</event>
<event>
 7    1  0.5910662E-013  0.5052886E+02  0.7816164E-02  0.1300439E+00
        -11   -1    0    0    0    0  0.00000000000E+00  0.00000000000E+00  0.45593999997E+02  0.45594000000E+02  0.51100000000E-03 0.  1.
         11   -1    0    0    0    0 -0.00000000000E+00 -0.00000000000E+00 -0.45593999997E+02  0.45594000000E+02  0.51100000000E-03 0. -1.
    9900012    2    1    2    0    0 -0.61715090114E+01  0.38248033757E+02  0.12335566591E+02  0.50528858189E+02  0.29999994950E+02 0.  0.
         12    1    1    2    0    0  0.61715090114E+01 -0.38248033757E+02 -0.12335566591E+02  0.40659141811E+02  0.00000000000E+00 0. -1.
         11    1    3    3    0    0 -0.17579258102E+01  0.33749240867E+01 -0.54745665519E+01  0.66671804338E+01  0.51100000000E-03 0. -1.
        -11    1    3    3    0    0 -0.42364423793E+01  0.15576973080E+02  0.18499505664E+02  0.24552418302E+02  0.51100000000E-03 0.  1.
        -12    1    3    3    0    0 -0.17714082189E+00  0.19296136589E+02 -0.68937252134E+00  0.19309259453E+02  0.00000000000E+00 0.  1.
</event>
<event>
 7    1  0.5910662E-013  0.5052887E+02  0.7816164E-02  0.1300439E+00
        -11   -1    0    0    0    0  0.00000000000E+00  0.00000000000E+00  0.45593999997E+02  0.45594000000E+02  0.51100000000E-03 0.  1.
         11   -1    0    0    0    0 -0.00000000000E+00 -0.00000000000E+00 -0.45593999997E+02  0.45594000000E+02  0.51100000000E-03 0. -1.
    9900012    2    1    2    0    0 -0.33036089137E+00 -0.27574511080E+02  0.29878117218E+02  0.50528872020E+02  0.30000036993E+02 0.  0.
         12    1    1    2    0    0  0.33036089137E+00  0.27574511080E+02 -0.29878117218E+02  0.40659127980E+02  0.00000000000E+00 0. -1.
         11    1    3    3    0    0  0.60745111290E+01 -0.36873457908E+01 -0.26649181260E+01  0.75893341814E+01  0.51100000000E-03 0. -1.
        -11    1    3    3    0    0 -0.65926903862E+01 -0.12693993728E+02  0.26751219115E+02  0.30335272666E+02  0.51100000000E-03 0.  1.
        -12    1    3    3    0    0  0.18781836586E+00 -0.11193171561E+02  0.57918162281E+01  0.12604265173E+02  0.00000000000E+00 0.  1.
</event>
<event>
 7    1  0.5910662E-013  0.5052886E+02  0.7816164E-02  0.1300439E+00
        -11   -1    0    0    0    0  0.00000000000E+00  0.00000000000E+00  0.45593999997E+02  0.45594000000E+02  0.51100000000E-03 0.  1.
         11   -1    0    0    0    0 -0.00000000000E+00 -0.00000000000E+00 -0.45593999997E+02  0.45594000000E+02  0.51100000000E-03 0. -1.
    9900012    2    1    2    0    0  0.10648668380E+02 -0.30214547897E+02  0.25037022446E+02  0.50528861594E+02  0.30000005302E+02 0.  0.
         12    1    1    2    0    0 -0.10648668380E+02  0.30214547897E+02 -0.25037022446E+02  0.40659138406E+02  0.00000000000E+00 0. -1.
         11    1    3    3    0    0  0.13974611353E+02 -0.32993581474E+01  0.29251207424E+01  0.14653731889E+02  0.51100000000E-03 0. -1.
        -11    1    3    3    0    0  0.11678501143E+01 -0.19043804599E+02  0.13501985852E+02  0.23373788518E+02  0.51100000000E-03 0.  1.
         12    1    3    3    0    0 -0.44937930869E+01 -0.78713851509E+01  0.86099158519E+01  0.12501341187E+02  0.00000000000E+00 0. -1.
</event>
<event>
 7    1  0.5910662E-013  0.5052886E+02  0.7816164E-02  0.1300439E+00
        -11   -1    0    0    0    0  0.00000000000E+00  0.00000000000E+00  0.45593999997E+02  0.45594000000E+02  0.51100000000E-03 0.  1.
         11   -1    0    0    0    0 -0.00000000000E+00 -0.00000000000E+00 -0.45593999997E+02  0.45594000000E+02  0.51100000000E-03 0. -1.
    9900012    2    1    2    0    0 -0.52131778093E+01  0.22369697347E+02  0.33549741705E+02  0.50528858952E+02  0.29999997271E+02 0.  0.
         12    1    1    2    0    0  0.52131778093E+01 -0.22369697347E+02 -0.33549741705E+02  0.40659141048E+02  0.00000000000E+00 0. -1.
         11    1    3    3    0    0 -0.11716435397E+02  0.42988569792E+01  0.18520867655E+02  0.22333328652E+02  0.51100000000E-03 0. -1.
        -11    1    3    3    0    0  0.47116461873E+01  0.71937519261E+01  0.14862043724E+02  0.17170615029E+02  0.51100000000E-03 0.  1.
         12    1    3    3    0    0  0.17916114000E+01  0.10877088441E+02  0.16683032651E+00  0.11024915271E+02  0.00000000000E+00 0. -1.
</event>
<event>
 7    1  0.5910662E-013  0.5052886E+02  0.7816164E-02  0.1300439E+00
        -11   -1    0    0    0    0  0.00000000000E+00  0.00000000000E+00  0.45593999997E+02  0.45594000000E+02  0.51100000000E-03 0.  1.
         11   -1    0    0    0    0 -0.00000000000E+00 -0.00000000000E+00 -0.45593999997E+02  0.45594000000E+02  0.51100000000E-03 0. -1.
    9900012    2    1    2    0    0  0.93707055696E+01 -0.25590295530E+02  0.30174367375E+02  0.50528858412E+02  0.29999995630E+02 0.  0.
         12    1    1    2    0    0 -0.93707055696E+01  0.25590295530E+02 -0.30174367375E+02  0.40659141588E+02  0.00000000000E+00 0. -1.
         11    1    3    3    0    0 -0.23394919536E+01 -0.24756369647E+01 -0.30704403044E+01  0.45858047174E+01  0.51100000000E-03 0. -1.
        -11    1    3    3    0    0  0.89429309558E+01 -0.25934839273E+02  0.26597800669E+02  0.38210403071E+02  0.51100000000E-03 0.  1.
         12    1    3    3    0    0  0.27672665674E+01  0.28201807071E+01  0.66470070099E+01  0.77326506235E+01  0.00000000000E+00 0. -1.
</event>
<event>
 7    1  0.5910662E-013  0.5052885E+02  0.7816164E-02  0.1300439E+00
        -11   -1    0    0    0    0  0.00000000000E+00  0.00000000000E+00  0.45593999997E+02  0.45594000000E+02  0.51100000000E-03 0.  1.
         11   -1    0    0    0    0 -0.00000000000E+00 -0.00000000000E+00 -0.45593999997E+02  0.45594000000E+02  0.51100000000E-03 0. -1.
    9900012    2    1    2    0    0  0.19210571343E+02 -0.33118084466E+02  0.13686239261E+02  0.50528847092E+02  0.29999961222E+02 0.  0.
         12    1    1    2    0    0 -0.19210571343E+02  0.33118084466E+02 -0.13686239261E+02  0.40659152908E+02  0.00000000000E+00 0. -1.
         11    1    3    3    0    0  0.62696885467E+01  0.44835673248E+01  0.10946684362E+00  0.77086544663E+01  0.51100000000E-03 0. -1.
        -11    1    3    3    0    0  0.10168768686E+02 -0.25405663682E+02  0.13009821341E+02  0.30300281439E+02  0.51100000000E-03 0.  1.
         12    1    3    3    0    0  0.27721141104E+01 -0.12195988110E+02  0.56695107665E+00  0.12519911187E+02  0.00000000000E+00 0. -1.
</event>
<event>
 7    1  0.5910662E-013  0.5052886E+02  0.7816164E-02  0.1300439E+00
        -11   -1    0    0    0    0  0.00000000000E+00  0.00000000000E+00  0.45593999997E+02  0.45594000000E+02  0.51100000000E-03 0.  1.
         11   -1    0    0    0    0 -0.00000000000E+00 -0.00000000000E+00 -0.45593999997E+02  0.45594000000E+02  0.51100000000E-03 0. -1.
    9900012    2    1    2    0    0 -0.28745830142E+02  0.23866446201E+02  0.16038556101E+02  0.50528864660E+02  0.30000014621E+02 0.  0.
         12    1    1    2    0    0  0.28745830142E+02 -0.23866446201E+02 -0.16038556101E+02  0.40659135340E+02  0.00000000000E+00 0. -1.
         11    1    3    3    0    0  0.38299752649E+01  0.99065700572E+01  0.17164941948E+01  0.10758958751E+02  0.51100000000E-03 0. -1.
        -11    1    3    3    0    0 -0.11796661121E+02  0.56511000800E+00  0.79594895811E+01  0.14241981519E+02  0.51100000000E-03 0.  1.
         12    1    3    3    0    0 -0.20779144286E+02  0.13394766136E+02  0.63625723247E+01  0.25527924390E+02  0.00000000000E+00 0. -1.
</event>
<event>
 7    1  0.5910662E-013  0.5052886E+02  0.7816164E-02  0.1300439E+00
        -11   -1    0    0    0    0  0.00000000000E+00  0.00000000000E+00  0.45593999997E+02  0.45594000000E+02  0.51100000000E-03 0. -1.
         11   -1    0    0    0    0 -0.00000000000E+00 -0.00000000000E+00 -0.45593999997E+02  0.45594000000E+02  0.51100000000E-03 0.  1.
    9900012    2    1    2    0    0 -0.25506479237E+01  0.39172590172E+02 -0.10590951080E+02  0.50528857481E+02  0.29999992798E+02 0.  0.
         12    1    1    2    0    0  0.25506479237E+01 -0.39172590172E+02  0.10590951080E+02  0.40659142519E+02  0.00000000000E+00 0. -1.
         11    1    3    3    0    0 -0.36431515037E+01  0.80934554899E+01  0.74046606831E+01  0.11558787771E+02  0.51100000000E-03 0. -1.
        -11    1    3    3    0    0 -0.54980063247E+00  0.27757088862E+02 -0.89092151206E+01  0.29157029635E+02  0.51100000000E-03 0.  1.
         12    1    3    3    0    0  0.16423042125E+01  0.33220458206E+01 -0.90863966425E+01  0.98130400746E+01  0.00000000000E+00 0. -1.
</event>
<event>
 7    1  0.5910662E-013  0.5052887E+02  0.7816164E-02  0.1300439E+00
        -11   -1    0    0    0    0  0.00000000000E+00  0.00000000000E+00  0.45593999997E+02  0.45594000000E+02  0.51100000000E-03 0.  1.
         11   -1    0    0    0    0 -0.00000000000E+00 -0.00000000000E+00 -0.45593999997E+02  0.45594000000E+02  0.51100000000E-03 0. -1.
    9900012    2    1    2    0    0  0.18510160367E+02 -0.32935562080E+02  0.15026240853E+02  0.50528865718E+02  0.30000017838E+02 0.  0.
         12    1    1    2    0    0 -0.18510160367E+02  0.32935562080E+02 -0.15026240853E+02  0.40659134282E+02  0.00000000000E+00 0. -1.
         11    1    3    3    0    0 -0.30252714877E+01 -0.10706915071E+00 -0.11050041585E+01  0.32225402758E+01  0.51100000000E-03 0. -1.
        -11    1    3    3    0    0  0.25726989392E+02 -0.27076844831E+02  0.13779536468E+02  0.39810917280E+02  0.51100000000E-03 0.  1.
        -12    1    3    3    0    0 -0.41915575378E+01 -0.57516480991E+01  0.23517085437E+01  0.74954081626E+01  0.00000000000E+00 0.  1.
</event>
<event>
 7    1  0.5910662E-013  0.5052886E+02  0.7816164E-02  0.1300439E+00
        -11   -1    0    0    0    0  0.00000000000E+00  0.00000000000E+00  0.45593999997E+02  0.45594000000E+02  0.51100000000E-03 0. -1.
         11   -1    0    0    0    0 -0.00000000000E+00 -0.00000000000E+00 -0.45593999997E+02  0.45594000000E+02  0.51100000000E-03 0.  1.
    9900012    2    1    2    0    0 -0.11319559189E+02  0.18528319102E+02 -0.34376372416E+02  0.50528855771E+02  0.29999987601E+02 0.  0.
         12    1    1    2    0    0  0.11319559189E+02 -0.18528319102E+02  0.34376372416E+02  0.40659144229E+02  0.00000000000E+00 0. -1.
         11    1    3    3    0    0 -0.49649192310E+01  0.12731950317E+02  0.13078139897E+01  0.13728195786E+02  0.51100000000E-03 0. -1.
        -11    1    3    3    0    0 -0.94020637699E+00  0.24591970632E+01 -0.10877888644E+02  0.11191965861E+02  0.51100000000E-03 0.  1.
         12    1    3    3    0    0 -0.54144335811E+01  0.33371717224E+01 -0.24806297762E+02  0.25608694124E+02  0.00000000000E+00 0. -1.
</event>
<event>
 7    1  0.5910662E-013  0.5052887E+02  0.7816164E-02  0.1300439E+00
        -11   -1    0    0    0    0  0.00000000000E+00  0.00000000000E+00  0.45593999997E+02  0.45594000000E+02  0.51100000000E-03 0. -1.
         11   -1    0    0    0    0 -0.00000000000E+00 -0.00000000000E+00 -0.45593999997E+02  0.45594000000E+02  0.51100000000E-03 0.  1.
    9900012    2    1    2    0    0  0.14109671159E+02  0.37964361869E+02  0.35762232665E+01  0.50528868613E+02  0.30000026635E+02 0.  0.
         12    1    1    2    0    0 -0.14109671159E+02 -0.37964361869E+02 -0.35762232665E+01  0.40659131387E+02  0.00000000000E+00 0. -1.
         11    1    3    3    0    0  0.19328003928E+02  0.16455567240E+02  0.68357840407E+01  0.26288502673E+02  0.51100000000E-03 0. -1.
        -11    1    3    3    0    0  0.10916392256E+01  0.41329892045E+01  0.24063718569E+01  0.49054970939E+01  0.51100000000E-03 0.  1.
         12    1    3    3    0    0 -0.63099719950E+01  0.17375805424E+02 -0.56659326312E+01  0.19334868846E+02  0.00000000000E+00 0. -1.
</event>
<event>
 7    1  0.5910662E-013  0.5052887E+02  0.7816164E-02  0.1300439E+00
        -11   -1    0    0    0    0  0.00000000000E+00  0.00000000000E+00  0.45593999997E+02  0.45594000000E+02  0.51100000000E-03 0. -1.
         11   -1    0    0    0    0 -0.00000000000E+00 -0.00000000000E+00 -0.45593999997E+02  0.45594000000E+02  0.51100000000E-03 0.  1.
    9900012    2    1    2    0    0 -0.79378051956E+01  0.39813735602E+02  0.22411474872E+01  0.50528867742E+02  0.30000023990E+02 0.  0.
         12    1    1    2    0    0  0.79378051956E+01 -0.39813735602E+02 -0.22411474872E+01  0.40659132258E+02  0.00000000000E+00 0. -1.
         11    1    3    3    0    0 -0.90072131596E+01  0.24722123290E+02  0.13687499811E+02  0.29659078209E+02  0.51100000000E-03 0. -1.
        -11    1    3    3    0    0 -0.28666176756E+01  0.12124576564E+02 -0.89820417790E+01  0.15359034102E+02  0.51100000000E-03 0.  1.
         12    1    3    3    0    0  0.39360256396E+01  0.29670357469E+01 -0.24643105450E+01  0.55107554311E+01  0.00000000000E+00 0. -1.
</event>
<event>
 7    1  0.5910662E-013  0.5052885E+02  0.7816164E-02  0.1300439E+00
        -11   -1    0    0    0    0  0.00000000000E+00  0.00000000000E+00  0.45593999997E+02  0.45594000000E+02  0.51100000000E-03 0. -1.
         11   -1    0    0    0    0 -0.00000000000E+00 -0.00000000000E+00 -0.45593999997E+02  0.45594000000E+02  0.51100000000E-03 0.  1.
    9900012    2    1    2    0    0 -0.30154989991E+02 -0.18644528915E+02  0.19905383349E+02  0.50528853845E+02  0.29999981746E+02 0.  0.
         12    1    1    2    0    0  0.30154989991E+02  0.18644528915E+02 -0.19905383349E+02  0.40659146155E+02  0.00000000000E+00 0. -1.
         11    1    3    3    0    0 -0.24573129151E+02  0.37965688151E+00  0.15894084629E+02  0.29267810681E+02  0.51100000000E-03 0. -1.
        -11    1    3    3    0    0 -0.56884151117E+01 -0.16724714492E+02  0.13131413756E+01  0.17714358071E+02  0.51100000000E-03 0.  1.
         12    1    3    3    0    0  0.10655427155E+00 -0.22994713047E+01  0.26981573443E+01  0.35466850929E+01  0.00000000000E+00 0. -1.
</event>
<event>
 7    1  0.5910662E-013  0.5052887E+02  0.7816164E-02  0.1300439E+00
        -11   -1    0    0    0    0  0.00000000000E+00  0.00000000000E+00  0.45593999997E+02  0.45594000000E+02  0.51100000000E-03 0.  1.
         11   -1    0    0    0    0 -0.00000000000E+00 -0.00000000000E+00 -0.45593999997E+02  0.45594000000E+02  0.51100000000E-03 0. -1.
    9900012    2    1    2    0    0 -0.56519720015E+01  0.36606268854E+02  0.16769059871E+02  0.50528867251E+02  0.30000022496E+02 0.  0.
         12    1    1    2    0    0  0.56519720015E+01 -0.36606268854E+02 -0.16769059871E+02  0.40659132749E+02  0.00000000000E+00 0. -1.
         11    1    3    3    0    0 -0.11395747564E+01 -0.41967004836E+01  0.31178539559E+01  0.53508820886E+01  0.51100000000E-03 0. -1.
        -11    1    3    3    0    0  0.25863075121E+01  0.24455163415E+02  0.11749588132E+02  0.27254299216E+02  0.51100000000E-03 0.  1.
        -12    1    3    3    0    0 -0.70987047573E+01  0.16347805923E+02  0.19016177833E+01  0.17923685947E+02  0.00000000000E+00 0.  1.
</event>
<event>
 7    1  0.5910662E-013  0.5052885E+02  0.7816164E-02  0.1300439E+00
        -11   -1    0    0    0    0  0.00000000000E+00  0.00000000000E+00  0.45593999997E+02  0.45594000000E+02  0.51100000000E-03 0.  1.
         11   -1    0    0    0    0 -0.00000000000E+00 -0.00000000000E+00 -0.45593999997E+02  0.45594000000E+02  0.51100000000E-03 0. -1.
    9900012    2    1    2    0    0  0.51687823273E+00  0.49704849016E+01  0.40350877313E+02  0.50528853634E+02  0.29999981106E+02 0.  0.
         12    1    1    2    0    0 -0.51687823273E+00 -0.49704849016E+01 -0.40350877313E+02  0.40659146366E+02  0.00000000000E+00 0. -1.
         11    1    3    3    0    0  0.30109222005E+01 -0.27911228864E+00  0.30296613046E+02  0.30447139743E+02  0.51100000000E-03 0. -1.
        -11    1    3    3    0    0 -0.70484206857E+01  0.88649906692E+01  0.81853050255E+01  0.13973815240E+02  0.51100000000E-03 0.  1.
         12    1    3    3    0    0  0.45543767180E+01 -0.36153934789E+01  0.18689592414E+01  0.61078986520E+01  0.00000000000E+00 0. -1.
</event>
<event>
 7    1  0.5910662E-013  0.5052887E+02  0.7816164E-02  0.1300439E+00
        -11   -1    0    0    0    0  0.00000000000E+00  0.00000000000E+00  0.45593999997E+02  0.45594000000E+02  0.51100000000E-03 0.  1.
         11   -1    0    0    0    0 -0.00000000000E+00 -0.00000000000E+00 -0.45593999997E+02  0.45594000000E+02  0.51100000000E-03 0. -1.
    9900012    2    1    2    0    0 -0.35459056689E+02  0.49250208376E+00 -0.19889130250E+02  0.50528871115E+02  0.30000034241E+02 0.  0.
         12    1    1    2    0    0  0.35459056689E+02 -0.49250208376E+00  0.19889130250E+02  0.40659128885E+02  0.00000000000E+00 0. -1.
         11    1    3    3    0    0 -0.78214054356E+01 -0.55253112449E+01  0.30061245926E+01  0.10036943393E+02  0.51100000000E-03 0. -1.
        -11    1    3    3    0    0 -0.20445728698E+02  0.10974256060E+02 -0.10857667206E+02  0.25619349240E+02  0.51100000000E-03 0.  1.
         12    1    3    3    0    0 -0.71919225556E+01 -0.49564427314E+01 -0.12037587637E+02  0.14872578482E+02  0.00000000000E+00 0. -1.
</event>
<event>
 7    1  0.5910662E-013  0.5052886E+02  0.7816164E-02  0.1300439E+00
        -11   -1    0    0    0    0  0.00000000000E+00  0.00000000000E+00  0.45593999997E+02  0.45594000000E+02  0.51100000000E-03 0.  1.
         11   -1    0    0    0    0 -0.00000000000E+00 -0.00000000000E+00 -0.45593999997E+02  0.45594000000E+02  0.51100000000E-03 0. -1.
    9900012    2    1    2    0    0 -0.30080112288E+02  0.23041730853E+02  0.14745540766E+02  0.50528862177E+02  0.30000007074E+02 0.  0.
         12    1    1    2    0    0  0.30080112288E+02 -0.23041730853E+02 -0.14745540766E+02  0.40659137823E+02  0.00000000000E+00 0. -1.
         11    1    3    3    0    0 -0.14015493622E+02  0.19308340684E+02 -0.12148228391E+01  0.23889786023E+02  0.51100000000E-03 0. -1.
        -11    1    3    3    0    0 -0.12484645812E+00  0.14570104352E+01  0.89652633929E+01  0.90837444928E+01  0.51100000000E-03 0.  1.
         12    1    3    3    0    0 -0.15939772209E+02  0.22763797333E+01  0.69951002127E+01  0.17555331661E+02  0.00000000000E+00 0. -1.
</event>
<event>
 7    1  0.5910662E-013  0.5052886E+02  0.7816164E-02  0.1300439E+00
        -11   -1    0    0    0    0  0.00000000000E+00  0.00000000000E+00  0.45593999997E+02  0.45594000000E+02  0.51100000000E-03 0.  1.
         11   -1    0    0    0    0 -0.00000000000E+00 -0.00000000000E+00 -0.45593999997E+02  0.45594000000E+02  0.51100000000E-03 0. -1.
    9900012    2    1    2    0    0  0.93280351426E+01 -0.27963773927E+01  0.39475733077E+02  0.50528862428E+02  0.30000007836E+02 0.  0.
         12    1    1    2    0    0 -0.93280351426E+01  0.27963773927E+01 -0.39475733077E+02  0.40659137572E+02  0.00000000000E+00 0. -1.
         11    1    3    3    0    0  0.10870450286E+02 -0.62521117536E+01  0.19922024315E+02  0.23540234576E+02  0.51100000000E-03 0. -1.
        -11    1    3    3    0    0 -0.54052468963E+01  0.25008945385E+01  0.21675728423E+02  0.22479065159E+02  0.51100000000E-03 0.  1.
         12    1    3    3    0    0  0.38628317524E+01  0.95483982247E+00 -0.21220196615E+01  0.45095626925E+01  0.00000000000E+00 0. -1.
</event>
<event>
 7    1  0.5910662E-013  0.5052886E+02  0.7816164E-02  0.1300439E+00
        -11   -1    0    0    0    0  0.00000000000E+00  0.00000000000E+00  0.45593999997E+02  0.45594000000E+02  0.51100000000E-03 0. -1.
         11   -1    0    0    0    0 -0.00000000000E+00 -0.00000000000E+00 -0.45593999997E+02  0.45594000000E+02  0.51100000000E-03 0.  1.
    9900012    2    1    2    0    0 -0.21030544743E+02  0.24874277352E+02 -0.24334172517E+02  0.50528862797E+02  0.30000008959E+02 0.  0.
         12    1    1    2    0    0  0.21030544743E+02 -0.24874277352E+02  0.24334172517E+02  0.40659137203E+02  0.00000000000E+00 0. -1.
         11    1    3    3    0    0 -0.93616368839E+01 -0.37900027562E+01 -0.78509907876E+01  0.12792279806E+02  0.51100000000E-03 0. -1.
        -11    1    3    3    0    0 -0.26555420728E+01  0.22766188769E+02 -0.90171089545E+01  0.24630458967E+02  0.51100000000E-03 0.  1.
        -12    1    3    3    0    0 -0.90133657865E+01  0.58980913395E+01 -0.74660727744E+01  0.13106124024E+02  0.00000000000E+00 0.  1.
</event>
<event>
 7    1  0.5910662E-013  0.5052886E+02  0.7816164E-02  0.1300439E+00
        -11   -1    0    0    0    0  0.00000000000E+00  0.00000000000E+00  0.45593999997E+02  0.45594000000E+02  0.51100000000E-03 0. -1.
         11   -1    0    0    0    0 -0.00000000000E+00 -0.00000000000E+00 -0.45593999997E+02  0.45594000000E+02  0.51100000000E-03 0.  1.
    9900012    2    1    2    0    0  0.23816416645E+02 -0.30112718800E+02  0.13385374149E+02  0.50528858636E+02  0.29999996310E+02 0.  0.
         12    1    1    2    0    0 -0.23816416645E+02  0.30112718800E+02 -0.13385374149E+02  0.40659141364E+02  0.00000000000E+00 0. -1.
         11    1    3    3    0    0  0.74697739643E+01 -0.38852263823E+01  0.11142019912E+02  0.13965568914E+02  0.51100000000E-03 0. -1.
        -11    1    3    3    0    0  0.14444491929E+02 -0.28550200496E+02 -0.11698925219E+01  0.32017588045E+02  0.51100000000E-03 0.  1.
        -12    1    3    3    0    0  0.19021507516E+01  0.23227080780E+01  0.34132467588E+01  0.45457016767E+01  0.00000000000E+00 0.  1.
</event>
<event>
 7    1  0.5910662E-013  0.5052885E+02  0.7816164E-02  0.1300439E+00
        -11   -1    0    0    0    0  0.00000000000E+00  0.00000000000E+00  0.45593999997E+02  0.45594000000E+02  0.51100000000E-03 0.  1.
         11   -1    0    0    0    0 -0.00000000000E+00 -0.00000000000E+00 -0.45593999997E+02  0.45594000000E+02  0.51100000000E-03 0. -1.
    9900012    2    1    2    0    0  0.22814843701E+02 -0.17759926735E+02  0.28587306895E+02  0.50528853350E+02  0.29999980243E+02 0.  0.
         12    1    1    2    0    0 -0.22814843701E+02  0.17759926735E+02 -0.28587306895E+02  0.40659146650E+02  0.00000000000E+00 0. -1.
         11    1    3    3    0    0 -0.47997418104E+00 -0.18003013697E+01  0.14813687603E+02  0.14930398552E+02  0.51100000000E-03 0. -1.
        -11    1    3    3    0    0  0.23330003496E+02 -0.83575513033E+01  0.79622480671E+01  0.26029504826E+02  0.51100000000E-03 0.  1.
        -12    1    3    3    0    0 -0.35185613923E-01 -0.76020740619E+01  0.58113712250E+01  0.95689499729E+01  0.00000000000E+00 0.  1.
</event>
<event>
 7    1  0.5910662E-013  0.5052886E+02  0.7816164E-02  0.1300439E+00
        -11   -1    0    0    0    0  0.00000000000E+00  0.00000000000E+00  0.45593999997E+02  0.45594000000E+02  0.51100000000E-03 0.  1.
         11   -1    0    0    0    0 -0.00000000000E+00 -0.00000000000E+00 -0.45593999997E+02  0.45594000000E+02  0.51100000000E-03 0. -1.
    9900012    2    1    2    0    0 -0.39191726156E+00  0.34089156220E+02  0.22157194301E+02  0.50528862894E+02  0.30000009251E+02 0.  0.
         12    1    1    2    0    0  0.39191726156E+00 -0.34089156220E+02 -0.22157194301E+02  0.40659137106E+02  0.00000000000E+00 0. -1.
         11    1    3    3    0    0 -0.25830144873E+01  0.49729879379E+01 -0.37091048876E+01  0.67201214424E+01  0.51100000000E-03 0. -1.
        -11    1    3    3    0    0  0.10525064401E+02  0.18567596048E+02  0.19596455575E+02  0.28975052632E+02  0.51100000000E-03 0.  1.
        -12    1    3    3    0    0 -0.83339671750E+01  0.10548572234E+02  0.62698436131E+01  0.14833688819E+02  0.00000000000E+00 0.  1.
</event>
<event>
 7    1  0.5910662E-013  0.5052885E+02  0.7816164E-02  0.1300439E+00
        -11   -1    0    0    0    0  0.00000000000E+00  0.00000000000E+00  0.45593999997E+02  0.45594000000E+02  0.51100000000E-03 0.  1.
         11   -1    0    0    0    0 -0.00000000000E+00 -0.00000000000E+00 -0.45593999997E+02  0.45594000000E+02  0.51100000000E-03 0. -1.
    9900012    2    1    2    0    0 -0.17693786969E+02 -0.44226940485E+01  0.36339179049E+02  0.50528852765E+02  0.29999978463E+02 0.  0.
         12    1    1    2    0    0  0.17693786969E+02  0.44226940485E+01 -0.36339179049E+02  0.40659147235E+02  0.00000000000E+00 0. -1.
         11    1    3    3    0    0 -0.10563872034E+02  0.31537300465E+01  0.63332592038E+01  0.12714227383E+02  0.51100000000E-03 0. -1.
        -11    1    3    3    0    0 -0.53967651528E+01 -0.14711573852E+02  0.20433934199E+02  0.25750750405E+02  0.51100000000E-03 0.  1.
        -12    1    3    3    0    0 -0.17331497829E+01  0.71351497571E+01  0.95719856459E+01  0.12063874976E+02  0.00000000000E+00 0.  1.
</event>
<event>
 7    1  0.5910662E-013  0.5052887E+02  0.7816164E-02  0.1300439E+00
        -11   -1    0    0    0    0  0.00000000000E+00  0.00000000000E+00  0.45593999997E+02  0.45594000000E+02  0.51100000000E-03 0.  1.
         11   -1    0    0    0    0 -0.00000000000E+00 -0.00000000000E+00 -0.45593999997E+02  0.45594000000E+02  0.51100000000E-03 0. -1.
    9900012    2    1    2    0    0 -0.22662291687E+02 -0.56389973227E+01  0.33283438282E+02  0.50528867948E+02  0.30000024615E+02 0.  0.
         12    1    1    2    0    0  0.22662291687E+02  0.56389973227E+01 -0.33283438282E+02  0.40659132052E+02  0.00000000000E+00 0. -1.
         11    1    3    3    0    0 -0.27741230639E+01 -0.33271274146E+01 -0.12122162744E+01  0.44983334874E+01  0.51100000000E-03 0. -1.
        -11    1    3    3    0    0 -0.19883895108E+02  0.39298592825E+01  0.34232969216E+02  0.39783278652E+02  0.51100000000E-03 0.  1.
        -12    1    3    3    0    0 -0.42735148153E-02 -0.62417291906E+01  0.26268534041E+00  0.62472558088E+01  0.00000000000E+00 0.  1.
</event>
<event>
 7    1  0.5910662E-013  0.5052887E+02  0.7816164E-02  0.1300439E+00
        -11   -1    0    0    0    0  0.00000000000E+00  0.00000000000E+00  0.45593999997E+02  0.45594000000E+02  0.51100000000E-03 0. -1.
         11   -1    0    0    0    0 -0.00000000000E+00 -0.00000000000E+00 -0.45593999997E+02  0.45594000000E+02  0.51100000000E-03 0.  1.
    9900012    2    1    2    0    0  0.19140252103E+02 -0.97201240680E+01 -0.34530204205E+02  0.50528867386E+02  0.30000022908E+02 0.  0.
         12    1    1    2    0    0 -0.19140252103E+02  0.97201240680E+01  0.34530204205E+02  0.40659132614E+02  0.00000000000E+00 0. -1.
         11    1    3    3    0    0  0.14655997267E+01  0.12779080464E+00  0.19966418847E+01  0.24800992169E+01  0.51100000000E-03 0. -1.
        -11    1    3    3    0    0  0.23518748910E+02 -0.94799251687E+01 -0.29393536980E+02  0.38819847346E+02  0.51100000000E-03 0.  1.
        -12    1    3    3    0    0 -0.58440965339E+01 -0.36798970401E+00 -0.71333091094E+01  0.92289208237E+01  0.00000000000E+00 0.  1.
</event>
<event>
 7    1  0.5910662E-013  0.5052884E+02  0.7816164E-02  0.1300439E+00
        -11   -1    0    0    0    0  0.00000000000E+00  0.00000000000E+00  0.45593999997E+02  0.45594000000E+02  0.51100000000E-03 0.  1.
         11   -1    0    0    0    0 -0.00000000000E+00 -0.00000000000E+00 -0.45593999997E+02  0.45594000000E+02  0.51100000000E-03 0. -1.
    9900012    2    1    2    0    0  0.39133737628E+01 -0.28361974760E+02  0.28869552381E+02  0.50528841608E+02  0.29999944551E+02 0.  0.
         12    1    1    2    0    0 -0.39133737628E+01  0.28361974760E+02 -0.28869552381E+02  0.40659158392E+02  0.00000000000E+00 0. -1.
         11    1    3    3    0    0 -0.66004136130E+01 -0.46351575703E+01  0.39642836698E+01  0.89869733971E+01  0.51100000000E-03 0. -1.
        -11    1    3    3    0    0  0.13505756224E+02 -0.10247491391E+02  0.21390505762E+02  0.27294143475E+02  0.51100000000E-03 0.  1.
        -12    1    3    3    0    0 -0.29919688481E+01 -0.13479325798E+02  0.35147629493E+01  0.14247724736E+02  0.00000000000E+00 0.  1.
</event>
<event>
 7    1  0.5910662E-013  0.5052886E+02  0.7816164E-02  0.1300439E+00
        -11   -1    0    0    0    0  0.00000000000E+00  0.00000000000E+00  0.45593999997E+02  0.45594000000E+02  0.51100000000E-03 0. -1.
         11   -1    0    0    0    0 -0.00000000000E+00 -0.00000000000E+00 -0.45593999997E+02  0.45594000000E+02  0.51100000000E-03 0.  1.
    9900012    2    1    2    0    0  0.11799981523E+02  0.90822158057E+01 -0.37834372818E+02  0.50528856201E+02  0.29999988909E+02 0.  0.
         12    1    1    2    0    0 -0.11799981523E+02 -0.90822158057E+01  0.37834372818E+02  0.40659143799E+02  0.00000000000E+00 0. -1.
         11    1    3    3    0    0 -0.46835607464E+01 -0.20625267749E+01 -0.15500006131E+02  0.16322988338E+02  0.51100000000E-03 0. -1.
        -11    1    3    3    0    0  0.11144305902E+02  0.48677097697E+01 -0.22917905005E+02  0.25944566339E+02  0.51100000000E-03 0.  1.
         12    1    3    3    0    0  0.53392363674E+01  0.62770328109E+01  0.58353831799E+00  0.82613015237E+01  0.00000000000E+00 0. -1.
</event>
<event>
 7    1  0.5910662E-013  0.5052886E+02  0.7816164E-02  0.1300439E+00
        -11   -1    0    0    0    0  0.00000000000E+00  0.00000000000E+00  0.45593999997E+02  0.45594000000E+02  0.51100000000E-03 0.  1.
         11   -1    0    0    0    0 -0.00000000000E+00 -0.00000000000E+00 -0.45593999997E+02  0.45594000000E+02  0.51100000000E-03 0. -1.
    9900012    2    1    2    0    0 -0.54382202779E+01 -0.33139061602E+02  0.22921469396E+02  0.50528863230E+02  0.30000010273E+02 0.  0.
         12    1    1    2    0    0  0.54382202779E+01  0.33139061602E+02 -0.22921469396E+02  0.40659136770E+02  0.00000000000E+00 0. -1.
         11    1    3    3    0    0 -0.16416468593E+02 -0.22835793831E+02  0.13467267915E+02  0.31182386476E+02  0.51100000000E-03 0. -1.
        -11    1    3    3    0    0  0.10803007491E+02 -0.55935885544E+01  0.69047919144E+01  0.13988186280E+02  0.51100000000E-03 0.  1.
         12    1    3    3    0    0  0.17524082347E+00 -0.47096792159E+01  0.25494095666E+01  0.53582904738E+01  0.00000000000E+00 0. -1.
</event>
<event>
 7    1  0.5910662E-013  0.5052883E+02  0.7816164E-02  0.1300439E+00
        -11   -1    0    0    0    0  0.00000000000E+00  0.00000000000E+00  0.45593999997E+02  0.45594000000E+02  0.51100000000E-03 0.  1.
         11   -1    0    0    0    0 -0.00000000000E+00 -0.00000000000E+00 -0.45593999997E+02  0.45594000000E+02  0.51100000000E-03 0. -1.
    9900012    2    1    2    0    0  0.14335718957E+02  0.30105623391E+02  0.23266001809E+02  0.50528828367E+02  0.29999904303E+02 0.  0.
         12    1    1    2    0    0 -0.14335718957E+02 -0.30105623391E+02 -0.23266001809E+02  0.40659171633E+02  0.00000000000E+00 0. -1.
         11    1    3    3    0    0  0.12162164950E+02  0.18217781509E+02  0.12807662861E+01  0.21941881914E+02  0.51100000000E-03 0. -1.
        -11    1    3    3    0    0  0.37978646961E+01 -0.10520204885E+01  0.10477886623E+02  0.11194491132E+02  0.51100000000E-03 0.  1.
        -12    1    3    3    0    0 -0.16243106897E+01  0.12939862370E+02  0.11507348899E+02  0.17392455320E+02  0.00000000000E+00 0.  1.
</event>
<event>
 7    1  0.5910662E-013  0.5052887E+02  0.7816164E-02  0.1300439E+00
        -11   -1    0    0    0    0  0.00000000000E+00  0.00000000000E+00  0.45593999997E+02  0.45594000000E+02  0.51100000000E-03 0. -1.
         11   -1    0    0    0    0 -0.00000000000E+00 -0.00000000000E+00 -0.45593999997E+02  0.45594000000E+02  0.51100000000E-03 0.  1.
    9900012    2    1    2    0    0 -0.31975467597E+02  0.14569364185E+02 -0.20456494566E+02  0.50528867315E+02  0.30000022689E+02 0.  0.
         12    1    1    2    0    0  0.31975467597E+02 -0.14569364185E+02  0.20456494566E+02  0.40659132685E+02  0.00000000000E+00 0. -1.
         11    1    3    3    0    0 -0.21681461971E+01  0.55200311824E+01  0.23388590434E+01  0.63750971815E+01  0.51100000000E-03 0. -1.
        -11    1    3    3    0    0 -0.32210284510E+02  0.97886858003E+01 -0.24021653114E+02  0.41356506338E+02  0.51100000000E-03 0.  1.
        -12    1    3    3    0    0  0.24029631095E+01 -0.73935279774E+00  0.12262995048E+01  0.27972637953E+01  0.00000000000E+00 0.  1.
</event>
<event>
 7    1  0.5910662E-013  0.5052886E+02  0.7816164E-02  0.1300439E+00
        -11   -1    0    0    0    0  0.00000000000E+00  0.00000000000E+00  0.45593999997E+02  0.45594000000E+02  0.51100000000E-03 0.  1.
         11   -1    0    0    0    0 -0.00000000000E+00 -0.00000000000E+00 -0.45593999997E+02  0.45594000000E+02  0.51100000000E-03 0. -1.
    9900012    2    1    2    0    0 -0.34853467720E+02 -0.92175640506E+01  0.18799940321E+02  0.50528862586E+02  0.30000008318E+02 0.  0.
         12    1    1    2    0    0  0.34853467720E+02  0.92175640506E+01 -0.18799940321E+02  0.40659137414E+02  0.00000000000E+00 0. -1.
         11    1    3    3    0    0 -0.10661084558E+02 -0.81896304071E+01 -0.14998523562E+01  0.13526948196E+02  0.51100000000E-03 0. -1.
        -11    1    3    3    0    0 -0.10781972466E+02 -0.60753722574E+01  0.18918194641E+02  0.22606617771E+02  0.51100000000E-03 0.  1.
        -12    1    3    3    0    0 -0.13410410697E+02  0.50474386138E+01  0.13815980364E+01  0.14395296619E+02  0.00000000000E+00 0.  1.
</event>
<event>
 7    1  0.5910662E-013  0.5052886E+02  0.7816164E-02  0.1300439E+00
        -11   -1    0    0    0    0  0.00000000000E+00  0.00000000000E+00  0.45593999997E+02  0.45594000000E+02  0.51100000000E-03 0.  1.
         11   -1    0    0    0    0 -0.00000000000E+00 -0.00000000000E+00 -0.45593999997E+02  0.45594000000E+02  0.51100000000E-03 0. -1.
    9900012    2    1    2    0    0  0.18195923618E+02 -0.21428804960E+02  0.29374828062E+02  0.50528857831E+02  0.29999993862E+02 0.  0.
         12    1    1    2    0    0 -0.18195923618E+02  0.21428804960E+02 -0.29374828062E+02  0.40659142169E+02  0.00000000000E+00 0. -1.
         11    1    3    3    0    0  0.84639873654E+01 -0.80738778578E+01 -0.45872529173E-01  0.11697379635E+02  0.51100000000E-03 0. -1.
        -11    1    3    3    0    0  0.92650945021E+01 -0.13857995686E+02  0.32043569950E+02  0.36120304483E+02  0.51100000000E-03 0.  1.
        -12    1    3    3    0    0  0.46684175008E+00  0.50306858375E+00 -0.26228693593E+01  0.27111737118E+01  0.00000000000E+00 0.  1.
</event>
<event>
 7    1  0.5910662E-013  0.5052886E+02  0.7816164E-02  0.1300439E+00
        -11   -1    0    0    0    0  0.00000000000E+00  0.00000000000E+00  0.45593999997E+02  0.45594000000E+02  0.51100000000E-03 0.  1.
         11   -1    0    0    0    0 -0.00000000000E+00 -0.00000000000E+00 -0.45593999997E+02  0.45594000000E+02  0.51100000000E-03 0. -1.
    9900012    2    1    2    0    0  0.20354901702E+02 -0.34552971724E+02  0.67034263424E+01  0.50528858310E+02  0.29999995319E+02 0.  0.
         12    1    1    2    0    0 -0.20354901702E+02  0.34552971724E+02 -0.67034263424E+01  0.40659141690E+02  0.00000000000E+00 0. -1.
         11    1    3    3    0    0  0.16724126099E+02 -0.27657484703E+02  0.11904111886E+01  0.32342695202E+02  0.51100000000E-03 0. -1.
        -11    1    3    3    0    0 -0.60115500849E+01 -0.29682956867E+01  0.35676363894E+01  0.75945732846E+01  0.51100000000E-03 0.  1.
        -12    1    3    3    0    0  0.96423256883E+01 -0.39271913340E+01  0.19453787644E+01  0.10591589824E+02  0.00000000000E+00 0.  1.
</event>
<event>
 7    1  0.5910662E-013  0.5052891E+02  0.7816164E-02  0.1300439E+00
        -11   -1    0    0    0    0  0.00000000000E+00  0.00000000000E+00  0.45593999997E+02  0.45594000000E+02  0.51100000000E-03 0. -1.
         11   -1    0    0    0    0 -0.00000000000E+00 -0.00000000000E+00 -0.45593999997E+02  0.45594000000E+02  0.51100000000E-03 0.  1.
    9900012    2    1    2    0    0  0.13501407522E+02 -0.37233435350E+02 -0.91948448145E+01  0.50528906500E+02  0.30000141798E+02 0.  0.
         12    1    1    2    0    0 -0.13501407522E+02  0.37233435350E+02  0.91948448145E+01  0.40659093500E+02  0.00000000000E+00 0. -1.
         11    1    3    3    0    0  0.32325416007E+01 -0.87149267149E+00 -0.18242231228E+01  0.38126912988E+01  0.51100000000E-03 0. -1.
        -11    1    3    3    0    0 -0.59623485595E+01 -0.26447706841E+02 -0.42909289946E+01  0.27448913811E+02  0.51100000000E-03 0.  1.
        -12    1    3    3    0    0  0.16231214481E+02 -0.99142358378E+01 -0.30796926971E+01  0.19267301391E+02  0.00000000000E+00 0.  1.
</event>
<event>
 7    1  0.5910662E-013  0.5052887E+02  0.7816164E-02  0.1300439E+00
        -11   -1    0    0    0    0  0.00000000000E+00  0.00000000000E+00  0.45593999997E+02  0.45594000000E+02  0.51100000000E-03 0. -1.
         11   -1    0    0    0    0 -0.00000000000E+00 -0.00000000000E+00 -0.45593999997E+02  0.45594000000E+02  0.51100000000E-03 0.  1.
    9900012    2    1    2    0    0  0.78809479341E+01 -0.61277953739E+01 -0.39414539643E+02  0.50528866318E+02  0.30000019661E+02 0.  0.
         12    1    1    2    0    0 -0.78809479341E+01  0.61277953739E+01  0.39414539643E+02  0.40659133682E+02  0.00000000000E+00 0. -1.
         11    1    3    3    0    0 -0.14737361917E+01 -0.15332441452E+02 -0.13690453082E+02  0.20607866583E+02  0.51100000000E-03 0.  1.
        -11    1    3    3    0    0  0.10667878281E+02  0.71608404946E+01 -0.21885910332E+02  0.25378619642E+02  0.51100000000E-03 0. -1.
        -12    1    3    3    0    0 -0.13131941554E+01  0.20438055834E+01 -0.38381762289E+01  0.45423800938E+01  0.00000000000E+00 0.  1.
</event>
<event>
 7    1  0.5910662E-013  0.5052886E+02  0.7816164E-02  0.1300439E+00
        -11   -1    0    0    0    0  0.00000000000E+00  0.00000000000E+00  0.45593999997E+02  0.45594000000E+02  0.51100000000E-03 0. -1.
         11   -1    0    0    0    0 -0.00000000000E+00 -0.00000000000E+00 -0.45593999997E+02  0.45594000000E+02  0.51100000000E-03 0.  1.
    9900012    2    1    2    0    0 -0.35632058799E+02 -0.14550221964E+02 -0.13107736005E+02  0.50528864290E+02  0.30000013497E+02 0.  0.
         12    1    1    2    0    0  0.35632058799E+02  0.14550221964E+02  0.13107736005E+02  0.40659135710E+02  0.00000000000E+00 0. -1.
         11    1    3    3    0    0 -0.62606908588E+01 -0.13963371483E+02 -0.32880132844E+00  0.15306211281E+02  0.51100000000E-03 0. -1.
        -11    1    3    3    0    0 -0.18571835150E+02 -0.22827803267E+01 -0.15103182031E+02  0.24046418747E+02  0.51100000000E-03 0.  1.
        -12    1    3    3    0    0 -0.10799532791E+02  0.16959298450E+01  0.23242473541E+01  0.11176234263E+02  0.00000000000E+00 0.  1.
</event>
<event>
 7    1  0.5910662E-013  0.5052877E+02  0.7816164E-02  0.1300439E+00
        -11   -1    0    0    0    0  0.00000000000E+00  0.00000000000E+00  0.45593999997E+02  0.45594000000E+02  0.51100000000E-03 0.  1.
         11   -1    0    0    0    0 -0.00000000000E+00 -0.00000000000E+00 -0.45593999997E+02  0.45594000000E+02  0.51100000000E-03 0. -1.
    9900012    2    1    2    0    0  0.27911541436E+02  0.24226018609E+02  0.16947539639E+02  0.50528767066E+02  0.29999717972E+02 0.  0.
         12    1    1    2    0    0 -0.27911541436E+02 -0.24226018609E+02 -0.16947539639E+02  0.40659232934E+02  0.00000000000E+00 0. -1.
         11    1    3    3    0    0  0.10374180924E+02  0.10118592510E+02 -0.52373617052E+01  0.15409072072E+02  0.51100000000E-03 0. -1.
        -11    1    3    3    0    0  0.98519710786E+01 -0.44529527780E+00  0.12853097451E+02  0.16200670862E+02  0.51100000000E-03 0.  1.
        -12    1    3    3    0    0  0.76853894329E+01  0.14552721378E+02  0.93318038927E+01  0.18919024132E+02  0.00000000000E+00 0.  1.
</event>
<event>
 7    1  0.5910662E-013  0.5052885E+02  0.7816164E-02  0.1300439E+00
        -11   -1    0    0    0    0  0.00000000000E+00  0.00000000000E+00  0.45593999997E+02  0.45594000000E+02  0.51100000000E-03 0.  1.
         11   -1    0    0    0    0 -0.00000000000E+00 -0.00000000000E+00 -0.45593999997E+02  0.45594000000E+02  0.51100000000E-03 0. -1.
    9900012    2    1    2    0    0  0.19044814920E+02  0.84659109330E+00  0.35913019443E+02  0.50528847804E+02  0.29999963384E+02 0.  0.
         12    1    1    2    0    0 -0.19044814920E+02 -0.84659109330E+00 -0.35913019443E+02  0.40659152196E+02  0.00000000000E+00 0. -1.
         11    1    3    3    0    0  0.15628323532E+02 -0.98290700818E+01  0.16447369513E+02  0.24725919180E+02  0.51100000000E-03 0. -1.
        -11    1    3    3    0    0 -0.41969397627E+00 -0.14431773896E+00  0.12219164810E+02  0.12227222070E+02  0.51100000000E-03 0.  1.
         12    1    3    3    0    0  0.38361853636E+01  0.10819978914E+02  0.72464851202E+01  0.13575706554E+02  0.00000000000E+00 0. -1.
</event>
<event>
 7    1  0.5910662E-013  0.5052885E+02  0.7816164E-02  0.1300439E+00
        -11   -1    0    0    0    0  0.00000000000E+00  0.00000000000E+00  0.45593999997E+02  0.45594000000E+02  0.51100000000E-03 0. -1.
         11   -1    0    0    0    0 -0.00000000000E+00 -0.00000000000E+00 -0.45593999997E+02  0.45594000000E+02  0.51100000000E-03 0.  1.
    9900012    2    1    2    0    0 -0.30765276080E+02 -0.26565927813E+02  0.95699563506E+00  0.50528848835E+02  0.29999966518E+02 0.  0.
         12    1    1    2    0    0  0.30765276080E+02  0.26565927813E+02 -0.95699563506E+00  0.40659151165E+02  0.00000000000E+00 0. -1.
         11    1    3    3    0    0  0.42712863176E+00  0.47215779582E+00  0.83090218751E+01  0.83333796646E+01  0.51100000000E-03 0. -1.
        -11    1    3    3    0    0 -0.25491854291E+02 -0.23637537774E+02 -0.74642252621E+01  0.35556750221E+02  0.51100000000E-03 0.  1.
         12    1    3    3    0    0 -0.57005504201E+01 -0.34005478346E+01  0.11219902199E+00  0.66387189493E+01  0.00000000000E+00 0. -1.
</event>
<event>
 7    1  0.5910662E-013  0.5052889E+02  0.7816164E-02  0.1300439E+00
        -11   -1    0    0    0    0  0.00000000000E+00  0.00000000000E+00  0.45593999997E+02  0.45594000000E+02  0.51100000000E-03 0. -1.
         11   -1    0    0    0    0 -0.00000000000E+00 -0.00000000000E+00 -0.45593999997E+02  0.45594000000E+02  0.51100000000E-03 0.  1.
    9900012    2    1    2    0    0 -0.40583803636E+02  0.25563082984E+00  0.24602882128E+01  0.50528886842E+02  0.30000082045E+02 0.  0.
         12    1    1    2    0    0  0.40583803636E+02 -0.25563082984E+00 -0.24602882128E+01  0.40659113158E+02  0.00000000000E+00 0. -1.
         11    1    3    3    0    0 -0.21990830265E+02  0.13269003369E+02  0.53393118364E+01  0.26233019599E+02  0.51100000000E-03 0. -1.
        -11    1    3    3    0    0 -0.87206908029E+01 -0.92130468664E+01 -0.47637487138E+01  0.13550792697E+02  0.51100000000E-03 0.  1.
         12    1    3    3    0    0 -0.98722825682E+01 -0.38003256729E+01  0.18847250902E+01  0.10745074546E+02  0.00000000000E+00 0. -1.
</event>
<event>
 7    1  0.5910662E-013  0.5052886E+02  0.7816164E-02  0.1300439E+00
        -11   -1    0    0    0    0  0.00000000000E+00  0.00000000000E+00  0.45593999997E+02  0.45594000000E+02  0.51100000000E-03 0.  1.
         11   -1    0    0    0    0 -0.00000000000E+00 -0.00000000000E+00 -0.45593999997E+02  0.45594000000E+02  0.51100000000E-03 0. -1.
    9900012    2    1    2    0    0 -0.23900123332E+02 -0.10874375337E+02  0.31043481152E+02  0.50528860114E+02  0.30000000802E+02 0.  0.
         12    1    1    2    0    0  0.23900123332E+02  0.10874375337E+02 -0.31043481152E+02  0.40659139886E+02  0.00000000000E+00 0. -1.
         11    1    3    3    0    0  0.34260049641E+01  0.56920766251E+01  0.19069659352E+01  0.69118568894E+01  0.51100000000E-03 0. -1.
        -11    1    3    3    0    0 -0.38940463589E+01 -0.27707273147E+01  0.73818715258E+01  0.87938930163E+01  0.51100000000E-03 0.  1.
         12    1    3    3    0    0 -0.23432081937E+02 -0.13795724647E+02  0.21754643691E+02  0.34823110208E+02  0.00000000000E+00 0. -1.
</event>
<event>
 7    1  0.5910662E-013  0.5052886E+02  0.7816164E-02  0.1300439E+00
        -11   -1    0    0    0    0  0.00000000000E+00  0.00000000000E+00  0.45593999997E+02  0.45594000000E+02  0.51100000000E-03 0. -1.
         11   -1    0    0    0    0 -0.00000000000E+00 -0.00000000000E+00 -0.45593999997E+02  0.45594000000E+02  0.51100000000E-03 0.  1.
    9900012    2    1    2    0    0  0.16183816713E+02  0.30233215981E+02 -0.21844954768E+02  0.50528864240E+02  0.30000013344E+02 0.  0.
         12    1    1    2    0    0 -0.16183816713E+02 -0.30233215981E+02  0.21844954768E+02  0.40659135760E+02  0.00000000000E+00 0. -1.
         11    1    3    3    0    0  0.59614447368E-01  0.80785582409E+00  0.58002527420E+01  0.58565448045E+01  0.51100000000E-03 0. -1.
        -11    1    3    3    0    0  0.15806555188E+02  0.20187092533E+02 -0.18096467612E+02  0.31382288511E+02  0.51100000000E-03 0.  1.
         12    1    3    3    0    0  0.31764707777E+00  0.92382676233E+01 -0.95487398977E+01  0.13290030925E+02  0.00000000000E+00 0. -1.
</event>
<event>
 7    1  0.5910662E-013  0.5052886E+02  0.7816164E-02  0.1300439E+00
        -11   -1    0    0    0    0  0.00000000000E+00  0.00000000000E+00  0.45593999997E+02  0.45594000000E+02  0.51100000000E-03 0. -1.
         11   -1    0    0    0    0 -0.00000000000E+00 -0.00000000000E+00 -0.45593999997E+02  0.45594000000E+02  0.51100000000E-03 0.  1.
    9900012    2    1    2    0    0  0.18563124234E+02  0.33664418625E+02 -0.13239452141E+02  0.50528858892E+02  0.29999997087E+02 0.  0.
         12    1    1    2    0    0 -0.18563124234E+02 -0.33664418625E+02  0.13239452141E+02  0.40659141108E+02  0.00000000000E+00 0. -1.
         11    1    3    3    0    0  0.28017233326E+00  0.27647825457E+01 -0.17262591200E+01  0.32714660127E+01  0.51100000000E-03 0. -1.
        -11    1    3    3    0    0  0.70071213330E+01  0.16063660951E+02  0.88680401542E+01  0.19641361688E+02  0.51100000000E-03 0.  1.
        -12    1    3    3    0    0  0.11275830567E+02  0.14835975128E+02 -0.20381233176E+02  0.27616031191E+02  0.00000000000E+00 0.  1.
</event>
<event>
 7    1  0.5910662E-013  0.5052886E+02  0.7816164E-02  0.1300439E+00
        -11   -1    0    0    0    0  0.00000000000E+00  0.00000000000E+00  0.45593999997E+02  0.45594000000E+02  0.51100000000E-03 0.  1.
         11   -1    0    0    0    0 -0.00000000000E+00 -0.00000000000E+00 -0.45593999997E+02  0.45594000000E+02  0.51100000000E-03 0. -1.
    9900012    2    1    2    0    0 -0.23424594035E+02  0.29223174011E+02  0.15825931917E+02  0.50528860486E+02  0.30000001934E+02 0.  0.
         12    1    1    2    0    0  0.23424594035E+02 -0.29223174011E+02 -0.15825931917E+02  0.40659139514E+02  0.00000000000E+00 0. -1.
         11    1    3    3    0    0 -0.10547645279E+02  0.28614663901E+01 -0.27388932240E+01  0.11266869449E+02  0.51100000000E-03 0. -1.
        -11    1    3    3    0    0 -0.73332980642E+01  0.17844049526E+02  0.21299473895E+02  0.28737692190E+02  0.51100000000E-03 0.  1.
         12    1    3    3    0    0 -0.55436506919E+01  0.85176580950E+01 -0.27346487536E+01  0.10524298847E+02  0.00000000000E+00 0. -1.
</event>
<event>
 7    1  0.5910662E-013  0.5052881E+02  0.7816164E-02  0.1300439E+00
        -11   -1    0    0    0    0  0.00000000000E+00  0.00000000000E+00  0.45593999997E+02  0.45594000000E+02  0.51100000000E-03 0.  1.
         11   -1    0    0    0    0 -0.00000000000E+00 -0.00000000000E+00 -0.45593999997E+02  0.45594000000E+02  0.51100000000E-03 0. -1.
    9900012    2    1    2    0    0  0.13987210665E+02  0.31603247724E+02 -0.21418737944E+02  0.50528810830E+02  0.29999850997E+02 0.  0.
         12    1    1    2    0    0 -0.13987210665E+02 -0.31603247724E+02  0.21418737944E+02  0.40659189170E+02  0.00000000000E+00 0. -1.
         11    1    3    3    0    0 -0.57825099702E+00 -0.32338346918E+00 -0.54413617968E+01  0.54815480978E+01  0.51100000000E-03 0. -1.
        -11    1    3    3    0    0  0.13975742268E+02  0.35454224784E+02 -0.12627566543E+02  0.40146965813E+02  0.51100000000E-03 0.  1.
        -12    1    3    3    0    0  0.58971939403E+00 -0.35275935907E+01 -0.33498096046E+01  0.49002969187E+01  0.00000000000E+00 0.  1.
</event>
<event>
 7    1  0.5910662E-013  0.5052887E+02  0.7816164E-02  0.1300439E+00
        -11   -1    0    0    0    0  0.00000000000E+00  0.00000000000E+00  0.45593999997E+02  0.45594000000E+02  0.51100000000E-03 0. -1.
         11   -1    0    0    0    0 -0.00000000000E+00 -0.00000000000E+00 -0.45593999997E+02  0.45594000000E+02  0.51100000000E-03 0.  1.
    9900012    2    1    2    0    0 -0.19915157320E+02  0.35178951272E+02 -0.43580867720E+01  0.50528867889E+02  0.30000024436E+02 0.  0.
         12    1    1    2    0    0  0.19915157320E+02 -0.35178951272E+02  0.43580867720E+01  0.40659132111E+02  0.00000000000E+00 0. -1.
         11    1    3    3    0    0 -0.11937859519E+01 -0.19332544239E+01  0.45832275354E+01  0.51155226975E+01  0.51100000000E-03 0. -1.
        -11    1    3    3    0    0 -0.17738004697E+02  0.38748198416E+02 -0.85195711985E+01  0.43458517977E+02  0.51100000000E-03 0.  1.
        -12    1    3    3    0    0 -0.98336667104E+00 -0.16359927196E+01 -0.42174310885E+00  0.19548272144E+01  0.00000000000E+00 0.  1.
</event>
<event>
 7    1  0.5910662E-013  0.5052880E+02  0.7816164E-02  0.1300439E+00
        -11   -1    0    0    0    0  0.00000000000E+00  0.00000000000E+00  0.45593999997E+02  0.45594000000E+02  0.51100000000E-03 0.  1.
         11   -1    0    0    0    0 -0.00000000000E+00 -0.00000000000E+00 -0.45593999997E+02  0.45594000000E+02  0.51100000000E-03 0. -1.
    9900012    2    1    2    0    0 -0.27999307788E+02 -0.17968387217E+02  0.23374049279E+02  0.50528802326E+02  0.29999825149E+02 0.  0.
         12    1    1    2    0    0  0.27999307788E+02  0.17968387217E+02 -0.23374049279E+02  0.40659197674E+02  0.00000000000E+00 0. -1.
         11    1    3    3    0    0 -0.13817571052E+01 -0.22891537621E+01 -0.60913102295E+01  0.66523332912E+01  0.51100000000E-03 0. -1.
        -11    1    3    3    0    0 -0.21831633556E+02 -0.76096109517E+01  0.21414917344E+02  0.31513887219E+02  0.51100000000E-03 0.  1.
        -12    1    3    3    0    0 -0.47859171266E+01 -0.80696225036E+01  0.80504421653E+01  0.12362581816E+02  0.00000000000E+00 0.  1.
</event>
<event>
 7    1  0.5910662E-013  0.5052877E+02  0.7816164E-02  0.1300439E+00
        -11   -1    0    0    0    0  0.00000000000E+00  0.00000000000E+00  0.45593999997E+02  0.45594000000E+02  0.51100000000E-03 0. -1.
         11   -1    0    0    0    0 -0.00000000000E+00 -0.00000000000E+00 -0.45593999997E+02  0.45594000000E+02  0.51100000000E-03 0.  1.
    9900012    2    1    2    0    0  0.35768077842E+01  0.40498553256E+02 -0.49665485348E+00  0.50528769365E+02  0.29999724961E+02 0.  0.
         12    1    1    2    0    0 -0.35768077842E+01 -0.40498553256E+02  0.49665485348E+00  0.40659230635E+02  0.00000000000E+00 0. -1.
         11    1    3    3    0    0  0.11973944687E+02  0.89097920921E+01 -0.21264028327E+01  0.15075852737E+02  0.51100000000E-03 0. -1.
        -11    1    3    3    0    0 -0.11555900299E+02  0.20925986424E+02 -0.13404827337E+01  0.23942277122E+02  0.51100000000E-03 0.  1.
        -12    1    3    3    0    0  0.31587633963E+01  0.10662774740E+02  0.29702307129E+01  0.11510639506E+02  0.00000000000E+00 0.  1.
</event>
<event>
 7    1  0.5910662E-013  0.5052886E+02  0.7816164E-02  0.1300439E+00
        -11   -1    0    0    0    0  0.00000000000E+00  0.00000000000E+00  0.45593999997E+02  0.45594000000E+02  0.51100000000E-03 0.  1.
         11   -1    0    0    0    0 -0.00000000000E+00 -0.00000000000E+00 -0.45593999997E+02  0.45594000000E+02  0.51100000000E-03 0. -1.
    9900012    2    1    2    0    0 -0.25032649180E+02  0.32026835853E+02 -0.90201519775E+00  0.50528863620E+02  0.30000011459E+02 0.  0.
         12    1    1    2    0    0  0.25032649180E+02 -0.32026835853E+02  0.90201519775E+00  0.40659136380E+02  0.00000000000E+00 0. -1.
         11    1    3    3    0    0 -0.21228595186E+02  0.30231012013E+02 -0.39557043830E+01  0.37151244102E+02  0.51100000000E-03 0. -1.
        -11    1    3    3    0    0 -0.82688160755E+01  0.19700752475E+01  0.14083336044E+01  0.86161429638E+01  0.51100000000E-03 0.  1.
         12    1    3    3    0    0  0.44647620810E+01 -0.17425140675E+00  0.16453555809E+01  0.47614765546E+01  0.00000000000E+00 0. -1.
</event>
<event>
 7    1  0.5910662E-013  0.5052886E+02  0.7816164E-02  0.1300439E+00
        -11   -1    0    0    0    0  0.00000000000E+00  0.00000000000E+00  0.45593999997E+02  0.45594000000E+02  0.51100000000E-03 0. -1.
         11   -1    0    0    0    0 -0.00000000000E+00 -0.00000000000E+00 -0.45593999997E+02  0.45594000000E+02  0.51100000000E-03 0.  1.
    9900012    2    1    2    0    0  0.63043734106E+00  0.19003358595E+01 -0.40609816741E+02  0.50528856583E+02  0.29999990070E+02 0.  0.
         12    1    1    2    0    0 -0.63043734106E+00 -0.19003358595E+01  0.40609816741E+02  0.40659143417E+02  0.00000000000E+00 0. -1.
         11    1    3    3    0    0 -0.11901385778E+02  0.42272008537E-01 -0.80279812497E+01  0.14355948369E+02  0.51100000000E-03 0. -1.
        -11    1    3    3    0    0  0.12881834040E+02  0.19734869124E+01 -0.21896570735E+02  0.25481289391E+02  0.51100000000E-03 0.  1.
         12    1    3    3    0    0 -0.35001092051E+00 -0.11542306148E+00 -0.10685264757E+02  0.10691618823E+02  0.00000000000E+00 0. -1.
</event>
<event>
 7    1  0.5910662E-013  0.5052889E+02  0.7816164E-02  0.1300439E+00
        -11   -1    0    0    0    0  0.00000000000E+00  0.00000000000E+00  0.45593999997E+02  0.45594000000E+02  0.51100000000E-03 0.  1.
         11   -1    0    0    0    0 -0.00000000000E+00 -0.00000000000E+00 -0.45593999997E+02  0.45594000000E+02  0.51100000000E-03 0. -1.
    9900012    2    1    2    0    0  0.87376543209E+01  0.55920017467E+00  0.39705217838E+02  0.50528885014E+02  0.30000076489E+02 0.  0.
         12    1    1    2    0    0 -0.87376543209E+01 -0.55920017467E+00 -0.39705217838E+02  0.40659114986E+02  0.00000000000E+00 0. -1.
         11    1    3    3    0    0  0.14365264742E+02 -0.44487620625E+01  0.22369183285E+02  0.26954270090E+02  0.51100000000E-03 0. -1.
        -11    1    3    3    0    0 -0.80419131637E+01  0.77108221543E+01  0.84665339958E+01  0.13993260656E+02  0.51100000000E-03 0.  1.
        -12    1    3    3    0    0  0.24143027424E+01 -0.27028599171E+01  0.88695005575E+01  0.95813542676E+01  0.00000000000E+00 0.  1.
</event>
<event>
 7    1  0.5910662E-013  0.5052894E+02  0.7816164E-02  0.1300439E+00
        -11   -1    0    0    0    0  0.00000000000E+00  0.00000000000E+00  0.45593999997E+02  0.45594000000E+02  0.51100000000E-03 0.  1.
         11   -1    0    0    0    0 -0.00000000000E+00 -0.00000000000E+00 -0.45593999997E+02  0.45594000000E+02  0.51100000000E-03 0. -1.
    9900012    2    1    2    0    0  0.17204451466E+02  0.98398393281E+01  0.35501314574E+02  0.50528942895E+02  0.30000252422E+02 0.  0.
         12    1    1    2    0    0 -0.17204451466E+02 -0.98398393281E+01 -0.35501314574E+02  0.40659057105E+02  0.00000000000E+00 0. -1.
         11    1    3    3    0    0  0.81198267392E+01  0.68747772275E+00 -0.30305197287E+01  0.86941510213E+01  0.51100000000E-03 0. -1.
        -11    1    3    3    0    0  0.10498363217E+01 -0.26109839627E+00  0.16730997672E+02  0.16765936062E+02  0.51100000000E-03 0.  1.
         12    1    3    3    0    0  0.80347884048E+01  0.94134600016E+01  0.21800836630E+02  0.25068855811E+02  0.00000000000E+00 0. -1.
</event>
<event>
 7    1  0.5910662E-013  0.5052886E+02  0.7816164E-02  0.1300439E+00
        -11   -1    0    0    0    0  0.00000000000E+00  0.00000000000E+00  0.45593999997E+02  0.45594000000E+02  0.51100000000E-03 0.  1.
         11   -1    0    0    0    0 -0.00000000000E+00 -0.00000000000E+00 -0.45593999997E+02  0.45594000000E+02  0.51100000000E-03 0. -1.
    9900012    2    1    2    0    0 -0.21849978332E+02 -0.12484242916E+01  0.34266386210E+02  0.50528864000E+02  0.30000012615E+02 0.  0.
         12    1    1    2    0    0  0.21849978332E+02  0.12484242916E+01 -0.34266386210E+02  0.40659136000E+02  0.00000000000E+00 0. -1.
         11    1    3    3    0    0 -0.24912348092E+01  0.71374316654E+00 -0.48622294930E+01  0.55097147010E+01  0.51100000000E-03 0. -1.
        -11    1    3    3    0    0 -0.15232517344E+02 -0.26112170157E+01  0.37457108388E+02  0.40520155577E+02  0.51100000000E-03 0.  1.
        -12    1    3    3    0    0 -0.41262261791E+01  0.64904955754E+00  0.16715073158E+01  0.44989937226E+01  0.00000000000E+00 0.  1.
</event>
<event>
 7    1  0.5910662E-013  0.5052887E+02  0.7816164E-02  0.1300439E+00
        -11   -1    0    0    0    0  0.00000000000E+00  0.00000000000E+00  0.45593999997E+02  0.45594000000E+02  0.51100000000E-03 0.  1.
         11   -1    0    0    0    0 -0.00000000000E+00 -0.00000000000E+00 -0.45593999997E+02  0.45594000000E+02  0.51100000000E-03 0. -1.
    9900012    2    1    2    0    0 -0.30486747090E+02 -0.17865052597E+02  0.20113753840E+02  0.50528868849E+02  0.30000027353E+02 0.  0.
         12    1    1    2    0    0  0.30486747090E+02  0.17865052597E+02 -0.20113753840E+02  0.40659131151E+02  0.00000000000E+00 0. -1.
         11    1    3    3    0    0  0.13178113201E+00  0.52442329922E+01  0.54053790727E+01  0.75324278373E+01  0.51100000000E-03 0. -1.
        -11    1    3    3    0    0 -0.18469406653E+02 -0.20402302500E+02  0.12987366209E+02  0.30430981100E+02  0.51100000000E-03 0.  1.
         12    1    3    3    0    0 -0.12149121568E+02 -0.27069830898E+01  0.17210085587E+01  0.12565459911E+02  0.00000000000E+00 0. -1.
</event>
<event>
 7    1  0.5910662E-013  0.5052886E+02  0.7816164E-02  0.1300439E+00
        -11   -1    0    0    0    0  0.00000000000E+00  0.00000000000E+00  0.45593999997E+02  0.45594000000E+02  0.51100000000E-03 0. -1.
         11   -1    0    0    0    0 -0.00000000000E+00 -0.00000000000E+00 -0.45593999997E+02  0.45594000000E+02  0.51100000000E-03 0.  1.
    9900012    2    1    2    0    0  0.49868735538E+01  0.32947382299E+01 -0.40217428308E+02  0.50528858991E+02  0.29999997389E+02 0.  0.
         12    1    1    2    0    0 -0.49868735538E+01 -0.32947382299E+01  0.40217428308E+02  0.40659141009E+02  0.00000000000E+00 0. -1.
         11    1    3    3    0    0 -0.88577300145E+00  0.40651925803E+01  0.37759623300E+01  0.56185653243E+01  0.51100000000E-03 0. -1.
        -11    1    3    3    0    0  0.55458118237E+01  0.15110789006E+01 -0.38865400058E+02  0.39288149742E+02  0.51100000000E-03 0.  1.
         12    1    3    3    0    0  0.32683473158E+00 -0.22815332509E+01 -0.51279905809E+01  0.56221439251E+01  0.00000000000E+00 0. -1.
</event>
<event>
 7    1  0.5910662E-013  0.5052887E+02  0.7816164E-02  0.1300439E+00
        -11   -1    0    0    0    0  0.00000000000E+00  0.00000000000E+00  0.45593999997E+02  0.45594000000E+02  0.51100000000E-03 0.  1.
         11   -1    0    0    0    0 -0.00000000000E+00 -0.00000000000E+00 -0.45593999997E+02  0.45594000000E+02  0.51100000000E-03 0. -1.
    9900012    2    1    2    0    0 -0.22958603917E+02 -0.22860258875E+02  0.24565748602E+02  0.50528868996E+02  0.30000027799E+02 0.  0.
         12    1    1    2    0    0  0.22958603917E+02  0.22860258875E+02 -0.24565748602E+02  0.40659131004E+02  0.00000000000E+00 0. -1.
         11    1    3    3    0    0  0.30946935184E+00 -0.25251807825E+01  0.16350390248E+01  0.30241795810E+01  0.51100000000E-03 0. -1.
        -11    1    3    3    0    0  0.61795477331E+01 -0.30027307132E+01  0.11037393415E+01  0.69585517686E+01  0.51100000000E-03 0.  1.
        -12    1    3    3    0    0 -0.29447621002E+02 -0.17332347379E+02  0.21826970236E+02  0.40546137646E+02  0.00000000000E+00 0.  1.
</event>
<event>
 7    1  0.5910662E-013  0.5052885E+02  0.7816164E-02  0.1300439E+00
        -11   -1    0    0    0    0  0.00000000000E+00  0.00000000000E+00  0.45593999997E+02  0.45594000000E+02  0.51100000000E-03 0. -1.
         11   -1    0    0    0    0 -0.00000000000E+00 -0.00000000000E+00 -0.45593999997E+02  0.45594000000E+02  0.51100000000E-03 0.  1.
    9900012    2    1    2    0    0 -0.13776293824E+02  0.36982905270E+02 -0.97798032617E+01  0.50528854589E+02  0.29999984009E+02 0.  0.
         12    1    1    2    0    0  0.13776293824E+02 -0.36982905270E+02  0.97798032617E+01  0.40659145411E+02  0.00000000000E+00 0. -1.
         11    1    3    3    0    0 -0.14412149355E+02  0.30708986701E+02 -0.52842222561E+01  0.34331835348E+02  0.51100000000E-03 0.  1.
        -11    1    3    3    0    0 -0.57128467081E+01 -0.11014449826E+01 -0.13871999832E+01  0.59811472657E+01  0.51100000000E-03 0. -1.
         12    1    3    3    0    0  0.63487022392E+01  0.73753635509E+01 -0.31083810225E+01  0.10215871975E+02  0.00000000000E+00 0. -1.
</event>
<event>
 7    1  0.5910662E-013  0.5052886E+02  0.7816164E-02  0.1300439E+00
        -11   -1    0    0    0    0  0.00000000000E+00  0.00000000000E+00  0.45593999997E+02  0.45594000000E+02  0.51100000000E-03 0. -1.
         11   -1    0    0    0    0 -0.00000000000E+00 -0.00000000000E+00 -0.45593999997E+02  0.45594000000E+02  0.51100000000E-03 0.  1.
    9900012    2    1    2    0    0  0.11518966677E+01  0.29215612994E+02 -0.28253968259E+02  0.50528860426E+02  0.30000001751E+02 0.  0.
         12    1    1    2    0    0 -0.11518966677E+01 -0.29215612994E+02  0.28253968259E+02  0.40659139574E+02  0.00000000000E+00 0. -1.
         11    1    3    3    0    0  0.16696163386E+01 -0.56753097510E+01 -0.44315116753E+01  0.73915529814E+01  0.51100000000E-03 0. -1.
        -11    1    3    3    0    0 -0.39491885431E+01  0.17502396694E+02 -0.92193903017E+01  0.20172435102E+02  0.51100000000E-03 0.  1.
         12    1    3    3    0    0  0.34314688722E+01  0.17388526051E+02 -0.14603066282E+02  0.22964872342E+02  0.00000000000E+00 0. -1.
</event>
<event>
 7    1  0.5910662E-013  0.5052886E+02  0.7816164E-02  0.1300439E+00
        -11   -1    0    0    0    0  0.00000000000E+00  0.00000000000E+00  0.45593999997E+02  0.45594000000E+02  0.51100000000E-03 0.  1.
         11   -1    0    0    0    0 -0.00000000000E+00 -0.00000000000E+00 -0.45593999997E+02  0.45594000000E+02  0.51100000000E-03 0. -1.
    9900012    2    1    2    0    0 -0.13030745488E+02  0.16622111397E+02  0.34742922325E+02  0.50528861212E+02  0.30000004141E+02 0.  0.
         12    1    1    2    0    0  0.13030745488E+02 -0.16622111397E+02 -0.34742922325E+02  0.40659138788E+02  0.00000000000E+00 0. -1.
         11    1    3    3    0    0 -0.12171482465E+02  0.84371492225E+01  0.27632568778E+02  0.31351065850E+02  0.51100000000E-03 0. -1.
        -11    1    3    3    0    0  0.61911549747E+01  0.34036675969E+01  0.79287580613E+01  0.10619819099E+02  0.51100000000E-03 0.  1.
         12    1    3    3    0    0 -0.70504179971E+01  0.47812945779E+01 -0.81840451476E+00  0.85579762633E+01  0.00000000000E+00 0. -1.
</event>
<event>
 7    1  0.5910662E-013  0.5052872E+02  0.7816164E-02  0.1300439E+00
        -11   -1    0    0    0    0  0.00000000000E+00  0.00000000000E+00  0.45593999997E+02  0.45594000000E+02  0.51100000000E-03 0.  1.
         11   -1    0    0    0    0 -0.00000000000E+00 -0.00000000000E+00 -0.45593999997E+02  0.45594000000E+02  0.51100000000E-03 0. -1.
    9900012    2    1    2    0    0 -0.32847374041E+02 -0.92652309124E+00  0.23945117633E+02  0.50528719573E+02  0.29999573610E+02 0.  0.
         12    1    1    2    0    0  0.32847374041E+02  0.92652309124E+00 -0.23945117633E+02  0.40659280427E+02  0.00000000000E+00 0. -1.
         11    1    3    3    0    0 -0.52915990704E+01  0.11899586804E+02  0.89831529743E+01  0.15820816175E+02  0.51100000000E-03 0. -1.
        -11    1    3    3    0    0 -0.27943282472E+02 -0.12450219093E+02  0.15148567572E+02  0.34136697124E+02  0.51100000000E-03 0.  1.
        -12    1    3    3    0    0  0.38750750185E+00 -0.37589080215E+00 -0.18660291389E+00  0.57120627325E+00  0.00000000000E+00 0.  1.
</event>
<event>
 7    1  0.5910662E-013  0.5052886E+02  0.7816164E-02  0.1300439E+00
        -11   -1    0    0    0    0  0.00000000000E+00  0.00000000000E+00  0.45593999997E+02  0.45594000000E+02  0.51100000000E-03 0. -1.
         11   -1    0    0    0    0 -0.00000000000E+00 -0.00000000000E+00 -0.45593999997E+02  0.45594000000E+02  0.51100000000E-03 0.  1.
    9900012    2    1    2    0    0  0.10447331816E+02  0.74577481671E+01 -0.38579800227E+02  0.50528859141E+02  0.29999997846E+02 0.  0.
         12    1    1    2    0    0 -0.10447331816E+02 -0.74577481671E+01  0.38579800227E+02  0.40659140859E+02  0.00000000000E+00 0. -1.
         11    1    3    3    0    0  0.16435200978E+02 -0.22283607306E+01 -0.28783547964E+02  0.33220085135E+02  0.51100000000E-03 0. -1.
        -11    1    3    3    0    0 -0.66149892132E+01  0.25265619196E+01 -0.47257270204E+01  0.85131717683E+01  0.51100000000E-03 0.  1.
         12    1    3    3    0    0  0.62712005141E+00  0.71595469780E+01 -0.50705252425E+01  0.87956022377E+01  0.00000000000E+00 0. -1.
</event>
<event>
 7    1  0.5910662E-013  0.5052886E+02  0.7816164E-02  0.1300439E+00
        -11   -1    0    0    0    0  0.00000000000E+00  0.00000000000E+00  0.45593999997E+02  0.45594000000E+02  0.51100000000E-03 0.  1.
         11   -1    0    0    0    0 -0.00000000000E+00 -0.00000000000E+00 -0.45593999997E+02  0.45594000000E+02  0.51100000000E-03 0. -1.
    9900012    2    1    2    0    0 -0.33640830812E+02 -0.19754306095E+02  0.11455444955E+02  0.50528864174E+02  0.30000013144E+02 0.  0.
         12    1    1    2    0    0  0.33640830812E+02  0.19754306095E+02 -0.11455444955E+02  0.40659135826E+02  0.00000000000E+00 0. -1.
         11    1    3    3    0    0 -0.32232352296E+02 -0.11946401885E+02 -0.17005667700E+01  0.34417044907E+02  0.51100000000E-03 0. -1.
        -11    1    3    3    0    0 -0.21624717280E+01 -0.43675990199E+01  0.10871202001E+02  0.11913657641E+02  0.51100000000E-03 0.  1.
         12    1    3    3    0    0  0.75399321259E+00 -0.34403051899E+01  0.22848097236E+01  0.41981616259E+01  0.00000000000E+00 0. -1.
</event>
<event>
 7    1  0.5910662E-013  0.5052886E+02  0.7816164E-02  0.1300439E+00
        -11   -1    0    0    0    0  0.00000000000E+00  0.00000000000E+00  0.45593999997E+02  0.45594000000E+02  0.51100000000E-03 0. -1.
         11   -1    0    0    0    0 -0.00000000000E+00 -0.00000000000E+00 -0.45593999997E+02  0.45594000000E+02  0.51100000000E-03 0.  1.
    9900012    2    1    2    0    0  0.19601026417E+02 -0.19064469905E+01 -0.35571494966E+02  0.50528855508E+02  0.29999986801E+02 0.  0.
         12    1    1    2    0    0 -0.19601026417E+02  0.19064469905E+01  0.35571494966E+02  0.40659144492E+02  0.00000000000E+00 0. -1.
         11    1    3    3    0    0  0.75110838219E+00  0.40599124992E+01 -0.28183012298E+02  0.28483841661E+02  0.51100000000E-03 0. -1.
        -11    1    3    3    0    0  0.18565776798E+02 -0.65838824733E+01 -0.78694041348E+01  0.21212333635E+02  0.51100000000E-03 0.  1.
        -12    1    3    3    0    0  0.28414123683E+00  0.61752298358E+00  0.48092146687E+00  0.83268021174E+00  0.00000000000E+00 0.  1.
</event>
<event>
 7    1  0.5910662E-013  0.5052886E+02  0.7816164E-02  0.1300439E+00
        -11   -1    0    0    0    0  0.00000000000E+00  0.00000000000E+00  0.45593999997E+02  0.45594000000E+02  0.51100000000E-03 0. -1.
         11   -1    0    0    0    0 -0.00000000000E+00 -0.00000000000E+00 -0.45593999997E+02  0.45594000000E+02  0.51100000000E-03 0.  1.
    9900012    2    1    2    0    0  0.33058864422E+01 -0.34437117565E+02 -0.21361694655E+02  0.50528856503E+02  0.29999989826E+02 0.  0.
         12    1    1    2    0    0 -0.33058864422E+01  0.34437117565E+02  0.21361694655E+02  0.40659143497E+02  0.00000000000E+00 0. -1.
         11    1    3    3    0    0 -0.56785832467E+01 -0.23401716866E+01 -0.13584732310E+02  0.14908643916E+02  0.51100000000E-03 0. -1.
        -11    1    3    3    0    0  0.53542308361E+01 -0.23725426110E+02 -0.11617549022E+01  0.24349811224E+02  0.51100000000E-03 0.  1.
         12    1    3    3    0    0  0.36302388528E+01 -0.83715197691E+01 -0.66152074424E+01  0.11270401363E+02  0.00000000000E+00 0. -1.
</event>
<event>
 7    1  0.5910662E-013  0.5052885E+02  0.7816164E-02  0.1300439E+00
        -11   -1    0    0    0    0  0.00000000000E+00  0.00000000000E+00  0.45593999997E+02  0.45594000000E+02  0.51100000000E-03 0.  1.
         11   -1    0    0    0    0 -0.00000000000E+00 -0.00000000000E+00 -0.45593999997E+02  0.45594000000E+02  0.51100000000E-03 0. -1.
    9900012    2    1    2    0    0 -0.37493976166E+02  0.11108911771E+02  0.11133732154E+02  0.50528853906E+02  0.29999981931E+02 0.  0.
         12    1    1    2    0    0  0.37493976166E+02 -0.11108911771E+02 -0.11133732154E+02  0.40659146094E+02  0.00000000000E+00 0. -1.
         11    1    3    3    0    0 -0.13326055905E+01  0.76390320277E+01  0.21339070031E+01  0.80426492737E+01  0.51100000000E-03 0. -1.
        -11    1    3    3    0    0 -0.32412961675E+02  0.50144430674E+01  0.20196139412E+00  0.32799169388E+02  0.51100000000E-03 0.  1.
        -12    1    3    3    0    0 -0.37484088998E+01 -0.15445633243E+01  0.87978637568E+01  0.96870352444E+01  0.00000000000E+00 0.  1.
</event>
<event>
 7    1  0.5910662E-013  0.5052887E+02  0.7816164E-02  0.1300439E+00
        -11   -1    0    0    0    0  0.00000000000E+00  0.00000000000E+00  0.45593999997E+02  0.45594000000E+02  0.51100000000E-03 0. -1.
         11   -1    0    0    0    0 -0.00000000000E+00 -0.00000000000E+00 -0.45593999997E+02  0.45594000000E+02  0.51100000000E-03 0.  1.
    9900012    2    1    2    0    0  0.20841777993E+02 -0.12715525529E+02 -0.32513088189E+02  0.50528865688E+02  0.30000017746E+02 0.  0.
         12    1    1    2    0    0 -0.20841777993E+02  0.12715525529E+02  0.32513088189E+02  0.40659134312E+02  0.00000000000E+00 0. -1.
         11    1    3    3    0    0  0.17864380211E+02 -0.89960350022E+01 -0.12386582341E+02  0.23526413846E+02  0.51100000000E-03 0. -1.
        -11    1    3    3    0    0  0.73123206957E+00  0.57137597404E+01 -0.14925975588E+02  0.15998953035E+02  0.51100000000E-03 0.  1.
        -12    1    3    3    0    0  0.22461657121E+01 -0.94332502677E+01 -0.52005302597E+01  0.11003498807E+02  0.00000000000E+00 0.  1.
</event>
<event>
 7    1  0.5910662E-013  0.5052887E+02  0.7816164E-02  0.1300439E+00
        -11   -1    0    0    0    0  0.00000000000E+00  0.00000000000E+00  0.45593999997E+02  0.45594000000E+02  0.51100000000E-03 0.  1.
         11   -1    0    0    0    0 -0.00000000000E+00 -0.00000000000E+00 -0.45593999997E+02  0.45594000000E+02  0.51100000000E-03 0. -1.
    9900012    2    1    2    0    0 -0.17875290883E+02 -0.13700989677E+02  0.33851465707E+02  0.50528869749E+02  0.30000030088E+02 0.  0.
         12    1    1    2    0    0  0.17875290883E+02  0.13700989677E+02 -0.33851465707E+02  0.40659130251E+02  0.00000000000E+00 0. -1.
         11    1    3    3    0    0 -0.11146299146E+02 -0.10771889541E+02  0.20391142487E+01  0.15634307664E+02  0.51100000000E-03 0. -1.
        -11    1    3    3    0    0 -0.79248559495E+01 -0.39246975733E+01  0.32114127650E+02  0.33309514975E+02  0.51100000000E-03 0.  1.
        -12    1    3    3    0    0  0.11958642126E+01  0.99559743683E+00 -0.30177619239E+00  0.15850471102E+01  0.00000000000E+00 0.  1.
</event>
<event>
 7    1  0.5910662E-013  0.5052886E+02  0.7816164E-02  0.1300439E+00
        -11   -1    0    0    0    0  0.00000000000E+00  0.00000000000E+00  0.45593999997E+02  0.45594000000E+02  0.51100000000E-03 0.  1.
         11   -1    0    0    0    0 -0.00000000000E+00 -0.00000000000E+00 -0.45593999997E+02  0.45594000000E+02  0.51100000000E-03 0. -1.
    9900012    2    1    2    0    0  0.19626302359E+02  0.58366184852E+01  0.35127028463E+02  0.50528856031E+02  0.29999988392E+02 0.  0.
         12    1    1    2    0    0 -0.19626302359E+02 -0.58366184852E+01 -0.35127028463E+02  0.40659143969E+02  0.00000000000E+00 0. -1.
         11    1    3    3    0    0  0.14121266147E+02  0.11377782528E+02  0.17334501874E+02  0.25086830177E+02  0.51100000000E-03 0. -1.
        -11    1    3    3    0    0  0.78507321950E+01 -0.98282189133E+01  0.92985515346E+01  0.15642600292E+02  0.51100000000E-03 0.  1.
        -12    1    3    3    0    0 -0.23456959832E+01  0.42870548706E+01  0.84939750549E+01  0.97994255618E+01  0.00000000000E+00 0.  1.
</event>
<event>
 7    1  0.5910662E-013  0.5052886E+02  0.7816164E-02  0.1300439E+00
        -11   -1    0    0    0    0  0.00000000000E+00  0.00000000000E+00  0.45593999997E+02  0.45594000000E+02  0.51100000000E-03 0. -1.
         11   -1    0    0    0    0 -0.00000000000E+00 -0.00000000000E+00 -0.45593999997E+02  0.45594000000E+02  0.51100000000E-03 0.  1.
    9900012    2    1    2    0    0 -0.29202686112E+02 -0.11345992810E+02 -0.25915962537E+02  0.50528861504E+02  0.30000005028E+02 0.  0.
         12    1    1    2    0    0  0.29202686112E+02  0.11345992810E+02  0.25915962537E+02  0.40659138496E+02  0.00000000000E+00 0. -1.
         11    1    3    3    0    0 -0.28631881866E+02 -0.32489204679E+01 -0.11277507170E+02  0.30943857413E+02  0.51100000000E-03 0. -1.
        -11    1    3    3    0    0  0.16951129128E+01 -0.20261824630E+01 -0.12477673062E+02  0.12754260013E+02  0.51100000000E-03 0.  1.
         12    1    3    3    0    0 -0.22659171589E+01 -0.60708898788E+01 -0.21607823056E+01  0.68307440783E+01  0.00000000000E+00 0. -1.
</event>
<event>
 7    1  0.5910662E-013  0.5052886E+02  0.7816164E-02  0.1300439E+00
        -11   -1    0    0    0    0  0.00000000000E+00  0.00000000000E+00  0.45593999997E+02  0.45594000000E+02  0.51100000000E-03 0.  1.
         11   -1    0    0    0    0 -0.00000000000E+00 -0.00000000000E+00 -0.45593999997E+02  0.45594000000E+02  0.51100000000E-03 0. -1.
    9900012    2    1    2    0    0  0.68065099636E+01  0.38487882309E+02  0.11203570897E+02  0.50528860026E+02  0.30000000537E+02 0.  0.
         12    1    1    2    0    0 -0.68065099636E+01 -0.38487882309E+02 -0.11203570897E+02  0.40659139974E+02  0.00000000000E+00 0. -1.
         11    1    3    3    0    0 -0.64380095608E+00  0.18887167207E+02 -0.61724003590E+01  0.19880595847E+02  0.51100000000E-03 0.  1.
        -11    1    3    3    0    0  0.92102531203E+01  0.56550678013E+01  0.10222532893E+02  0.14876448951E+02  0.51100000000E-03 0. -1.
        -12    1    3    3    0    0 -0.17599422006E+01  0.13945647301E+02  0.71534383621E+01  0.15771815228E+02  0.00000000000E+00 0.  1.
</event>
<event>
 7    1  0.5910662E-013  0.5052886E+02  0.7816164E-02  0.1300439E+00
        -11   -1    0    0    0    0  0.00000000000E+00  0.00000000000E+00  0.45593999997E+02  0.45594000000E+02  0.51100000000E-03 0.  1.
         11   -1    0    0    0    0 -0.00000000000E+00 -0.00000000000E+00 -0.45593999997E+02  0.45594000000E+02  0.51100000000E-03 0. -1.
    9900012    2    1    2    0    0  0.39651899576E+01  0.24026245232E+02  0.32560440382E+02  0.50528862415E+02  0.30000007796E+02 0.  0.
         12    1    1    2    0    0 -0.39651899576E+01 -0.24026245232E+02 -0.32560440382E+02  0.40659137585E+02  0.00000000000E+00 0. -1.
         11    1    3    3    0    0  0.13643559940E+02  0.98285195033E+01  0.54314673544E+01  0.17670522385E+02  0.51100000000E-03 0. -1.
        -11    1    3    3    0    0 -0.45802174381E+01  0.78697384340E+01  0.81792535483E+01  0.12239745245E+02  0.51100000000E-03 0.  1.
         12    1    3    3    0    0 -0.50981525447E+01  0.63279872943E+01  0.18949719479E+02  0.20618594785E+02  0.00000000000E+00 0. -1.
</event>
<event>
 7    1  0.5910662E-013  0.5052886E+02  0.7816164E-02  0.1300439E+00
        -11   -1    0    0    0    0  0.00000000000E+00  0.00000000000E+00  0.45593999997E+02  0.45594000000E+02  0.51100000000E-03 0. -1.
         11   -1    0    0    0    0 -0.00000000000E+00 -0.00000000000E+00 -0.45593999997E+02  0.45594000000E+02  0.51100000000E-03 0.  1.
    9900012    2    1    2    0    0  0.33239838907E+02  0.18954108758E+02  0.13748487533E+02  0.50528855410E+02  0.29999986503E+02 0.  0.
         12    1    1    2    0    0 -0.33239838907E+02 -0.18954108758E+02 -0.13748487533E+02  0.40659144590E+02  0.00000000000E+00 0. -1.
         11    1    3    3    0    0  0.23946683038E+02  0.24020860409E+02  0.12374120139E+02  0.36104905661E+02  0.51100000000E-03 0. -1.
        -11    1    3    3    0    0  0.98928927911E+01 -0.19921028272E+01  0.34513638105E+01  0.10665351090E+02  0.51100000000E-03 0.  1.
         12    1    3    3    0    0 -0.59973692155E+00 -0.30746488241E+01 -0.20769964167E+01  0.37585986593E+01  0.00000000000E+00 0. -1.
</event>
<event>
 7    1  0.5910662E-013  0.5052885E+02  0.7816164E-02  0.1300439E+00
        -11   -1    0    0    0    0  0.00000000000E+00  0.00000000000E+00  0.45593999997E+02  0.45594000000E+02  0.51100000000E-03 0.  1.
         11   -1    0    0    0    0 -0.00000000000E+00 -0.00000000000E+00 -0.45593999997E+02  0.45594000000E+02  0.51100000000E-03 0. -1.
    9900012    2    1    2    0    0 -0.33909737443E+02  0.15756116689E+02  0.15969992842E+02  0.50528853699E+02  0.29999981304E+02 0.  0.
         12    1    1    2    0    0  0.33909737443E+02 -0.15756116689E+02 -0.15969992842E+02  0.40659146301E+02  0.00000000000E+00 0. -1.
         11    1    3    3    0    0 -0.12866059769E+02  0.11281551994E+02 -0.64395572991E+01  0.18283238439E+02  0.51100000000E-03 0. -1.
        -11    1    3    3    0    0 -0.69259005775E+01 -0.23758108298E+01  0.53621849610E+01  0.90755497754E+01  0.51100000000E-03 0.  1.
         12    1    3    3    0    0 -0.14117777096E+02  0.68503755249E+01  0.17047365180E+02  0.23170065484E+02  0.00000000000E+00 0. -1.
</event>
<event>
 7    1  0.5910662E-013  0.5052885E+02  0.7816164E-02  0.1300439E+00
        -11   -1    0    0    0    0  0.00000000000E+00  0.00000000000E+00  0.45593999997E+02  0.45594000000E+02  0.51100000000E-03 0. -1.
         11   -1    0    0    0    0 -0.00000000000E+00 -0.00000000000E+00 -0.45593999997E+02  0.45594000000E+02  0.51100000000E-03 0.  1.
    9900012    2    1    2    0    0 -0.87090822138E+01  0.33257044781E+02 -0.21709154013E+02  0.50528849634E+02  0.29999968947E+02 0.  0.
         12    1    1    2    0    0  0.87090822138E+01 -0.33257044781E+02  0.21709154013E+02  0.40659150366E+02  0.00000000000E+00 0. -1.
         11    1    3    3    0    0  0.14144750959E+01  0.97696569900E+01 -0.19168197055E+01  0.10055900534E+02  0.51100000000E-03 0. -1.
        -11    1    3    3    0    0  0.19256795411E+01 -0.35209867654E+01 -0.73778897482E+01  0.83987407922E+01  0.51100000000E-03 0.  1.
        -12    1    3    3    0    0 -0.12049236851E+02  0.27008374556E+02 -0.12414444559E+02  0.32074208308E+02  0.00000000000E+00 0.  1.
</event>
<event>
 7    1  0.5910662E-013  0.5052885E+02  0.7816164E-02  0.1300439E+00
        -11   -1    0    0    0    0  0.00000000000E+00  0.00000000000E+00  0.45593999997E+02  0.45594000000E+02  0.51100000000E-03 0. -1.
         11   -1    0    0    0    0 -0.00000000000E+00 -0.00000000000E+00 -0.45593999997E+02  0.45594000000E+02  0.51100000000E-03 0.  1.
    9900012    2    1    2    0    0  0.88839880942E+01  0.39512167821E+02 -0.36096712729E+01  0.50528851250E+02  0.29999973860E+02 0.  0.
         12    1    1    2    0    0 -0.88839880942E+01 -0.39512167821E+02  0.36096712729E+01  0.40659148750E+02  0.00000000000E+00 0. -1.
         11    1    3    3    0    0  0.15165293711E+02  0.17238827384E+02  0.83631957973E+00  0.22975263515E+02  0.51100000000E-03 0. -1.
        -11    1    3    3    0    0 -0.42138610225E+01  0.11638949654E+02 -0.94957424293E+01  0.15600990299E+02  0.51100000000E-03 0.  1.
         12    1    3    3    0    0 -0.20674445939E+01  0.10634390784E+02  0.50497515767E+01  0.11952597436E+02  0.00000000000E+00 0. -1.
</event>
<event>
 7    1  0.5910662E-013  0.5052881E+02  0.7816164E-02  0.1300439E+00
        -11   -1    0    0    0    0  0.00000000000E+00  0.00000000000E+00  0.45593999997E+02  0.45594000000E+02  0.51100000000E-03 0. -1.
         11   -1    0    0    0    0 -0.00000000000E+00 -0.00000000000E+00 -0.45593999997E+02  0.45594000000E+02  0.51100000000E-03 0.  1.
    9900012    2    1    2    0    0 -0.50092249419E+01  0.24225253465E+02 -0.32267850212E+02  0.50528814109E+02  0.29999860967E+02 0.  0.
         12    1    1    2    0    0  0.50092249419E+01 -0.24225253465E+02  0.32267850212E+02  0.40659185891E+02  0.00000000000E+00 0. -1.
         11    1    3    3    0    0 -0.30618765422E+01  0.16070482022E+02 -0.84330010348E+00  0.16381289195E+02  0.51100000000E-03 0.  1.
        -11    1    3    3    0    0 -0.12232999125E+01 -0.27488950846E+00 -0.19423400167E+02  0.19463825452E+02  0.51100000000E-03 0. -1.
        -12    1    3    3    0    0 -0.72404848718E+00  0.84296609519E+01 -0.12001149942E+02  0.14683699462E+02  0.00000000000E+00 0.  1.
</event>
<event>
 7    1  0.5910662E-013  0.5052883E+02  0.7816164E-02  0.1300439E+00
        -11   -1    0    0    0    0  0.00000000000E+00  0.00000000000E+00  0.45593999997E+02  0.45594000000E+02  0.51100000000E-03 0. -1.
         11   -1    0    0    0    0 -0.00000000000E+00 -0.00000000000E+00 -0.45593999997E+02  0.45594000000E+02  0.51100000000E-03 0.  1.
    9900012    2    1    2    0    0  0.36068401777E+02  0.15728982545E+02 -0.10239008655E+02  0.50528833790E+02  0.29999920787E+02 0.  0.
         12    1    1    2    0    0 -0.36068401777E+02 -0.15728982545E+02  0.10239008655E+02  0.40659166210E+02  0.00000000000E+00 0. -1.
         11    1    3    3    0    0  0.70226175277E+01  0.55333906424E+01  0.82493365293E+01  0.12164995782E+02  0.51100000000E-03 0. -1.
        -11    1    3    3    0    0  0.90324866485E+01  0.10016625362E+02 -0.59129215422E+01  0.14726888338E+02  0.51100000000E-03 0.  1.
         12    1    3    3    0    0  0.20013297601E+02  0.17896654062E+00 -0.12575423642E+02  0.23636949669E+02  0.00000000000E+00 0. -1.
</event>
<event>
 7    1  0.5910662E-013  0.5052880E+02  0.7816164E-02  0.1300439E+00
        -11   -1    0    0    0    0  0.00000000000E+00  0.00000000000E+00  0.45593999997E+02  0.45594000000E+02  0.51100000000E-03 0.  1.
         11   -1    0    0    0    0 -0.00000000000E+00 -0.00000000000E+00 -0.45593999997E+02  0.45594000000E+02  0.51100000000E-03 0. -1.
    9900012    2    1    2    0    0 -0.23065958402E+02  0.28032886920E+02  0.18310919201E+02  0.50528795039E+02  0.29999803000E+02 0.  0.
         12    1    1    2    0    0  0.23065958402E+02 -0.28032886920E+02 -0.18310919201E+02  0.40659204961E+02  0.00000000000E+00 0. -1.
         11    1    3    3    0    0 -0.21134444607E+01  0.65726525941E+01 -0.36749855726E+01  0.78212485468E+01  0.51100000000E-03 0. -1.
        -11    1    3    3    0    0 -0.17351163323E+02  0.17007866707E+02  0.26098255426E+02  0.35657388226E+02  0.51100000000E-03 0.  1.
        -12    1    3    3    0    0 -0.36013506181E+01  0.44523676190E+01 -0.41123506519E+01  0.70501582658E+01  0.00000000000E+00 0.  1.
</event>
<event>
 7    1  0.5910662E-013  0.5052886E+02  0.7816164E-02  0.1300439E+00
        -11   -1    0    0    0    0  0.00000000000E+00  0.00000000000E+00  0.45593999997E+02  0.45594000000E+02  0.51100000000E-03 0.  1.
         11   -1    0    0    0    0 -0.00000000000E+00 -0.00000000000E+00 -0.45593999997E+02  0.45594000000E+02  0.51100000000E-03 0. -1.
    9900012    2    1    2    0    0 -0.16394482152E+01  0.15921494894E+02  0.37376245653E+02  0.50528861677E+02  0.30000005553E+02 0.  0.
         12    1    1    2    0    0  0.16394482152E+01 -0.15921494894E+02 -0.37376245653E+02  0.40659138323E+02  0.00000000000E+00 0. -1.
         11    1    3    3    0    0 -0.50530061425E+01  0.95347677331E+01  0.21674513702E+01  0.11006475935E+02  0.51100000000E-03 0. -1.
        -11    1    3    3    0    0  0.67475712792E+01  0.16688920735E+01  0.32328255989E+02  0.33067069034E+02  0.51100000000E-03 0.  1.
        -12    1    3    3    0    0 -0.33340133519E+01  0.47178350874E+01  0.28805382930E+01  0.64553167080E+01  0.00000000000E+00 0.  1.
</event>
<event>
 7    1  0.5910662E-013  0.5052891E+02  0.7816164E-02  0.1300439E+00
        -11   -1    0    0    0    0  0.00000000000E+00  0.00000000000E+00  0.45593999997E+02  0.45594000000E+02  0.51100000000E-03 0.  1.
         11   -1    0    0    0    0 -0.00000000000E+00 -0.00000000000E+00 -0.45593999997E+02  0.45594000000E+02  0.51100000000E-03 0. -1.
    9900012    2    1    2    0    0 -0.52246934125E+01  0.24909116480E+02  0.31708050775E+02  0.50528905212E+02  0.30000137881E+02 0.  0.
         12    1    1    2    0    0  0.52246934125E+01 -0.24909116480E+02 -0.31708050775E+02  0.40659094788E+02  0.00000000000E+00 0. -1.
         11    1    3    3    0    0  0.51712388541E+01 -0.37744479249E+01  0.21530515004E+01  0.67545391737E+01  0.51100000000E-03 0. -1.
        -11    1    3    3    0    0 -0.52485066086E+01  0.10389842330E+02  0.18297269345E+02  0.21686071821E+02  0.51100000000E-03 0.  1.
        -12    1    3    3    0    0 -0.51474256580E+01  0.18293722075E+02  0.11257729929E+02  0.22088294217E+02  0.00000000000E+00 0.  1.
</event>
<event>
 7    1  0.5910662E-013  0.5052886E+02  0.7816164E-02  0.1300439E+00
        -11   -1    0    0    0    0  0.00000000000E+00  0.00000000000E+00  0.45593999997E+02  0.45594000000E+02  0.51100000000E-03 0. -1.
         11   -1    0    0    0    0 -0.00000000000E+00 -0.00000000000E+00 -0.45593999997E+02  0.45594000000E+02  0.51100000000E-03 0.  1.
    9900012    2    1    2    0    0 -0.33089716840E+02  0.23585607405E+02 -0.13982604915E+01  0.50528863639E+02  0.30000011518E+02 0.  0.
         12    1    1    2    0    0  0.33089716840E+02 -0.23585607405E+02  0.13982604915E+01  0.40659136361E+02  0.00000000000E+00 0. -1.
         11    1    3    3    0    0 -0.28236998094E+00  0.21647128510E+01  0.21454678685E+01  0.30608409252E+01  0.51100000000E-03 0. -1.
        -11    1    3    3    0    0 -0.16787643386E+02  0.16297151884E+02 -0.14377646145E+02  0.27461588427E+02  0.51100000000E-03 0.  1.
        -12    1    3    3    0    0 -0.16019703473E+02  0.51237426697E+01  0.10833917785E+02  0.20006434287E+02  0.00000000000E+00 0.  1.
</event>
<event>
 7    1  0.5910662E-013  0.5052886E+02  0.7816164E-02  0.1300439E+00
        -11   -1    0    0    0    0  0.00000000000E+00  0.00000000000E+00  0.45593999997E+02  0.45594000000E+02  0.51100000000E-03 0. -1.
         11   -1    0    0    0    0 -0.00000000000E+00 -0.00000000000E+00 -0.45593999997E+02  0.45594000000E+02  0.51100000000E-03 0.  1.
    9900012    2    1    2    0    0 -0.24702901749E+02 -0.26870841438E+02 -0.17913417396E+02  0.50528855921E+02  0.29999988058E+02 0.  0.
         12    1    1    2    0    0  0.24702901749E+02  0.26870841438E+02  0.17913417396E+02  0.40659144079E+02  0.00000000000E+00 0. -1.
         11    1    3    3    0    0 -0.93659329742E+01 -0.15980561253E+02 -0.47854096341E+01  0.19131105145E+02  0.51100000000E-03 0. -1.
        -11    1    3    3    0    0  0.33473310897E+01  0.35031359837E+01 -0.13214831817E+01  0.50222410541E+01  0.51100000000E-03 0.  1.
        -12    1    3    3    0    0 -0.18684299865E+02 -0.14393416169E+02 -0.11806524580E+02  0.26375509722E+02  0.00000000000E+00 0.  1.
</event>
<event>
 7    1  0.5910662E-013  0.5052887E+02  0.7816164E-02  0.1300439E+00
        -11   -1    0    0    0    0  0.00000000000E+00  0.00000000000E+00  0.45593999997E+02  0.45594000000E+02  0.51100000000E-03 0. -1.
         11   -1    0    0    0    0 -0.00000000000E+00 -0.00000000000E+00 -0.45593999997E+02  0.45594000000E+02  0.51100000000E-03 0.  1.
    9900012    2    1    2    0    0 -0.32350217684E+01 -0.34732596155E+02 -0.20888912247E+02  0.50528865032E+02  0.30000015751E+02 0.  0.
         12    1    1    2    0    0  0.32350217684E+01  0.34732596155E+02  0.20888912247E+02  0.40659134968E+02  0.00000000000E+00 0. -1.
         11    1    3    3    0    0  0.71832028291E+01 -0.21370040366E+02 -0.82212119222E+01  0.23997194708E+02  0.51100000000E-03 0. -1.
        -11    1    3    3    0    0 -0.11562591228E+02 -0.66566748959E+01 -0.14607245786E+01  0.13421570442E+02  0.51100000000E-03 0.  1.
        -12    1    3    3    0    0  0.11443666302E+01 -0.67058808933E+01 -0.11206975746E+02  0.13110099882E+02  0.00000000000E+00 0.  1.
</event>
<event>
 7    1  0.5910662E-013  0.5052875E+02  0.7816164E-02  0.1300439E+00
        -11   -1    0    0    0    0  0.00000000000E+00  0.00000000000E+00  0.45593999997E+02  0.45594000000E+02  0.51100000000E-03 0.  1.
         11   -1    0    0    0    0 -0.00000000000E+00 -0.00000000000E+00 -0.45593999997E+02  0.45594000000E+02  0.51100000000E-03 0. -1.
    9900012    2    1    2    0    0 -0.50333767240E+01  0.31758084705E+02  0.24885013576E+02  0.50528748580E+02  0.29999661780E+02 0.  0.
         12    1    1    2    0    0  0.50333767240E+01 -0.31758084705E+02 -0.24885013576E+02  0.40659251420E+02  0.00000000000E+00 0. -1.
         11    1    3    3    0    0 -0.10581709100E+02  0.30922954554E+02  0.14203540299E+02  0.35636249005E+02  0.51100000000E-03 0. -1.
        -11    1    3    3    0    0  0.17817266348E+01  0.40093291363E+01  0.18116269309E+01  0.47467106845E+01  0.51100000000E-03 0.  1.
         12    1    3    3    0    0  0.37666057408E+01 -0.31741989851E+01  0.88698463463E+01  0.10145788890E+02  0.00000000000E+00 0. -1.
</event>
<event>
 7    1  0.5910662E-013  0.5052886E+02  0.7816164E-02  0.1300439E+00
        -11   -1    0    0    0    0  0.00000000000E+00  0.00000000000E+00  0.45593999997E+02  0.45594000000E+02  0.51100000000E-03 0.  1.
         11   -1    0    0    0    0 -0.00000000000E+00 -0.00000000000E+00 -0.45593999997E+02  0.45594000000E+02  0.51100000000E-03 0. -1.
    9900012    2    1    2    0    0 -0.69157391596E+01  0.27573014718E+02  0.29070039664E+02  0.50528858410E+02  0.29999995622E+02 0.  0.
         12    1    1    2    0    0  0.69157391596E+01 -0.27573014718E+02 -0.29070039664E+02  0.40659141590E+02  0.00000000000E+00 0. -1.
         11    1    3    3    0    0  0.94190820706E+00  0.13221203895E+02  0.10531502615E+02  0.16929263749E+02  0.51100000000E-03 0. -1.
        -11    1    3    3    0    0 -0.14975740565E+02  0.11074550800E+02  0.17741044606E+02  0.25722813704E+02  0.51100000000E-03 0.  1.
        -12    1    3    3    0    0  0.71180931980E+01  0.32772600238E+01  0.79749244323E+00  0.78767809565E+01  0.00000000000E+00 0.  1.
</event>
<event>
 7    1  0.5910662E-013  0.5052880E+02  0.7816164E-02  0.1300439E+00
        -11   -1    0    0    0    0  0.00000000000E+00  0.00000000000E+00  0.45593999997E+02  0.45594000000E+02  0.51100000000E-03 0.  1.
         11   -1    0    0    0    0 -0.00000000000E+00 -0.00000000000E+00 -0.45593999997E+02  0.45594000000E+02  0.51100000000E-03 0. -1.
    9900012    2    1    2    0    0 -0.15250676420E+02 -0.21254149751E+02  0.31126330429E+02  0.50528801054E+02  0.29999821284E+02 0.  0.
         12    1    1    2    0    0  0.15250676420E+02  0.21254149751E+02 -0.31126330429E+02  0.40659198946E+02  0.00000000000E+00 0. -1.
         11    1    3    3    0    0  0.33854265482E+01 -0.66155094719E+01  0.18160742027E+02  0.19622401222E+02  0.51100000000E-03 0. -1.
        -11    1    3    3    0    0 -0.12750328354E+02 -0.17382819770E+02  0.10170474255E+02  0.23836355491E+02  0.51100000000E-03 0.  1.
         12    1    3    3    0    0 -0.58857746145E+01  0.27441794907E+01  0.27951141479E+01  0.70700443414E+01  0.00000000000E+00 0. -1.
</event>
<event>
 7    1  0.5910662E-013  0.5052883E+02  0.7816164E-02  0.1300439E+00
        -11   -1    0    0    0    0  0.00000000000E+00  0.00000000000E+00  0.45593999997E+02  0.45594000000E+02  0.51100000000E-03 0.  1.
         11   -1    0    0    0    0 -0.00000000000E+00 -0.00000000000E+00 -0.45593999997E+02  0.45594000000E+02  0.51100000000E-03 0. -1.
    9900012    2    1    2    0    0  0.28113266155E+02  0.27191713705E+02  0.11109604498E+02  0.50528827109E+02  0.29999900479E+02 0.  0.
         12    1    1    2    0    0 -0.28113266155E+02 -0.27191713705E+02 -0.11109604498E+02  0.40659172891E+02  0.00000000000E+00 0. -1.
         11    1    3    3    0    0  0.25616870845E+02  0.12410389089E+02 -0.23924195323E+01  0.28565109850E+02  0.51100000000E-03 0. -1.
        -11    1    3    3    0    0 -0.94016191721E+00  0.47573431222E+01  0.63379017346E-01  0.48497665071E+01  0.51100000000E-03 0.  1.
         12    1    3    3    0    0  0.34365572266E+01  0.10023981494E+02  0.13438645013E+02  0.17113950752E+02  0.00000000000E+00 0. -1.
</event>
<event>
 7    1  0.5910662E-013  0.5052886E+02  0.7816164E-02  0.1300439E+00
        -11   -1    0    0    0    0  0.00000000000E+00  0.00000000000E+00  0.45593999997E+02  0.45594000000E+02  0.51100000000E-03 0. -1.
         11   -1    0    0    0    0 -0.00000000000E+00 -0.00000000000E+00 -0.45593999997E+02  0.45594000000E+02  0.51100000000E-03 0.  1.
    9900012    2    1    2    0    0 -0.22140375387E+02  0.28077966451E+02  0.19354518390E+02  0.50528858293E+02  0.29999995267E+02 0.  0.
         12    1    1    2    0    0  0.22140375387E+02 -0.28077966451E+02 -0.19354518390E+02  0.40659141707E+02  0.00000000000E+00 0. -1.
         11    1    3    3    0    0 -0.11180070798E+02  0.27666519890E+02  0.11118957157E+02  0.31844332532E+02  0.51100000000E-03 0. -1.
        -11    1    3    3    0    0 -0.10062015834E+02  0.36883094424E+01  0.10170423618E+02  0.14774481582E+02  0.51100000000E-03 0.  1.
         12    1    3    3    0    0 -0.89828875451E+00 -0.32768628815E+01 -0.19348623856E+01  0.39100441790E+01  0.00000000000E+00 0. -1.
</event>
<event>
 7    1  0.5910662E-013  0.5052884E+02  0.7816164E-02  0.1300439E+00
        -11   -1    0    0    0    0  0.00000000000E+00  0.00000000000E+00  0.45593999997E+02  0.45594000000E+02  0.51100000000E-03 0.  1.
         11   -1    0    0    0    0 -0.00000000000E+00 -0.00000000000E+00 -0.45593999997E+02  0.45594000000E+02  0.51100000000E-03 0. -1.
    9900012    2    1    2    0    0 -0.15559343521E+01  0.26963666312E+02  0.30392544354E+02  0.50528843774E+02  0.29999951135E+02 0.  0.
         12    1    1    2    0    0  0.15559343521E+01 -0.26963666312E+02 -0.30392544354E+02  0.40659156226E+02  0.00000000000E+00 0. -1.
         11    1    3    3    0    0 -0.15097630757E+02  0.11585736836E+02  0.15283390957E+02  0.24407986232E+02  0.51100000000E-03 0. -1.
        -11    1    3    3    0    0  0.12715393214E+02  0.11135197698E+02  0.11066324612E+02  0.20202410575E+02  0.51100000000E-03 0.  1.
         12    1    3    3    0    0  0.82630319149E+00  0.42427317783E+01  0.40428287855E+01  0.59184469665E+01  0.00000000000E+00 0. -1.
</event>
<event>
 7    1  0.5910662E-013  0.5052886E+02  0.7816164E-02  0.1300439E+00
        -11   -1    0    0    0    0  0.00000000000E+00  0.00000000000E+00  0.45593999997E+02  0.45594000000E+02  0.51100000000E-03 0.  1.
         11   -1    0    0    0    0 -0.00000000000E+00 -0.00000000000E+00 -0.45593999997E+02  0.45594000000E+02  0.51100000000E-03 0. -1.
    9900012    2    1    2    0    0 -0.19001902297E+01  0.13900763167E+02  0.38161805289E+02  0.50528864219E+02  0.30000013281E+02 0.  0.
         12    1    1    2    0    0  0.19001902297E+01 -0.13900763167E+02 -0.38161805289E+02  0.40659135781E+02  0.00000000000E+00 0. -1.
         11    1    3    3    0    0  0.54503714680E+01 -0.23076186356E+01  0.72060922187E+01  0.93252033883E+01  0.51100000000E-03 0. -1.
        -11    1    3    3    0    0 -0.79136259998E+01  0.15871001404E+01  0.13552765840E+01  0.81842005231E+01  0.51100000000E-03 0.  1.
        -12    1    3    3    0    0  0.56306430222E+00  0.14621281662E+02  0.29600436486E+02  0.33019460308E+02  0.00000000000E+00 0.  1.
</event>
<event>
 7    1  0.5910662E-013  0.5052886E+02  0.7816164E-02  0.1300439E+00
        -11   -1    0    0    0    0  0.00000000000E+00  0.00000000000E+00  0.45593999997E+02  0.45594000000E+02  0.51100000000E-03 0. -1.
         11   -1    0    0    0    0 -0.00000000000E+00 -0.00000000000E+00 -0.45593999997E+02  0.45594000000E+02  0.51100000000E-03 0.  1.
    9900012    2    1    2    0    0 -0.17625819839E+02  0.34907559519E+02 -0.11133645601E+02  0.50528864484E+02  0.30000014086E+02 0.  0.
         12    1    1    2    0    0  0.17625819839E+02 -0.34907559519E+02  0.11133645601E+02  0.40659135516E+02  0.00000000000E+00 0. -1.
         11    1    3    3    0    0  0.38531739160E+01  0.73507539849E+01 -0.29846113006E+01  0.88197754081E+01  0.51100000000E-03 0. -1.
        -11    1    3    3    0    0 -0.23076365254E+02  0.13456697307E+02 -0.51433258428E+01  0.27203954431E+02  0.51100000000E-03 0.  1.
        -12    1    3    3    0    0  0.15973714989E+01  0.14100108227E+02 -0.30057084577E+01  0.14505134645E+02  0.00000000000E+00 0.  1.
</event>
<event>
 7    1  0.5910662E-013  0.5052885E+02  0.7816164E-02  0.1300439E+00
        -11   -1    0    0    0    0  0.00000000000E+00  0.00000000000E+00  0.45593999997E+02  0.45594000000E+02  0.51100000000E-03 0. -1.
         11   -1    0    0    0    0 -0.00000000000E+00 -0.00000000000E+00 -0.45593999997E+02  0.45594000000E+02  0.51100000000E-03 0.  1.
    9900012    2    1    2    0    0  0.44630462801E+01  0.18650314453E+02 -0.35852658843E+02  0.50528853952E+02  0.29999982072E+02 0.  0.
         12    1    1    2    0    0 -0.44630462801E+01 -0.18650314453E+02  0.35852658843E+02  0.40659146048E+02  0.00000000000E+00 0. -1.
         11    1    3    3    0    0 -0.43911288480E+01  0.94472720758E+01 -0.21619510102E+01  0.10639877568E+02  0.51100000000E-03 0. -1.
        -11    1    3    3    0    0  0.45427656065E+01  0.90142847887E+01 -0.34091821679E+02  0.35554835891E+02  0.51100000000E-03 0.  1.
         12    1    3    3    0    0  0.43114095216E+01  0.18875758827E+00  0.40111384622E+00  0.43341404924E+01  0.00000000000E+00 0. -1.
</event>
<event>
 7    1  0.5910662E-013  0.5052887E+02  0.7816164E-02  0.1300439E+00
        -11   -1    0    0    0    0  0.00000000000E+00  0.00000000000E+00  0.45593999997E+02  0.45594000000E+02  0.51100000000E-03 0. -1.
         11   -1    0    0    0    0 -0.00000000000E+00 -0.00000000000E+00 -0.45593999997E+02  0.45594000000E+02  0.51100000000E-03 0.  1.
    9900012    2    1    2    0    0 -0.35509297979E+02 -0.19435068152E+02  0.38122058939E+01  0.50528867806E+02  0.30000024182E+02 0.  0.
         12    1    1    2    0    0  0.35509297979E+02  0.19435068152E+02 -0.38122058939E+01  0.40659132194E+02  0.00000000000E+00 0. -1.
         11    1    3    3    0    0 -0.26596003387E+02 -0.64687266504E+01  0.10986024099E+02  0.29493805221E+02  0.51100000000E-03 0. -1.
        -11    1    3    3    0    0 -0.10388883663E+02 -0.10661185117E+02 -0.17869587783E+01  0.14992764715E+02  0.51100000000E-03 0.  1.
         12    1    3    3    0    0  0.14755890708E+01 -0.23051563840E+01 -0.53868594268E+01  0.60422978696E+01  0.00000000000E+00 0. -1.
</event>
<event>
 7    1  0.5910662E-013  0.5052886E+02  0.7816164E-02  0.1300439E+00
        -11   -1    0    0    0    0  0.00000000000E+00  0.00000000000E+00  0.45593999997E+02  0.45594000000E+02  0.51100000000E-03 0. -1.
         11   -1    0    0    0    0 -0.00000000000E+00 -0.00000000000E+00 -0.45593999997E+02  0.45594000000E+02  0.51100000000E-03 0.  1.
    9900012    2    1    2    0    0  0.37098386031E+02  0.15067266698E+02 -0.70606684803E+01  0.50528858208E+02  0.29999995008E+02 0.  0.
         12    1    1    2    0    0 -0.37098386031E+02 -0.15067266698E+02  0.70606684803E+01  0.40659141792E+02  0.00000000000E+00 0. -1.
         11    1    3    3    0    0  0.21583557884E+02 -0.44281566862E+01 -0.55573778669E+01  0.22723181810E+02  0.51100000000E-03 0. -1.
        -11    1    3    3    0    0  0.17368480876E+02  0.16276726666E+02 -0.25690127163E+01  0.23941507586E+02  0.51100000000E-03 0.  1.
         12    1    3    3    0    0 -0.18536527284E+01  0.32186967183E+01  0.10657221029E+01  0.38641688114E+01  0.00000000000E+00 0. -1.
</event>
<event>
 7    1  0.5910662E-013  0.5052886E+02  0.7816164E-02  0.1300439E+00
        -11   -1    0    0    0    0  0.00000000000E+00  0.00000000000E+00  0.45593999997E+02  0.45594000000E+02  0.51100000000E-03 0.  1.
         11   -1    0    0    0    0 -0.00000000000E+00 -0.00000000000E+00 -0.45593999997E+02  0.45594000000E+02  0.51100000000E-03 0. -1.
    9900012    2    1    2    0    0  0.16612235295E+02  0.20711530369E+02  0.30793370812E+02  0.50528861573E+02  0.30000005236E+02 0.  0.
         12    1    1    2    0    0 -0.16612235295E+02 -0.20711530369E+02 -0.30793370812E+02  0.40659138427E+02  0.00000000000E+00 0. -1.
         11    1    3    3    0    0 -0.82041879626E+01  0.88336529267E+01  0.85818492933E+01  0.14798319557E+02  0.51100000000E-03 0. -1.
        -11    1    3    3    0    0  0.59025942413E+01  0.24314297232E+01  0.80946139259E+01  0.10308988512E+02  0.51100000000E-03 0.  1.
         12    1    3    3    0    0  0.18913829016E+02  0.94464477188E+01  0.14116907593E+02  0.25421553503E+02  0.00000000000E+00 0. -1.
</event>
<event>
 7    1  0.5910662E-013  0.5052886E+02  0.7816164E-02  0.1300439E+00
        -11   -1    0    0    0    0  0.00000000000E+00  0.00000000000E+00  0.45593999997E+02  0.45594000000E+02  0.51100000000E-03 0.  1.
         11   -1    0    0    0    0 -0.00000000000E+00 -0.00000000000E+00 -0.45593999997E+02  0.45594000000E+02  0.51100000000E-03 0. -1.
    9900012    2    1    2    0    0 -0.92782513345E+01 -0.39503871838E+02  0.25541827435E+01  0.50528859730E+02  0.29999999636E+02 0.  0.
         12    1    1    2    0    0  0.92782513345E+01  0.39503871838E+02 -0.25541827435E+01  0.40659140270E+02  0.00000000000E+00 0. -1.
         11    1    3    3    0    0 -0.58647784798E+01 -0.24713888645E+02  0.73948787126E+01  0.26454794461E+02  0.51100000000E-03 0.  1.
        -11    1    3    3    0    0  0.35153859333E+01 -0.72486618590E+00 -0.73649081745E+01  0.81929995684E+01  0.51100000000E-03 0. -1.
         12    1    3    3    0    0 -0.69288587879E+01 -0.14065117007E+02  0.25242122054E+01  0.15881065701E+02  0.00000000000E+00 0. -1.
</event>
<event>
 7    1  0.5910662E-013  0.5052886E+02  0.7816164E-02  0.1300439E+00
        -11   -1    0    0    0    0  0.00000000000E+00  0.00000000000E+00  0.45593999997E+02  0.45594000000E+02  0.51100000000E-03 0. -1.
         11   -1    0    0    0    0 -0.00000000000E+00 -0.00000000000E+00 -0.45593999997E+02  0.45594000000E+02  0.51100000000E-03 0.  1.
    9900012    2    1    2    0    0 -0.30244462239E+02  0.11810181799E+01 -0.27148544597E+02  0.50528858668E+02  0.29999996409E+02 0.  0.
         12    1    1    2    0    0  0.30244462239E+02 -0.11810181799E+01  0.27148544597E+02  0.40659141332E+02  0.00000000000E+00 0. -1.
         11    1    3    3    0    0 -0.19986691104E+02 -0.32202936328E+00 -0.18120923024E+02  0.26980351660E+02  0.51100000000E-03 0. -1.
        -11    1    3    3    0    0  0.22062315841E+01 -0.41852822082E+01 -0.86303170494E+01  0.98420738464E+01  0.51100000000E-03 0.  1.
         12    1    3    3    0    0 -0.12464002720E+02  0.56883297514E+01 -0.39730452405E+00  0.13706433162E+02  0.00000000000E+00 0. -1.
</event>
<event>
 7    1  0.5910662E-013  0.5052886E+02  0.7816164E-02  0.1300439E+00
        -11   -1    0    0    0    0  0.00000000000E+00  0.00000000000E+00  0.45593999997E+02  0.45594000000E+02  0.51100000000E-03 0.  1.
         11   -1    0    0    0    0 -0.00000000000E+00 -0.00000000000E+00 -0.45593999997E+02  0.45594000000E+02  0.51100000000E-03 0. -1.
    9900012    2    1    2    0    0 -0.16495886595E+02 -0.27496013595E+02  0.25000413748E+02  0.50528859259E+02  0.29999998205E+02 0.  0.
         12    1    1    2    0    0  0.16495886595E+02  0.27496013595E+02 -0.25000413748E+02  0.40659140741E+02  0.00000000000E+00 0. -1.
         11    1    3    3    0    0 -0.21320902783E+01  0.25459863526E+01 -0.33820404470E+01  0.47398368441E+01  0.51100000000E-03 0. -1.
        -11    1    3    3    0    0 -0.11698555860E+02 -0.22349087756E+02  0.12984978871E+02  0.28371598638E+02  0.51100000000E-03 0.  1.
         12    1    3    3    0    0 -0.26652404565E+01 -0.76929121921E+01  0.15397475324E+02  0.17417423778E+02  0.00000000000E+00 0. -1.
</event>
<event>
 7    1  0.5910662E-013  0.5052886E+02  0.7816164E-02  0.1300439E+00
        -11   -1    0    0    0    0  0.00000000000E+00  0.00000000000E+00  0.45593999997E+02  0.45594000000E+02  0.51100000000E-03 0. -1.
         11   -1    0    0    0    0 -0.00000000000E+00 -0.00000000000E+00 -0.45593999997E+02  0.45594000000E+02  0.51100000000E-03 0.  1.
    9900012    2    1    2    0    0 -0.14783802894E+02 -0.37401969380E+02 -0.59747166836E+01  0.50528863499E+02  0.30000011092E+02 0.  0.
         12    1    1    2    0    0  0.14783802894E+02  0.37401969380E+02  0.59747166836E+01  0.40659136501E+02  0.00000000000E+00 0. -1.
         11    1    3    3    0    0  0.10689000970E+01  0.43829448502E+01 -0.35550564659E+00  0.45253881053E+01  0.51100000000E-03 0. -1.
        -11    1    3    3    0    0 -0.11423340051E+02 -0.37930585135E+02 -0.35262278915E+01  0.39770042369E+02  0.51100000000E-03 0.  1.
         12    1    3    3    0    0 -0.44293629400E+01 -0.38543290954E+01 -0.20929831454E+01  0.62334330250E+01  0.00000000000E+00 0. -1.
</event>
<event>
 7    1  0.5910662E-013  0.5052886E+02  0.7816164E-02  0.1300439E+00
        -11   -1    0    0    0    0  0.00000000000E+00  0.00000000000E+00  0.45593999997E+02  0.45594000000E+02  0.51100000000E-03 0.  1.
         11   -1    0    0    0    0 -0.00000000000E+00 -0.00000000000E+00 -0.45593999997E+02  0.45594000000E+02  0.51100000000E-03 0. -1.
    9900012    2    1    2    0    0  0.15360499027E+02  0.27718239397E+02  0.25473914560E+02  0.50528855289E+02  0.29999986136E+02 0.  0.
         12    1    1    2    0    0 -0.15360499027E+02 -0.27718239397E+02 -0.25473914560E+02  0.40659144711E+02  0.00000000000E+00 0. -1.
         11    1    3    3    0    0  0.82712963439E+00  0.81998734460E+00  0.11486673931E+02  0.11545570619E+02  0.51100000000E-03 0. -1.
        -11    1    3    3    0    0  0.19302206016E+02  0.22105200173E+02  0.13192594897E+02  0.32175450147E+02  0.51100000000E-03 0.  1.
        -12    1    3    3    0    0 -0.47688366228E+01  0.47930518791E+01  0.79464573278E+00  0.68078345228E+01  0.00000000000E+00 0.  1.
</event>
<event>
 7    1  0.5910662E-013  0.5052886E+02  0.7816164E-02  0.1300439E+00
        -11   -1    0    0    0    0  0.00000000000E+00  0.00000000000E+00  0.45593999997E+02  0.45594000000E+02  0.51100000000E-03 0. -1.
         11   -1    0    0    0    0 -0.00000000000E+00 -0.00000000000E+00 -0.45593999997E+02  0.45594000000E+02  0.51100000000E-03 0.  1.
    9900012    2    1    2    0    0 -0.66282280836E+00  0.31634288679E+02 -0.25534260185E+02  0.50528855918E+02  0.29999988048E+02 0.  0.
         12    1    1    2    0    0  0.66282280836E+00 -0.31634288679E+02  0.25534260185E+02  0.40659144082E+02  0.00000000000E+00 0. -1.
         11    1    3    3    0    0 -0.88917350321E+01  0.31590068457E+01 -0.12733231142E+02  0.15848578854E+02  0.51100000000E-03 0. -1.
        -11    1    3    3    0    0  0.55997040580E+01  0.28657841872E+02 -0.13145394857E+02  0.32022335838E+02  0.51100000000E-03 0.  1.
        -12    1    3    3    0    0  0.26292081657E+01 -0.18256003919E+00  0.34436581312E+00  0.26579412258E+01  0.00000000000E+00 0.  1.
</event>
<event>
 7    1  0.5910662E-013  0.5052888E+02  0.7816164E-02  0.1300439E+00
        -11   -1    0    0    0    0  0.00000000000E+00  0.00000000000E+00  0.45593999997E+02  0.45594000000E+02  0.51100000000E-03 0.  1.
         11   -1    0    0    0    0 -0.00000000000E+00 -0.00000000000E+00 -0.45593999997E+02  0.45594000000E+02  0.51100000000E-03 0. -1.
    9900012    2    1    2    0    0  0.35901311034E+00 -0.72023087478E+01  0.40014526056E+02  0.50528875105E+02  0.30000046370E+02 0.  0.
         12    1    1    2    0    0 -0.35901311034E+00  0.72023087478E+01 -0.40014526056E+02  0.40659124895E+02  0.00000000000E+00 0. -1.
         11    1    3    3    0    0  0.71381776988E+01 -0.10929249498E+02  0.11882759398E+02  0.17652253301E+02  0.51100000000E-03 0. -1.
        -11    1    3    3    0    0 -0.69009751814E+01  0.74073558171E+01  0.27278615668E+02  0.29096653617E+02  0.51100000000E-03 0.  1.
        -12    1    3    3    0    0  0.12181059292E+00 -0.36804150671E+01  0.85315099029E+00  0.37799681876E+01  0.00000000000E+00 0.  1.
</event>
<event>
 7    1  0.5910662E-013  0.5052886E+02  0.7816164E-02  0.1300439E+00
        -11   -1    0    0    0    0  0.00000000000E+00  0.00000000000E+00  0.45593999997E+02  0.45594000000E+02  0.51100000000E-03 0. -1.
         11   -1    0    0    0    0 -0.00000000000E+00 -0.00000000000E+00 -0.45593999997E+02  0.45594000000E+02  0.51100000000E-03 0.  1.
    9900012    2    1    2    0    0  0.26719676010E+02  0.30212788355E+02  0.51392913440E+01  0.50528856111E+02  0.29999988635E+02 0.  0.
         12    1    1    2    0    0 -0.26719676010E+02 -0.30212788355E+02 -0.51392913440E+01  0.40659143889E+02  0.00000000000E+00 0. -1.
         11    1    3    3    0    0  0.11997970360E+02  0.15222306585E+02 -0.11887137296E+02  0.22737061022E+02  0.51100000000E-03 0. -1.
        -11    1    3    3    0    0  0.12331372989E-01 -0.38833527761E+00 -0.17705479368E+00  0.42697190971E+00  0.51100000000E-03 0.  1.
         12    1    3    3    0    0  0.14709374277E+02  0.15378817047E+02  0.17203483434E+02  0.27364823180E+02  0.00000000000E+00 0. -1.
</event>
<event>
 7    1  0.5910662E-013  0.5052884E+02  0.7816164E-02  0.1300439E+00
        -11   -1    0    0    0    0  0.00000000000E+00  0.00000000000E+00  0.45593999997E+02  0.45594000000E+02  0.51100000000E-03 0.  1.
         11   -1    0    0    0    0 -0.00000000000E+00 -0.00000000000E+00 -0.45593999997E+02  0.45594000000E+02  0.51100000000E-03 0. -1.
    9900012    2    1    2    0    0 -0.24343185724E+01 -0.21717363007E+02  0.34286982142E+02  0.50528844730E+02  0.29999954040E+02 0.  0.
         12    1    1    2    0    0  0.24343185724E+01  0.21717363007E+02 -0.34286982142E+02  0.40659155270E+02  0.00000000000E+00 0. -1.
         11    1    3    3    0    0 -0.13019060216E+02 -0.13622625456E+02  0.26410028918E+02  0.32443203925E+02  0.51100000000E-03 0. -1.
        -11    1    3    3    0    0  0.10045790018E+02 -0.74371312191E+01  0.98651616303E+01  0.15923260725E+02  0.51100000000E-03 0.  1.
         12    1    3    3    0    0  0.53895162526E+00 -0.65760633220E+00 -0.19882084065E+01  0.21623800799E+01  0.00000000000E+00 0. -1.
</event>
<event>
 7    1  0.5910662E-013  0.5052885E+02  0.7816164E-02  0.1300439E+00
        -11   -1    0    0    0    0  0.00000000000E+00  0.00000000000E+00  0.45593999997E+02  0.45594000000E+02  0.51100000000E-03 0.  1.
         11   -1    0    0    0    0 -0.00000000000E+00 -0.00000000000E+00 -0.45593999997E+02  0.45594000000E+02  0.51100000000E-03 0. -1.
    9900012    2    1    2    0    0 -0.80828424128E+01  0.39653600782E+02 -0.39275813865E+01  0.50528852296E+02  0.29999977039E+02 0.  0.
         12    1    1    2    0    0  0.80828424128E+01 -0.39653600782E+02  0.39275813865E+01  0.40659147704E+02  0.00000000000E+00 0. -1.
         11    1    3    3    0    0 -0.16853395748E+01  0.42021067964E+01 -0.96248167240E+01  0.10636501692E+02  0.51100000000E-03 0. -1.
        -11    1    3    3    0    0 -0.11411925712E+02  0.19819139629E+02  0.13502770114E+01  0.22909683375E+02  0.51100000000E-03 0.  1.
         12    1    3    3    0    0  0.50144228743E+01  0.15632354357E+02  0.43469583261E+01  0.16982667229E+02  0.00000000000E+00 0. -1.
</event>
<event>
 7    1  0.5910662E-013  0.5052886E+02  0.7816164E-02  0.1300439E+00
        -11   -1    0    0    0    0  0.00000000000E+00  0.00000000000E+00  0.45593999997E+02  0.45594000000E+02  0.51100000000E-03 0. -1.
         11   -1    0    0    0    0 -0.00000000000E+00 -0.00000000000E+00 -0.45593999997E+02  0.45594000000E+02  0.51100000000E-03 0.  1.
    9900012    2    1    2    0    0 -0.27903513422E+02  0.19499044948E+02  0.22233909940E+02  0.50528861219E+02  0.30000004163E+02 0.  0.
         12    1    1    2    0    0  0.27903513422E+02 -0.19499044948E+02 -0.22233909940E+02  0.40659138781E+02  0.00000000000E+00 0. -1.
         11    1    3    3    0    0  0.12297885521E+01  0.61225164557E+01 -0.38354604987E+01  0.73285977603E+01  0.51100000000E-03 0. -1.
        -11    1    3    3    0    0 -0.18608288719E+02  0.10501130072E+02  0.23931503881E+02  0.32082066955E+02  0.51100000000E-03 0.  1.
        -12    1    3    3    0    0 -0.10525013254E+02  0.28753984200E+01  0.21378665574E+01  0.11118196504E+02  0.00000000000E+00 0.  1.
</event>
<event>
 7    1  0.5910662E-013  0.5052886E+02  0.7816164E-02  0.1300439E+00
        -11   -1    0    0    0    0  0.00000000000E+00  0.00000000000E+00  0.45593999997E+02  0.45594000000E+02  0.51100000000E-03 0.  1.
         11   -1    0    0    0    0 -0.00000000000E+00 -0.00000000000E+00 -0.45593999997E+02  0.45594000000E+02  0.51100000000E-03 0. -1.
    9900012    2    1    2    0    0  0.30451289930E+02  0.22243852661E+01  0.26850261561E+02  0.50528862108E+02  0.30000006863E+02 0.  0.
         12    1    1    2    0    0 -0.30451289930E+02 -0.22243852661E+01 -0.26850261561E+02  0.40659137892E+02  0.00000000000E+00 0. -1.
         11    1    3    3    0    0 -0.39045720689E+00 -0.11216492101E+01  0.42925579020E-01  0.11884429509E+01  0.51100000000E-03 0. -1.
        -11    1    3    3    0    0  0.16837218249E+01  0.63720347157E+01 -0.32554671938E+01  0.73509055573E+01  0.51100000000E-03 0.  1.
        -12    1    3    3    0    0  0.29158025312E+02 -0.30260002394E+01  0.30062803176E+02  0.41989513600E+02  0.00000000000E+00 0.  1.
</event>
<event>
 7    1  0.5910662E-013  0.5052886E+02  0.7816164E-02  0.1300439E+00
        -11   -1    0    0    0    0  0.00000000000E+00  0.00000000000E+00  0.45593999997E+02  0.45594000000E+02  0.51100000000E-03 0.  1.
         11   -1    0    0    0    0 -0.00000000000E+00 -0.00000000000E+00 -0.45593999997E+02  0.45594000000E+02  0.51100000000E-03 0. -1.
    9900012    2    1    2    0    0  0.36184166458E+01 -0.15210515549E+01  0.40469240970E+02  0.50528855868E+02  0.29999987896E+02 0.  0.
         12    1    1    2    0    0 -0.36184166458E+01  0.15210515549E+01 -0.40469240970E+02  0.40659144132E+02  0.00000000000E+00 0. -1.
         11    1    3    3    0    0  0.78990887051E+01  0.95692888526E+00  0.16918153500E+01  0.81347129452E+01  0.51100000000E-03 0. -1.
        -11    1    3    3    0    0 -0.31831790792E+01 -0.87391136717E+01  0.30913783751E+02  0.32282607746E+02  0.51100000000E-03 0.  1.
        -12    1    3    3    0    0 -0.10974929801E+01  0.62611332315E+01  0.78636418695E+01  0.10111535177E+02  0.00000000000E+00 0.  1.
</event>
<event>
 7    1  0.5910662E-013  0.5052886E+02  0.7816164E-02  0.1300439E+00
        -11   -1    0    0    0    0  0.00000000000E+00  0.00000000000E+00  0.45593999997E+02  0.45594000000E+02  0.51100000000E-03 0.  1.
         11   -1    0    0    0    0 -0.00000000000E+00 -0.00000000000E+00 -0.45593999997E+02  0.45594000000E+02  0.51100000000E-03 0. -1.
    9900012    2    1    2    0    0 -0.15449185920E+02  0.60260972820E+01  0.37123773025E+02  0.50528859359E+02  0.29999998507E+02 0.  0.
         12    1    1    2    0    0  0.15449185920E+02 -0.60260972820E+01 -0.37123773025E+02  0.40659140641E+02  0.00000000000E+00 0. -1.
         11    1    3    3    0    0  0.50472458750E-01  0.66756129684E+01  0.20641820676E+01  0.69876465167E+01  0.51100000000E-03 0. -1.
        -11    1    3    3    0    0 -0.19144655147E+02 -0.45688476399E+01  0.22530715370E+02  0.29916973858E+02  0.51100000000E-03 0.  1.
        -12    1    3    3    0    0  0.36449967689E+01  0.39193319535E+01  0.12528875588E+02  0.13624238984E+02  0.00000000000E+00 0.  1.
</event>
<event>
 7    1  0.5910662E-013  0.5052886E+02  0.7816164E-02  0.1300439E+00
        -11   -1    0    0    0    0  0.00000000000E+00  0.00000000000E+00  0.45593999997E+02  0.45594000000E+02  0.51100000000E-03 0.  1.
         11   -1    0    0    0    0 -0.00000000000E+00 -0.00000000000E+00 -0.45593999997E+02  0.45594000000E+02  0.51100000000E-03 0. -1.
    9900012    2    1    2    0    0  0.33217313304E+02  0.20678125764E+02  0.11054002603E+02  0.50528858816E+02  0.29999996857E+02 0.  0.
         12    1    1    2    0    0 -0.33217313304E+02 -0.20678125764E+02 -0.11054002603E+02  0.40659141184E+02  0.00000000000E+00 0. -1.
         11    1    3    3    0    0 -0.23861931455E+01  0.10150104908E+02  0.51467935537E+01  0.11627898843E+02  0.51100000000E-03 0. -1.
        -11    1    3    3    0    0  0.20140773262E+02  0.87461888687E+01 -0.75319316348E+00  0.21970750272E+02  0.51100000000E-03 0.  1.
         12    1    3    3    0    0  0.15462733188E+02  0.17818319874E+01  0.66604022131E+01  0.16930209701E+02  0.00000000000E+00 0. -1.
</event>
<event>
 7    1  0.5910662E-013  0.5052885E+02  0.7816164E-02  0.1300439E+00
        -11   -1    0    0    0    0  0.00000000000E+00  0.00000000000E+00  0.45593999997E+02  0.45594000000E+02  0.51100000000E-03 0.  1.
         11   -1    0    0    0    0 -0.00000000000E+00 -0.00000000000E+00 -0.45593999997E+02  0.45594000000E+02  0.51100000000E-03 0. -1.
    9900012    2    1    2    0    0 -0.17920608945E+02  0.10939372183E+02  0.34818791476E+02  0.50528851847E+02  0.29999975674E+02 0.  0.
         12    1    1    2    0    0  0.17920608945E+02 -0.10939372183E+02 -0.34818791476E+02  0.40659148153E+02  0.00000000000E+00 0. -1.
         11    1    3    3    0    0 -0.11355293622E+02  0.13440219355E+02  0.20818488510E+02  0.27257873241E+02  0.51100000000E-03 0.  1.
        -11    1    3    3    0    0  0.35864508354E+01  0.46065300976E+01  0.67057770949E+01  0.88910177057E+01  0.51100000000E-03 0. -1.
         12    1    3    3    0    0 -0.10151766159E+02 -0.71073772698E+01  0.72945258709E+01  0.14379960900E+02  0.00000000000E+00 0. -1.
</event>
<event>
 7    1  0.5910662E-013  0.5052883E+02  0.7816164E-02  0.1300439E+00
        -11   -1    0    0    0    0  0.00000000000E+00  0.00000000000E+00  0.45593999997E+02  0.45594000000E+02  0.51100000000E-03 0. -1.
         11   -1    0    0    0    0 -0.00000000000E+00 -0.00000000000E+00 -0.45593999997E+02  0.45594000000E+02  0.51100000000E-03 0.  1.
    9900012    2    1    2    0    0  0.17289592055E+02 -0.18461139133E+02 -0.31834330941E+02  0.50528827874E+02  0.29999902807E+02 0.  0.
         12    1    1    2    0    0 -0.17289592055E+02  0.18461139133E+02  0.31834330941E+02  0.40659172126E+02  0.00000000000E+00 0. -1.
         11    1    3    3    0    0  0.10186039648E+02 -0.63562442451E+01 -0.86265430812E+01  0.14784264960E+02  0.51100000000E-03 0. -1.
        -11    1    3    3    0    0 -0.47354371163E+01 -0.13962218013E+02 -0.16014242016E+02  0.21767495128E+02  0.51100000000E-03 0.  1.
        -12    1    3    3    0    0  0.11838989523E+02  0.18573231250E+01 -0.71935458430E+01  0.13977067786E+02  0.00000000000E+00 0.  1.
</event>
<event>
 7    1  0.5910662E-013  0.5052886E+02  0.7816164E-02  0.1300439E+00
        -11   -1    0    0    0    0  0.00000000000E+00  0.00000000000E+00  0.45593999997E+02  0.45594000000E+02  0.51100000000E-03 0.  1.
         11   -1    0    0    0    0 -0.00000000000E+00 -0.00000000000E+00 -0.45593999997E+02  0.45594000000E+02  0.51100000000E-03 0. -1.
    9900012    2    1    2    0    0  0.33812298398E+02  0.12387072484E+02  0.18879995234E+02  0.50528864400E+02  0.30000013831E+02 0.  0.
         12    1    1    2    0    0 -0.33812298398E+02 -0.12387072484E+02 -0.18879995234E+02  0.40659135600E+02  0.00000000000E+00 0. -1.
         11    1    3    3    0    0  0.22043051266E+02 -0.33313379500E+01  0.14484141695E+02  0.26585414847E+02  0.51100000000E-03 0.  1.
        -11    1    3    3    0    0  0.10229640837E+02  0.14410176538E+02 -0.14762225130E+01  0.17733526798E+02  0.51100000000E-03 0. -1.
         12    1    3    3    0    0  0.15396062940E+01  0.13082338957E+01  0.58720760522E+01  0.62099227555E+01  0.00000000000E+00 0. -1.
</event>
<event>
 7    1  0.5910662E-013  0.5052884E+02  0.7816164E-02  0.1300439E+00
        -11   -1    0    0    0    0  0.00000000000E+00  0.00000000000E+00  0.45593999997E+02  0.45594000000E+02  0.51100000000E-03 0.  1.
         11   -1    0    0    0    0 -0.00000000000E+00 -0.00000000000E+00 -0.45593999997E+02  0.45594000000E+02  0.51100000000E-03 0. -1.
    9900012    2    1    2    0    0 -0.36909503411E+02 -0.14931052687E+02 -0.82413423607E+01  0.50528837437E+02  0.29999931875E+02 0.  0.
         12    1    1    2    0    0  0.36909503411E+02  0.14931052687E+02  0.82413423607E+01  0.40659162563E+02  0.00000000000E+00 0. -1.
         11    1    3    3    0    0 -0.10926665587E+02  0.25134336882E+01 -0.23741521614E+01  0.11460626881E+02  0.51100000000E-03 0. -1.
        -11    1    3    3    0    0 -0.41986180938E+01 -0.56486310331E+01 -0.11666984992E+02  0.13625489551E+02  0.51100000000E-03 0.  1.
        -12    1    3    3    0    0 -0.21784219730E+02 -0.11795855342E+02  0.57997947930E+01  0.25442721005E+02  0.00000000000E+00 0.  1.
</event>
<event>
 7    1  0.5910662E-013  0.5052887E+02  0.7816164E-02  0.1300439E+00
        -11   -1    0    0    0    0  0.00000000000E+00  0.00000000000E+00  0.45593999997E+02  0.45594000000E+02  0.51100000000E-03 0.  1.
         11   -1    0    0    0    0 -0.00000000000E+00 -0.00000000000E+00 -0.45593999997E+02  0.45594000000E+02  0.51100000000E-03 0. -1.
    9900012    2    1    2    0    0  0.37491769437E+02 -0.78705506935E+01  0.13623024174E+02  0.50528866569E+02  0.30000020423E+02 0.  0.
         12    1    1    2    0    0 -0.37491769437E+02  0.78705506935E+01 -0.13623024174E+02  0.40659133431E+02  0.00000000000E+00 0. -1.
         11    1    3    3    0    0  0.82590049041E+01 -0.19068914089E+01 -0.20173907044E+01  0.87130512662E+01  0.51100000000E-03 0. -1.
        -11    1    3    3    0    0  0.71240711418E+01 -0.66073473767E+01  0.17080658492E+02  0.19650911525E+02  0.51100000000E-03 0.  1.
        -12    1    3    3    0    0  0.22108693391E+02  0.64368809210E+00 -0.14402436134E+01  0.22164903778E+02  0.00000000000E+00 0.  1.
</event>
<event>
 7    1  0.5910662E-013  0.5052886E+02  0.7816164E-02  0.1300439E+00
        -11   -1    0    0    0    0  0.00000000000E+00  0.00000000000E+00  0.45593999997E+02  0.45594000000E+02  0.51100000000E-03 0. -1.
         11   -1    0    0    0    0 -0.00000000000E+00 -0.00000000000E+00 -0.45593999997E+02  0.45594000000E+02  0.51100000000E-03 0.  1.
    9900012    2    1    2    0    0  0.67998076895E+00 -0.40591839978E+02  0.22373472167E+01  0.50528861184E+02  0.30000004056E+02 0.  0.
         12    1    1    2    0    0 -0.67998076895E+00  0.40591839978E+02 -0.22373472167E+01  0.40659138816E+02  0.00000000000E+00 0. -1.
         11    1    3    3    0    0 -0.10272000261E+02 -0.12744847294E+02 -0.36432686441E+01  0.16769571509E+02  0.51100000000E-03 0. -1.
        -11    1    3    3    0    0  0.10494933080E+02 -0.15616005499E+02 -0.24208785224E+01  0.18970079103E+02  0.51100000000E-03 0.  1.
         12    1    3    3    0    0  0.45704795033E+00 -0.12230987186E+02  0.83014943832E+01  0.14789210573E+02  0.00000000000E+00 0. -1.
</event>
<event>
 7    1  0.5910662E-013  0.5052885E+02  0.7816164E-02  0.1300439E+00
        -11   -1    0    0    0    0  0.00000000000E+00  0.00000000000E+00  0.45593999997E+02  0.45594000000E+02  0.51100000000E-03 0.  1.
         11   -1    0    0    0    0 -0.00000000000E+00 -0.00000000000E+00 -0.45593999997E+02  0.45594000000E+02  0.51100000000E-03 0. -1.
    9900012    2    1    2    0    0  0.34432682209E+02  0.18609164712E+02  0.11011624548E+02  0.50528849855E+02  0.29999969618E+02 0.  0.
         12    1    1    2    0    0 -0.34432682209E+02 -0.18609164712E+02 -0.11011624548E+02  0.40659150145E+02  0.00000000000E+00 0. -1.
         11    1    3    3    0    0 -0.39132556489E+01 -0.22855784764E+01  0.25915425148E+01  0.52204915106E+01  0.51100000000E-03 0. -1.
        -11    1    3    3    0    0  0.19362992180E+02  0.15296856584E+02  0.57561304641E+01  0.25338751463E+02  0.51100000000E-03 0.  1.
         12    1    3    3    0    0  0.18982945677E+02  0.55978866040E+01  0.26639515691E+01  0.19969606881E+02  0.00000000000E+00 0. -1.
</event>
<event>
 7    1  0.5910662E-013  0.5052885E+02  0.7816164E-02  0.1300439E+00
        -11   -1    0    0    0    0  0.00000000000E+00  0.00000000000E+00  0.45593999997E+02  0.45594000000E+02  0.51100000000E-03 0.  1.
         11   -1    0    0    0    0 -0.00000000000E+00 -0.00000000000E+00 -0.45593999997E+02  0.45594000000E+02  0.51100000000E-03 0. -1.
    9900012    2    1    2    0    0  0.30022342008E+02 -0.58742288417E+01  0.26782811814E+02  0.50528848598E+02  0.29999965798E+02 0.  0.
         12    1    1    2    0    0 -0.30022342008E+02  0.58742288417E+01 -0.26782811814E+02  0.40659151402E+02  0.00000000000E+00 0. -1.
         11    1    3    3    0    0 -0.31716384386E+01 -0.12956833057E+01 -0.19882988447E+01  0.39612394741E+01  0.51100000000E-03 0. -1.
        -11    1    3    3    0    0  0.30164353753E+02  0.79835441539E+00  0.25877039975E+02  0.39751060429E+02  0.51100000000E-03 0.  1.
         12    1    3    3    0    0  0.30296266929E+01 -0.53768999514E+01  0.28940706831E+01  0.68165486944E+01  0.00000000000E+00 0. -1.
</event>
<event>
 7    1  0.5910662E-013  0.5052886E+02  0.7816164E-02  0.1300439E+00
        -11   -1    0    0    0    0  0.00000000000E+00  0.00000000000E+00  0.45593999997E+02  0.45594000000E+02  0.51100000000E-03 0.  1.
         11   -1    0    0    0    0 -0.00000000000E+00 -0.00000000000E+00 -0.45593999997E+02  0.45594000000E+02  0.51100000000E-03 0. -1.
    9900012    2    1    2    0    0 -0.15852552831E+01  0.29164003648E+02  0.28286281003E+02  0.50528857902E+02  0.29999994080E+02 0.  0.
         12    1    1    2    0    0  0.15852552831E+01 -0.29164003648E+02 -0.28286281003E+02  0.40659142098E+02  0.00000000000E+00 0. -1.
         11    1    3    3    0    0  0.35790799707E+01 -0.18492492464E+01 -0.35220861903E+01  0.53511333010E+01  0.51100000000E-03 0. -1.
        -11    1    3    3    0    0 -0.20898465763E+01  0.26496892950E+02  0.27200689958E+02  0.38030649865E+02  0.51100000000E-03 0.  1.
        -12    1    3    3    0    0 -0.30744886775E+01  0.45163599444E+01  0.46076772361E+01  0.71470747364E+01  0.00000000000E+00 0.  1.
</event>
<event>
 7    1  0.5910662E-013  0.5052886E+02  0.7816164E-02  0.1300439E+00
        -11   -1    0    0    0    0  0.00000000000E+00  0.00000000000E+00  0.45593999997E+02  0.45594000000E+02  0.51100000000E-03 0.  1.
         11   -1    0    0    0    0 -0.00000000000E+00 -0.00000000000E+00 -0.45593999997E+02  0.45594000000E+02  0.51100000000E-03 0. -1.
    9900012    2    1    2    0    0  0.36606924762E+02 -0.45323001744E+01  0.17104292019E+02  0.50528862148E+02  0.30000006984E+02 0.  0.
         12    1    1    2    0    0 -0.36606924762E+02  0.45323001744E+01 -0.17104292019E+02  0.40659137852E+02  0.00000000000E+00 0. -1.
         11    1    3    3    0    0  0.16021408477E+02  0.67800852940E+01  0.42812112696E+01  0.17916022337E+02  0.51100000000E-03 0. -1.
        -11    1    3    3    0    0  0.67789528639E+01 -0.82248081683E+01 -0.33048933659E+01  0.11159031847E+02  0.51100000000E-03 0.  1.
        -12    1    3    3    0    0  0.13806563421E+02 -0.30875773001E+01  0.16127974115E+02  0.21453807964E+02  0.00000000000E+00 0.  1.
</event>
<event>
 7    1  0.5910662E-013  0.5052886E+02  0.7816164E-02  0.1300439E+00
        -11   -1    0    0    0    0  0.00000000000E+00  0.00000000000E+00  0.45593999997E+02  0.45594000000E+02  0.51100000000E-03 0.  1.
         11   -1    0    0    0    0 -0.00000000000E+00 -0.00000000000E+00 -0.45593999997E+02  0.45594000000E+02  0.51100000000E-03 0. -1.
    9900012    2    1    2    0    0 -0.56655666646E+00  0.24568265198E+02  0.32392055139E+02  0.50528857394E+02  0.29999992534E+02 0.  0.
         12    1    1    2    0    0  0.56655666646E+00 -0.24568265198E+02 -0.32392055139E+02  0.40659142606E+02  0.00000000000E+00 0. -1.
         11    1    3    3    0    0 -0.48687960330E+00  0.77574288270E+01 -0.45072604498E+01  0.89849958697E+01  0.51100000000E-03 0. -1.
        -11    1    3    3    0    0  0.27258602497E+01  0.55355748099E+01  0.20757325827E+02  0.21655010467E+02  0.51100000000E-03 0.  1.
         12    1    3    3    0    0 -0.28055373129E+01  0.11275261562E+02  0.16141989762E+02  0.19888851057E+02  0.00000000000E+00 0. -1.
</event>
<event>
 7    1  0.7010601E-013  0.5052885E+02  0.7816164E-02  0.1300439E+00
        -11   -1    0    0    0    0  0.00000000000E+00  0.00000000000E+00  0.45593999997E+02  0.45594000000E+02  0.51100000000E-03 0. -1.
         11   -1    0    0    0    0 -0.00000000000E+00 -0.00000000000E+00 -0.45593999997E+02  0.45594000000E+02  0.51100000000E-03 0.  1.
    9900012    2    1    2    0    0 -0.11706600389E+02  0.19391478495E+02 -0.33765250754E+02  0.50528854788E+02  0.29999984614E+02 0.  0.
         12    1    1    2    0    0  0.11706600389E+02 -0.19391478495E+02  0.33765250754E+02  0.40659145212E+02  0.00000000000E+00 0. -1.
         11    1    3    3    0    0 -0.12798971494E+02  0.11688670376E+01 -0.52922569625E+01  0.13899205210E+02  0.51100000000E-03 0. -1.
        -11    1    3    3    0    0 -0.33102136631E+01  0.17685311138E+02 -0.18986272005E+02  0.26157336819E+02  0.51100000000E-03 0.  1.
        -12    1    3    3    0    0  0.44025847684E+01  0.53730031936E+00 -0.94867217864E+01  0.10472312759E+02  0.00000000000E+00 0.  1.
</event>
<event>
 7    1  0.5910662E-013  0.5052889E+02  0.7816164E-02  0.1300439E+00
        -11   -1    0    0    0    0  0.00000000000E+00  0.00000000000E+00  0.45593999997E+02  0.45594000000E+02  0.51100000000E-03 0.  1.
         11   -1    0    0    0    0 -0.00000000000E+00 -0.00000000000E+00 -0.45593999997E+02  0.45594000000E+02  0.51100000000E-03 0. -1.
    9900012    2    1    2    0    0  0.11838756467E+02  0.24985904595E+02  0.29811268127E+02  0.50528889208E+02  0.30000089235E+02 0.  0.
         12    1    1    2    0    0 -0.11838756467E+02 -0.24985904595E+02 -0.29811268127E+02  0.40659110792E+02  0.00000000000E+00 0. -1.
         11    1    3    3    0    0  0.44495477085E+01  0.21929562400E+02  0.14564684010E+02  0.26698955081E+02  0.51100000000E-03 0.  1.
        -11    1    3    3    0    0  0.30629866989E+01 -0.49173965294E+01  0.13362903382E+02  0.14564678617E+02  0.51100000000E-03 0. -1.
         12    1    3    3    0    0  0.43262220593E+01  0.79737387245E+01  0.18836807348E+01  0.92652555099E+01  0.00000000000E+00 0. -1.
</event>
<event>
 7    1  0.5910662E-013  0.5052894E+02  0.7816164E-02  0.1300438E+00
        -11   -1    0    0    0    0  0.00000000000E+00  0.00000000000E+00  0.45593999997E+02  0.45594000000E+02  0.51100000000E-03 0.  1.
         11   -1    0    0    0    0 -0.00000000000E+00 -0.00000000000E+00 -0.45593999997E+02  0.45594000000E+02  0.51100000000E-03 0. -1.
    9900012    2    1    2    0    0  0.15669031070E+02  0.16475405086E+02  0.33707586329E+02  0.50528943401E+02  0.30000253961E+02 0.  0.
         12    1    1    2    0    0 -0.15669031070E+02 -0.16475405086E+02 -0.33707586329E+02  0.40659056599E+02  0.00000000000E+00 0. -1.
         11    1    3    3    0    0  0.86156985530E+01  0.11632163345E+02  0.72237075232E+00  0.14493422832E+02  0.51100000000E-03 0. -1.
        -11    1    3    3    0    0  0.89442260785E+01  0.66590770937E+01  0.21107468618E+02  0.23871902304E+02  0.51100000000E-03 0.  1.
         12    1    3    3    0    0 -0.18908935619E+01 -0.18158353525E+01  0.11877746958E+02  0.12163618265E+02  0.00000000000E+00 0. -1.
</event>
<event>
 7    1  0.5910662E-013  0.5052885E+02  0.7816164E-02  0.1300439E+00
        -11   -1    0    0    0    0  0.00000000000E+00  0.00000000000E+00  0.45593999997E+02  0.45594000000E+02  0.51100000000E-03 0.  1.
         11   -1    0    0    0    0 -0.00000000000E+00 -0.00000000000E+00 -0.45593999997E+02  0.45594000000E+02  0.51100000000E-03 0. -1.
    9900012    2    1    2    0    0 -0.97081344584E+00  0.11364453076E+02  0.39026565439E+02  0.50528854873E+02  0.29999984872E+02 0.  0.
         12    1    1    2    0    0  0.97081344584E+00 -0.11364453076E+02 -0.39026565439E+02  0.40659145127E+02  0.00000000000E+00 0. -1.
         11    1    3    3    0    0 -0.10050756118E+02  0.34778588191E+01  0.30384869618E+02  0.32192444804E+02  0.51100000000E-03 0. -1.
        -11    1    3    3    0    0  0.44448995413E+01 -0.20517858221E+01  0.43877410437E+01  0.65741333056E+01  0.51100000000E-03 0.  1.
         12    1    3    3    0    0  0.46350431305E+01  0.99383800790E+01  0.42539547779E+01  0.11762276764E+02  0.00000000000E+00 0. -1.
</event>
<event>
 7    1  0.5910662E-013  0.5052885E+02  0.7816164E-02  0.1300439E+00
        -11   -1    0    0    0    0  0.00000000000E+00  0.00000000000E+00  0.45593999997E+02  0.45594000000E+02  0.51100000000E-03 0.  1.
         11   -1    0    0    0    0 -0.00000000000E+00 -0.00000000000E+00 -0.45593999997E+02  0.45594000000E+02  0.51100000000E-03 0. -1.
    9900012    2    1    2    0    0 -0.31733170210E+02  0.17848696984E+02 -0.18099616586E+02  0.50528853475E+02  0.29999980623E+02 0.  0.
         12    1    1    2    0    0  0.31733170210E+02 -0.17848696984E+02  0.18099616586E+02  0.40659146525E+02  0.00000000000E+00 0. -1.
         11    1    3    3    0    0 -0.11479148454E+01  0.25158997625E+01 -0.16003784261E+02  0.16240953514E+02  0.51100000000E-03 0. -1.
        -11    1    3    3    0    0 -0.25684632141E+02  0.13192145277E+02 -0.16480654129E+01  0.28921430551E+02  0.51100000000E-03 0.  1.
         12    1    3    3    0    0 -0.49006232228E+01  0.21406519447E+01 -0.44776691170E+00  0.53664694099E+01  0.00000000000E+00 0. -1.
</event>
<event>
 7    1  0.5910662E-013  0.5052886E+02  0.7816164E-02  0.1300439E+00
        -11   -1    0    0    0    0  0.00000000000E+00  0.00000000000E+00  0.45593999997E+02  0.45594000000E+02  0.51100000000E-03 0.  1.
         11   -1    0    0    0    0 -0.00000000000E+00 -0.00000000000E+00 -0.45593999997E+02  0.45594000000E+02  0.51100000000E-03 0. -1.
    9900012    2    1    2    0    0  0.13835720884E+01  0.34585995955E+02  0.21332135281E+02  0.50528863467E+02  0.30000010995E+02 0.  0.
         12    1    1    2    0    0 -0.13835720884E+01 -0.34585995955E+02 -0.21332135281E+02  0.40659136533E+02  0.00000000000E+00 0. -1.
         11    1    3    3    0    0 -0.13600371818E+01  0.32409314982E+02  0.10473667260E+02  0.34086817171E+02  0.51100000000E-03 0. -1.
        -11    1    3    3    0    0  0.41906642613E+01  0.54035438356E+01  0.10943828854E+02  0.12904547384E+02  0.51100000000E-03 0.  1.
         12    1    3    3    0    0 -0.14470549912E+01 -0.32268628626E+01 -0.85360832691E-01  0.35374989121E+01  0.00000000000E+00 0. -1.
</event>
<event>
 7    1  0.5910662E-013  0.5052885E+02  0.7816164E-02  0.1300439E+00
        -11   -1    0    0    0    0  0.00000000000E+00  0.00000000000E+00  0.45593999997E+02  0.45594000000E+02  0.51100000000E-03 0.  1.
         11   -1    0    0    0    0 -0.00000000000E+00 -0.00000000000E+00 -0.45593999997E+02  0.45594000000E+02  0.51100000000E-03 0. -1.
    9900012    2    1    2    0    0  0.37851097668E+02  0.14139268876E+02 -0.45322817188E+01  0.50528854699E+02  0.29999984344E+02 0.  0.
         12    1    1    2    0    0 -0.37851097668E+02 -0.14139268876E+02  0.45322817188E+01  0.40659145301E+02  0.00000000000E+00 0. -1.
         11    1    3    3    0    0  0.59979147377E+01 -0.35062727967E+01 -0.68043498007E+01  0.97246134420E+01  0.51100000000E-03 0. -1.
        -11    1    3    3    0    0  0.32814998235E+02  0.12985650976E+02 -0.50583385097E+00  0.35294576192E+02  0.51100000000E-03 0.  1.
         12    1    3    3    0    0 -0.96181530510E+00  0.46598906961E+01  0.27779019329E+01  0.55096650651E+01  0.00000000000E+00 0. -1.
</event>
<event>
 7    1  0.5910662E-013  0.5052886E+02  0.7816164E-02  0.1300439E+00
        -11   -1    0    0    0    0  0.00000000000E+00  0.00000000000E+00  0.45593999997E+02  0.45594000000E+02  0.51100000000E-03 0. -1.
         11   -1    0    0    0    0 -0.00000000000E+00 -0.00000000000E+00 -0.45593999997E+02  0.45594000000E+02  0.51100000000E-03 0.  1.
    9900012    2    1    2    0    0 -0.15648171638E+01 -0.40076043600E+02  0.66803855645E+01  0.50528862347E+02  0.30000007590E+02 0.  0.
         12    1    1    2    0    0  0.15648171638E+01  0.40076043600E+02 -0.66803855645E+01  0.40659137653E+02  0.00000000000E+00 0. -1.
         11    1    3    3    0    0  0.96098143849E+01 -0.18247654701E+02  0.35155878485E+01  0.20920917590E+02  0.51100000000E-03 0. -1.
        -11    1    3    3    0    0 -0.95017444582E+01 -0.11966281573E+02  0.92863689720E+01  0.17880483533E+02  0.51100000000E-03 0.  1.
        -12    1    3    3    0    0 -0.16728870905E+01 -0.98621073259E+01 -0.61215712559E+01  0.11727461224E+02  0.00000000000E+00 0.  1.
</event>
<event>
 7    1  0.5910662E-013  0.5052886E+02  0.7816164E-02  0.1300439E+00
        -11   -1    0    0    0    0  0.00000000000E+00  0.00000000000E+00  0.45593999997E+02  0.45594000000E+02  0.51100000000E-03 0.  1.
         11   -1    0    0    0    0 -0.00000000000E+00 -0.00000000000E+00 -0.45593999997E+02  0.45594000000E+02  0.51100000000E-03 0. -1.
    9900012    2    1    2    0    0 -0.17487491048E+02  0.29336657510E+02  0.22061585987E+02  0.50528863348E+02  0.30000010632E+02 0.  0.
         12    1    1    2    0    0  0.17487491048E+02 -0.29336657510E+02 -0.22061585987E+02  0.40659136652E+02  0.00000000000E+00 0. -1.
         11    1    3    3    0    0 -0.46938545458E+00  0.25007440546E+02  0.13296548781E+02  0.28326500227E+02  0.51100000000E-03 0. -1.
        -11    1    3    3    0    0 -0.62852344445E+01  0.26245498183E+01  0.90554399022E+01  0.11331082290E+02  0.51100000000E-03 0.  1.
         12    1    3    3    0    0 -0.10732871149E+02  0.17046671456E+01 -0.29040269620E+00  0.10871280831E+02  0.00000000000E+00 0. -1.
</event>
<event>
 7    1  0.5910662E-013  0.5052884E+02  0.7816164E-02  0.1300439E+00
        -11   -1    0    0    0    0  0.00000000000E+00  0.00000000000E+00  0.45593999997E+02  0.45594000000E+02  0.51100000000E-03 0.  1.
         11   -1    0    0    0    0 -0.00000000000E+00 -0.00000000000E+00 -0.45593999997E+02  0.45594000000E+02  0.51100000000E-03 0. -1.
    9900012    2    1    2    0    0 -0.51044321929E+01 -0.39724312451E+02  0.70064942312E+01  0.50528841264E+02  0.29999943505E+02 0.  0.
         12    1    1    2    0    0  0.51044321929E+01  0.39724312451E+02 -0.70064942312E+01  0.40659158736E+02  0.00000000000E+00 0. -1.
         11    1    3    3    0    0 -0.14755517289E+01 -0.13184162810E+02 -0.10581868263E+02  0.16969836125E+02  0.51100000000E-03 0. -1.
        -11    1    3    3    0    0 -0.18106852182E+00 -0.24619308562E+02  0.14790208159E+02  0.28720957462E+02  0.51100000000E-03 0.  1.
         12    1    3    3    0    0 -0.34478119421E+01 -0.19208410786E+01  0.27981543348E+01  0.48380476764E+01  0.00000000000E+00 0. -1.
</event>
<event>
 7    1  0.5910662E-013  0.5052886E+02  0.7816164E-02  0.1300439E+00
        -11   -1    0    0    0    0  0.00000000000E+00  0.00000000000E+00  0.45593999997E+02  0.45594000000E+02  0.51100000000E-03 0. -1.
         11   -1    0    0    0    0 -0.00000000000E+00 -0.00000000000E+00 -0.45593999997E+02  0.45594000000E+02  0.51100000000E-03 0.  1.
    9900012    2    1    2    0    0  0.21326553807E+02 -0.30603923894E+02 -0.16178492719E+02  0.50528859802E+02  0.29999999855E+02 0.  0.
         12    1    1    2    0    0 -0.21326553807E+02  0.30603923894E+02  0.16178492719E+02  0.40659140198E+02  0.00000000000E+00 0. -1.
         11    1    3    3    0    0  0.92462719677E+01 -0.28956115439E+02 -0.53632213513E+00  0.30401279715E+02  0.51100000000E-03 0. -1.
        -11    1    3    3    0    0  0.67078901185E+01  0.26404442543E+00 -0.10420111106E+02  0.12395330775E+02  0.51100000000E-03 0.  1.
         12    1    3    3    0    0  0.53723917205E+01 -0.19118528800E+01 -0.52220594780E+01  0.77322493121E+01  0.00000000000E+00 0. -1.
</event>
<event>
 7    1  0.5910662E-013  0.5052888E+02  0.7816164E-02  0.1300439E+00
        -11   -1    0    0    0    0  0.00000000000E+00  0.00000000000E+00  0.45593999997E+02  0.45594000000E+02  0.51100000000E-03 0.  1.
         11   -1    0    0    0    0 -0.00000000000E+00 -0.00000000000E+00 -0.45593999997E+02  0.45594000000E+02  0.51100000000E-03 0. -1.
    9900012    2    1    2    0    0 -0.15976446587E+02 -0.16097105079E+02  0.33746114831E+02  0.50528881666E+02  0.30000066313E+02 0.  0.
         12    1    1    2    0    0  0.15976446587E+02  0.16097105079E+02 -0.33746114831E+02  0.40659118334E+02  0.00000000000E+00 0. -1.
         11    1    3    3    0    0  0.47082104261E+01 -0.91292147604E+01  0.46612031928E+01  0.11279921233E+02  0.51100000000E-03 0. -1.
        -11    1    3    3    0    0 -0.19054185789E+02 -0.10286568235E+02  0.20147928924E+02  0.29577263604E+02  0.51100000000E-03 0.  1.
        -12    1    3    3    0    0 -0.16304712239E+01  0.33186779157E+01  0.89369827143E+01  0.96716968292E+01  0.00000000000E+00 0.  1.
</event>
<event>
 7    1  0.5910662E-013  0.5052886E+02  0.7816164E-02  0.1300439E+00
        -11   -1    0    0    0    0  0.00000000000E+00  0.00000000000E+00  0.45593999997E+02  0.45594000000E+02  0.51100000000E-03 0. -1.
         11   -1    0    0    0    0 -0.00000000000E+00 -0.00000000000E+00 -0.45593999997E+02  0.45594000000E+02  0.51100000000E-03 0.  1.
    9900012    2    1    2    0    0  0.30317651360E+02  0.20315766859E+02 -0.17924145100E+02  0.50528863946E+02  0.30000012452E+02 0.  0.
         12    1    1    2    0    0 -0.30317651360E+02 -0.20315766859E+02  0.17924145100E+02  0.40659136054E+02  0.00000000000E+00 0. -1.
         11    1    3    3    0    0  0.12176648930E+02  0.13907617491E+01 -0.11288639025E+02  0.16662483870E+02  0.51100000000E-03 0. -1.
        -11    1    3    3    0    0  0.10747204531E+02  0.20296241732E+02  0.12113723680E+01  0.22997983758E+02  0.51100000000E-03 0.  1.
        -12    1    3    3    0    0  0.73937978982E+01 -0.13712366218E+01 -0.78468784432E+01  0.10868396318E+02  0.00000000000E+00 0.  1.
</event>
<event>
 7    1  0.5910662E-013  0.5052884E+02  0.7816164E-02  0.1300439E+00
        -11   -1    0    0    0    0  0.00000000000E+00  0.00000000000E+00  0.45593999997E+02  0.45594000000E+02  0.51100000000E-03 0. -1.
         11   -1    0    0    0    0 -0.00000000000E+00 -0.00000000000E+00 -0.45593999997E+02  0.45594000000E+02  0.51100000000E-03 0.  1.
    9900012    2    1    2    0    0 -0.31612770067E+02  0.11837868128E+02 -0.22664176237E+02  0.50528840668E+02  0.29999941694E+02 0.  0.
         12    1    1    2    0    0  0.31612770067E+02 -0.11837868128E+02  0.22664176237E+02  0.40659159332E+02  0.00000000000E+00 0. -1.
         11    1    3    3    0    0 -0.71722623352E+01 -0.21779423333E+01  0.13073407258E+00  0.74967907448E+01  0.51100000000E-03 0. -1.
        -11    1    3    3    0    0 -0.11681130937E+02  0.16670110966E+02 -0.22004380016E+02  0.29975559373E+02  0.51100000000E-03 0.  1.
        -12    1    3    3    0    0 -0.12759376794E+02 -0.26543005042E+01 -0.79053029415E+00  0.13056490550E+02  0.00000000000E+00 0.  1.
</event>
<event>
 7    1  0.5910662E-013  0.5052886E+02  0.7816164E-02  0.1300439E+00
        -11   -1    0    0    0    0  0.00000000000E+00  0.00000000000E+00  0.45593999997E+02  0.45594000000E+02  0.51100000000E-03 0.  1.
         11   -1    0    0    0    0 -0.00000000000E+00 -0.00000000000E+00 -0.45593999997E+02  0.45594000000E+02  0.51100000000E-03 0. -1.
    9900012    2    1    2    0    0 -0.35837863199E+02 -0.19029971083E+02 -0.25832613018E+01  0.50528862318E+02  0.30000007503E+02 0.  0.
         12    1    1    2    0    0  0.35837863199E+02  0.19029971083E+02  0.25832613018E+01  0.40659137682E+02  0.00000000000E+00 0. -1.
         11    1    3    3    0    0 -0.24802276270E+02 -0.13923410944E+02 -0.37722360513E+01  0.28692229708E+02  0.51100000000E-03 0.  1.
        -11    1    3    3    0    0 -0.19518082646E+01  0.45726085099E+01  0.59325996291E+01  0.77404161844E+01  0.51100000000E-03 0. -1.
         12    1    3    3    0    0 -0.90837786638E+01 -0.96791686486E+01 -0.47436248796E+01  0.14096216426E+02  0.00000000000E+00 0. -1.
</event>
<event>
 7    1  0.5910662E-013  0.5052886E+02  0.7816164E-02  0.1300439E+00
        -11   -1    0    0    0    0  0.00000000000E+00  0.00000000000E+00  0.45593999997E+02  0.45594000000E+02  0.51100000000E-03 0.  1.
         11   -1    0    0    0    0 -0.00000000000E+00 -0.00000000000E+00 -0.45593999997E+02  0.45594000000E+02  0.51100000000E-03 0. -1.
    9900012    2    1    2    0    0 -0.35249297236E+02 -0.19866151225E+02  0.39985595835E+01  0.50528863280E+02  0.30000010425E+02 0.  0.
         12    1    1    2    0    0  0.35249297236E+02  0.19866151225E+02 -0.39985595835E+01  0.40659136720E+02  0.00000000000E+00 0. -1.
         11    1    3    3    0    0 -0.23737165521E+02 -0.25564486221E+02  0.25476120431E+01  0.34978369174E+02  0.51100000000E-03 0. -1.
        -11    1    3    3    0    0 -0.80467048841E+01 -0.59952875924E+00 -0.55333834872E+00  0.80879588163E+01  0.51100000000E-03 0.  1.
         12    1    3    3    0    0 -0.34654268311E+01  0.62978637562E+01  0.20042858892E+01  0.74625352889E+01  0.00000000000E+00 0. -1.
</event>
<event>
 7    1  0.5910662E-013  0.5052886E+02  0.7816164E-02  0.1300439E+00
        -11   -1    0    0    0    0  0.00000000000E+00  0.00000000000E+00  0.45593999997E+02  0.45594000000E+02  0.51100000000E-03 0.  1.
         11   -1    0    0    0    0 -0.00000000000E+00 -0.00000000000E+00 -0.45593999997E+02  0.45594000000E+02  0.51100000000E-03 0. -1.
    9900012    2    1    2    0    0 -0.27970220229E+02 -0.72929163415E+01  0.28594506322E+02  0.50528860311E+02  0.30000001402E+02 0.  0.
         12    1    1    2    0    0  0.27970220229E+02  0.72929163415E+01 -0.28594506322E+02  0.40659139689E+02  0.00000000000E+00 0. -1.
         11    1    3    3    0    0 -0.35022273119E+01  0.28429909564E+01 -0.46428956754E+01  0.64733819782E+01  0.51100000000E-03 0. -1.
        -11    1    3    3    0    0 -0.93289150376E+01 -0.89212209109E+01  0.10151183693E+02  0.16421430173E+02  0.51100000000E-03 0.  1.
         12    1    3    3    0    0 -0.15139077880E+02 -0.12146863870E+01  0.23086218305E+02  0.27634048160E+02  0.00000000000E+00 0. -1.
</event>
<event>
 7    1  0.5910662E-013  0.5052890E+02  0.7816164E-02  0.1300439E+00
        -11   -1    0    0    0    0  0.00000000000E+00  0.00000000000E+00  0.45593999997E+02  0.45594000000E+02  0.51100000000E-03 0.  1.
         11   -1    0    0    0    0 -0.00000000000E+00 -0.00000000000E+00 -0.45593999997E+02  0.45594000000E+02  0.51100000000E-03 0. -1.
    9900012    2    1    2    0    0  0.11170217293E+02  0.99299886880E+01  0.37812485605E+02  0.50528898960E+02  0.30000118879E+02 0.  0.
         12    1    1    2    0    0 -0.11170217293E+02 -0.99299886880E+01 -0.37812485605E+02  0.40659101040E+02  0.00000000000E+00 0. -1.
         11    1    3    3    0    0  0.92943445648E+01  0.20453787576E+01 -0.78410407927E+00  0.95489912881E+01  0.51100000000E-03 0. -1.
        -11    1    3    3    0    0 -0.37836443378E+01  0.26312885082E+01  0.65033994501E+01  0.79708122771E+01  0.51100000000E-03 0.  1.
         12    1    3    3    0    0  0.56595170656E+01  0.52533214222E+01  0.32093190234E+02  0.33009095395E+02  0.00000000000E+00 0. -1.
</event>
<event>
 7    1  0.5910662E-013  0.5052886E+02  0.7816164E-02  0.1300439E+00
        -11   -1    0    0    0    0  0.00000000000E+00  0.00000000000E+00  0.45593999997E+02  0.45594000000E+02  0.51100000000E-03 0.  1.
         11   -1    0    0    0    0 -0.00000000000E+00 -0.00000000000E+00 -0.45593999997E+02  0.45594000000E+02  0.51100000000E-03 0. -1.
    9900012    2    1    2    0    0 -0.11192375577E+02  0.31398635208E+02  0.23281374503E+02  0.50528856345E+02  0.29999989347E+02 0.  0.
         12    1    1    2    0    0  0.11192375577E+02 -0.31398635208E+02 -0.23281374503E+02  0.40659143655E+02  0.00000000000E+00 0. -1.
         11    1    3    3    0    0  0.31307404836E+01  0.51668879441E+01  0.16055437718E+02  0.17154455619E+02  0.51100000000E-03 0. -1.
        -11    1    3    3    0    0 -0.84214659710E+01  0.16316889467E+02  0.10790704905E+02  0.21297917353E+02  0.51100000000E-03 0.  1.
         12    1    3    3    0    0 -0.59016500896E+01  0.99148577971E+01 -0.35647681196E+01  0.12076483373E+02  0.00000000000E+00 0. -1.
</event>
<event>
 7    1  0.5910662E-013  0.5052886E+02  0.7816164E-02  0.1300439E+00
        -11   -1    0    0    0    0  0.00000000000E+00  0.00000000000E+00  0.45593999997E+02  0.45594000000E+02  0.51100000000E-03 0.  1.
         11   -1    0    0    0    0 -0.00000000000E+00 -0.00000000000E+00 -0.45593999997E+02  0.45594000000E+02  0.51100000000E-03 0. -1.
    9900012    2    1    2    0    0 -0.70296432548E+00  0.18903068798E+02  0.35990913013E+02  0.50528856030E+02  0.29999988390E+02 0.  0.
         12    1    1    2    0    0  0.70296432548E+00 -0.18903068798E+02 -0.35990913013E+02  0.40659143970E+02  0.00000000000E+00 0. -1.
         11    1    3    3    0    0 -0.17003323727E+01 -0.37780728475E+01 -0.22829970525E+01  0.47304376565E+01  0.51100000000E-03 0. -1.
        -11    1    3    3    0    0  0.38841162178E+01  0.19774718330E+02  0.26235482171E+02  0.33082115544E+02  0.51100000000E-03 0.  1.
         12    1    3    3    0    0 -0.28867481706E+01  0.29064233148E+01  0.12038427895E+02  0.12716302830E+02  0.00000000000E+00 0. -1.
</event>
<event>
 7    1  0.5910662E-013  0.5052885E+02  0.7816164E-02  0.1300439E+00
        -11   -1    0    0    0    0  0.00000000000E+00  0.00000000000E+00  0.45593999997E+02  0.45594000000E+02  0.51100000000E-03 0.  1.
         11   -1    0    0    0    0 -0.00000000000E+00 -0.00000000000E+00 -0.45593999997E+02  0.45594000000E+02  0.51100000000E-03 0. -1.
    9900012    2    1    2    0    0 -0.17180203247E+02 -0.17144419703E+02  0.32620175112E+02  0.50528851769E+02  0.29999975437E+02 0.  0.
         12    1    1    2    0    0  0.17180203247E+02  0.17144419703E+02 -0.32620175112E+02  0.40659148231E+02  0.00000000000E+00 0. -1.
         11    1    3    3    0    0  0.26220969578E+01  0.48965818540E+01  0.30776119471E+01  0.63500867606E+01  0.51100000000E-03 0. -1.
        -11    1    3    3    0    0 -0.94741930956E+01 -0.16565729232E+02  0.10358200282E+02  0.21713498869E+02  0.51100000000E-03 0.  1.
        -12    1    3    3    0    0 -0.10328107109E+02 -0.54752723248E+01  0.19184362883E+02  0.22465266139E+02  0.00000000000E+00 0.  1.
</event>
<event>
 7    1  0.5910662E-013  0.5052887E+02  0.7816164E-02  0.1300439E+00
        -11   -1    0    0    0    0  0.00000000000E+00  0.00000000000E+00  0.45593999997E+02  0.45594000000E+02  0.51100000000E-03 0.  1.
         11   -1    0    0    0    0 -0.00000000000E+00 -0.00000000000E+00 -0.45593999997E+02  0.45594000000E+02  0.51100000000E-03 0. -1.
    9900012    2    1    2    0    0 -0.15439184526E+02 -0.92356453926E+01  0.36462301339E+02  0.50528868386E+02  0.30000025947E+02 0.  0.
         12    1    1    2    0    0  0.15439184526E+02  0.92356453926E+01 -0.36462301339E+02  0.40659131614E+02  0.00000000000E+00 0. -1.
         11    1    3    3    0    0  0.23556073555E+01 -0.22850940763E+01  0.95443509969E+01  0.10092828006E+02  0.51100000000E-03 0. -1.
        -11    1    3    3    0    0 -0.15068489435E+02  0.62979520165E+01  0.17605992922E+02  0.24014465651E+02  0.51100000000E-03 0.  1.
        -12    1    3    3    0    0 -0.27263024461E+01 -0.13248503333E+02  0.93119574205E+01  0.16421574729E+02  0.00000000000E+00 0.  1.
</event>
<event>
 7    1  0.5910662E-013  0.5052886E+02  0.7816164E-02  0.1300439E+00
        -11   -1    0    0    0    0  0.00000000000E+00  0.00000000000E+00  0.45593999997E+02  0.45594000000E+02  0.51100000000E-03 0.  1.
         11   -1    0    0    0    0 -0.00000000000E+00 -0.00000000000E+00 -0.45593999997E+02  0.45594000000E+02  0.51100000000E-03 0. -1.
    9900012    2    1    2    0    0  0.29737847635E+01  0.10593959818E+02  0.39141920407E+02  0.50528864328E+02  0.30000013610E+02 0.  0.
         12    1    1    2    0    0 -0.29737847635E+01 -0.10593959818E+02 -0.39141920407E+02  0.40659135672E+02  0.00000000000E+00 0. -1.
         11    1    3    3    0    0 -0.82676342075E+01  0.49911310667E+01  0.13733166963E+01  0.97545457980E+01  0.51100000000E-03 0. -1.
        -11    1    3    3    0    0  0.17854017574E+01  0.55390864478E+01  0.12313354571E+02  0.13619392026E+02  0.51100000000E-03 0.  1.
         12    1    3    3    0    0  0.94560172137E+01  0.63742303560E-01  0.25455249140E+02  0.27154926504E+02  0.00000000000E+00 0. -1.
</event>
<event>
 7    1  0.5910662E-013  0.5052885E+02  0.7816164E-02  0.1300439E+00
        -11   -1    0    0    0    0  0.00000000000E+00  0.00000000000E+00  0.45593999997E+02  0.45594000000E+02  0.51100000000E-03 0.  1.
         11   -1    0    0    0    0 -0.00000000000E+00 -0.00000000000E+00 -0.45593999997E+02  0.45594000000E+02  0.51100000000E-03 0. -1.
    9900012    2    1    2    0    0 -0.32439414139E+02  0.24038520853E+02  0.47958347272E+01  0.50528854593E+02  0.29999984021E+02 0.  0.
         12    1    1    2    0    0  0.32439414139E+02 -0.24038520853E+02 -0.47958347272E+01  0.40659145407E+02  0.00000000000E+00 0. -1.
         11    1    3    3    0    0  0.17977368277E+01 -0.21315619938E+01  0.25622191831E+01  0.37868696358E+01  0.51100000000E-03 0. -1.
        -11    1    3    3    0    0 -0.24081039026E+02  0.27321182128E+02  0.26239068770E+01  0.36513399198E+02  0.51100000000E-03 0.  1.
        -12    1    3    3    0    0 -0.10156111941E+02 -0.11510992811E+01 -0.39029133287E+00  0.10228585759E+02  0.00000000000E+00 0.  1.
</event>
<event>
 7    1  0.5910662E-013  0.5052886E+02  0.7816164E-02  0.1300439E+00
        -11   -1    0    0    0    0  0.00000000000E+00  0.00000000000E+00  0.45593999997E+02  0.45594000000E+02  0.51100000000E-03 0. -1.
         11   -1    0    0    0    0 -0.00000000000E+00 -0.00000000000E+00 -0.45593999997E+02  0.45594000000E+02  0.51100000000E-03 0.  1.
    9900012    2    1    2    0    0  0.44858055977E+01  0.37281961785E+02 -0.15591624695E+02  0.50528857276E+02  0.29999992177E+02 0.  0.
         12    1    1    2    0    0 -0.44858055977E+01 -0.37281961785E+02  0.15591624695E+02  0.40659142724E+02  0.00000000000E+00 0. -1.
         11    1    3    3    0    0 -0.56703103632E+01  0.15836409922E+01  0.42405885272E+01  0.72555447573E+01  0.51100000000E-03 0. -1.
        -11    1    3    3    0    0  0.50166314289E+01  0.27822291450E+02 -0.10889393538E+02  0.30295633090E+02  0.51100000000E-03 0.  1.
         12    1    3    3    0    0  0.51394845319E+01  0.78760293429E+01 -0.89428196843E+01  0.12977679429E+02  0.00000000000E+00 0. -1.
</event>
<event>
 7    1  0.5910662E-013  0.5052882E+02  0.7816164E-02  0.1300439E+00
        -11   -1    0    0    0    0  0.00000000000E+00  0.00000000000E+00  0.45593999997E+02  0.45594000000E+02  0.51100000000E-03 0. -1.
         11   -1    0    0    0    0 -0.00000000000E+00 -0.00000000000E+00 -0.45593999997E+02  0.45594000000E+02  0.51100000000E-03 0.  1.
    9900012    2    1    2    0    0 -0.11456262036E+02  0.39322495834E+01 -0.38813152250E+02  0.50528815131E+02  0.29999864071E+02 0.  0.
         12    1    1    2    0    0  0.11456262036E+02 -0.39322495834E+01  0.38813152250E+02  0.40659184869E+02  0.00000000000E+00 0. -1.
         11    1    3    3    0    0 -0.15631246585E+02  0.11324366407E+02 -0.17787840803E+02  0.26248512815E+02  0.51100000000E-03 0. -1.
        -11    1    3    3    0    0  0.43646267641E+01 -0.92283223271E+01 -0.18764309494E+02  0.21361442152E+02  0.51100000000E-03 0.  1.
         12    1    3    3    0    0 -0.18964221548E+00  0.18362055032E+01 -0.22610019534E+01  0.29188601634E+01  0.00000000000E+00 0. -1.
</event>
<event>
 7    1  0.5910662E-013  0.5052886E+02  0.7816164E-02  0.1300439E+00
        -11   -1    0    0    0    0  0.00000000000E+00  0.00000000000E+00  0.45593999997E+02  0.45594000000E+02  0.51100000000E-03 0.  1.
         11   -1    0    0    0    0 -0.00000000000E+00 -0.00000000000E+00 -0.45593999997E+02  0.45594000000E+02  0.51100000000E-03 0. -1.
    9900012    2    1    2    0    0 -0.23742786110E+02  0.30681926292E+02  0.12168196412E+02  0.50528862070E+02  0.30000006749E+02 0.  0.
         12    1    1    2    0    0  0.23742786110E+02 -0.30681926292E+02 -0.12168196412E+02  0.40659137930E+02  0.00000000000E+00 0. -1.
         11    1    3    3    0    0 -0.11896097647E+02 -0.19169035812E+01  0.91141423491E+01  0.15108251043E+02  0.51100000000E-03 0. -1.
        -11    1    3    3    0    0 -0.11547186116E+02  0.23830479452E+02  0.16152439385E+01  0.26529950459E+02  0.51100000000E-03 0.  1.
         12    1    3    3    0    0 -0.29950234745E+00  0.87683504209E+01  0.14388101244E+01  0.88906605680E+01  0.00000000000E+00 0. -1.
</event>
<event>
 7    1  0.5910662E-013  0.5052886E+02  0.7816164E-02  0.1300439E+00
        -11   -1    0    0    0    0  0.00000000000E+00  0.00000000000E+00  0.45593999997E+02  0.45594000000E+02  0.51100000000E-03 0.  1.
         11   -1    0    0    0    0 -0.00000000000E+00 -0.00000000000E+00 -0.45593999997E+02  0.45594000000E+02  0.51100000000E-03 0. -1.
    9900012    2    1    2    0    0  0.93848779098E+01 -0.27335926991E+00  0.39560273253E+02  0.50528857381E+02  0.29999992495E+02 0.  0.
         12    1    1    2    0    0 -0.93848779098E+01  0.27335926991E+00 -0.39560273253E+02  0.40659142619E+02  0.00000000000E+00 0. -1.
         11    1    3    3    0    0  0.15181374844E+02 -0.73427573856E+01  0.10784465146E+02  0.20017365384E+02  0.51100000000E-03 0. -1.
        -11    1    3    3    0    0  0.22600686931E+00  0.76028736344E-02  0.47495166524E+01  0.47548970127E+01  0.51100000000E-03 0.  1.
         12    1    3    3    0    0 -0.60225038035E+01  0.70617952421E+01  0.24026291455E+02  0.25756594984E+02  0.00000000000E+00 0. -1.
</event>
<event>
 7    1  0.5910662E-013  0.5052886E+02  0.7816164E-02  0.1300439E+00
        -11   -1    0    0    0    0  0.00000000000E+00  0.00000000000E+00  0.45593999997E+02  0.45594000000E+02  0.51100000000E-03 0.  1.
         11   -1    0    0    0    0 -0.00000000000E+00 -0.00000000000E+00 -0.45593999997E+02  0.45594000000E+02  0.51100000000E-03 0. -1.
    9900012    2    1    2    0    0  0.40185918128E+02 -0.61683051388E+01  0.45782869574E+00  0.50528860669E+02  0.30000002489E+02 0.  0.
         12    1    1    2    0    0 -0.40185918128E+02  0.61683051388E+01 -0.45782869574E+00  0.40659139331E+02  0.00000000000E+00 0. -1.
         11    1    3    3    0    0  0.30977785636E+01  0.39475910705E+01 -0.74503886325E+00  0.50729469205E+01  0.51100000000E-03 0. -1.
        -11    1    3    3    0    0  0.40485650141E+02 -0.83681365762E+01  0.25106514311E+01  0.41417592252E+02  0.51100000000E-03 0.  1.
        -12    1    3    3    0    0 -0.33975105767E+01 -0.17477596331E+01 -0.13077838721E+01  0.40383214966E+01  0.00000000000E+00 0.  1.
</event>
<event>
 7    1  0.5910662E-013  0.5052886E+02  0.7816164E-02  0.1300439E+00
        -11   -1    0    0    0    0  0.00000000000E+00  0.00000000000E+00  0.45593999997E+02  0.45594000000E+02  0.51100000000E-03 0.  1.
         11   -1    0    0    0    0 -0.00000000000E+00 -0.00000000000E+00 -0.45593999997E+02  0.45594000000E+02  0.51100000000E-03 0. -1.
    9900012    2    1    2    0    0 -0.64373285666E+01 -0.14932286680E+02  0.37265976991E+02  0.50528862950E+02  0.30000009423E+02 0.  0.
         12    1    1    2    0    0  0.64373285666E+01  0.14932286680E+02 -0.37265976991E+02  0.40659137050E+02  0.00000000000E+00 0. -1.
         11    1    3    3    0    0 -0.27127774446E+01 -0.16348262091E+02  0.20265857154E+02  0.26178804429E+02  0.51100000000E-03 0.  1.
        -11    1    3    3    0    0  0.39096055312E+01  0.27619583844E+01 -0.87528554965E+00  0.48661642575E+01  0.51100000000E-03 0. -1.
        -12    1    3    3    0    0 -0.76341566532E+01 -0.13459829730E+01  0.17875405386E+02  0.19483894264E+02  0.00000000000E+00 0.  1.
</event>
<event>
 7    1  0.5910662E-013  0.5052886E+02  0.7816164E-02  0.1300439E+00
        -11   -1    0    0    0    0  0.00000000000E+00  0.00000000000E+00  0.45593999997E+02  0.45594000000E+02  0.51100000000E-03 0. -1.
         11   -1    0    0    0    0 -0.00000000000E+00 -0.00000000000E+00 -0.45593999997E+02  0.45594000000E+02  0.51100000000E-03 0.  1.
    9900012    2    1    2    0    0 -0.38924776386E+02  0.75877613987E+01 -0.89695593438E+01  0.50528864070E+02  0.30000012828E+02 0.  0.
         12    1    1    2    0    0  0.38924776386E+02 -0.75877613987E+01  0.89695593438E+01  0.40659135930E+02  0.00000000000E+00 0. -1.
         11    1    3    3    0    0 -0.21273122284E+02  0.47223310624E+01  0.26243416397E+01  0.21948423900E+02  0.51100000000E-03 0.  1.
        -11    1    3    3    0    0  0.33051620187E+01  0.86195390249E+00  0.15615146897E+01  0.37557141647E+01  0.51100000000E-03 0. -1.
        -12    1    3    3    0    0 -0.20956816120E+02  0.20034764338E+01 -0.13155415673E+02  0.24824726006E+02  0.00000000000E+00 0.  1.
</event>
<event>
 7    1  0.5910662E-013  0.5052885E+02  0.7816164E-02  0.1300439E+00
        -11   -1    0    0    0    0  0.00000000000E+00  0.00000000000E+00  0.45593999997E+02  0.45594000000E+02  0.51100000000E-03 0.  1.
         11   -1    0    0    0    0 -0.00000000000E+00 -0.00000000000E+00 -0.45593999997E+02  0.45594000000E+02  0.51100000000E-03 0. -1.
    9900012    2    1    2    0    0  0.35170054492E+02  0.13920444951E+02  0.14914922721E+02  0.50528850471E+02  0.29999971493E+02 0.  0.
         12    1    1    2    0    0 -0.35170054492E+02 -0.13920444951E+02 -0.14914922721E+02  0.40659149529E+02  0.00000000000E+00 0. -1.
         11    1    3    3    0    0  0.20212683497E+02  0.20999859591E+02  0.71696950392E+01  0.30015849217E+02  0.51100000000E-03 0. -1.
        -11    1    3    3    0    0  0.62221884289E+01 -0.57161458984E+01 -0.44555310446E+00  0.84609970220E+01  0.51100000000E-03 0.  1.
         12    1    3    3    0    0  0.87351825661E+01 -0.13632687418E+01  0.81907807865E+01  0.12052004232E+02  0.00000000000E+00 0. -1.
</event>
<event>
 7    1  0.5910662E-013  0.5052886E+02  0.7816164E-02  0.1300439E+00
        -11   -1    0    0    0    0  0.00000000000E+00  0.00000000000E+00  0.45593999997E+02  0.45594000000E+02  0.51100000000E-03 0. -1.
         11   -1    0    0    0    0 -0.00000000000E+00 -0.00000000000E+00 -0.45593999997E+02  0.45594000000E+02  0.51100000000E-03 0.  1.
    9900012    2    1    2    0    0 -0.28779636579E+02 -0.85055223063E+01 -0.27432727583E+02  0.50528856699E+02  0.29999990423E+02 0.  0.
         12    1    1    2    0    0  0.28779636579E+02  0.85055223063E+01  0.27432727583E+02  0.40659143301E+02  0.00000000000E+00 0. -1.
         11    1    3    3    0    0  0.43489953762E+01 -0.54416792212E+00 -0.12536056828E+02  0.13280158152E+02  0.51100000000E-03 0. -1.
        -11    1    3    3    0    0 -0.20041899824E+02 -0.52133168381E+01 -0.79752479289E+01  0.22191462340E+02  0.51100000000E-03 0.  1.
         12    1    3    3    0    0 -0.13086732131E+02 -0.27480375462E+01 -0.69214228260E+01  0.15057236206E+02  0.00000000000E+00 0. -1.
</event>
<event>
 7    1  0.5910662E-013  0.5052886E+02  0.7816164E-02  0.1300439E+00
        -11   -1    0    0    0    0  0.00000000000E+00  0.00000000000E+00  0.45593999997E+02  0.45594000000E+02  0.51100000000E-03 0.  1.
         11   -1    0    0    0    0 -0.00000000000E+00 -0.00000000000E+00 -0.45593999997E+02  0.45594000000E+02  0.51100000000E-03 0. -1.
    9900012    2    1    2    0    0 -0.25312698422E+02  0.27527120918E+02  0.15959038550E+02  0.50528855901E+02  0.29999987997E+02 0.  0.
         12    1    1    2    0    0  0.25312698422E+02 -0.27527120918E+02 -0.15959038550E+02  0.40659144099E+02  0.00000000000E+00 0. -1.
         11    1    3    3    0    0 -0.15461402315E+02  0.19622900179E+00  0.75303856535E+01  0.17198842279E+02  0.51100000000E-03 0. -1.
        -11    1    3    3    0    0 -0.49399846864E+00  0.14991606711E+02  0.95853048712E+01  0.17800853238E+02  0.51100000000E-03 0.  1.
         12    1    3    3    0    0 -0.93572976375E+01  0.12339285205E+02 -0.11566519745E+01  0.15529160384E+02  0.00000000000E+00 0. -1.
</event>
<event>
 7    1  0.5910662E-013  0.5052879E+02  0.7816164E-02  0.1300439E+00
        -11   -1    0    0    0    0  0.00000000000E+00  0.00000000000E+00  0.45593999997E+02  0.45594000000E+02  0.51100000000E-03 0. -1.
         11   -1    0    0    0    0 -0.00000000000E+00 -0.00000000000E+00 -0.45593999997E+02  0.45594000000E+02  0.51100000000E-03 0.  1.
    9900012    2    1    2    0    0 -0.22682111199E+02  0.74757907128E+01 -0.32906018429E+02  0.50528786234E+02  0.29999776235E+02 0.  0.
         12    1    1    2    0    0  0.22682111199E+02 -0.74757907128E+01  0.32906018429E+02  0.40659213766E+02  0.00000000000E+00 0. -1.
         11    1    3    3    0    0 -0.60636843069E+01 -0.66806322412E+01 -0.16247103472E+02  0.18584065379E+02  0.51100000000E-03 0. -1.
        -11    1    3    3    0    0 -0.64667203262E+01  0.15654470972E+02 -0.93569986403E+01  0.19350306380E+02  0.51100000000E-03 0.  1.
         12    1    3    3    0    0 -0.10151706566E+02 -0.14980480180E+01 -0.73019163167E+01  0.12594414474E+02  0.00000000000E+00 0. -1.
</event>
<event>
 7    1  0.5910662E-013  0.5052888E+02  0.7816164E-02  0.1300439E+00
        -11   -1    0    0    0    0  0.00000000000E+00  0.00000000000E+00  0.45593999997E+02  0.45594000000E+02  0.51100000000E-03 0.  1.
         11   -1    0    0    0    0 -0.00000000000E+00 -0.00000000000E+00 -0.45593999997E+02  0.45594000000E+02  0.51100000000E-03 0. -1.
    9900012    2    1    2    0    0 -0.18065137315E+02 -0.29990543582E+02  0.20673222374E+02  0.50528880312E+02  0.30000062195E+02 0.  0.
         12    1    1    2    0    0  0.18065137315E+02  0.29990543582E+02 -0.20673222374E+02  0.40659119688E+02  0.00000000000E+00 0. -1.
         11    1    3    3    0    0 -0.10052135879E+01  0.21763934232E+01  0.53806167005E+01  0.58905160240E+01  0.51100000000E-03 0. -1.
        -11    1    3    3    0    0 -0.20081349880E+02 -0.31259816012E+02  0.17210162905E+02  0.40946628892E+02  0.51100000000E-03 0.  1.
        -12    1    3    3    0    0  0.30214261537E+01 -0.90712099296E+00 -0.19175572316E+01  0.36917353961E+01  0.00000000000E+00 0.  1.
</event>
<event>
 7    1  0.5910662E-013  0.5052886E+02  0.7816164E-02  0.1300439E+00
        -11   -1    0    0    0    0  0.00000000000E+00  0.00000000000E+00  0.45593999997E+02  0.45594000000E+02  0.51100000000E-03 0. -1.
         11   -1    0    0    0    0 -0.00000000000E+00 -0.00000000000E+00 -0.45593999997E+02  0.45594000000E+02  0.51100000000E-03 0.  1.
    9900012    2    1    2    0    0  0.37016523182E+01 -0.40070598943E+02 -0.58146509448E+01  0.50528864555E+02  0.30000014301E+02 0.  0.
         12    1    1    2    0    0 -0.37016523182E+01  0.40070598943E+02  0.58146509448E+01  0.40659135445E+02  0.00000000000E+00 0. -1.
         11    1    3    3    0    0  0.62627248919E+01 -0.27193238726E+01 -0.22736181321E+01  0.71962340893E+01  0.51100000000E-03 0. -1.
        -11    1    3    3    0    0 -0.11401276915E+02 -0.13318155149E+02 -0.24485556021E+01  0.17701915056E+02  0.51100000000E-03 0.  1.
        -12    1    3    3    0    0  0.88402043409E+01 -0.24033119922E+02 -0.10924772106E+01  0.25630715410E+02  0.00000000000E+00 0.  1.
</event>
<event>
 7    1  0.5910662E-013  0.5052886E+02  0.7816164E-02  0.1300439E+00
        -11   -1    0    0    0    0  0.00000000000E+00  0.00000000000E+00  0.45593999997E+02  0.45594000000E+02  0.51100000000E-03 0.  1.
         11   -1    0    0    0    0 -0.00000000000E+00 -0.00000000000E+00 -0.45593999997E+02  0.45594000000E+02  0.51100000000E-03 0. -1.
    9900012    2    1    2    0    0 -0.34775827657E+02 -0.20605607025E+02  0.43836830625E+01  0.50528857027E+02  0.29999991420E+02 0.  0.
         12    1    1    2    0    0  0.34775827657E+02  0.20605607025E+02 -0.43836830625E+01  0.40659142973E+02  0.00000000000E+00 0. -1.
         11    1    3    3    0    0 -0.10807198681E+02  0.11012725979E+01 -0.10337976923E+02  0.14996069878E+02  0.51100000000E-03 0. -1.
        -11    1    3    3    0    0 -0.17275365055E+02 -0.15398544407E+02  0.10504840172E+02  0.25414662598E+02  0.51100000000E-03 0.  1.
         12    1    3    3    0    0 -0.66932639207E+01 -0.63083352153E+01  0.42168198135E+01  0.10118124552E+02  0.00000000000E+00 0. -1.
</event>
<event>
 7    1  0.5910662E-013  0.5052884E+02  0.7816164E-02  0.1300439E+00
        -11   -1    0    0    0    0  0.00000000000E+00  0.00000000000E+00  0.45593999997E+02  0.45594000000E+02  0.51100000000E-03 0.  1.
         11   -1    0    0    0    0 -0.00000000000E+00 -0.00000000000E+00 -0.45593999997E+02  0.45594000000E+02  0.51100000000E-03 0. -1.
    9900012    2    1    2    0    0  0.22920307335E+02  0.32138064647E+02  0.97453347437E+01  0.50528840677E+02  0.29999941722E+02 0.  0.
         12    1    1    2    0    0 -0.22920307335E+02 -0.32138064647E+02 -0.97453347437E+01  0.40659159323E+02  0.00000000000E+00 0. -1.
         11    1    3    3    0    0  0.41637964033E-01 -0.14001194784E+01 -0.29798154699E+00  0.14320829366E+01  0.51100000000E-03 0. -1.
        -11    1    3    3    0    0  0.13348541035E+02  0.35847504338E+02  0.79076415496E+01  0.39060951219E+02  0.51100000000E-03 0.  1.
        -12    1    3    3    0    0  0.95301283355E+01 -0.23093202123E+01  0.21356747411E+01  0.10035806521E+02  0.00000000000E+00 0.  1.
</event>
<event>
 7    1  0.5910662E-013  0.5052885E+02  0.7816164E-02  0.1300439E+00
        -11   -1    0    0    0    0  0.00000000000E+00  0.00000000000E+00  0.45593999997E+02  0.45594000000E+02  0.51100000000E-03 0. -1.
         11   -1    0    0    0    0 -0.00000000000E+00 -0.00000000000E+00 -0.45593999997E+02  0.45594000000E+02  0.51100000000E-03 0.  1.
    9900012    2    1    2    0    0  0.12194501689E+02 -0.36989929983E+02  0.11670704483E+02  0.50528854230E+02  0.29999982918E+02 0.  0.
         12    1    1    2    0    0 -0.12194501689E+02  0.36989929983E+02 -0.11670704483E+02  0.40659145770E+02  0.00000000000E+00 0. -1.
         11    1    3    3    0    0  0.15123174809E+02 -0.23550824905E+02  0.96312028824E+01  0.29599186463E+02  0.51100000000E-03 0. -1.
        -11    1    3    3    0    0 -0.38696201105E+01 -0.66613260079E+01  0.85331419413E+01  0.11496161778E+02  0.51100000000E-03 0.  1.
         12    1    3    3    0    0  0.94094698994E+00 -0.67777790700E+01 -0.64936403412E+01  0.94335059888E+01  0.00000000000E+00 0. -1.
</event>
<event>
 7    1  0.5910662E-013  0.5052886E+02  0.7816164E-02  0.1300439E+00
        -11   -1    0    0    0    0  0.00000000000E+00  0.00000000000E+00  0.45593999997E+02  0.45594000000E+02  0.51100000000E-03 0.  1.
         11   -1    0    0    0    0 -0.00000000000E+00 -0.00000000000E+00 -0.45593999997E+02  0.45594000000E+02  0.51100000000E-03 0. -1.
    9900012    2    1    2    0    0 -0.16925707610E+02 -0.30492484121E+02  0.20902022825E+02  0.50528859280E+02  0.29999998266E+02 0.  0.
         12    1    1    2    0    0  0.16925707610E+02  0.30492484121E+02 -0.20902022825E+02  0.40659140720E+02  0.00000000000E+00 0. -1.
         11    1    3    3    0    0  0.31939756161E+01 -0.44561702812E+01 -0.11284095861E+01  0.55975210822E+01  0.51100000000E-03 0. -1.
        -11    1    3    3    0    0 -0.12180027970E+02 -0.27671994570E+02  0.20881090451E+02  0.36743874367E+02  0.51100000000E-03 0.  1.
        -12    1    3    3    0    0 -0.79396552552E+01  0.16356807306E+01  0.11493419605E+01  0.81874638299E+01  0.00000000000E+00 0.  1.
</event>
<event>
 7    1  0.5910662E-013  0.5052885E+02  0.7816164E-02  0.1300439E+00
        -11   -1    0    0    0    0  0.00000000000E+00  0.00000000000E+00  0.45593999997E+02  0.45594000000E+02  0.51100000000E-03 0.  1.
         11   -1    0    0    0    0 -0.00000000000E+00 -0.00000000000E+00 -0.45593999997E+02  0.45594000000E+02  0.51100000000E-03 0. -1.
    9900012    2    1    2    0    0 -0.12676097033E+02 -0.28709255659E+02  0.25850754590E+02  0.50528852083E+02  0.29999976391E+02 0.  0.
         12    1    1    2    0    0  0.12676097033E+02  0.28709255659E+02 -0.25850754590E+02  0.40659147917E+02  0.00000000000E+00 0. -1.
         11    1    3    3    0    0 -0.44266086697E+01 -0.26548039067E+02  0.11147461911E+02  0.29131755009E+02  0.51100000000E-03 0. -1.
        -11    1    3    3    0    0 -0.37592731429E+01  0.52444093884E+01  0.88154476018E+01  0.10924654735E+02  0.51100000000E-03 0.  1.
        -12    1    3    3    0    0 -0.44902152201E+01 -0.74056259809E+01  0.58878450771E+01  0.10472442339E+02  0.00000000000E+00 0.  1.
</event>
<event>
 7    1  0.5910662E-013  0.5052886E+02  0.7816164E-02  0.1300439E+00
        -11   -1    0    0    0    0  0.00000000000E+00  0.00000000000E+00  0.45593999997E+02  0.45594000000E+02  0.51100000000E-03 0. -1.
         11   -1    0    0    0    0 -0.00000000000E+00 -0.00000000000E+00 -0.45593999997E+02  0.45594000000E+02  0.51100000000E-03 0.  1.
    9900012    2    1    2    0    0  0.16175942820E+02 -0.25485804162E+02 -0.27239284842E+02  0.50528856150E+02  0.29999988753E+02 0.  0.
         12    1    1    2    0    0 -0.16175942820E+02  0.25485804162E+02  0.27239284842E+02  0.40659143850E+02  0.00000000000E+00 0. -1.
         11    1    3    3    0    0  0.48912832696E+00 -0.24839232488E+02 -0.13706471656E+02  0.28374179858E+02  0.51100000000E-03 0. -1.
        -11    1    3    3    0    0  0.44298180374E+01 -0.56229127303E+00  0.11037233794E+00  0.44667260532E+01  0.51100000000E-03 0.  1.
         12    1    3    3    0    0  0.11256996456E+02 -0.84280401590E-01 -0.13643185524E+02  0.17687950239E+02  0.00000000000E+00 0. -1.
</event>
<event>
 7    1  0.5910662E-013  0.5052886E+02  0.7816164E-02  0.1300439E+00
        -11   -1    0    0    0    0  0.00000000000E+00  0.00000000000E+00  0.45593999997E+02  0.45594000000E+02  0.51100000000E-03 0.  1.
         11   -1    0    0    0    0 -0.00000000000E+00 -0.00000000000E+00 -0.45593999997E+02  0.45594000000E+02  0.51100000000E-03 0. -1.
    9900012    2    1    2    0    0 -0.14164435786E+02 -0.35618321461E+02  0.13559842867E+02  0.50528863224E+02  0.30000010255E+02 0.  0.
         12    1    1    2    0    0  0.14164435786E+02  0.35618321461E+02 -0.13559842867E+02  0.40659136776E+02  0.00000000000E+00 0. -1.
         11    1    3    3    0    0 -0.42445302815E+01 -0.36758371748E+02  0.78308027440E+01  0.37822154919E+02  0.51100000000E-03 0. -1.
        -11    1    3    3    0    0 -0.51755909992E+01 -0.71983951233E+00  0.55281060641E+01  0.76068960839E+01  0.51100000000E-03 0.  1.
         12    1    3    3    0    0 -0.47443145049E+01  0.18598897997E+01  0.20093405923E+00  0.50998122205E+01  0.00000000000E+00 0. -1.
</event>
<event>
 7    1  0.5910662E-013  0.5052886E+02  0.7816164E-02  0.1300439E+00
        -11   -1    0    0    0    0  0.00000000000E+00  0.00000000000E+00  0.45593999997E+02  0.45594000000E+02  0.51100000000E-03 0. -1.
         11   -1    0    0    0    0 -0.00000000000E+00 -0.00000000000E+00 -0.45593999997E+02  0.45594000000E+02  0.51100000000E-03 0.  1.
    9900012    2    1    2    0    0  0.16500917483E+02  0.32407971393E+02 -0.18182649066E+02  0.50528860626E+02  0.30000002358E+02 0.  0.
         12    1    1    2    0    0 -0.16500917483E+02 -0.32407971393E+02  0.18182649066E+02  0.40659139374E+02  0.00000000000E+00 0. -1.
         11    1    3    3    0    0 -0.16060028074E+01 -0.34189836950E+00  0.14292938115E+01  0.21769291613E+01  0.51100000000E-03 0. -1.
        -11    1    3    3    0    0  0.41393683452E+01  0.18654921500E+02 -0.21083040954E+02  0.28454087274E+02  0.51100000000E-03 0.  1.
        -12    1    3    3    0    0  0.13967551946E+02  0.14094948262E+02  0.14710980768E+01  0.19897844190E+02  0.00000000000E+00 0.  1.
</event>
<event>
 7    1  0.5910662E-013  0.5052887E+02  0.7816164E-02  0.1300439E+00
        -11   -1    0    0    0    0  0.00000000000E+00  0.00000000000E+00  0.45593999997E+02  0.45594000000E+02  0.51100000000E-03 0. -1.
         11   -1    0    0    0    0 -0.00000000000E+00 -0.00000000000E+00 -0.45593999997E+02  0.45594000000E+02  0.51100000000E-03 0.  1.
    9900012    2    1    2    0    0 -0.54653799414E+01 -0.39055076700E+02  0.98992822272E+01  0.50528865940E+02  0.30000018510E+02 0.  0.
         12    1    1    2    0    0  0.54653799414E+01  0.39055076700E+02 -0.98992822272E+01  0.40659134060E+02  0.00000000000E+00 0. -1.
         11    1    3    3    0    0  0.21598847595E+01 -0.14334354297E+02 -0.16749731444E+01  0.14592612877E+02  0.51100000000E-03 0. -1.
        -11    1    3    3    0    0 -0.97170737654E+01 -0.23216794062E+02  0.16696299365E+02  0.30202772420E+02  0.51100000000E-03 0.  1.
        -12    1    3    3    0    0  0.20918090645E+01 -0.15039283406E+01 -0.51220439932E+01  0.57334806431E+01  0.00000000000E+00 0.  1.
</event>
<event>
 7    1  0.5910662E-013  0.5052886E+02  0.7816164E-02  0.1300439E+00
        -11   -1    0    0    0    0  0.00000000000E+00  0.00000000000E+00  0.45593999997E+02  0.45594000000E+02  0.51100000000E-03 0.  1.
         11   -1    0    0    0    0 -0.00000000000E+00 -0.00000000000E+00 -0.45593999997E+02  0.45594000000E+02  0.51100000000E-03 0. -1.
    9900012    2    1    2    0    0 -0.96841399389E+01  0.47312192351E+01  0.39204569596E+02  0.50528864754E+02  0.30000014905E+02 0.  0.
         12    1    1    2    0    0  0.96841399389E+01 -0.47312192351E+01 -0.39204569596E+02  0.40659135246E+02  0.00000000000E+00 0. -1.
         11    1    3    3    0    0 -0.10337781995E+02  0.10937921752E+02  0.10656921069E+02  0.18441199412E+02  0.51100000000E-03 0. -1.
        -11    1    3    3    0    0 -0.29242615587E+01 -0.57125695455E+01  0.46661741327E+01  0.79346038196E+01  0.51100000000E-03 0.  1.
        -12    1    3    3    0    0  0.35779036148E+01 -0.49413297139E+00  0.23881474393E+02  0.24153061522E+02  0.00000000000E+00 0.  1.
</event>
<event>
 7    1  0.5910662E-013  0.5052886E+02  0.7816164E-02  0.1300439E+00
        -11   -1    0    0    0    0  0.00000000000E+00  0.00000000000E+00  0.45593999997E+02  0.45594000000E+02  0.51100000000E-03 0.  1.
         11   -1    0    0    0    0 -0.00000000000E+00 -0.00000000000E+00 -0.45593999997E+02  0.45594000000E+02  0.51100000000E-03 0. -1.
    9900012    2    1    2    0    0 -0.19565822080E+02  0.88002271695E+01  0.34538390575E+02  0.50528858157E+02  0.29999994853E+02 0.  0.
         12    1    1    2    0    0  0.19565822080E+02 -0.88002271695E+01 -0.34538390575E+02  0.40659141843E+02  0.00000000000E+00 0. -1.
         11    1    3    3    0    0  0.24660959398E+01  0.16500533605E+01 -0.29823619588E+01  0.42069927967E+01  0.51100000000E-03 0. -1.
        -11    1    3    3    0    0 -0.14582678302E+02  0.11440186337E+02  0.26687319968E+02  0.32492236260E+02  0.51100000000E-03 0.  1.
        -12    1    3    3    0    0 -0.74492397182E+01 -0.42900125276E+01  0.10833432566E+02  0.13829629100E+02  0.00000000000E+00 0.  1.
</event>
<event>
 7    1  0.5910662E-013  0.5052886E+02  0.7816164E-02  0.1300439E+00
        -11   -1    0    0    0    0  0.00000000000E+00  0.00000000000E+00  0.45593999997E+02  0.45594000000E+02  0.51100000000E-03 0.  1.
         11   -1    0    0    0    0 -0.00000000000E+00 -0.00000000000E+00 -0.45593999997E+02  0.45594000000E+02  0.51100000000E-03 0. -1.
    9900012    2    1    2    0    0  0.24721950328E+01 -0.22490279759E+02  0.33782259179E+02  0.50528862440E+02  0.30000007872E+02 0.  0.
         12    1    1    2    0    0 -0.24721950328E+01  0.22490279759E+02 -0.33782259179E+02  0.40659137560E+02  0.00000000000E+00 0. -1.
         11    1    3    3    0    0  0.10841156306E+02 -0.50005862983E+01  0.42283564448E+01  0.12665525329E+02  0.51100000000E-03 0. -1.
        -11    1    3    3    0    0 -0.16323764071E+01 -0.11130955967E+02  0.25261953841E+02  0.27653736557E+02  0.51100000000E-03 0.  1.
         12    1    3    3    0    0 -0.67365848657E+01 -0.63587374934E+01  0.42919488936E+01  0.10209600554E+02  0.00000000000E+00 0. -1.
</event>
<event>
 7    1  0.5910662E-013  0.5052886E+02  0.7816164E-02  0.1300439E+00
        -11   -1    0    0    0    0  0.00000000000E+00  0.00000000000E+00  0.45593999997E+02  0.45594000000E+02  0.51100000000E-03 0. -1.
         11   -1    0    0    0    0 -0.00000000000E+00 -0.00000000000E+00 -0.45593999997E+02  0.45594000000E+02  0.51100000000E-03 0.  1.
    9900012    2    1    2    0    0  0.53045052726E+01  0.31821754352E+02 -0.24746792002E+02  0.50528861536E+02  0.30000005125E+02 0.  0.
         12    1    1    2    0    0 -0.53045052726E+01 -0.31821754352E+02  0.24746792002E+02  0.40659138464E+02  0.00000000000E+00 0. -1.
         11    1    3    3    0    0  0.23585398957E+01 -0.42023184084E+01 -0.37809765058E+00  0.48337509803E+01  0.51100000000E-03 0. -1.
        -11    1    3    3    0    0  0.36743078437E+01  0.34029635251E+02 -0.17372574579E+02  0.38383889344E+02  0.51100000000E-03 0.  1.
        -12    1    3    3    0    0 -0.72834246685E+00  0.19944375103E+01 -0.69961197728E+01  0.73112212117E+01  0.00000000000E+00 0.  1.
</event>
<event>
 7    1  0.5910662E-013  0.5052887E+02  0.7816164E-02  0.1300439E+00
        -11   -1    0    0    0    0  0.00000000000E+00  0.00000000000E+00  0.45593999997E+02  0.45594000000E+02  0.51100000000E-03 0. -1.
         11   -1    0    0    0    0 -0.00000000000E+00 -0.00000000000E+00 -0.45593999997E+02  0.45594000000E+02  0.51100000000E-03 0.  1.
    9900012    2    1    2    0    0  0.23712979468E+02  0.25787571871E+02 -0.20636388490E+02  0.50528870789E+02  0.30000033251E+02 0.  0.
         12    1    1    2    0    0 -0.23712979468E+02 -0.25787571871E+02  0.20636388490E+02  0.40659129211E+02  0.00000000000E+00 0. -1.
         11    1    3    3    0    0 -0.53468927243E+01  0.53611913901E+01 -0.64375312742E+01  0.99384829875E+01  0.51100000000E-03 0. -1.
        -11    1    3    3    0    0  0.10722029904E+02  0.32773521791E+00 -0.52994293418E+01  0.11964668288E+02  0.51100000000E-03 0.  1.
         12    1    3    3    0    0  0.18337842288E+02  0.20098645263E+02 -0.88994278737E+01  0.28625719514E+02  0.00000000000E+00 0. -1.
</event>
<event>
 7    1  0.5910662E-013  0.5052886E+02  0.7816164E-02  0.1300439E+00
        -11   -1    0    0    0    0  0.00000000000E+00  0.00000000000E+00  0.45593999997E+02  0.45594000000E+02  0.51100000000E-03 0.  1.
         11   -1    0    0    0    0 -0.00000000000E+00 -0.00000000000E+00 -0.45593999997E+02  0.45594000000E+02  0.51100000000E-03 0. -1.
    9900012    2    1    2    0    0 -0.60133720388E+01  0.40147524448E+02  0.22762331218E+01  0.50528860808E+02  0.30000002912E+02 0.  0.
         12    1    1    2    0    0  0.60133720388E+01 -0.40147524448E+02 -0.22762331218E+01  0.40659139192E+02  0.00000000000E+00 0. -1.
         11    1    3    3    0    0 -0.18219711153E+01  0.81172756086E+01  0.84607428381E+01  0.11865661030E+02  0.51100000000E-03 0. -1.
        -11    1    3    3    0    0 -0.13264782603E+01  0.33004405346E+02 -0.93047862020E+01  0.34316604776E+02  0.51100000000E-03 0.  1.
        -12    1    3    3    0    0 -0.28649226632E+01 -0.97415650612E+00  0.31202764857E+01  0.43465950020E+01  0.00000000000E+00 0.  1.
</event>
<event>
 7    1  0.5910662E-013  0.5052885E+02  0.7816164E-02  0.1300439E+00
        -11   -1    0    0    0    0  0.00000000000E+00  0.00000000000E+00  0.45593999997E+02  0.45594000000E+02  0.51100000000E-03 0.  1.
         11   -1    0    0    0    0 -0.00000000000E+00 -0.00000000000E+00 -0.45593999997E+02  0.45594000000E+02  0.51100000000E-03 0. -1.
    9900012    2    1    2    0    0 -0.69360992631E+01 -0.37974402607E+02  0.12767203329E+02  0.50528853339E+02  0.29999980210E+02 0.  0.
         12    1    1    2    0    0  0.69360992631E+01  0.37974402607E+02 -0.12767203329E+02  0.40659146661E+02  0.00000000000E+00 0. -1.
         11    1    3    3    0    0  0.10570975103E+02 -0.11864531229E+02  0.74629411359E+01  0.17555856759E+02  0.51100000000E-03 0. -1.
        -11    1    3    3    0    0 -0.20593606244E+01 -0.73247473840E+01  0.40503915609E+01  0.86196613900E+01  0.51100000000E-03 0.  1.
         12    1    3    3    0    0 -0.15447713742E+02 -0.18785123994E+02  0.12538706324E+01  0.24353335190E+02  0.00000000000E+00 0. -1.
</event>
<event>
 7    1  0.5910662E-013  0.5052886E+02  0.7816164E-02  0.1300439E+00
        -11   -1    0    0    0    0  0.00000000000E+00  0.00000000000E+00  0.45593999997E+02  0.45594000000E+02  0.51100000000E-03 0. -1.
         11   -1    0    0    0    0 -0.00000000000E+00 -0.00000000000E+00 -0.45593999997E+02  0.45594000000E+02  0.51100000000E-03 0.  1.
    9900012    2    1    2    0    0 -0.16464695915E+02  0.19278154404E+02 -0.31787300296E+02  0.50528857007E+02  0.29999991358E+02 0.  0.
         12    1    1    2    0    0  0.16464695915E+02 -0.19278154404E+02  0.31787300296E+02  0.40659142993E+02  0.00000000000E+00 0. -1.
         11    1    3    3    0    0 -0.11151133933E+02  0.20597502623E+02 -0.63952388837E+01  0.24279703106E+02  0.51100000000E-03 0. -1.
        -11    1    3    3    0    0 -0.16142763302E+01  0.77741804632E+00 -0.33336963037E+01  0.37846794045E+01  0.51100000000E-03 0.  1.
         12    1    3    3    0    0 -0.36992856521E+01 -0.20967662652E+01 -0.22058365109E+02  0.22464474496E+02  0.00000000000E+00 0. -1.
</event>
<event>
 7    1  0.5910662E-013  0.5052882E+02  0.7816164E-02  0.1300439E+00
        -11   -1    0    0    0    0  0.00000000000E+00  0.00000000000E+00  0.45593999997E+02  0.45594000000E+02  0.51100000000E-03 0. -1.
         11   -1    0    0    0    0 -0.00000000000E+00 -0.00000000000E+00 -0.45593999997E+02  0.45594000000E+02  0.51100000000E-03 0.  1.
    9900012    2    1    2    0    0  0.32234801644E+02  0.87917292535E+01 -0.23168772856E+02  0.50528819291E+02  0.29999876715E+02 0.  0.
         12    1    1    2    0    0 -0.32234801644E+02 -0.87917292535E+01  0.23168772856E+02  0.40659180709E+02  0.00000000000E+00 0. -1.
         11    1    3    3    0    0  0.20797545926E+02  0.17644860786E+02 -0.19678645054E+02  0.33632247919E+02  0.51100000000E-03 0. -1.
        -11    1    3    3    0    0  0.43676684359E+01 -0.82831331336E+01 -0.11847455865E+01  0.94387734607E+01  0.51100000000E-03 0.  1.
         12    1    3    3    0    0  0.70695872821E+01 -0.56999839861E+00 -0.23053822158E+01  0.74577979106E+01  0.00000000000E+00 0. -1.
</event>
<event>
 7    1  0.5910662E-013  0.5052886E+02  0.7816164E-02  0.1300439E+00
        -11   -1    0    0    0    0  0.00000000000E+00  0.00000000000E+00  0.45593999997E+02  0.45594000000E+02  0.51100000000E-03 0. -1.
         11   -1    0    0    0    0 -0.00000000000E+00 -0.00000000000E+00 -0.45593999997E+02  0.45594000000E+02  0.51100000000E-03 0.  1.
    9900012    2    1    2    0    0  0.21774128585E+02  0.17656685767E+02 -0.29449862239E+02  0.50528860636E+02  0.30000002389E+02 0.  0.
         12    1    1    2    0    0 -0.21774128585E+02 -0.17656685767E+02  0.29449862239E+02  0.40659139364E+02  0.00000000000E+00 0. -1.
         11    1    3    3    0    0  0.53614472253E+01  0.14423570135E+02  0.46052897385E+00  0.15394693208E+02  0.51100000000E-03 0. -1.
        -11    1    3    3    0    0  0.16374395879E+02  0.42260013350E+01 -0.25392781486E+02  0.30508577147E+02  0.51100000000E-03 0.  1.
        -12    1    3    3    0    0  0.38285480347E-01 -0.99288570245E+00 -0.45176097276E+01  0.46255902809E+01  0.00000000000E+00 0.  1.
</event>
<event>
 7    1  0.5910662E-013  0.5052886E+02  0.7816164E-02  0.1300439E+00
        -11   -1    0    0    0    0  0.00000000000E+00  0.00000000000E+00  0.45593999997E+02  0.45594000000E+02  0.51100000000E-03 0.  1.
         11   -1    0    0    0    0 -0.00000000000E+00 -0.00000000000E+00 -0.45593999997E+02  0.45594000000E+02  0.51100000000E-03 0. -1.
    9900012    2    1    2    0    0  0.28832849701E+02 -0.27477519216E+02 -0.81742497801E+01  0.50528860270E+02  0.30000001277E+02 0.  0.
         12    1    1    2    0    0 -0.28832849701E+02  0.27477519216E+02  0.81742497801E+01  0.40659139730E+02  0.00000000000E+00 0. -1.
         11    1    3    3    0    0 -0.10455946479E+01 -0.73979958149E+01  0.17191517431E-01  0.74715397378E+01  0.51100000000E-03 0. -1.
        -11    1    3    3    0    0  0.19922342414E+02 -0.67669321321E+00 -0.73083479736E+01  0.21231335128E+02  0.51100000000E-03 0.  1.
        -12    1    3    3    0    0  0.99561019345E+01 -0.19402830188E+02 -0.88309332395E+00  0.21825985404E+02  0.00000000000E+00 0.  1.
</event>
<event>
 7    1  0.5910662E-013  0.5052886E+02  0.7816164E-02  0.1300439E+00
        -11   -1    0    0    0    0  0.00000000000E+00  0.00000000000E+00  0.45593999997E+02  0.45594000000E+02  0.51100000000E-03 0.  1.
         11   -1    0    0    0    0 -0.00000000000E+00 -0.00000000000E+00 -0.45593999997E+02  0.45594000000E+02  0.51100000000E-03 0. -1.
    9900012    2    1    2    0    0  0.16937736369E+02 -0.30835881164E+02 -0.20382023646E+02  0.50528863654E+02  0.30000011564E+02 0.  0.
         12    1    1    2    0    0 -0.16937736369E+02  0.30835881164E+02  0.20382023646E+02  0.40659136346E+02  0.00000000000E+00 0. -1.
         11    1    3    3    0    0  0.14419974553E+02 -0.13180178220E+02 -0.21760695767E+02  0.29243471828E+02  0.51100000000E-03 0. -1.
        -11    1    3    3    0    0 -0.13188915071E+01 -0.11758742339E+02 -0.39342870584E+01  0.12469407008E+02  0.51100000000E-03 0.  1.
         12    1    3    3    0    0  0.38366533231E+01 -0.58969606045E+01  0.53129591788E+01  0.88159848190E+01  0.00000000000E+00 0. -1.
</event>
<event>
 7    1  0.5910662E-013  0.5052886E+02  0.7816164E-02  0.1300439E+00
        -11   -1    0    0    0    0  0.00000000000E+00  0.00000000000E+00  0.45593999997E+02  0.45594000000E+02  0.51100000000E-03 0.  1.
         11   -1    0    0    0    0 -0.00000000000E+00 -0.00000000000E+00 -0.45593999997E+02  0.45594000000E+02  0.51100000000E-03 0. -1.
    9900012    2    1    2    0    0 -0.25952560898E+02  0.10513223124E+01  0.31281380722E+02  0.50528862335E+02  0.30000007555E+02 0.  0.
         12    1    1    2    0    0  0.25952560898E+02 -0.10513223124E+01 -0.31281380722E+02  0.40659137665E+02  0.00000000000E+00 0. -1.
         11    1    3    3    0    0 -0.35371152411E+01  0.96964335545E+01  0.35279781588E+01  0.10907732948E+02  0.51100000000E-03 0. -1.
        -11    1    3    3    0    0 -0.21385417042E+02 -0.98716709921E+01  0.17757475417E+02  0.29497692853E+02  0.51100000000E-03 0.  1.
        -12    1    3    3    0    0 -0.10300286153E+01  0.12265597500E+01  0.99959271456E+01  0.10123436534E+02  0.00000000000E+00 0.  1.
</event>
<event>
 7    1  0.5910662E-013  0.5052886E+02  0.7816164E-02  0.1300439E+00
        -11   -1    0    0    0    0  0.00000000000E+00  0.00000000000E+00  0.45593999997E+02  0.45594000000E+02  0.51100000000E-03 0.  1.
         11   -1    0    0    0    0 -0.00000000000E+00 -0.00000000000E+00 -0.45593999997E+02  0.45594000000E+02  0.51100000000E-03 0. -1.
    9900012    2    1    2    0    0  0.72524026258E+01 -0.37609841531E+02  0.13640686006E+02  0.50528857872E+02  0.29999993988E+02 0.  0.
         12    1    1    2    0    0 -0.72524026258E+01  0.37609841531E+02 -0.13640686006E+02  0.40659142128E+02  0.00000000000E+00 0. -1.
         11    1    3    3    0    0 -0.95578762725E+01 -0.22916225070E+02  0.10833749401E+02  0.27090154976E+02  0.51100000000E-03 0. -1.
        -11    1    3    3    0    0  0.14900000441E+01 -0.47095980492E+01  0.10155393672E-01  0.49396879770E+01  0.51100000000E-03 0.  1.
         12    1    3    3    0    0  0.15320278854E+02 -0.99840184119E+01  0.27967812118E+01  0.18499014919E+02  0.00000000000E+00 0. -1.
</event>
<event>
 7    1  0.5910662E-013  0.5052886E+02  0.7816164E-02  0.1300439E+00
        -11   -1    0    0    0    0  0.00000000000E+00  0.00000000000E+00  0.45593999997E+02  0.45594000000E+02  0.51100000000E-03 0.  1.
         11   -1    0    0    0    0 -0.00000000000E+00 -0.00000000000E+00 -0.45593999997E+02  0.45594000000E+02  0.51100000000E-03 0. -1.
    9900012    2    1    2    0    0 -0.21482502721E+02 -0.18467730772E+02  0.29165232540E+02  0.50528858443E+02  0.29999995723E+02 0.  0.
         12    1    1    2    0    0  0.21482502721E+02  0.18467730772E+02 -0.29165232540E+02  0.40659141557E+02  0.00000000000E+00 0. -1.
         11    1    3    3    0    0 -0.10636402993E+01 -0.14872036285E+02  0.48345896024E+01  0.15674248014E+02  0.51100000000E-03 0.  1.
        -11    1    3    3    0    0 -0.35414721736E+01  0.30665294549E+01  0.12093193621E+02  0.12968845757E+02  0.51100000000E-03 0. -1.
        -12    1    3    3    0    0 -0.16877390248E+02 -0.66622239426E+01  0.12237449317E+02  0.21885764671E+02  0.00000000000E+00 0.  1.
</event>
<event>
 7    1  0.5910662E-013  0.5052887E+02  0.7816164E-02  0.1300439E+00
        -11   -1    0    0    0    0  0.00000000000E+00  0.00000000000E+00  0.45593999997E+02  0.45594000000E+02  0.51100000000E-03 0.  1.
         11   -1    0    0    0    0 -0.00000000000E+00 -0.00000000000E+00 -0.45593999997E+02  0.45594000000E+02  0.51100000000E-03 0. -1.
    9900012    2    1    2    0    0  0.45647310488E+01  0.30089896933E+02  0.26961565590E+02  0.50528872045E+02  0.30000037067E+02 0.  0.
         12    1    1    2    0    0 -0.45647310488E+01 -0.30089896933E+02 -0.26961565590E+02  0.40659127955E+02  0.00000000000E+00 0. -1.
         11    1    3    3    0    0 -0.44154493521E+01  0.12182562512E+02  0.12894320954E+02  0.18280441336E+02  0.51100000000E-03 0. -1.
        -11    1    3    3    0    0  0.14269175349E+02  0.75943915218E+01  0.34456052731E+01  0.16527442140E+02  0.51100000000E-03 0.  1.
        -12    1    3    3    0    0 -0.52889949479E+01  0.10312942900E+02  0.10621639363E+02  0.15720988569E+02  0.00000000000E+00 0.  1.
</event>
<event>
 7    1  0.5910662E-013  0.5052885E+02  0.7816164E-02  0.1300439E+00
        -11   -1    0    0    0    0  0.00000000000E+00  0.00000000000E+00  0.45593999997E+02  0.45594000000E+02  0.51100000000E-03 0.  1.
         11   -1    0    0    0    0 -0.00000000000E+00 -0.00000000000E+00 -0.45593999997E+02  0.45594000000E+02  0.51100000000E-03 0. -1.
    9900012    2    1    2    0    0  0.20401848523E+02  0.24796238062E+02  0.24941489551E+02  0.50528846710E+02  0.29999960061E+02 0.  0.
         12    1    1    2    0    0 -0.20401848523E+02 -0.24796238062E+02 -0.24941489551E+02  0.40659153290E+02  0.00000000000E+00 0. -1.
         11    1    3    3    0    0  0.77177739828E+01 -0.20412417949E+00 -0.72942917457E+00  0.77548545514E+01  0.51100000000E-03 0. -1.
        -11    1    3    3    0    0 -0.21035696293E+01  0.17240705516E+02  0.11113044175E+02  0.20619570387E+02  0.51100000000E-03 0.  1.
        -12    1    3    3    0    0  0.14787644170E+02  0.77596567261E+01  0.14557874551E+02  0.22154421772E+02  0.00000000000E+00 0.  1.
</event>
<event>
 7    1  0.5910662E-013  0.5052884E+02  0.7816164E-02  0.1300439E+00
        -11   -1    0    0    0    0  0.00000000000E+00  0.00000000000E+00  0.45593999997E+02  0.45594000000E+02  0.51100000000E-03 0.  1.
         11   -1    0    0    0    0 -0.00000000000E+00 -0.00000000000E+00 -0.45593999997E+02  0.45594000000E+02  0.51100000000E-03 0. -1.
    9900012    2    1    2    0    0 -0.65232598479E+01 -0.26845089673E+02  0.29832117263E+02  0.50528843848E+02  0.29999951362E+02 0.  0.
         12    1    1    2    0    0  0.65232598479E+01  0.26845089673E+02 -0.29832117263E+02  0.40659156152E+02  0.00000000000E+00 0. -1.
         11    1    3    3    0    0  0.10979058540E+01 -0.42746450130E+01 -0.48147046790E+01  0.65314139862E+01  0.51100000000E-03 0. -1.
        -11    1    3    3    0    0  0.22508158803E+01 -0.13965298281E+01  0.86461468760E+01  0.90428050820E+01  0.51100000000E-03 0.  1.
         12    1    3    3    0    0 -0.98719815823E+01 -0.21173914831E+02  0.26000675066E+02  0.34954624780E+02  0.00000000000E+00 0. -1.
</event>
<event>
 7    1  0.5910662E-013  0.5052886E+02  0.7816164E-02  0.1300439E+00
        -11   -1    0    0    0    0  0.00000000000E+00  0.00000000000E+00  0.45593999997E+02  0.45594000000E+02  0.51100000000E-03 0.  1.
         11   -1    0    0    0    0 -0.00000000000E+00 -0.00000000000E+00 -0.45593999997E+02  0.45594000000E+02  0.51100000000E-03 0. -1.
    9900012    2    1    2    0    0  0.60795071572E+01 -0.60704818467E+01  0.39741089872E+02  0.50528863495E+02  0.30000011080E+02 0.  0.
         12    1    1    2    0    0 -0.60795071572E+01  0.60704818467E+01 -0.39741089872E+02  0.40659136505E+02  0.00000000000E+00 0. -1.
         11    1    3    3    0    0 -0.41649534196E+01 -0.21045961984E+01 -0.29231675676E+01  0.55064572127E+01  0.51100000000E-03 0. -1.
        -11    1    3    3    0    0  0.79077098475E+01  0.10684636054E+01  0.17207767989E+02  0.18967887835E+02  0.51100000000E-03 0.  1.
         12    1    3    3    0    0  0.23367507294E+01 -0.50343492536E+01  0.25456489451E+02  0.26054518448E+02  0.00000000000E+00 0. -1.
</event>
<event>
 7    1  0.5910662E-013  0.5052886E+02  0.7816164E-02  0.1300439E+00
        -11   -1    0    0    0    0  0.00000000000E+00  0.00000000000E+00  0.45593999997E+02  0.45594000000E+02  0.51100000000E-03 0.  1.
         11   -1    0    0    0    0 -0.00000000000E+00 -0.00000000000E+00 -0.45593999997E+02  0.45594000000E+02  0.51100000000E-03 0. -1.
    9900012    2    1    2    0    0 -0.26638914297E+02 -0.11434180540E+02  0.28509528266E+02  0.50528862755E+02  0.30000008829E+02 0.  0.
         12    1    1    2    0    0  0.26638914297E+02  0.11434180540E+02 -0.28509528266E+02  0.40659137245E+02  0.00000000000E+00 0. -1.
         11    1    3    3    0    0  0.22747686652E+01  0.10859993613E+01  0.14309437539E+02  0.14529761527E+02  0.51100000000E-03 0. -1.
        -11    1    3    3    0    0 -0.28870610527E+02 -0.10659781122E+02  0.14649859189E+02  0.34084622050E+02  0.51100000000E-03 0.  1.
        -12    1    3    3    0    0 -0.43072435643E-01 -0.18603987794E+01 -0.44976846125E+00  0.19144791777E+01  0.00000000000E+00 0.  1.
</event>
<event>
 7    1  0.5910662E-013  0.5052887E+02  0.7816164E-02  0.1300439E+00
        -11   -1    0    0    0    0  0.00000000000E+00  0.00000000000E+00  0.45593999997E+02  0.45594000000E+02  0.51100000000E-03 0.  1.
         11   -1    0    0    0    0 -0.00000000000E+00 -0.00000000000E+00 -0.45593999997E+02  0.45594000000E+02  0.51100000000E-03 0. -1.
    9900012    2    1    2    0    0 -0.76729715467E+01 -0.82746363372E+01  0.39061759603E+02  0.50528866190E+02  0.30000019272E+02 0.  0.
         12    1    1    2    0    0  0.76729715467E+01  0.82746363372E+01 -0.39061759603E+02  0.40659133810E+02  0.00000000000E+00 0. -1.
         11    1    3    3    0    0 -0.10317162596E+02 -0.16813485847E+02  0.20996245241E+02  0.28809364186E+02  0.51100000000E-03 0.  1.
        -11    1    3    3    0    0  0.49214083519E+01  0.60067657712E+01  0.82489423543E+01  0.11329013436E+02  0.51100000000E-03 0. -1.
        -12    1    3    3    0    0 -0.22772173030E+01  0.25320837385E+01  0.98165720081E+01  0.10390488569E+02  0.00000000000E+00 0.  1.
</event>
<event>
 7    1  0.5910662E-013  0.5052893E+02  0.7816164E-02  0.1300439E+00
        -11   -1    0    0    0    0  0.00000000000E+00  0.00000000000E+00  0.45593999997E+02  0.45594000000E+02  0.51100000000E-03 0.  1.
         11   -1    0    0    0    0 -0.00000000000E+00 -0.00000000000E+00 -0.45593999997E+02  0.45594000000E+02  0.51100000000E-03 0. -1.
    9900012    2    1    2    0    0  0.10708185202E+02 -0.32026497386E+02  0.22645043244E+02  0.50528932762E+02  0.30000221623E+02 0.  0.
         12    1    1    2    0    0 -0.10708185202E+02  0.32026497386E+02 -0.22645043244E+02  0.40659067238E+02  0.00000000000E+00 0. -1.
         11    1    3    3    0    0 -0.65181080910E+00  0.21544113303E+01  0.44074516735E+00  0.22936002430E+01  0.51100000000E-03 0. -1.
        -11    1    3    3    0    0  0.18538061482E+02 -0.25976893941E+02  0.16915564353E+02  0.36119178561E+02  0.51100000000E-03 0.  1.
        -12    1    3    3    0    0 -0.71780654703E+01 -0.82040147753E+01  0.52887337236E+01  0.12116153958E+02  0.00000000000E+00 0.  1.
</event>
<event>
 7    1  0.5910662E-013  0.5052882E+02  0.7816164E-02  0.1300439E+00
        -11   -1    0    0    0    0  0.00000000000E+00  0.00000000000E+00  0.45593999997E+02  0.45594000000E+02  0.51100000000E-03 0.  1.
         11   -1    0    0    0    0 -0.00000000000E+00 -0.00000000000E+00 -0.45593999997E+02  0.45594000000E+02  0.51100000000E-03 0. -1.
    9900012    2    1    2    0    0  0.26198407049E+02 -0.30970310834E+02  0.27663166305E+01  0.50528816625E+02  0.29999868612E+02 0.  0.
         12    1    1    2    0    0 -0.26198407049E+02  0.30970310834E+02 -0.27663166305E+01  0.40659183375E+02  0.00000000000E+00 0. -1.
         11    1    3    3    0    0  0.22218934670E+02 -0.23897493700E+02 -0.14341408339E+01  0.32662333401E+02  0.51100000000E-03 0. -1.
        -11    1    3    3    0    0 -0.20061071024E+01  0.20734462848E+01  0.61223390332E+01  0.67680632903E+01  0.51100000000E-03 0.  1.
        -12    1    3    3    0    0  0.59855794813E+01 -0.91462634186E+01 -0.19218815689E+01  0.11098419933E+02  0.00000000000E+00 0.  1.
</event>
<event>
 7    1  0.5910662E-013  0.5052886E+02  0.7816164E-02  0.1300439E+00
        -11   -1    0    0    0    0  0.00000000000E+00  0.00000000000E+00  0.45593999997E+02  0.45594000000E+02  0.51100000000E-03 0.  1.
         11   -1    0    0    0    0 -0.00000000000E+00 -0.00000000000E+00 -0.45593999997E+02  0.45594000000E+02  0.51100000000E-03 0. -1.
    9900012    2    1    2    0    0  0.26496008278E+01 -0.26496993673E+02  0.30725471474E+02  0.50528860122E+02  0.30000000828E+02 0.  0.
         12    1    1    2    0    0 -0.26496008278E+01  0.26496993673E+02 -0.30725471474E+02  0.40659139878E+02  0.00000000000E+00 0. -1.
         11    1    3    3    0    0  0.11464719649E+02 -0.94082240223E+00  0.10161032617E+02  0.15348339569E+02  0.51100000000E-03 0. -1.
        -11    1    3    3    0    0  0.17331889424E+01 -0.68631731047E+01  0.49308264701E+01  0.86267107819E+01  0.51100000000E-03 0.  1.
         12    1    3    3    0    0 -0.10548307763E+02 -0.18692998167E+02  0.15633612387E+02  0.26553809772E+02  0.00000000000E+00 0. -1.
</event>
<event>
 7    1  0.5910662E-013  0.5052886E+02  0.7816164E-02  0.1300439E+00
        -11   -1    0    0    0    0  0.00000000000E+00  0.00000000000E+00  0.45593999997E+02  0.45594000000E+02  0.51100000000E-03 0. -1.
         11   -1    0    0    0    0 -0.00000000000E+00 -0.00000000000E+00 -0.45593999997E+02  0.45594000000E+02  0.51100000000E-03 0.  1.
    9900012    2    1    2    0    0 -0.18588732687E+02 -0.33610107395E+02 -0.13341119194E+02  0.50528858797E+02  0.29999996800E+02 0.  0.
         12    1    1    2    0    0  0.18588732687E+02  0.33610107395E+02  0.13341119194E+02  0.40659141203E+02  0.00000000000E+00 0. -1.
         11    1    3    3    0    0 -0.11507580814E+02 -0.64641405066E+01 -0.11814934867E+02  0.17714463437E+02  0.51100000000E-03 0.  1.
        -11    1    3    3    0    0 -0.98726224755E+01 -0.26152762448E+02 -0.48389966549E+01  0.28369905659E+02  0.51100000000E-03 0. -1.
         12    1    3    3    0    0  0.27914706030E+01 -0.99320444072E+00  0.33128123278E+01  0.44444897017E+01  0.00000000000E+00 0. -1.
</event>
<event>
 7    1  0.5910662E-013  0.5052888E+02  0.7816164E-02  0.1300439E+00
        -11   -1    0    0    0    0  0.00000000000E+00  0.00000000000E+00  0.45593999997E+02  0.45594000000E+02  0.51100000000E-03 0.  1.
         11   -1    0    0    0    0 -0.00000000000E+00 -0.00000000000E+00 -0.45593999997E+02  0.45594000000E+02  0.51100000000E-03 0. -1.
    9900012    2    1    2    0    0  0.14616754156E+02 -0.12336289638E+01  0.37920878871E+02  0.50528875602E+02  0.30000047879E+02 0.  0.
         12    1    1    2    0    0 -0.14616754156E+02  0.12336289638E+01 -0.37920878871E+02  0.40659124398E+02  0.00000000000E+00 0. -1.
         11    1    3    3    0    0 -0.87092766426E+01 -0.36419748880E+01  0.13590465647E+02  0.16547393677E+02  0.51100000000E-03 0. -1.
        -11    1    3    3    0    0  0.70005260201E+01  0.14825792924E+01  0.95975547167E+01  0.11971568933E+02  0.51100000000E-03 0.  1.
         12    1    3    3    0    0  0.16325504779E+02  0.92576663168E+00  0.14732858507E+02  0.22009912992E+02  0.00000000000E+00 0. -1.
</event>
<event>
 7    1  0.5910662E-013  0.5052886E+02  0.7816164E-02  0.1300439E+00
        -11   -1    0    0    0    0  0.00000000000E+00  0.00000000000E+00  0.45593999997E+02  0.45594000000E+02  0.51100000000E-03 0.  1.
         11   -1    0    0    0    0 -0.00000000000E+00 -0.00000000000E+00 -0.45593999997E+02  0.45594000000E+02  0.51100000000E-03 0. -1.
    9900012    2    1    2    0    0  0.18844096504E+02 -0.12934760783E+01  0.36005447877E+02  0.50528864123E+02  0.30000012989E+02 0.  0.
         12    1    1    2    0    0 -0.18844096504E+02  0.12934760783E+01 -0.36005447877E+02  0.40659135877E+02  0.00000000000E+00 0. -1.
         11    1    3    3    0    0  0.18563526611E+01 -0.60615776302E+01  0.84537530668E+00  0.63955788041E+01  0.51100000000E-03 0. -1.
        -11    1    3    3    0    0  0.17092121011E+02 -0.31690539322E+01  0.17000466955E+02  0.24314591924E+02  0.51100000000E-03 0.  1.
         12    1    3    3    0    0 -0.10437716864E+00  0.79371554842E+01  0.18159605616E+02  0.19818693395E+02  0.00000000000E+00 0. -1.
</event>
<event>
 7    1  0.5910662E-013  0.5052886E+02  0.7816164E-02  0.1300439E+00
        -11   -1    0    0    0    0  0.00000000000E+00  0.00000000000E+00  0.45593999997E+02  0.45594000000E+02  0.51100000000E-03 0.  1.
         11   -1    0    0    0    0 -0.00000000000E+00 -0.00000000000E+00 -0.45593999997E+02  0.45594000000E+02  0.51100000000E-03 0. -1.
    9900012    2    1    2    0    0 -0.78842009569E+01  0.24919768862E+02  0.31144989446E+02  0.50528857456E+02  0.29999992722E+02 0.  0.
         12    1    1    2    0    0  0.78842009569E+01 -0.24919768862E+02 -0.31144989446E+02  0.40659142544E+02  0.00000000000E+00 0. -1.
         11    1    3    3    0    0  0.24753633770E+01 -0.36123023780E+01 -0.12319467544E+01  0.45490488440E+01  0.51100000000E-03 0. -1.
        -11    1    3    3    0    0 -0.10219457030E+02  0.14987028232E+02  0.23884737531E+02  0.29992149046E+02  0.51100000000E-03 0.  1.
        -12    1    3    3    0    0 -0.14010730341E+00  0.13545043008E+02  0.84921986696E+01  0.15987659565E+02  0.00000000000E+00 0.  1.
</event>
<event>
 7    1  0.5910662E-013  0.5052886E+02  0.7816164E-02  0.1300439E+00
        -11   -1    0    0    0    0  0.00000000000E+00  0.00000000000E+00  0.45593999997E+02  0.45594000000E+02  0.51100000000E-03 0.  1.
         11   -1    0    0    0    0 -0.00000000000E+00 -0.00000000000E+00 -0.45593999997E+02  0.45594000000E+02  0.51100000000E-03 0. -1.
    9900012    2    1    2    0    0 -0.30459446820E+01  0.93755788222E+01  0.39445993614E+02  0.50528859952E+02  0.30000000311E+02 0.  0.
         12    1    1    2    0    0  0.30459446820E+01 -0.93755788222E+01 -0.39445993614E+02  0.40659140048E+02  0.00000000000E+00 0. -1.
         11    1    3    3    0    0 -0.90536817761E+01  0.15489414158E+02  0.15690144193E+02  0.23834255384E+02  0.51100000000E-03 0. -1.
        -11    1    3    3    0    0  0.18590763690E+01 -0.40117170724E+01  0.20611901778E+02  0.21080809614E+02  0.51100000000E-03 0.  1.
         12    1    3    3    0    0  0.41486607251E+01 -0.21021182638E+01  0.31439476429E+01  0.56137949543E+01  0.00000000000E+00 0. -1.
</event>
<event>
 7    1  0.5910662E-013  0.5052888E+02  0.7816164E-02  0.1300439E+00
        -11   -1    0    0    0    0  0.00000000000E+00  0.00000000000E+00  0.45593999997E+02  0.45594000000E+02  0.51100000000E-03 0.  1.
         11   -1    0    0    0    0 -0.00000000000E+00 -0.00000000000E+00 -0.45593999997E+02  0.45594000000E+02  0.51100000000E-03 0. -1.
    9900012    2    1    2    0    0 -0.10504824603E+02 -0.72744265709E+01  0.38599163292E+02  0.50528880128E+02  0.30000061638E+02 0.  0.
         12    1    1    2    0    0  0.10504824603E+02  0.72744265709E+01 -0.38599163292E+02  0.40659119872E+02  0.00000000000E+00 0. -1.
         11    1    3    3    0    0 -0.13411815383E+02 -0.94541969355E+01  0.12675504495E+02  0.20734682202E+02  0.51100000000E-03 0. -1.
        -11    1    3    3    0    0  0.23937236215E+01  0.68869940830E+01  0.63905404631E+01  0.96953394962E+01  0.51100000000E-03 0.  1.
        -12    1    3    3    0    0  0.51326715923E+00 -0.47072237183E+01  0.19533118335E+02  0.20098858430E+02  0.00000000000E+00 0.  1.
</event>
<event>
 7    1  0.5910662E-013  0.5052886E+02  0.7816164E-02  0.1300439E+00
        -11   -1    0    0    0    0  0.00000000000E+00  0.00000000000E+00  0.45593999997E+02  0.45594000000E+02  0.51100000000E-03 0.  1.
         11   -1    0    0    0    0 -0.00000000000E+00 -0.00000000000E+00 -0.45593999997E+02  0.45594000000E+02  0.51100000000E-03 0. -1.
    9900012    2    1    2    0    0  0.21733271544E+02 -0.14345479945E+02  0.31225589968E+02  0.50528863810E+02  0.30000012036E+02 0.  0.
         12    1    1    2    0    0 -0.21733271544E+02  0.14345479945E+02 -0.31225589968E+02  0.40659136190E+02  0.00000000000E+00 0. -1.
         11    1    3    3    0    0  0.14411568191E+02 -0.10010079821E+02  0.69588484578E+01  0.18876455384E+02  0.51100000000E-03 0. -1.
        -11    1    3    3    0    0 -0.29656506726E+01  0.21660963530E+01  0.17183415173E+02  0.17571477303E+02  0.51100000000E-03 0.  1.
        -12    1    3    3    0    0  0.10287354026E+02 -0.65014964768E+01  0.70833263372E+01  0.14080931123E+02  0.00000000000E+00 0.  1.
</event>
<event>
 7    1  0.5910662E-013  0.5052887E+02  0.7816164E-02  0.1300439E+00
        -11   -1    0    0    0    0  0.00000000000E+00  0.00000000000E+00  0.45593999997E+02  0.45594000000E+02  0.51100000000E-03 0.  1.
         11   -1    0    0    0    0 -0.00000000000E+00 -0.00000000000E+00 -0.45593999997E+02  0.45594000000E+02  0.51100000000E-03 0. -1.
    9900012    2    1    2    0    0 -0.19522853516E+02 -0.35226519058E+02  0.55781384798E+01  0.50528867160E+02  0.30000022221E+02 0.  0.
         12    1    1    2    0    0  0.19522853516E+02  0.35226519058E+02 -0.55781384798E+01  0.40659132840E+02  0.00000000000E+00 0. -1.
         11    1    3    3    0    0 -0.12785569155E+02 -0.15579850439E+02  0.14569208089E+02  0.24868943341E+02  0.51100000000E-03 0.  1.
        -11    1    3    3    0    0 -0.32083401389E+00 -0.17060254444E+02 -0.71520886958E+01  0.18501556397E+02  0.51100000000E-03 0. -1.
         12    1    3    3    0    0 -0.64164503472E+01 -0.25864141759E+01 -0.18389809134E+01  0.71583674219E+01  0.00000000000E+00 0. -1.
</event>
<event>
 7    1  0.5910662E-013  0.5052887E+02  0.7816164E-02  0.1300439E+00
        -11   -1    0    0    0    0  0.00000000000E+00  0.00000000000E+00  0.45593999997E+02  0.45594000000E+02  0.51100000000E-03 0.  1.
         11   -1    0    0    0    0 -0.00000000000E+00 -0.00000000000E+00 -0.45593999997E+02  0.45594000000E+02  0.51100000000E-03 0. -1.
    9900012    2    1    2    0    0  0.10562363552E+02 -0.22898352088E+02  0.31894619406E+02  0.50528870654E+02  0.30000032839E+02 0.  0.
         12    1    1    2    0    0 -0.10562363552E+02  0.22898352088E+02 -0.31894619406E+02  0.40659129346E+02  0.00000000000E+00 0. -1.
         11    1    3    3    0    0  0.82592785031E+00  0.40652921190E+01 -0.29045639867E+00  0.41584999708E+01  0.51100000000E-03 0. -1.
        -11    1    3    3    0    0  0.10630003950E+02 -0.22761935109E+02  0.33504477732E+02  0.41876636712E+02  0.51100000000E-03 0.  1.
        -12    1    3    3    0    0 -0.89356824857E+00 -0.42017090978E+01 -0.13194019275E+01  0.44937339712E+01  0.00000000000E+00 0.  1.
</event>
<event>
 7    1  0.5910662E-013  0.5052886E+02  0.7816164E-02  0.1300439E+00
        -11   -1    0    0    0    0  0.00000000000E+00  0.00000000000E+00  0.45593999997E+02  0.45594000000E+02  0.51100000000E-03 0.  1.
         11   -1    0    0    0    0 -0.00000000000E+00 -0.00000000000E+00 -0.45593999997E+02  0.45594000000E+02  0.51100000000E-03 0. -1.
    9900012    2    1    2    0    0 -0.37045162172E+02  0.14376262950E+02 -0.86107435292E+01  0.50528857352E+02  0.29999992406E+02 0.  0.
         12    1    1    2    0    0  0.37045162172E+02 -0.14376262950E+02  0.86107435292E+01  0.40659142648E+02  0.00000000000E+00 0. -1.
         11    1    3    3    0    0 -0.65168430611E+00 -0.10993460065E+01 -0.29873707823E+01  0.32492519953E+01  0.51100000000E-03 0. -1.
        -11    1    3    3    0    0 -0.37659171866E+02  0.18975158499E+02 -0.79196485286E+01  0.42906767517E+02  0.51100000000E-03 0.  1.
        -12    1    3    3    0    0  0.12656940003E+01 -0.34995495422E+01  0.22962757817E+01  0.43728378390E+01  0.00000000000E+00 0.  1.
</event>
<event>
 7    1  0.5910662E-013  0.5052886E+02  0.7816164E-02  0.1300439E+00
        -11   -1    0    0    0    0  0.00000000000E+00  0.00000000000E+00  0.45593999997E+02  0.45594000000E+02  0.51100000000E-03 0. -1.
         11   -1    0    0    0    0 -0.00000000000E+00 -0.00000000000E+00 -0.45593999997E+02  0.45594000000E+02  0.51100000000E-03 0.  1.
    9900012    2    1    2    0    0 -0.34769266572E+02 -0.19476954776E+02 -0.80568178700E+01  0.50528856139E+02  0.29999988720E+02 0.  0.
         12    1    1    2    0    0  0.34769266572E+02  0.19476954776E+02  0.80568178700E+01  0.40659143861E+02  0.00000000000E+00 0. -1.
         11    1    3    3    0    0 -0.19576237747E+02  0.38346715804E+01  0.25632705905E+00  0.19949924668E+02  0.51100000000E-03 0. -1.
        -11    1    3    3    0    0 -0.31132206130E+01 -0.63833060609E+01 -0.66280047702E+01  0.97143803893E+01  0.51100000000E-03 0.  1.
         12    1    3    3    0    0 -0.12079808213E+02 -0.16928320295E+02 -0.16851401589E+01  0.20864551082E+02  0.00000000000E+00 0. -1.
</event>
<event>
 7    1  0.5910662E-013  0.5052886E+02  0.7816164E-02  0.1300439E+00
        -11   -1    0    0    0    0  0.00000000000E+00  0.00000000000E+00  0.45593999997E+02  0.45594000000E+02  0.51100000000E-03 0.  1.
         11   -1    0    0    0    0 -0.00000000000E+00 -0.00000000000E+00 -0.45593999997E+02  0.45594000000E+02  0.51100000000E-03 0. -1.
    9900012    2    1    2    0    0 -0.11357294051E+02  0.39030101928E+02  0.91039758070E+00  0.50528858243E+02  0.29999995116E+02 0.  0.
         12    1    1    2    0    0  0.11357294051E+02 -0.39030101928E+02 -0.91039758070E+00  0.40659141757E+02  0.00000000000E+00 0. -1.
         11    1    3    3    0    0 -0.18335254089E+02  0.25530047825E+02 -0.57347502989E+01  0.31950778484E+02  0.51100000000E-03 0. -1.
        -11    1    3    3    0    0  0.60168614429E+01  0.13843224314E+02  0.38141055228E+01  0.15568714855E+02  0.51100000000E-03 0.  1.
         12    1    3    3    0    0  0.96109859578E+00 -0.34317021085E+00  0.28310423568E+01  0.30093649048E+01  0.00000000000E+00 0. -1.
</event>
<event>
 7    1  0.5910662E-013  0.5052886E+02  0.7816164E-02  0.1300439E+00
        -11   -1    0    0    0    0  0.00000000000E+00  0.00000000000E+00  0.45593999997E+02  0.45594000000E+02  0.51100000000E-03 0. -1.
         11   -1    0    0    0    0 -0.00000000000E+00 -0.00000000000E+00 -0.45593999997E+02  0.45594000000E+02  0.51100000000E-03 0.  1.
    9900012    2    1    2    0    0 -0.99551889249E+01 -0.25159414715E+02 -0.30349029856E+02  0.50528861439E+02  0.30000004829E+02 0.  0.
         12    1    1    2    0    0  0.99551889249E+01  0.25159414715E+02  0.30349029856E+02  0.40659138561E+02  0.00000000000E+00 0. -1.
         11    1    3    3    0    0  0.98856206666E+00  0.60106392183E+01 -0.27999466495E+01  0.67040838504E+01  0.51100000000E-03 0. -1.
        -11    1    3    3    0    0 -0.11897565005E+02 -0.30772861058E+02 -0.26228380146E+02  0.42147941303E+02  0.51100000000E-03 0.  1.
        -12    1    3    3    0    0  0.95381401337E+00 -0.39719287503E+00 -0.13207030610E+01  0.16768362852E+01  0.00000000000E+00 0.  1.
</event>
<event>
 7    1  0.5910662E-013  0.5052887E+02  0.7816164E-02  0.1300439E+00
        -11   -1    0    0    0    0  0.00000000000E+00  0.00000000000E+00  0.45593999997E+02  0.45594000000E+02  0.51100000000E-03 0. -1.
         11   -1    0    0    0    0 -0.00000000000E+00 -0.00000000000E+00 -0.45593999997E+02  0.45594000000E+02  0.51100000000E-03 0.  1.
    9900012    2    1    2    0    0 -0.33224680639E+02 -0.33434244424E+01 -0.23197125519E+02  0.50528874051E+02  0.30000043167E+02 0.  0.
         12    1    1    2    0    0  0.33224680639E+02  0.33434244424E+01  0.23197125519E+02  0.40659125949E+02  0.00000000000E+00 0. -1.
         11    1    3    3    0    0 -0.12482222152E+02 -0.64170533995E+01 -0.19920365603E+02  0.24368122828E+02  0.51100000000E-03 0. -1.
        -11    1    3    3    0    0 -0.15996420343E+02  0.89263123490E+01 -0.33657398810E+01  0.18625056273E+02  0.51100000000E-03 0.  1.
         12    1    3    3    0    0 -0.47460381439E+01 -0.58526833919E+01  0.88979965076E-01  0.75356949502E+01  0.00000000000E+00 0. -1.
</event>
<event>
 7    1  0.5910662E-013  0.5052887E+02  0.7816164E-02  0.1300439E+00
        -11   -1    0    0    0    0  0.00000000000E+00  0.00000000000E+00  0.45593999997E+02  0.45594000000E+02  0.51100000000E-03 0.  1.
         11   -1    0    0    0    0 -0.00000000000E+00 -0.00000000000E+00 -0.45593999997E+02  0.45594000000E+02  0.51100000000E-03 0. -1.
    9900012    2    1    2    0    0 -0.17788238135E+02  0.33491928446E+02 -0.14664048974E+02  0.50528867947E+02  0.30000024612E+02 0.  0.
         12    1    1    2    0    0  0.17788238135E+02 -0.33491928446E+02  0.14664048974E+02  0.40659132053E+02  0.00000000000E+00 0. -1.
         11    1    3    3    0    0 -0.18885762087E+02  0.17865830315E+02 -0.80385294156E+01  0.27211722803E+02  0.51100000000E-03 0.  1.
        -11    1    3    3    0    0  0.43890857412E+01  0.60616624169E+01  0.41339065746E+01  0.85496788670E+01  0.51100000000E-03 0. -1.
         12    1    3    3    0    0 -0.32915617892E+01  0.95644357141E+01 -0.10759426133E+02  0.14767466277E+02  0.00000000000E+00 0. -1.
</event>
<event>
 7    1  0.5910662E-013  0.5052886E+02  0.7816164E-02  0.1300439E+00
        -11   -1    0    0    0    0  0.00000000000E+00  0.00000000000E+00  0.45593999997E+02  0.45594000000E+02  0.51100000000E-03 0.  1.
         11   -1    0    0    0    0 -0.00000000000E+00 -0.00000000000E+00 -0.45593999997E+02  0.45594000000E+02  0.51100000000E-03 0. -1.
    9900012    2    1    2    0    0  0.19273680107E+02 -0.16779974669E+02  0.31624725331E+02  0.50528861457E+02  0.30000004885E+02 0.  0.
         12    1    1    2    0    0 -0.19273680107E+02  0.16779974669E+02 -0.31624725331E+02  0.40659138543E+02  0.00000000000E+00 0. -1.
         11    1    3    3    0    0  0.52944161021E+01  0.73626287522E+01  0.80909874041E+01  0.12153321416E+02  0.51100000000E-03 0. -1.
        -11    1    3    3    0    0  0.14746999444E+02 -0.17348266511E+02  0.21309127262E+02  0.31185176743E+02  0.51100000000E-03 0.  1.
         12    1    3    3    0    0 -0.76773543865E+00 -0.67943369103E+01  0.22246106649E+01  0.71903632985E+01  0.00000000000E+00 0. -1.
</event>
<event>
 7    1  0.5910662E-013  0.5052887E+02  0.7816164E-02  0.1300439E+00
        -11   -1    0    0    0    0  0.00000000000E+00  0.00000000000E+00  0.45593999997E+02  0.45594000000E+02  0.51100000000E-03 0. -1.
         11   -1    0    0    0    0 -0.00000000000E+00 -0.00000000000E+00 -0.45593999997E+02  0.45594000000E+02  0.51100000000E-03 0.  1.
    9900012    2    1    2    0    0 -0.11014084076E+01 -0.35102008171E+01 -0.40492344362E+02  0.50528873568E+02  0.30000041697E+02 0.  0.
         12    1    1    2    0    0  0.11014084076E+01  0.35102008171E+01  0.40492344362E+02  0.40659126432E+02  0.00000000000E+00 0. -1.
         11    1    3    3    0    0 -0.57027093813E+01 -0.82893641077E+01 -0.32689786859E+02  0.34203166765E+02  0.51100000000E-03 0. -1.
        -11    1    3    3    0    0  0.46147611986E+01  0.31783395326E+01 -0.11225833712E+02  0.12546601369E+02  0.51100000000E-03 0.  1.
         12    1    3    3    0    0 -0.13460224917E-01  0.16008237579E+01  0.34232762090E+01  0.37791054345E+01  0.00000000000E+00 0. -1.
</event>
<event>
 7    1  0.5910662E-013  0.5052886E+02  0.7816164E-02  0.1300439E+00
        -11   -1    0    0    0    0  0.00000000000E+00  0.00000000000E+00  0.45593999997E+02  0.45594000000E+02  0.51100000000E-03 0.  1.
         11   -1    0    0    0    0 -0.00000000000E+00 -0.00000000000E+00 -0.45593999997E+02  0.45594000000E+02  0.51100000000E-03 0. -1.
    9900012    2    1    2    0    0  0.99647860463E+00  0.40156981630E+02  0.62920385901E+01  0.50528857204E+02  0.29999991959E+02 0.  0.
         12    1    1    2    0    0 -0.99647860463E+00 -0.40156981630E+02 -0.62920385901E+01  0.40659142796E+02  0.00000000000E+00 0. -1.
         11    1    3    3    0    0  0.13708122402E+02  0.23781694828E+02  0.35463100006E+01  0.27677751779E+02  0.51100000000E-03 0. -1.
        -11    1    3    3    0    0 -0.12045298822E+02  0.95295421280E+01  0.39724231564E+01  0.15864474239E+02  0.51100000000E-03 0.  1.
         12    1    3    3    0    0 -0.66634497503E+00  0.68457446744E+01 -0.12266945669E+01  0.69866311863E+01  0.00000000000E+00 0. -1.
</event>
<event>
 7    1  0.5910662E-013  0.5052887E+02  0.7816164E-02  0.1300439E+00
        -11   -1    0    0    0    0  0.00000000000E+00  0.00000000000E+00  0.45593999997E+02  0.45594000000E+02  0.51100000000E-03 0. -1.
         11   -1    0    0    0    0 -0.00000000000E+00 -0.00000000000E+00 -0.45593999997E+02  0.45594000000E+02  0.51100000000E-03 0.  1.
    9900012    2    1    2    0    0  0.40141543274E+02 -0.46680874591E+01 -0.44754997133E+01  0.50528872677E+02  0.30000038989E+02 0.  0.
         12    1    1    2    0    0 -0.40141543274E+02  0.46680874591E+01  0.44754997133E+01  0.40659127323E+02  0.00000000000E+00 0. -1.
         11    1    3    3    0    0  0.84789455285E+01  0.59907244170E+01  0.65432069918E+01  0.12271709511E+02  0.51100000000E-03 0. -1.
        -11    1    3    3    0    0  0.29423658395E+02 -0.13324507220E+02 -0.12278369243E+02  0.34555065006E+02  0.51100000000E-03 0.  1.
        -12    1    3    3    0    0  0.22389393506E+01  0.26656953442E+01  0.12596625377E+01  0.37020981608E+01  0.00000000000E+00 0.  1.
</event>
<event>
 7    1  0.5910662E-013  0.5052886E+02  0.7816164E-02  0.1300439E+00
        -11   -1    0    0    0    0  0.00000000000E+00  0.00000000000E+00  0.45593999997E+02  0.45594000000E+02  0.51100000000E-03 0.  1.
         11   -1    0    0    0    0 -0.00000000000E+00 -0.00000000000E+00 -0.45593999997E+02  0.45594000000E+02  0.51100000000E-03 0. -1.
    9900012    2    1    2    0    0  0.80784642234E+01 -0.20334952978E+01  0.39796597450E+02  0.50528857659E+02  0.29999993339E+02 0.  0.
         12    1    1    2    0    0 -0.80784642234E+01  0.20334952978E+01 -0.39796597450E+02  0.40659142341E+02  0.00000000000E+00 0. -1.
         11    1    3    3    0    0  0.83858081599E+01  0.96106231333E+01  0.32082371442E+02  0.34524837626E+02  0.51100000000E-03 0. -1.
        -11    1    3    3    0    0 -0.35567177416E+01 -0.57115784024E+01  0.60258824686E+01  0.90323656218E+01  0.51100000000E-03 0.  1.
         12    1    3    3    0    0  0.32493738051E+01 -0.59325400287E+01  0.16883435397E+01  0.69716544109E+01  0.00000000000E+00 0. -1.
</event>
<event>
 7    1  0.5910662E-013  0.5052886E+02  0.7816164E-02  0.1300439E+00
        -11   -1    0    0    0    0  0.00000000000E+00  0.00000000000E+00  0.45593999997E+02  0.45594000000E+02  0.51100000000E-03 0.  1.
         11   -1    0    0    0    0 -0.00000000000E+00 -0.00000000000E+00 -0.45593999997E+02  0.45594000000E+02  0.51100000000E-03 0. -1.
    9900012    2    1    2    0    0  0.14999868063E+02  0.29763057359E+02  0.23287979353E+02  0.50528860712E+02  0.30000002622E+02 0.  0.
         12    1    1    2    0    0 -0.14999868063E+02 -0.29763057359E+02 -0.23287979353E+02  0.40659139288E+02  0.00000000000E+00 0. -1.
         11    1    3    3    0    0 -0.14356000176E+01  0.20170944370E+02  0.12569594777E+02  0.23810137701E+02  0.51100000000E-03 0.  1.
        -11    1    3    3    0    0  0.16665686276E+02  0.93987712355E+01  0.34472009204E+01  0.19441326967E+02  0.51100000000E-03 0. -1.
        -12    1    3    3    0    0 -0.23021819589E+00  0.19334175366E+00  0.72711836548E+01  0.72773960448E+01  0.00000000000E+00 0.  1.
</event>
<event>
 7    1  0.5910662E-013  0.5052888E+02  0.7816164E-02  0.1300439E+00
        -11   -1    0    0    0    0  0.00000000000E+00  0.00000000000E+00  0.45593999997E+02  0.45594000000E+02  0.51100000000E-03 0. -1.
         11   -1    0    0    0    0 -0.00000000000E+00 -0.00000000000E+00 -0.45593999997E+02  0.45594000000E+02  0.51100000000E-03 0.  1.
    9900012    2    1    2    0    0  0.18018656594E+02  0.14287942578E+02 -0.33531275793E+02  0.50528883619E+02  0.30000072250E+02 0.  0.
         12    1    1    2    0    0 -0.18018656594E+02 -0.14287942578E+02  0.33531275793E+02  0.40659116381E+02  0.00000000000E+00 0. -1.
         11    1    3    3    0    0 -0.41033723018E+01  0.41824057251E+01 -0.15215429462E+01  0.60535340996E+01  0.51100000000E-03 0. -1.
        -11    1    3    3    0    0  0.23481245513E+02  0.10156721335E+02 -0.20225455887E+02  0.32612834057E+02  0.51100000000E-03 0.  1.
        -12    1    3    3    0    0 -0.13592166166E+01 -0.51184482911E-01 -0.11784276959E+02  0.11862515463E+02  0.00000000000E+00 0.  1.
</event>
<event>
 7    1  0.5910662E-013  0.5052885E+02  0.7816164E-02  0.1300439E+00
        -11   -1    0    0    0    0  0.00000000000E+00  0.00000000000E+00  0.45593999997E+02  0.45594000000E+02  0.51100000000E-03 0. -1.
         11   -1    0    0    0    0 -0.00000000000E+00 -0.00000000000E+00 -0.45593999997E+02  0.45594000000E+02  0.51100000000E-03 0.  1.
    9900012    2    1    2    0    0  0.94384685541E+01 -0.29682319214E+02  0.26135061789E+02  0.50528853214E+02  0.29999979831E+02 0.  0.
         12    1    1    2    0    0 -0.94384685541E+01  0.29682319214E+02 -0.26135061789E+02  0.40659146786E+02  0.00000000000E+00 0. -1.
         11    1    3    3    0    0  0.40563789830E+01 -0.57984563095E+01 -0.44913529732E+01  0.83814412733E+01  0.51100000000E-03 0. -1.
        -11    1    3    3    0    0 -0.13156065680E+01 -0.21209596455E+02  0.25998965593E+02  0.33578624371E+02  0.51100000000E-03 0.  1.
        -12    1    3    3    0    0  0.66976961390E+01 -0.26742664496E+01  0.46274491692E+01  0.85687875705E+01  0.00000000000E+00 0.  1.
</event>
<event>
 7    1  0.5910662E-013  0.5052886E+02  0.7816164E-02  0.1300439E+00
        -11   -1    0    0    0    0  0.00000000000E+00  0.00000000000E+00  0.45593999997E+02  0.45594000000E+02  0.51100000000E-03 0.  1.
         11   -1    0    0    0    0 -0.00000000000E+00 -0.00000000000E+00 -0.45593999997E+02  0.45594000000E+02  0.51100000000E-03 0. -1.
    9900012    2    1    2    0    0 -0.40185915900E+02  0.61424099652E+01 -0.72689594711E+00  0.50528863086E+02  0.30000009836E+02 0.  0.
         12    1    1    2    0    0  0.40185915900E+02 -0.61424099652E+01  0.72689594711E+00  0.40659136914E+02  0.00000000000E+00 0. -1.
         11    1    3    3    0    0  0.23657189620E+01 -0.55415626209E+01  0.14508655713E+01  0.61976248398E+01  0.51100000000E-03 0. -1.
        -11    1    3    3    0    0 -0.85368756302E+01  0.36890170255E+01  0.27135208715E+00  0.93038016077E+01  0.51100000000E-03 0.  1.
         12    1    3    3    0    0 -0.34014759232E+02  0.79949555606E+01 -0.24491136055E+01  0.35027436638E+02  0.00000000000E+00 0. -1.
</event>
<event>
 7    1  0.5910662E-013  0.5052881E+02  0.7816164E-02  0.1300439E+00
        -11   -1    0    0    0    0  0.00000000000E+00  0.00000000000E+00  0.45593999997E+02  0.45594000000E+02  0.51100000000E-03 0.  1.
         11   -1    0    0    0    0 -0.00000000000E+00 -0.00000000000E+00 -0.45593999997E+02  0.45594000000E+02  0.51100000000E-03 0. -1.
    9900012    2    1    2    0    0 -0.39438498990E+02  0.15774552452E+01 -0.97614438041E+01  0.50528814657E+02  0.29999862630E+02 0.  0.
         12    1    1    2    0    0  0.39438498990E+02 -0.15774552452E+01  0.97614438041E+01  0.40659185343E+02  0.00000000000E+00 0. -1.
         11    1    3    3    0    0 -0.33527544060E+02 -0.51243647710E+01 -0.84184864054E+01  0.34946047539E+02  0.51100000000E-03 0. -1.
        -11    1    3    3    0    0 -0.63732116381E+01  0.43651318178E+01 -0.63748705152E+01  0.10015546751E+02  0.51100000000E-03 0.  1.
         12    1    3    3    0    0  0.46225670753E+00  0.23366881983E+01  0.50319131165E+01  0.55672203667E+01  0.00000000000E+00 0. -1.
</event>
<event>
 7    1  0.5910662E-013  0.5052886E+02  0.7816164E-02  0.1300439E+00
        -11   -1    0    0    0    0  0.00000000000E+00  0.00000000000E+00  0.45593999997E+02  0.45594000000E+02  0.51100000000E-03 0. -1.
         11   -1    0    0    0    0 -0.00000000000E+00 -0.00000000000E+00 -0.45593999997E+02  0.45594000000E+02  0.51100000000E-03 0.  1.
    9900012    2    1    2    0    0  0.36605062758E+02  0.15310710148E+02  0.88779156190E+01  0.50528857725E+02  0.29999993541E+02 0.  0.
         12    1    1    2    0    0 -0.36605062758E+02 -0.15310710148E+02 -0.88779156190E+01  0.40659142275E+02  0.00000000000E+00 0. -1.
         11    1    3    3    0    0  0.73326291890E+01  0.49247240975E+01  0.48166803801E+01  0.10060853264E+02  0.51100000000E-03 0. -1.
        -11    1    3    3    0    0  0.28305267020E+02  0.79822965193E+01  0.12265362598E+02  0.31864467965E+02  0.51100000000E-03 0.  1.
        -12    1    3    3    0    0  0.96716654933E+00  0.24036895316E+01 -0.82041273594E+01  0.86035364955E+01  0.00000000000E+00 0.  1.
</event>
<event>
 7    1  0.5910662E-013  0.5052886E+02  0.7816164E-02  0.1300439E+00
        -11   -1    0    0    0    0  0.00000000000E+00  0.00000000000E+00  0.45593999997E+02  0.45594000000E+02  0.51100000000E-03 0.  1.
         11   -1    0    0    0    0 -0.00000000000E+00 -0.00000000000E+00 -0.45593999997E+02  0.45594000000E+02  0.51100000000E-03 0. -1.
    9900012    2    1    2    0    0  0.36636549296E+02 -0.16851382427E+01  0.17552471102E+02  0.50528859859E+02  0.30000000027E+02 0.  0.
         12    1    1    2    0    0 -0.36636549296E+02  0.16851382427E+01 -0.17552471102E+02  0.40659140141E+02  0.00000000000E+00 0. -1.
         11    1    3    3    0    0 -0.60593883244E+00  0.20970535347E+01 -0.53446618411E+00  0.22473205733E+01  0.51100000000E-03 0. -1.
        -11    1    3    3    0    0  0.21114547918E+02  0.45653942814E+01  0.20718131293E+02  0.29931721021E+02  0.51100000000E-03 0.  1.
        -12    1    3    3    0    0  0.16127940210E+02 -0.83475860588E+01 -0.26311940069E+01  0.18349818264E+02  0.00000000000E+00 0.  1.
</event>
<event>
 7    1  0.5910662E-013  0.5052884E+02  0.7816164E-02  0.1300439E+00
        -11   -1    0    0    0    0  0.00000000000E+00  0.00000000000E+00  0.45593999997E+02  0.45594000000E+02  0.51100000000E-03 0.  1.
         11   -1    0    0    0    0 -0.00000000000E+00 -0.00000000000E+00 -0.45593999997E+02  0.45594000000E+02  0.51100000000E-03 0. -1.
    9900012    2    1    2    0    0  0.47698788297E+00  0.97206025385E+01  0.39477200137E+02  0.50528844059E+02  0.29999952003E+02 0.  0.
         12    1    1    2    0    0 -0.47698788297E+00 -0.97206025385E+01 -0.39477200137E+02  0.40659155941E+02  0.00000000000E+00 0. -1.
         11    1    3    3    0    0 -0.11602619869E+02  0.11280535484E+02  0.20234366222E+02  0.25909474045E+02  0.51100000000E-03 0. -1.
        -11    1    3    3    0    0 -0.50463521279E+00 -0.13209130816E+01  0.67096184005E+01  0.68569998840E+01  0.51100000000E-03 0.  1.
         12    1    3    3    0    0  0.12584242965E+02 -0.23901986431E+00  0.12533215515E+02  0.17762370130E+02  0.00000000000E+00 0. -1.
</event>
<event>
 7    1  0.5910662E-013  0.5052879E+02  0.7816164E-02  0.1300439E+00
        -11   -1    0    0    0    0  0.00000000000E+00  0.00000000000E+00  0.45593999997E+02  0.45594000000E+02  0.51100000000E-03 0. -1.
         11   -1    0    0    0    0 -0.00000000000E+00 -0.00000000000E+00 -0.45593999997E+02  0.45594000000E+02  0.51100000000E-03 0.  1.
    9900012    2    1    2    0    0  0.14128476989E+01 -0.18264834465E+02 -0.36298363929E+02  0.50528787753E+02  0.29999780852E+02 0.  0.
         12    1    1    2    0    0 -0.14128476989E+01  0.18264834465E+02  0.36298363929E+02  0.40659212247E+02  0.00000000000E+00 0. -1.
         11    1    3    3    0    0 -0.91036150391E+01 -0.15034586185E+02 -0.12426980700E+02  0.21525437002E+02  0.51100000000E-03 0. -1.
        -11    1    3    3    0    0  0.58535393647E+01  0.44963344806E+01 -0.94491386303E+01  0.11990294741E+02  0.51100000000E-03 0.  1.
         12    1    3    3    0    0  0.46629233732E+01 -0.77265827606E+01 -0.14422244598E+02  0.17013056010E+02  0.00000000000E+00 0. -1.
</event>
<event>
 7    1  0.5910662E-013  0.5052885E+02  0.7816164E-02  0.1300439E+00
        -11   -1    0    0    0    0  0.00000000000E+00  0.00000000000E+00  0.45593999997E+02  0.45594000000E+02  0.51100000000E-03 0.  1.
         11   -1    0    0    0    0 -0.00000000000E+00 -0.00000000000E+00 -0.45593999997E+02  0.45594000000E+02  0.51100000000E-03 0. -1.
    9900012    2    1    2    0    0 -0.64645560027E+00  0.20393901639E+02  0.35168697409E+02  0.50528850890E+02  0.29999972766E+02 0.  0.
         12    1    1    2    0    0  0.64645560027E+00 -0.20393901639E+02 -0.35168697409E+02  0.40659149110E+02  0.00000000000E+00 0. -1.
         11    1    3    3    0    0 -0.23948811675E+00  0.66053341097E+01 -0.10412639895E+01  0.66911900448E+01  0.51100000000E-03 0. -1.
        -11    1    3    3    0    0  0.66728123077E+01  0.13308142784E+02  0.32681873046E+02  0.35912921276E+02  0.51100000000E-03 0.  1.
        -12    1    3    3    0    0 -0.70797797912E+01  0.48042474485E+00  0.35280883520E+01  0.79247395697E+01  0.00000000000E+00 0.  1.
</event>
<event>
 7    1  0.5910662E-013  0.5052886E+02  0.7816164E-02  0.1300439E+00
        -11   -1    0    0    0    0  0.00000000000E+00  0.00000000000E+00  0.45593999997E+02  0.45594000000E+02  0.51100000000E-03 0.  1.
         11   -1    0    0    0    0 -0.00000000000E+00 -0.00000000000E+00 -0.45593999997E+02  0.45594000000E+02  0.51100000000E-03 0. -1.
    9900012    2    1    2    0    0 -0.31170725806E+02 -0.12102876609E+01  0.26078470810E+02  0.50528861012E+02  0.30000003531E+02 0.  0.
         12    1    1    2    0    0  0.31170725806E+02  0.12102876609E+01 -0.26078470810E+02  0.40659138988E+02  0.00000000000E+00 0. -1.
         11    1    3    3    0    0 -0.95235996451E+01  0.68133371578E+01 -0.41654938458E+01  0.12428670591E+02  0.51100000000E-03 0. -1.
        -11    1    3    3    0    0 -0.11508549977E+02 -0.38069711282E+01  0.17335486670E+02  0.21153223161E+02  0.51100000000E-03 0.  1.
         12    1    3    3    0    0 -0.10138576184E+02 -0.42166536905E+01  0.12908477986E+02  0.16946967260E+02  0.00000000000E+00 0. -1.
</event>
<event>
 7    1  0.5910662E-013  0.5052886E+02  0.7816164E-02  0.1300439E+00
        -11   -1    0    0    0    0  0.00000000000E+00  0.00000000000E+00  0.45593999997E+02  0.45594000000E+02  0.51100000000E-03 0.  1.
         11   -1    0    0    0    0 -0.00000000000E+00 -0.00000000000E+00 -0.45593999997E+02  0.45594000000E+02  0.51100000000E-03 0. -1.
    9900012    2    1    2    0    0 -0.40175028228E+02  0.59669679046E+01  0.18782812927E+01  0.50528861547E+02  0.30000005159E+02 0.  0.
         12    1    1    2    0    0  0.40175028228E+02 -0.59669679046E+01 -0.18782812927E+01  0.40659138453E+02  0.00000000000E+00 0. -1.
         11    1    3    3    0    0 -0.15006675444E+02  0.15544698994E+02 -0.52010662414E+01  0.22223615030E+02  0.51100000000E-03 0. -1.
        -11    1    3    3    0    0 -0.16815830599E+02 -0.54545457357E+01  0.69332350083E+01  0.18989312148E+02  0.51100000000E-03 0.  1.
         12    1    3    3    0    0 -0.83525221845E+01 -0.41231853532E+01  0.14611252576E+00  0.93159343691E+01  0.00000000000E+00 0. -1.
</event>
<event>
 7    1  0.5910662E-013  0.5052886E+02  0.7816164E-02  0.1300439E+00
        -11   -1    0    0    0    0  0.00000000000E+00  0.00000000000E+00  0.45593999997E+02  0.45594000000E+02  0.51100000000E-03 0.  1.
         11   -1    0    0    0    0 -0.00000000000E+00 -0.00000000000E+00 -0.45593999997E+02  0.45594000000E+02  0.51100000000E-03 0. -1.
    9900012    2    1    2    0    0 -0.14733923831E+02 -0.12732438986E+01  0.37874217638E+02  0.50528855602E+02  0.29999987088E+02 0.  0.
         12    1    1    2    0    0  0.14733923831E+02  0.12732438986E+01 -0.37874217638E+02  0.40659144398E+02  0.00000000000E+00 0. -1.
         11    1    3    3    0    0 -0.16532463820E+01 -0.92249233974E+01  0.98066662764E+01  0.13564775671E+02  0.51100000000E-03 0. -1.
        -11    1    3    3    0    0 -0.12619060649E+02  0.13109238623E+02  0.17747789536E+02  0.25418042069E+02  0.51100000000E-03 0.  1.
        -12    1    3    3    0    0 -0.46161680022E+00 -0.51575591240E+01  0.10319761825E+02  0.11546037862E+02  0.00000000000E+00 0.  1.
</event>
<event>
 7    1  0.5910662E-013  0.5052887E+02  0.7816164E-02  0.1300439E+00
        -11   -1    0    0    0    0  0.00000000000E+00  0.00000000000E+00  0.45593999997E+02  0.45594000000E+02  0.51100000000E-03 0.  1.
         11   -1    0    0    0    0 -0.00000000000E+00 -0.00000000000E+00 -0.45593999997E+02  0.45594000000E+02  0.51100000000E-03 0. -1.
    9900012    2    1    2    0    0  0.26668816823E+02 -0.27747259017E+02  0.13115981216E+02  0.50528866500E+02  0.30000020213E+02 0.  0.
         12    1    1    2    0    0 -0.26668816823E+02  0.27747259017E+02 -0.13115981216E+02  0.40659133500E+02  0.00000000000E+00 0. -1.
         11    1    3    3    0    0  0.25617334738E+02 -0.10689065236E+02  0.91822253356E+01  0.29237257345E+02  0.51100000000E-03 0. -1.
        -11    1    3    3    0    0 -0.52712843080E+01 -0.87552843062E+01  0.36486252403E+01  0.10851447274E+02  0.51100000000E-03 0.  1.
         12    1    3    3    0    0  0.63227663937E+01 -0.83029094748E+01  0.28513064037E+00  0.10440161881E+02  0.00000000000E+00 0. -1.
</event>
<event>
 7    1  0.5910662E-013  0.5052885E+02  0.7816164E-02  0.1300439E+00
        -11   -1    0    0    0    0  0.00000000000E+00  0.00000000000E+00  0.45593999997E+02  0.45594000000E+02  0.51100000000E-03 0.  1.
         11   -1    0    0    0    0 -0.00000000000E+00 -0.00000000000E+00 -0.45593999997E+02  0.45594000000E+02  0.51100000000E-03 0. -1.
    9900012    2    1    2    0    0 -0.14818764480E+02 -0.91381493368E+01  0.36743225300E+02  0.50528853926E+02  0.29999981994E+02 0.  0.
         12    1    1    2    0    0  0.14818764480E+02  0.91381493368E+01 -0.36743225300E+02  0.40659146074E+02  0.00000000000E+00 0. -1.
         11    1    3    3    0    0 -0.11311783323E+02  0.32887458198E+01  0.20496448212E+02  0.23640572764E+02  0.51100000000E-03 0.  1.
        -11    1    3    3    0    0  0.48902899441E+01 -0.11204879007E+02  0.12882019011E+02  0.17759804710E+02  0.51100000000E-03 0. -1.
        -12    1    3    3    0    0 -0.83972711013E+01 -0.12220161495E+01  0.33647580767E+01  0.91284764519E+01  0.00000000000E+00 0.  1.
</event>
<event>
 7    1  0.5910662E-013  0.5052886E+02  0.7816164E-02  0.1300439E+00
        -11   -1    0    0    0    0  0.00000000000E+00  0.00000000000E+00  0.45593999997E+02  0.45594000000E+02  0.51100000000E-03 0. -1.
         11   -1    0    0    0    0 -0.00000000000E+00 -0.00000000000E+00 -0.45593999997E+02  0.45594000000E+02  0.51100000000E-03 0.  1.
    9900012    2    1    2    0    0  0.13683413041E+02  0.29973166438E+02 -0.23823078940E+02  0.50528860942E+02  0.30000003320E+02 0.  0.
         12    1    1    2    0    0 -0.13683413041E+02 -0.29973166438E+02  0.23823078940E+02  0.40659139058E+02  0.00000000000E+00 0. -1.
         11    1    3    3    0    0  0.93607259052E+01  0.79876163435E+01  0.54196600690E+01  0.13446111700E+02  0.51100000000E-03 0. -1.
        -11    1    3    3    0    0  0.17126650790E+01  0.59561818634E+01 -0.11252912421E+02  0.12846686821E+02  0.51100000000E-03 0.  1.
         12    1    3    3    0    0  0.26100220570E+01  0.16029368231E+02 -0.17989826588E+02  0.24236062421E+02  0.00000000000E+00 0. -1.
</event>
<event>
 7    1  0.5910662E-013  0.5052886E+02  0.7816164E-02  0.1300439E+00
        -11   -1    0    0    0    0  0.00000000000E+00  0.00000000000E+00  0.45593999997E+02  0.45594000000E+02  0.51100000000E-03 0. -1.
         11   -1    0    0    0    0 -0.00000000000E+00 -0.00000000000E+00 -0.45593999997E+02  0.45594000000E+02  0.51100000000E-03 0.  1.
    9900012    2    1    2    0    0  0.26186943342E+02  0.13274713063E+02 -0.28128127358E+02  0.50528861332E+02  0.30000004506E+02 0.  0.
         12    1    1    2    0    0 -0.26186943342E+02 -0.13274713063E+02  0.28128127358E+02  0.40659138668E+02  0.00000000000E+00 0. -1.
         11    1    3    3    0    0  0.12565475142E+02 -0.12855927142E+01 -0.21456745673E+01  0.12812019115E+02  0.51100000000E-03 0. -1.
        -11    1    3    3    0    0  0.56667722562E+01  0.17737699027E+02 -0.19596416054E+02  0.27032532197E+02  0.51100000000E-03 0.  1.
        -12    1    3    3    0    0  0.79546959433E+01 -0.31773932495E+01 -0.63860367365E+01  0.10684310020E+02  0.00000000000E+00 0.  1.
</event>
<event>
 7    1  0.5910662E-013  0.5052886E+02  0.7816164E-02  0.1300439E+00
        -11   -1    0    0    0    0  0.00000000000E+00  0.00000000000E+00  0.45593999997E+02  0.45594000000E+02  0.51100000000E-03 0.  1.
         11   -1    0    0    0    0 -0.00000000000E+00 -0.00000000000E+00 -0.45593999997E+02  0.45594000000E+02  0.51100000000E-03 0. -1.
    9900012    2    1    2    0    0 -0.16838113981E+02 -0.35168765882E+02  0.11523947111E+02  0.50528861628E+02  0.30000005405E+02 0.  0.
         12    1    1    2    0    0  0.16838113981E+02  0.35168765882E+02 -0.11523947111E+02  0.40659138372E+02  0.00000000000E+00 0. -1.
         11    1    3    3    0    0  0.28035098260E+01 -0.17344569901E+02 -0.12790314536E+01  0.17616177058E+02  0.51100000000E-03 0. -1.
        -11    1    3    3    0    0 -0.65939963785E+01 -0.48707672977E+01  0.11970055470E+02  0.14508183571E+02  0.51100000000E-03 0.  1.
         12    1    3    3    0    0 -0.13047627428E+02 -0.12953428683E+02  0.83292309429E+00  0.18404501000E+02  0.00000000000E+00 0. -1.
</event>
<event>
 7    1  0.5910662E-013  0.5052886E+02  0.7816164E-02  0.1300439E+00
        -11   -1    0    0    0    0  0.00000000000E+00  0.00000000000E+00  0.45593999997E+02  0.45594000000E+02  0.51100000000E-03 0.  1.
         11   -1    0    0    0    0 -0.00000000000E+00 -0.00000000000E+00 -0.45593999997E+02  0.45594000000E+02  0.51100000000E-03 0. -1.
    9900012    2    1    2    0    0 -0.34582587621E+02  0.42025574781E+01  0.20965428734E+02  0.50528855175E+02  0.29999985790E+02 0.  0.
         12    1    1    2    0    0  0.34582587621E+02 -0.42025574781E+01 -0.20965428734E+02  0.40659144825E+02  0.00000000000E+00 0. -1.
         11    1    3    3    0    0 -0.58078515839E+01  0.31701934272E+00 -0.75301469976E+01  0.95149753205E+01  0.51100000000E-03 0. -1.
        -11    1    3    3    0    0 -0.21917502706E+02  0.49321108900E+01  0.20319093242E+02  0.30291388102E+02  0.51100000000E-03 0.  1.
         12    1    3    3    0    0 -0.68572333310E+01 -0.10465727547E+01  0.81764824892E+01  0.10722491752E+02  0.00000000000E+00 0. -1.
</event>
<event>
 7    1  0.5910662E-013  0.5052886E+02  0.7816164E-02  0.1300439E+00
        -11   -1    0    0    0    0  0.00000000000E+00  0.00000000000E+00  0.45593999997E+02  0.45594000000E+02  0.51100000000E-03 0.  1.
         11   -1    0    0    0    0 -0.00000000000E+00 -0.00000000000E+00 -0.45593999997E+02  0.45594000000E+02  0.51100000000E-03 0. -1.
    9900012    2    1    2    0    0 -0.36440280341E+02 -0.45418467452E+01  0.17454030312E+02  0.50528861085E+02  0.30000003755E+02 0.  0.
         12    1    1    2    0    0  0.36440280341E+02  0.45418467452E+01 -0.17454030312E+02  0.40659138915E+02  0.00000000000E+00 0. -1.
         11    1    3    3    0    0 -0.13763562242E+02 -0.70517109792E+01 -0.15164113390E+01  0.15539040412E+02  0.51100000000E-03 0. -1.
        -11    1    3    3    0    0 -0.23344866951E+02  0.31846203552E+00  0.21385430998E+02  0.31661031099E+02  0.51100000000E-03 0.  1.
        -12    1    3    3    0    0  0.66814885160E+00  0.21914021984E+01 -0.24149893472E+01  0.33287895744E+01  0.00000000000E+00 0.  1.
</event>
<event>
 7    1  0.5910662E-013  0.5052886E+02  0.7816164E-02  0.1300439E+00
        -11   -1    0    0    0    0  0.00000000000E+00  0.00000000000E+00  0.45593999997E+02  0.45594000000E+02  0.51100000000E-03 0.  1.
         11   -1    0    0    0    0 -0.00000000000E+00 -0.00000000000E+00 -0.45593999997E+02  0.45594000000E+02  0.51100000000E-03 0. -1.
    9900012    2    1    2    0    0 -0.28545263946E+02 -0.21542771919E+02  0.19345349634E+02  0.50528859968E+02  0.30000000359E+02 0.  0.
         12    1    1    2    0    0  0.28545263946E+02  0.21542771919E+02 -0.19345349634E+02  0.40659140032E+02  0.00000000000E+00 0. -1.
         11    1    3    3    0    0 -0.45229650311E+00  0.20481970007E-01  0.21595888500E+01  0.22065393492E+01  0.51100000000E-03 0. -1.
        -11    1    3    3    0    0 -0.22634873758E+02 -0.20529816341E+02  0.24479337124E+02  0.39154167279E+02  0.51100000000E-03 0.  1.
        -12    1    3    3    0    0 -0.54580936845E+01 -0.10334375474E+01 -0.72935763397E+01  0.91681533395E+01  0.00000000000E+00 0.  1.
</event>
<event>
 7    1  0.5910662E-013  0.5052886E+02  0.7816164E-02  0.1300439E+00
        -11   -1    0    0    0    0  0.00000000000E+00  0.00000000000E+00  0.45593999997E+02  0.45594000000E+02  0.51100000000E-03 0.  1.
         11   -1    0    0    0    0 -0.00000000000E+00 -0.00000000000E+00 -0.45593999997E+02  0.45594000000E+02  0.51100000000E-03 0. -1.
    9900012    2    1    2    0    0  0.39592687560E+02  0.17165391575E+01  0.90905549378E+01  0.50528860757E+02  0.30000002756E+02 0.  0.
         12    1    1    2    0    0 -0.39592687560E+02 -0.17165391575E+01 -0.90905549378E+01  0.40659139243E+02  0.00000000000E+00 0. -1.
         11    1    3    3    0    0  0.14978861011E+02 -0.41129822838E+01 -0.58802746630E+01  0.16609049666E+02  0.51100000000E-03 0. -1.
        -11    1    3    3    0    0  0.10239088629E+02  0.11066182455E+02  0.63493458828E+01  0.16358897380E+02  0.51100000000E-03 0.  1.
        -12    1    3    3    0    0  0.14374737920E+02 -0.52366610134E+01  0.86214837180E+01  0.17560913710E+02  0.00000000000E+00 0.  1.
</event>
<event>
 7    1  0.5910662E-013  0.5052887E+02  0.7816164E-02  0.1300439E+00
        -11   -1    0    0    0    0  0.00000000000E+00  0.00000000000E+00  0.45593999997E+02  0.45594000000E+02  0.51100000000E-03 0.  1.
         11   -1    0    0    0    0 -0.00000000000E+00 -0.00000000000E+00 -0.45593999997E+02  0.45594000000E+02  0.51100000000E-03 0. -1.
    9900012    2    1    2    0    0  0.22680312534E+02  0.17952009250E+02  0.28574358757E+02  0.50528865834E+02  0.30000018188E+02 0.  0.
         12    1    1    2    0    0 -0.22680312534E+02 -0.17952009250E+02 -0.28574358757E+02  0.40659134166E+02  0.00000000000E+00 0. -1.
         11    1    3    3    0    0  0.14531893439E+02  0.16038536559E+02  0.22860846210E+01  0.21763197491E+02  0.51100000000E-03 0. -1.
        -11    1    3    3    0    0  0.84630468997E+01 -0.10926125737E+01  0.21115575421E+02  0.22774645786E+02  0.51100000000E-03 0.  1.
         12    1    3    3    0    0 -0.31462780466E+00  0.30060852646E+01  0.51726987149E+01  0.59910225561E+01  0.00000000000E+00 0. -1.
</event>
<event>
 7    1  0.5910662E-013  0.5052886E+02  0.7816164E-02  0.1300439E+00
        -11   -1    0    0    0    0  0.00000000000E+00  0.00000000000E+00  0.45593999997E+02  0.45594000000E+02  0.51100000000E-03 0.  1.
         11   -1    0    0    0    0 -0.00000000000E+00 -0.00000000000E+00 -0.45593999997E+02  0.45594000000E+02  0.51100000000E-03 0. -1.
    9900012    2    1    2    0    0  0.15689936286E+02  0.12793187531E+01  0.37488065313E+02  0.50528858371E+02  0.29999995504E+02 0.  0.
         12    1    1    2    0    0 -0.15689936286E+02 -0.12793187531E+01 -0.37488065313E+02  0.40659141629E+02  0.00000000000E+00 0. -1.
         11    1    3    3    0    0  0.15614082741E+02  0.90918263295E+01  0.78838563330E+01  0.19713347681E+02  0.51100000000E-03 0. -1.
        -11    1    3    3    0    0  0.11251486550E+01 -0.60237442988E+01  0.17668948092E+02  0.18701421920E+02  0.51100000000E-03 0.  1.
         12    1    3    3    0    0 -0.10492951094E+01 -0.17887632776E+01  0.11935260887E+02  0.12114088770E+02  0.00000000000E+00 0. -1.
</event>
<event>
 7    1  0.5910662E-013  0.5052887E+02  0.7816164E-02  0.1300439E+00
        -11   -1    0    0    0    0  0.00000000000E+00  0.00000000000E+00  0.45593999997E+02  0.45594000000E+02  0.51100000000E-03 0.  1.
         11   -1    0    0    0    0 -0.00000000000E+00 -0.00000000000E+00 -0.45593999997E+02  0.45594000000E+02  0.51100000000E-03 0. -1.
    9900012    2    1    2    0    0  0.33515150327E+02  0.17328173818E+02  0.15153686876E+02  0.50528866522E+02  0.30000020279E+02 0.  0.
         12    1    1    2    0    0 -0.33515150327E+02 -0.17328173818E+02 -0.15153686876E+02  0.40659133478E+02  0.00000000000E+00 0. -1.
         11    1    3    3    0    0  0.32661907134E+02  0.21221355193E+02  0.11951956070E+02  0.40743040486E+02  0.51100000000E-03 0. -1.
        -11    1    3    3    0    0 -0.35189439717E+01 -0.24346608081E+01  0.19652277619E+00  0.42835921128E+01  0.51100000000E-03 0.  1.
         12    1    3    3    0    0  0.43721871641E+01 -0.14585205669E+01  0.30052080298E+01  0.55022339231E+01  0.00000000000E+00 0. -1.
</event>
<event>
 7    1  0.5910662E-013  0.5052892E+02  0.7816164E-02  0.1300439E+00
        -11   -1    0    0    0    0  0.00000000000E+00  0.00000000000E+00  0.45593999997E+02  0.45594000000E+02  0.51100000000E-03 0.  1.
         11   -1    0    0    0    0 -0.00000000000E+00 -0.00000000000E+00 -0.45593999997E+02  0.45594000000E+02  0.51100000000E-03 0. -1.
    9900012    2    1    2    0    0 -0.13610382127E+02  0.39128983420E+01  0.38113086575E+02  0.50528921760E+02  0.30000188181E+02 0.  0.
         12    1    1    2    0    0  0.13610382127E+02 -0.39128983420E+01 -0.38113086575E+02  0.40659078240E+02  0.00000000000E+00 0. -1.
         11    1    3    3    0    0 -0.59479860504E+00 -0.88055532430E+01  0.52821423588E+01  0.10285552073E+02  0.51100000000E-03 0. -1.
        -11    1    3    3    0    0 -0.31707015175E+01  0.12911603876E+02  0.20946798585E+02  0.24809901934E+02  0.51100000000E-03 0.  1.
        -12    1    3    3    0    0 -0.98448820041E+01 -0.19315229097E+00  0.11884145631E+02  0.15433467752E+02  0.00000000000E+00 0.  1.
</event>
<event>
 7    1  0.5910662E-013  0.5052886E+02  0.7816164E-02  0.1300439E+00
        -11   -1    0    0    0    0  0.00000000000E+00  0.00000000000E+00  0.45593999997E+02  0.45594000000E+02  0.51100000000E-03 0.  1.
         11   -1    0    0    0    0 -0.00000000000E+00 -0.00000000000E+00 -0.45593999997E+02  0.45594000000E+02  0.51100000000E-03 0. -1.
    9900012    2    1    2    0    0  0.31027009713E+02 -0.15357671053E+02  0.21322109946E+02  0.50528858784E+02  0.29999996759E+02 0.  0.
         12    1    1    2    0    0 -0.31027009713E+02  0.15357671053E+02 -0.21322109946E+02  0.40659141216E+02  0.00000000000E+00 0. -1.
         11    1    3    3    0    0  0.16211940140E+02 -0.69503363585E+01  0.66160840599E+00  0.17651399507E+02  0.51100000000E-03 0. -1.
        -11    1    3    3    0    0  0.74800101519E+01  0.54807475720E+00  0.19911639155E+02  0.21277319190E+02  0.51100000000E-03 0.  1.
         12    1    3    3    0    0  0.73350594212E+01 -0.89554094514E+01  0.74886238456E+00  0.11600140086E+02  0.00000000000E+00 0. -1.
</event>
<event>
 7    1  0.5910662E-013  0.5052888E+02  0.7816164E-02  0.1300439E+00
        -11   -1    0    0    0    0  0.00000000000E+00  0.00000000000E+00  0.45593999997E+02  0.45594000000E+02  0.51100000000E-03 0.  1.
         11   -1    0    0    0    0 -0.00000000000E+00 -0.00000000000E+00 -0.45593999997E+02  0.45594000000E+02  0.51100000000E-03 0. -1.
    9900012    2    1    2    0    0 -0.29932347835E+02 -0.13345037163E+01  0.27485225473E+02  0.50528880896E+02  0.30000063970E+02 0.  0.
         12    1    1    2    0    0  0.29932347835E+02  0.13345037163E+01 -0.27485225473E+02  0.40659119104E+02  0.00000000000E+00 0. -1.
         11    1    3    3    0    0 -0.91408671645E+01  0.59826114434E+01  0.62390125292E+01  0.12580634714E+02  0.51100000000E-03 0. -1.
        -11    1    3    3    0    0 -0.19068083243E+02 -0.87155861485E+01  0.25583129284E+02  0.33076422792E+02  0.51100000000E-03 0.  1.
        -12    1    3    3    0    0 -0.17233974270E+01  0.13984709888E+01 -0.43369163405E+01  0.48718233900E+01  0.00000000000E+00 0.  1.
</event>
<event>
 7    1  0.5910662E-013  0.5052887E+02  0.7816164E-02  0.1300439E+00
        -11   -1    0    0    0    0  0.00000000000E+00  0.00000000000E+00  0.45593999997E+02  0.45594000000E+02  0.51100000000E-03 0.  1.
         11   -1    0    0    0    0 -0.00000000000E+00 -0.00000000000E+00 -0.45593999997E+02  0.45594000000E+02  0.51100000000E-03 0. -1.
    9900012    2    1    2    0    0  0.17950109441E+02  0.21777975768E+02  0.29269072022E+02  0.50528865300E+02  0.30000016567E+02 0.  0.
         12    1    1    2    0    0 -0.17950109441E+02 -0.21777975768E+02 -0.29269072022E+02  0.40659134700E+02  0.00000000000E+00 0. -1.
         11    1    3    3    0    0 -0.45393206144E+01  0.71916300291E+01  0.19064357638E+02  0.20875217521E+02  0.51100000000E-03 0. -1.
        -11    1    3    3    0    0  0.19796519777E+02  0.12179795376E+02  0.11347880005E+02  0.25865498092E+02  0.51100000000E-03 0.  1.
         12    1    3    3    0    0  0.26929102787E+01  0.24065503630E+01 -0.11431656212E+01  0.37881496877E+01  0.00000000000E+00 0. -1.
</event>
<event>
 7    1  0.5910662E-013  0.5052893E+02  0.7816164E-02  0.1300439E+00
        -11   -1    0    0    0    0  0.00000000000E+00  0.00000000000E+00  0.45593999997E+02  0.45594000000E+02  0.51100000000E-03 0.  1.
         11   -1    0    0    0    0 -0.00000000000E+00 -0.00000000000E+00 -0.45593999997E+02  0.45594000000E+02  0.51100000000E-03 0. -1.
    9900012    2    1    2    0    0 -0.11956057961E+02  0.31714713844E+02  0.22458612005E+02  0.50528933983E+02  0.30000225334E+02 0.  0.
         12    1    1    2    0    0  0.11956057961E+02 -0.31714713844E+02 -0.22458612005E+02  0.40659066017E+02  0.00000000000E+00 0. -1.
         11    1    3    3    0    0 -0.20523680326E+01  0.17412204022E+01 -0.41921419234E+01  0.49817785175E+01  0.51100000000E-03 0. -1.
        -11    1    3    3    0    0  0.28947226694E+01  0.20330964984E+02  0.11720080464E+02  0.23645038441E+02  0.51100000000E-03 0.  1.
        -12    1    3    3    0    0 -0.12798412597E+02  0.96425284577E+01  0.14930673464E+02  0.21902117025E+02  0.00000000000E+00 0.  1.
</event>
<event>
 7    1  0.5910662E-013  0.5052886E+02  0.7816164E-02  0.1300439E+00
        -11   -1    0    0    0    0  0.00000000000E+00  0.00000000000E+00  0.45593999997E+02  0.45594000000E+02  0.51100000000E-03 0.  1.
         11   -1    0    0    0    0 -0.00000000000E+00 -0.00000000000E+00 -0.45593999997E+02  0.45594000000E+02  0.51100000000E-03 0. -1.
    9900012    2    1    2    0    0  0.86645543298E+01  0.57904793542E+01  0.39300911409E+02  0.50528858464E+02  0.29999995788E+02 0.  0.
         12    1    1    2    0    0 -0.86645543298E+01 -0.57904793542E+01 -0.39300911409E+02  0.40659141536E+02  0.00000000000E+00 0. -1.
         11    1    3    3    0    0 -0.34020278350E+01 -0.92366633554E+00 -0.77089761676E+00  0.36084950168E+01  0.51100000000E-03 0. -1.
        -11    1    3    3    0    0  0.28975742394E+01  0.10592581514E+02  0.32806350734E+02  0.34595597528E+02  0.51100000000E-03 0.  1.
        -12    1    3    3    0    0  0.91690079254E+01 -0.38784358242E+01  0.72654582917E+01  0.12324765919E+02  0.00000000000E+00 0.  1.
</event>
<event>
 7    1  0.5910662E-013  0.5052879E+02  0.7816164E-02  0.1300439E+00
        -11   -1    0    0    0    0  0.00000000000E+00  0.00000000000E+00  0.45593999997E+02  0.45594000000E+02  0.51100000000E-03 0.  1.
         11   -1    0    0    0    0 -0.00000000000E+00 -0.00000000000E+00 -0.45593999997E+02  0.45594000000E+02  0.51100000000E-03 0. -1.
    9900012    2    1    2    0    0  0.26613052627E+02  0.12207443078E+02  0.28211610014E+02  0.50528792233E+02  0.29999794471E+02 0.  0.
         12    1    1    2    0    0 -0.26613052627E+02 -0.12207443078E+02 -0.28211610014E+02  0.40659207767E+02  0.00000000000E+00 0. -1.
         11    1    3    3    0    0 -0.21007463313E-01  0.48113412535E+01  0.83781012163E+00  0.48837866489E+01  0.51100000000E-03 0. -1.
        -11    1    3    3    0    0  0.28578243327E+02  0.13153845042E+01  0.16472441614E+02  0.33011930587E+02  0.51100000000E-03 0.  1.
        -12    1    3    3    0    0 -0.19441832365E+01  0.60807173207E+01  0.10901358278E+02  0.12633074998E+02  0.00000000000E+00 0.  1.
</event>
<event>
 7    1  0.5910662E-013  0.5052886E+02  0.7816164E-02  0.1300439E+00
        -11   -1    0    0    0    0  0.00000000000E+00  0.00000000000E+00  0.45593999997E+02  0.45594000000E+02  0.51100000000E-03 0.  1.
         11   -1    0    0    0    0 -0.00000000000E+00 -0.00000000000E+00 -0.45593999997E+02  0.45594000000E+02  0.51100000000E-03 0. -1.
    9900012    2    1    2    0    0 -0.87658232578E+01  0.36087119265E+02  0.16554333723E+02  0.50528858355E+02  0.29999995457E+02 0.  0.
         12    1    1    2    0    0  0.87658232578E+01 -0.36087119265E+02 -0.16554333723E+02  0.40659141645E+02  0.00000000000E+00 0. -1.
         11    1    3    3    0    0 -0.13199362603E+01  0.12754013122E+02 -0.30135254931E+01  0.13171500242E+02  0.51100000000E-03 0. -1.
        -11    1    3    3    0    0 -0.13237431048E+02  0.93690797013E+01  0.13372087357E+02  0.21019561264E+02  0.51100000000E-03 0.  1.
        -12    1    3    3    0    0  0.57915440506E+01  0.13964026442E+02  0.61957718596E+01  0.16337796849E+02  0.00000000000E+00 0.  1.
</event>
<event>
 7    1  0.5910662E-013  0.5052879E+02  0.7816164E-02  0.1300439E+00
        -11   -1    0    0    0    0  0.00000000000E+00  0.00000000000E+00  0.45593999997E+02  0.45594000000E+02  0.51100000000E-03 0.  1.
         11   -1    0    0    0    0 -0.00000000000E+00 -0.00000000000E+00 -0.45593999997E+02  0.45594000000E+02  0.51100000000E-03 0. -1.
    9900012    2    1    2    0    0 -0.37858857050E+02  0.13940496305E+02 -0.50537576559E+01  0.50528794882E+02  0.29999802524E+02 0.  0.
         12    1    1    2    0    0  0.37858857050E+02 -0.13940496305E+02  0.50537576559E+01  0.40659205118E+02  0.00000000000E+00 0. -1.
         11    1    3    3    0    0 -0.32144579779E+01  0.13320449095E+01  0.46885858500E+01  0.58386574884E+01  0.51100000000E-03 0.  1.
        -11    1    3    3    0    0 -0.36453689500E+02  0.14817467606E+02 -0.11901257144E+02  0.41110445708E+02  0.51100000000E-03 0. -1.
        -12    1    3    3    0    0  0.18092904281E+01 -0.22090162107E+01  0.21589136378E+01  0.35796916862E+01  0.00000000000E+00 0.  1.
</event>
<event>
 7    1  0.5910662E-013  0.5052887E+02  0.7816164E-02  0.1300439E+00
        -11   -1    0    0    0    0  0.00000000000E+00  0.00000000000E+00  0.45593999997E+02  0.45594000000E+02  0.51100000000E-03 0.  1.
         11   -1    0    0    0    0 -0.00000000000E+00 -0.00000000000E+00 -0.45593999997E+02  0.45594000000E+02  0.51100000000E-03 0. -1.
    9900012    2    1    2    0    0 -0.23868118063E+02 -0.31224939140E+02 -0.10415409051E+02  0.50528872736E+02  0.30000039168E+02 0.  0.
         12    1    1    2    0    0  0.23868118063E+02  0.31224939140E+02  0.10415409051E+02  0.40659127264E+02  0.00000000000E+00 0. -1.
         11    1    3    3    0    0 -0.64094964683E+01  0.47934910587E+01 -0.47997545985E+01  0.93325690983E+01  0.51100000000E-03 0. -1.
        -11    1    3    3    0    0 -0.11616890819E+02 -0.15592134090E+02 -0.10904214368E+01  0.19474491443E+02  0.51100000000E-03 0.  1.
         12    1    3    3    0    0 -0.58417307755E+01 -0.20426296109E+02 -0.45252330155E+01  0.21721812195E+02  0.00000000000E+00 0. -1.
</event>
<event>
 7    1  0.5910662E-013  0.5052886E+02  0.7816164E-02  0.1300439E+00
        -11   -1    0    0    0    0  0.00000000000E+00  0.00000000000E+00  0.45593999997E+02  0.45594000000E+02  0.51100000000E-03 0.  1.
         11   -1    0    0    0    0 -0.00000000000E+00 -0.00000000000E+00 -0.45593999997E+02  0.45594000000E+02  0.51100000000E-03 0. -1.
    9900012    2    1    2    0    0  0.15366120521E+02 -0.37279806470E+02 -0.52215096747E+01  0.50528858426E+02  0.29999995671E+02 0.  0.
         12    1    1    2    0    0 -0.15366120521E+02  0.37279806470E+02  0.52215096747E+01  0.40659141574E+02  0.00000000000E+00 0. -1.
         11    1    3    3    0    0  0.24442902097E+01 -0.57207795139E+01  0.79139404421E+01  0.10066395902E+02  0.51100000000E-03 0. -1.
        -11    1    3    3    0    0  0.14161508542E+02 -0.32353372404E+02 -0.95483741801E+01  0.36584976149E+02  0.51100000000E-03 0.  1.
         12    1    3    3    0    0 -0.12396782308E+01  0.79434544823E+00 -0.35870759367E+01  0.38774863743E+01  0.00000000000E+00 0. -1.
</event>
<event>
 7    1  0.5910662E-013  0.5052886E+02  0.7816164E-02  0.1300439E+00
        -11   -1    0    0    0    0  0.00000000000E+00  0.00000000000E+00  0.45593999997E+02  0.45594000000E+02  0.51100000000E-03 0.  1.
         11   -1    0    0    0    0 -0.00000000000E+00 -0.00000000000E+00 -0.45593999997E+02  0.45594000000E+02  0.51100000000E-03 0. -1.
    9900012    2    1    2    0    0  0.30032137767E+01 -0.21210823101E+02  0.34557879808E+02  0.50528863678E+02  0.30000011636E+02 0.  0.
         12    1    1    2    0    0 -0.30032137767E+01  0.21210823101E+02 -0.34557879808E+02  0.40659136322E+02  0.00000000000E+00 0. -1.
         11    1    3    3    0    0  0.11659555213E+02 -0.35034732292E+01  0.18493482385E+01  0.12314204871E+02  0.51100000000E-03 0. -1.
        -11    1    3    3    0    0 -0.39710210461E+01 -0.66245049477E+01  0.12356774270E+02  0.14571991785E+02  0.51100000000E-03 0.  1.
         12    1    3    3    0    0 -0.46853203902E+01 -0.11082844924E+02  0.20351757299E+02  0.23642667023E+02  0.00000000000E+00 0. -1.
</event>
<event>
 7    1  0.5910662E-013  0.5052886E+02  0.7816164E-02  0.1300439E+00
        -11   -1    0    0    0    0  0.00000000000E+00  0.00000000000E+00  0.45593999997E+02  0.45594000000E+02  0.51100000000E-03 0.  1.
         11   -1    0    0    0    0 -0.00000000000E+00 -0.00000000000E+00 -0.45593999997E+02  0.45594000000E+02  0.51100000000E-03 0. -1.
    9900012    2    1    2    0    0 -0.10452872634E+02 -0.26628991410E+02  0.28892911000E+02  0.50528855445E+02  0.29999986612E+02 0.  0.
         12    1    1    2    0    0  0.10452872634E+02  0.26628991410E+02 -0.28892911000E+02  0.40659144555E+02  0.00000000000E+00 0. -1.
         11    1    3    3    0    0  0.44353631774E+01 -0.42684676342E+00  0.45789302234E+01  0.63891507203E+01  0.51100000000E-03 0. -1.
        -11    1    3    3    0    0 -0.19482545681E+02 -0.14745661688E+02  0.17352907527E+02  0.29968775830E+02  0.51100000000E-03 0.  1.
        -12    1    3    3    0    0  0.45943098694E+01 -0.11456482959E+02  0.69610732494E+01  0.14170928895E+02  0.00000000000E+00 0.  1.
</event>
<event>
 7    1  0.5910662E-013  0.5052887E+02  0.7816164E-02  0.1300439E+00
        -11   -1    0    0    0    0  0.00000000000E+00  0.00000000000E+00  0.45593999997E+02  0.45594000000E+02  0.51100000000E-03 0. -1.
         11   -1    0    0    0    0 -0.00000000000E+00 -0.00000000000E+00 -0.45593999997E+02  0.45594000000E+02  0.51100000000E-03 0.  1.
    9900012    2    1    2    0    0  0.37826390261E+02 -0.10573558944E+02 -0.10513275312E+02  0.50528869332E+02  0.30000028820E+02 0.  0.
         12    1    1    2    0    0 -0.37826390261E+02  0.10573558944E+02  0.10513275312E+02  0.40659130668E+02  0.00000000000E+00 0. -1.
         11    1    3    3    0    0  0.17485270669E+02 -0.16931539559E+02 -0.10666756973E+02  0.26574262489E+02  0.51100000000E-03 0.  1.
        -11    1    3    3    0    0  0.20865303580E+02  0.58207510407E+01 -0.19224628307E+01  0.21747135438E+02  0.51100000000E-03 0. -1.
         12    1    3    3    0    0 -0.52418398854E+00  0.53722957471E+00  0.20759444917E+01  0.22074714047E+01  0.00000000000E+00 0. -1.
</event>
<event>
 7    1  0.5910662E-013  0.5052892E+02  0.7816164E-02  0.1300439E+00
        -11   -1    0    0    0    0  0.00000000000E+00  0.00000000000E+00  0.45593999997E+02  0.45594000000E+02  0.51100000000E-03 0.  1.
         11   -1    0    0    0    0 -0.00000000000E+00 -0.00000000000E+00 -0.45593999997E+02  0.45594000000E+02  0.51100000000E-03 0. -1.
    9900012    2    1    2    0    0  0.25077533510E+02 -0.15240074072E+02  0.28142816250E+02  0.50528921664E+02  0.30000187890E+02 0.  0.
         12    1    1    2    0    0 -0.25077533510E+02  0.15240074072E+02 -0.28142816250E+02  0.40659078336E+02  0.00000000000E+00 0. -1.
         11    1    3    3    0    0  0.14659825002E+02  0.75996793861E+01  0.10853951946E+02  0.19760411660E+02  0.51100000000E-03 0. -1.
        -11    1    3    3    0    0  0.10771451564E+02 -0.21402584669E+02  0.16493012811E+02  0.29088043440E+02  0.51100000000E-03 0.  1.
        -12    1    3    3    0    0 -0.35374305573E+00 -0.14371687886E+01  0.79585149262E+00  0.16804665646E+01  0.00000000000E+00 0.  1.
</event>
<event>
 7    1  0.5910662E-013  0.5052886E+02  0.7816164E-02  0.1300439E+00
        -11   -1    0    0    0    0  0.00000000000E+00  0.00000000000E+00  0.45593999997E+02  0.45594000000E+02  0.51100000000E-03 0.  1.
         11   -1    0    0    0    0 -0.00000000000E+00 -0.00000000000E+00 -0.45593999997E+02  0.45594000000E+02  0.51100000000E-03 0. -1.
    9900012    2    1    2    0    0 -0.12295449482E+02  0.33987694623E+02  0.18623214715E+02  0.50528860929E+02  0.30000003279E+02 0.  0.
         12    1    1    2    0    0  0.12295449482E+02 -0.33987694623E+02 -0.18623214715E+02  0.40659139071E+02  0.00000000000E+00 0. -1.
         11    1    3    3    0    0  0.22961424183E+01  0.45526701618E+01  0.15759854515E+02  0.16564180939E+02  0.51100000000E-03 0. -1.
        -11    1    3    3    0    0 -0.41161364709E+01  0.14366669001E+02 -0.17362098714E+01  0.15045204639E+02  0.51100000000E-03 0.  1.
         12    1    3    3    0    0 -0.10475455429E+02  0.15068355459E+02  0.45995700712E+01  0.18919475351E+02  0.00000000000E+00 0. -1.
</event>
<event>
 7    1  0.5910662E-013  0.5052887E+02  0.7816164E-02  0.1300439E+00
        -11   -1    0    0    0    0  0.00000000000E+00  0.00000000000E+00  0.45593999997E+02  0.45594000000E+02  0.51100000000E-03 0.  1.
         11   -1    0    0    0    0 -0.00000000000E+00 -0.00000000000E+00 -0.45593999997E+02  0.45594000000E+02  0.51100000000E-03 0. -1.
    9900012    2    1    2    0    0 -0.80792364883E+01  0.16904015018E+02  0.36085252471E+02  0.50528865333E+02  0.30000016666E+02 0.  0.
         12    1    1    2    0    0  0.80792364883E+01 -0.16904015018E+02 -0.36085252471E+02  0.40659134667E+02  0.00000000000E+00 0. -1.
         11    1    3    3    0    0 -0.37745115603E+00  0.47501625671E+01 -0.25713016078E+00  0.47720676829E+01  0.51100000000E-03 0. -1.
        -11    1    3    3    0    0 -0.70925329353E+01 -0.54229750031E+01  0.19308333658E+02  0.21272621611E+02  0.51100000000E-03 0.  1.
        -12    1    3    3    0    0 -0.60925239699E+00  0.17576827454E+02  0.17034048974E+02  0.24484176039E+02  0.00000000000E+00 0.  1.
</event>
<event>
 7    1  0.5910662E-013  0.5052886E+02  0.7816164E-02  0.1300439E+00
        -11   -1    0    0    0    0  0.00000000000E+00  0.00000000000E+00  0.45593999997E+02  0.45594000000E+02  0.51100000000E-03 0.  1.
         11   -1    0    0    0    0 -0.00000000000E+00 -0.00000000000E+00 -0.45593999997E+02  0.45594000000E+02  0.51100000000E-03 0. -1.
    9900012    2    1    2    0    0  0.24488153112E+02 -0.20744676399E+02  0.24963066512E+02  0.50528856730E+02  0.29999990518E+02 0.  0.
         12    1    1    2    0    0 -0.24488153112E+02  0.20744676399E+02 -0.24963066512E+02  0.40659143270E+02  0.00000000000E+00 0. -1.
         11    1    3    3    0    0  0.94839027601E+00 -0.11277635184E+02 -0.10057662668E+01  0.11362044953E+02  0.51100000000E-03 0. -1.
        -11    1    3    3    0    0  0.16371331178E+02 -0.38762580374E+01  0.24847047331E+02  0.30007026215E+02  0.51100000000E-03 0.  1.
         12    1    3    3    0    0  0.71684316579E+01 -0.55907831772E+01  0.11217854477E+01  0.91597855630E+01  0.00000000000E+00 0. -1.
</event>
<event>
 7    1  0.5910662E-013  0.5052886E+02  0.7816164E-02  0.1300439E+00
        -11   -1    0    0    0    0  0.00000000000E+00  0.00000000000E+00  0.45593999997E+02  0.45594000000E+02  0.51100000000E-03 0. -1.
         11   -1    0    0    0    0 -0.00000000000E+00 -0.00000000000E+00 -0.45593999997E+02  0.45594000000E+02  0.51100000000E-03 0.  1.
    9900012    2    1    2    0    0  0.16844232218E+02 -0.14496410116E+02 -0.34048372309E+02  0.50528859303E+02  0.29999998338E+02 0.  0.
         12    1    1    2    0    0 -0.16844232218E+02  0.14496410116E+02  0.34048372309E+02  0.40659140697E+02  0.00000000000E+00 0. -1.
         11    1    3    3    0    0  0.13194072195E+02  0.23292944183E+01 -0.22454137279E+02  0.26147608586E+02  0.51100000000E-03 0. -1.
        -11    1    3    3    0    0  0.64542148126E+01 -0.11276271121E+02 -0.22934512091E+01  0.13193600643E+02  0.51100000000E-03 0.  1.
        -12    1    3    3    0    0 -0.28040547892E+01 -0.55494334143E+01 -0.93007838211E+01  0.11187650074E+02  0.00000000000E+00 0.  1.
</event>
<event>
 7    1  0.5910662E-013  0.5052887E+02  0.7816164E-02  0.1300439E+00
        -11   -1    0    0    0    0  0.00000000000E+00  0.00000000000E+00  0.45593999997E+02  0.45594000000E+02  0.51100000000E-03 0. -1.
         11   -1    0    0    0    0 -0.00000000000E+00 -0.00000000000E+00 -0.45593999997E+02  0.45594000000E+02  0.51100000000E-03 0.  1.
    9900012    2    1    2    0    0  0.12592072626E+02 -0.21709692105E+02 -0.31988968031E+02  0.50528866954E+02  0.30000021595E+02 0.  0.
         12    1    1    2    0    0 -0.12592072626E+02  0.21709692105E+02  0.31988968031E+02  0.40659133046E+02  0.00000000000E+00 0. -1.
         11    1    3    3    0    0  0.13720647718E+02 -0.39998491233E+01 -0.28414838873E+01  0.14571513228E+02  0.51100000000E-03 0.  1.
        -11    1    3    3    0    0 -0.10523329128E+01 -0.18131853754E+02 -0.20860216361E+02  0.27658997668E+02  0.51100000000E-03 0. -1.
        -12    1    3    3    0    0 -0.76242179488E-01  0.42201077206E+00 -0.82872677829E+01  0.82983560581E+01  0.00000000000E+00 0.  1.
</event>
<event>
 7    1  0.5910662E-013  0.5052886E+02  0.7816164E-02  0.1300439E+00
        -11   -1    0    0    0    0  0.00000000000E+00  0.00000000000E+00  0.45593999997E+02  0.45594000000E+02  0.51100000000E-03 0. -1.
         11   -1    0    0    0    0 -0.00000000000E+00 -0.00000000000E+00 -0.45593999997E+02  0.45594000000E+02  0.51100000000E-03 0.  1.
    9900012    2    1    2    0    0  0.65992257560E+00 -0.26495693058E+02 -0.30833562072E+02  0.50528858365E+02  0.29999995487E+02 0.  0.
         12    1    1    2    0    0 -0.65992257560E+00  0.26495693058E+02  0.30833562072E+02  0.40659141635E+02  0.00000000000E+00 0. -1.
         11    1    3    3    0    0 -0.10904670353E+01  0.49464011465E+01  0.91101279516E+00  0.51464499639E+01  0.51100000000E-03 0. -1.
        -11    1    3    3    0    0  0.63826405310E+00 -0.31238897392E+02 -0.31080640981E+02  0.44071332352E+02  0.51100000000E-03 0.  1.
         12    1    3    3    0    0  0.11121255578E+01 -0.20319681239E+00 -0.66393388664E+00  0.13110760492E+01  0.00000000000E+00 0. -1.
</event>
<event>
 7    1  0.5910662E-013  0.5052887E+02  0.7816164E-02  0.1300439E+00
        -11   -1    0    0    0    0  0.00000000000E+00  0.00000000000E+00  0.45593999997E+02  0.45594000000E+02  0.51100000000E-03 0. -1.
         11   -1    0    0    0    0 -0.00000000000E+00 -0.00000000000E+00 -0.45593999997E+02  0.45594000000E+02  0.51100000000E-03 0.  1.
    9900012    2    1    2    0    0  0.28171523126E+02  0.15502163076E+02 -0.24883990039E+02  0.50528871436E+02  0.30000035217E+02 0.  0.
         12    1    1    2    0    0 -0.28171523126E+02 -0.15502163076E+02  0.24883990039E+02  0.40659128564E+02  0.00000000000E+00 0. -1.
         11    1    3    3    0    0  0.11533612245E+02 -0.86287885400E+00 -0.15011462097E+02  0.18950270866E+02  0.51100000000E-03 0.  1.
        -11    1    3    3    0    0  0.90049386960E+01  0.32307917832E+01  0.45836530026E+01  0.10608336890E+02  0.51100000000E-03 0. -1.
        -12    1    3    3    0    0  0.76329721850E+01  0.13134250147E+02 -0.14456180944E+02  0.20970263680E+02  0.00000000000E+00 0.  1.
</event>
<event>
 7    1  0.5910662E-013  0.5052884E+02  0.7816164E-02  0.1300439E+00
        -11   -1    0    0    0    0  0.00000000000E+00  0.00000000000E+00  0.45593999997E+02  0.45594000000E+02  0.51100000000E-03 0.  1.
         11   -1    0    0    0    0 -0.00000000000E+00 -0.00000000000E+00 -0.45593999997E+02  0.45594000000E+02  0.51100000000E-03 0. -1.
    9900012    2    1    2    0    0 -0.27753146734E+02  0.13714092353E+02  0.26360077097E+02  0.50528841779E+02  0.29999945071E+02 0.  0.
         12    1    1    2    0    0  0.27753146734E+02 -0.13714092353E+02 -0.26360077097E+02  0.40659158221E+02  0.00000000000E+00 0. -1.
         11    1    3    3    0    0 -0.11277433033E+02 -0.78122527812E+01  0.78280464775E+01  0.15795255656E+02  0.51100000000E-03 0. -1.
        -11    1    3    3    0    0 -0.47781662450E+01  0.15175343893E+02  0.82990444226E+01  0.17944249037E+02  0.51100000000E-03 0.  1.
        -12    1    3    3    0    0 -0.11697547456E+02  0.63510012419E+01  0.10232986197E+02  0.16789337085E+02  0.00000000000E+00 0.  1.
</event>
<event>
 7    1  0.5910662E-013  0.5052889E+02  0.7816164E-02  0.1300439E+00
        -11   -1    0    0    0    0  0.00000000000E+00  0.00000000000E+00  0.45593999997E+02  0.45594000000E+02  0.51100000000E-03 0.  1.
         11   -1    0    0    0    0 -0.00000000000E+00 -0.00000000000E+00 -0.45593999997E+02  0.45594000000E+02  0.51100000000E-03 0. -1.
    9900012    2    1    2    0    0 -0.12497420169E+02  0.20230020379E+02  0.32980660285E+02  0.50528890464E+02  0.30000093055E+02 0.  0.
         12    1    1    2    0    0  0.12497420169E+02 -0.20230020379E+02 -0.32980660285E+02  0.40659109536E+02  0.00000000000E+00 0. -1.
         11    1    3    3    0    0  0.67766867681E+00 -0.47021095025E+01  0.14581895959E+01  0.49694452172E+01  0.51100000000E-03 0. -1.
        -11    1    3    3    0    0 -0.10221379797E+02  0.14881622538E+02  0.78769433893E+01  0.19697348343E+02  0.51100000000E-03 0.  1.
         12    1    3    3    0    0 -0.29537090481E+01  0.10050507343E+02  0.23645527300E+02  0.25862096904E+02  0.00000000000E+00 0. -1.
</event>
<event>
 7    1  0.5910662E-013  0.5052886E+02  0.7816164E-02  0.1300439E+00
        -11   -1    0    0    0    0  0.00000000000E+00  0.00000000000E+00  0.45593999997E+02  0.45594000000E+02  0.51100000000E-03 0.  1.
         11   -1    0    0    0    0 -0.00000000000E+00 -0.00000000000E+00 -0.45593999997E+02  0.45594000000E+02  0.51100000000E-03 0. -1.
    9900012    2    1    2    0    0 -0.19503544019E+02 -0.13655118563E+02  0.32959294722E+02  0.50528860796E+02  0.30000002875E+02 0.  0.
         12    1    1    2    0    0  0.19503544019E+02  0.13655118563E+02 -0.32959294722E+02  0.40659139204E+02  0.00000000000E+00 0. -1.
         11    1    3    3    0    0 -0.73639923958E+01 -0.21797441525E+01 -0.13517677744E+01  0.77978807988E+01  0.51100000000E-03 0. -1.
        -11    1    3    3    0    0 -0.24217984594E+01 -0.14897891261E+02  0.21961433580E+02  0.26648017505E+02  0.51100000000E-03 0.  1.
        -12    1    3    3    0    0 -0.97177531640E+01  0.34225168510E+01  0.12349628917E+02  0.16082962492E+02  0.00000000000E+00 0.  1.
</event>
<event>
 7    1  0.5910662E-013  0.5052886E+02  0.7816164E-02  0.1300439E+00
        -11   -1    0    0    0    0  0.00000000000E+00  0.00000000000E+00  0.45593999997E+02  0.45594000000E+02  0.51100000000E-03 0. -1.
         11   -1    0    0    0    0 -0.00000000000E+00 -0.00000000000E+00 -0.45593999997E+02  0.45594000000E+02  0.51100000000E-03 0.  1.
    9900012    2    1    2    0    0  0.15838051330E+01  0.37786776064E+02 -0.14927044580E+02  0.50528861496E+02  0.30000005003E+02 0.  0.
         12    1    1    2    0    0 -0.15838051330E+01 -0.37786776064E+02  0.14927044580E+02  0.40659138504E+02  0.00000000000E+00 0. -1.
         11    1    3    3    0    0 -0.39858641092E+01  0.34424800459E+01  0.53611640197E+01  0.75153084748E+01  0.51100000000E-03 0. -1.
        -11    1    3    3    0    0  0.52953550813E+01  0.34821491671E+02 -0.21787891462E+02  0.41416051022E+02  0.51100000000E-03 0.  1.
        -12    1    3    3    0    0  0.27431416092E+00 -0.47719565319E+00  0.14996828620E+01  0.15975019990E+01  0.00000000000E+00 0.  1.
</event>
<event>
 7    1  0.5910662E-013  0.5052886E+02  0.7816164E-02  0.1300439E+00
        -11   -1    0    0    0    0  0.00000000000E+00  0.00000000000E+00  0.45593999997E+02  0.45594000000E+02  0.51100000000E-03 0.  1.
         11   -1    0    0    0    0 -0.00000000000E+00 -0.00000000000E+00 -0.45593999997E+02  0.45594000000E+02  0.51100000000E-03 0. -1.
    9900012    2    1    2    0    0  0.34925583602E+02  0.74020679702E+01  0.19457088929E+02  0.50528864375E+02  0.30000013756E+02 0.  0.
         12    1    1    2    0    0 -0.34925583602E+02 -0.74020679702E+01 -0.19457088929E+02  0.40659135625E+02  0.00000000000E+00 0. -1.
         11    1    3    3    0    0  0.16911264808E+02 -0.14878328857E+01  0.17033662187E+02  0.24048912072E+02  0.51100000000E-03 0. -1.
        -11    1    3    3    0    0  0.15234040085E+02  0.12101025832E+02  0.65790982123E+01  0.20537656562E+02  0.51100000000E-03 0.  1.
         12    1    3    3    0    0  0.27802787088E+01 -0.32111249762E+01 -0.41556714703E+01  0.59422957416E+01  0.00000000000E+00 0. -1.
</event>
<event>
 7    1  0.5910662E-013  0.5052886E+02  0.7816164E-02  0.1300439E+00
        -11   -1    0    0    0    0  0.00000000000E+00  0.00000000000E+00  0.45593999997E+02  0.45594000000E+02  0.51100000000E-03 0.  1.
         11   -1    0    0    0    0 -0.00000000000E+00 -0.00000000000E+00 -0.45593999997E+02  0.45594000000E+02  0.51100000000E-03 0. -1.
    9900012    2    1    2    0    0 -0.73959540345E+01  0.21387978375E+02  0.33778984419E+02  0.50528861502E+02  0.30000005021E+02 0.  0.
         12    1    1    2    0    0  0.73959540345E+01 -0.21387978375E+02 -0.33778984419E+02  0.40659138498E+02  0.00000000000E+00 0. -1.
         11    1    3    3    0    0  0.62357872943E+01  0.15118097299E+02  0.79404094551E+01  0.18179439257E+02  0.51100000000E-03 0. -1.
        -11    1    3    3    0    0 -0.90856699486E+01  0.62505889252E+01  0.72140304882E+01  0.13178068769E+02  0.51100000000E-03 0.  1.
         12    1    3    3    0    0 -0.45460713801E+01  0.19292150740E-01  0.18624544476E+02  0.19171353476E+02  0.00000000000E+00 0. -1.
</event>
<event>
 7    1  0.5910662E-013  0.5052887E+02  0.7816164E-02  0.1300439E+00
        -11   -1    0    0    0    0  0.00000000000E+00  0.00000000000E+00  0.45593999997E+02  0.45594000000E+02  0.51100000000E-03 0.  1.
         11   -1    0    0    0    0 -0.00000000000E+00 -0.00000000000E+00 -0.45593999997E+02  0.45594000000E+02  0.51100000000E-03 0. -1.
    9900012    2    1    2    0    0  0.53185755319E+00 -0.15906035904E+02  0.37414971032E+02  0.50528869317E+02  0.30000028775E+02 0.  0.
         12    1    1    2    0    0 -0.53185755319E+00  0.15906035904E+02 -0.37414971032E+02  0.40659130683E+02  0.00000000000E+00 0. -1.
         11    1    3    3    0    0  0.59953952654E+01  0.27094528072E+01  0.25292658398E+02  0.26134354172E+02  0.51100000000E-03 0. -1.
        -11    1    3    3    0    0 -0.75964476472E+01 -0.16075042471E+02  0.94502842166E+01  0.20135065913E+02  0.51100000000E-03 0.  1.
        -12    1    3    3    0    0  0.21329099350E+01 -0.25404462402E+01  0.26720284170E+01  0.42594492310E+01  0.00000000000E+00 0.  1.
</event>
<event>
 7    1  0.5910662E-013  0.5052889E+02  0.7816164E-02  0.1300439E+00
        -11   -1    0    0    0    0  0.00000000000E+00  0.00000000000E+00  0.45593999997E+02  0.45594000000E+02  0.51100000000E-03 0.  1.
         11   -1    0    0    0    0 -0.00000000000E+00 -0.00000000000E+00 -0.45593999997E+02  0.45594000000E+02  0.51100000000E-03 0. -1.
    9900012    2    1    2    0    0  0.95598671339E+01  0.39519229235E+02 -0.52508987056E-01  0.50528889138E+02  0.30000089023E+02 0.  0.
         12    1    1    2    0    0 -0.95598671339E+01 -0.39519229235E+02  0.52508987056E-01  0.40659110862E+02  0.00000000000E+00 0. -1.
         11    1    3    3    0    0 -0.51037742849E+01  0.13858120108E+00 -0.16194451636E+01  0.53563345302E+01  0.51100000000E-03 0. -1.
        -11    1    3    3    0    0  0.16994579549E+02  0.28065283173E+02  0.48403359191E+01  0.33164811257E+02  0.51100000000E-03 0.  1.
         12    1    3    3    0    0 -0.23309381304E+01  0.11315364861E+02 -0.32733997426E+01  0.12007743351E+02  0.00000000000E+00 0. -1.
</event>
<event>
 7    1  0.5910662E-013  0.5052885E+02  0.7816164E-02  0.1300439E+00
        -11   -1    0    0    0    0  0.00000000000E+00  0.00000000000E+00  0.45593999997E+02  0.45594000000E+02  0.51100000000E-03 0.  1.
         11   -1    0    0    0    0 -0.00000000000E+00 -0.00000000000E+00 -0.45593999997E+02  0.45594000000E+02  0.51100000000E-03 0. -1.
    9900012    2    1    2    0    0  0.16330172509E+02 -0.37234755902E+02 -0.25475850301E+00  0.50528849946E+02  0.29999969896E+02 0.  0.
         12    1    1    2    0    0 -0.16330172509E+02  0.37234755902E+02  0.25475850301E+00  0.40659150054E+02  0.00000000000E+00 0. -1.
         11    1    3    3    0    0  0.85943351082E+01 -0.97127657470E+01 -0.58208719647E+01  0.14215588806E+02  0.51100000000E-03 0. -1.
        -11    1    3    3    0    0 -0.72534356064E+01 -0.49787814024E+01  0.18139109478E+01  0.89828094456E+01  0.51100000000E-03 0.  1.
        -12    1    3    3    0    0  0.14989273007E+02 -0.22543208752E+02  0.37522025139E+01  0.27330451695E+02  0.00000000000E+00 0.  1.
</event>
<event>
 7    1  0.5910662E-013  0.5052886E+02  0.7816164E-02  0.1300439E+00
        -11   -1    0    0    0    0  0.00000000000E+00  0.00000000000E+00  0.45593999997E+02  0.45594000000E+02  0.51100000000E-03 0.  1.
         11   -1    0    0    0    0 -0.00000000000E+00 -0.00000000000E+00 -0.45593999997E+02  0.45594000000E+02  0.51100000000E-03 0. -1.
    9900012    2    1    2    0    0 -0.20643920834E+02  0.23691843497E+02  0.25800983840E+02  0.50528859788E+02  0.29999999813E+02 0.  0.
         12    1    1    2    0    0  0.20643920834E+02 -0.23691843497E+02 -0.25800983840E+02  0.40659140212E+02  0.00000000000E+00 0. -1.
         11    1    3    3    0    0  0.66317870659E+01  0.21905346618E+01  0.66449484190E+01  0.96402480022E+01  0.51100000000E-03 0. -1.
        -11    1    3    3    0    0 -0.23664679756E+02  0.13473179895E+02  0.15689692305E+02  0.31427855309E+02  0.51100000000E-03 0.  1.
         12    1    3    3    0    0 -0.36110281433E+01  0.80281289394E+01  0.34663431160E+01  0.94607564770E+01  0.00000000000E+00 0. -1.
</event>
<event>
 7    1  0.5910662E-013  0.5052886E+02  0.7816164E-02  0.1300439E+00
        -11   -1    0    0    0    0  0.00000000000E+00  0.00000000000E+00  0.45593999997E+02  0.45594000000E+02  0.51100000000E-03 0.  1.
         11   -1    0    0    0    0 -0.00000000000E+00 -0.00000000000E+00 -0.45593999997E+02  0.45594000000E+02  0.51100000000E-03 0. -1.
    9900012    2    1    2    0    0 -0.33047698521E+02  0.19057866178E+02  0.14064607891E+02  0.50528857905E+02  0.29999994087E+02 0.  0.
         12    1    1    2    0    0  0.33047698521E+02 -0.19057866178E+02 -0.14064607891E+02  0.40659142095E+02  0.00000000000E+00 0. -1.
         11    1    3    3    0    0 -0.83420957687E+01  0.18783143219E+02  0.57999187304E+00  0.20560482043E+02  0.51100000000E-03 0. -1.
        -11    1    3    3    0    0 -0.63003097499E+01 -0.44664569337E+01  0.32171948891E+01  0.83662108330E+01  0.51100000000E-03 0.  1.
         12    1    3    3    0    0 -0.18405293002E+02  0.47411798929E+01  0.10267421129E+02  0.21602165028E+02  0.00000000000E+00 0. -1.
</event>
<event>
 7    1  0.5910662E-013  0.5052886E+02  0.7816164E-02  0.1300439E+00
        -11   -1    0    0    0    0  0.00000000000E+00  0.00000000000E+00  0.45593999997E+02  0.45594000000E+02  0.51100000000E-03 0.  1.
         11   -1    0    0    0    0 -0.00000000000E+00 -0.00000000000E+00 -0.45593999997E+02  0.45594000000E+02  0.51100000000E-03 0. -1.
    9900012    2    1    2    0    0 -0.84819296840E+01  0.18599622021E+02  0.35146496176E+02  0.50528864939E+02  0.30000015468E+02 0.  0.
         12    1    1    2    0    0  0.84819296840E+01 -0.18599622021E+02 -0.35146496176E+02  0.40659135061E+02  0.00000000000E+00 0. -1.
         11    1    3    3    0    0 -0.40911958214E+00 -0.66001521454E+01  0.10642303062E+02  0.12529485301E+02  0.51100000000E-03 0. -1.
        -11    1    3    3    0    0 -0.20020028367E+01  0.15795778289E+02  0.73990039828E+01  0.17557331441E+02  0.51100000000E-03 0.  1.
        -12    1    3    3    0    0 -0.60708072652E+01  0.94039958773E+01  0.17105189131E+02  0.20442048198E+02  0.00000000000E+00 0.  1.
</event>
<event>
 7    1  0.5910662E-013  0.5052885E+02  0.7816164E-02  0.1300439E+00
        -11   -1    0    0    0    0  0.00000000000E+00  0.00000000000E+00  0.45593999997E+02  0.45594000000E+02  0.51100000000E-03 0.  1.
         11   -1    0    0    0    0 -0.00000000000E+00 -0.00000000000E+00 -0.45593999997E+02  0.45594000000E+02  0.51100000000E-03 0. -1.
    9900012    2    1    2    0    0  0.12672892345E+02 -0.86542035253E+00  0.38624026088E+02  0.50528849197E+02  0.29999967618E+02 0.  0.
         12    1    1    2    0    0 -0.12672892345E+02  0.86542035253E+00 -0.38624026088E+02  0.40659150803E+02  0.00000000000E+00 0. -1.
         11    1    3    3    0    0 -0.39814212988E+01 -0.53210510678E+00  0.20383956248E+02  0.20775960243E+02  0.51100000000E-03 0. -1.
        -11    1    3    3    0    0  0.16345855884E+02 -0.34240059708E+01  0.70290560856E+01  0.18119559906E+02  0.51100000000E-03 0.  1.
        -12    1    3    3    0    0  0.30845776018E+00  0.30906907250E+01  0.11211013754E+02  0.11633329048E+02  0.00000000000E+00 0.  1.
</event>
<event>
 7    1  0.5910662E-013  0.5052886E+02  0.7816164E-02  0.1300439E+00
        -11   -1    0    0    0    0  0.00000000000E+00  0.00000000000E+00  0.45593999997E+02  0.45594000000E+02  0.51100000000E-03 0. -1.
         11   -1    0    0    0    0 -0.00000000000E+00 -0.00000000000E+00 -0.45593999997E+02  0.45594000000E+02  0.51100000000E-03 0.  1.
    9900012    2    1    2    0    0  0.13434831627E+02 -0.53684012210E+01 -0.37998042016E+02  0.50528860442E+02  0.30000001800E+02 0.  0.
         12    1    1    2    0    0 -0.13434831627E+02  0.53684012210E+01  0.37998042016E+02  0.40659139558E+02  0.00000000000E+00 0. -1.
         11    1    3    3    0    0  0.20618179667E+02 -0.60085373548E+01 -0.20607956567E+02  0.29764067733E+02  0.51100000000E-03 0. -1.
        -11    1    3    3    0    0  0.19092594451E+01 -0.80057230582E+00 -0.41627952122E+01  0.46491990585E+01  0.51100000000E-03 0.  1.
         12    1    3    3    0    0 -0.90926074847E+01  0.14407084397E+01 -0.13227290238E+02  0.16115593651E+02  0.00000000000E+00 0. -1.
</event>
<event>
 7    1  0.5910662E-013  0.5052886E+02  0.7816164E-02  0.1300439E+00
        -11   -1    0    0    0    0  0.00000000000E+00  0.00000000000E+00  0.45593999997E+02  0.45594000000E+02  0.51100000000E-03 0.  1.
         11   -1    0    0    0    0 -0.00000000000E+00 -0.00000000000E+00 -0.45593999997E+02  0.45594000000E+02  0.51100000000E-03 0. -1.
    9900012    2    1    2    0    0 -0.49685452713E+01  0.21726260434E+02  0.34006599161E+02  0.50528860547E+02  0.30000002119E+02 0.  0.
         12    1    1    2    0    0  0.49685452713E+01 -0.21726260434E+02 -0.34006599161E+02  0.40659139453E+02  0.00000000000E+00 0. -1.
         11    1    3    3    0    0 -0.23238716166E+01  0.62314882595E+01  0.21071053935E+02  0.22095726723E+02  0.51100000000E-03 0. -1.
        -11    1    3    3    0    0 -0.52809399084E+01  0.19635793206E+02  0.11278501045E+02  0.23252038345E+02  0.51100000000E-03 0.  1.
         12    1    3    3    0    0  0.26362662536E+01 -0.41410210315E+01  0.16570441810E+01  0.51810954789E+01  0.00000000000E+00 0. -1.
</event>
<event>
 7    1  0.5910662E-013  0.5052886E+02  0.7816164E-02  0.1300439E+00
        -11   -1    0    0    0    0  0.00000000000E+00  0.00000000000E+00  0.45593999997E+02  0.45594000000E+02  0.51100000000E-03 0.  1.
         11   -1    0    0    0    0 -0.00000000000E+00 -0.00000000000E+00 -0.45593999997E+02  0.45594000000E+02  0.51100000000E-03 0. -1.
    9900012    2    1    2    0    0 -0.73044048807E+01  0.32079510011E+02  0.23889678291E+02  0.50528855616E+02  0.29999987130E+02 0.  0.
         12    1    1    2    0    0  0.73044048807E+01 -0.32079510011E+02 -0.23889678291E+02  0.40659144384E+02  0.00000000000E+00 0. -1.
         11    1    3    3    0    0  0.11255575384E+02  0.16449479190E+02  0.88473251935E+01  0.21807074682E+02  0.51100000000E-03 0. -1.
        -11    1    3    3    0    0 -0.12100335279E+02  0.92094711300E+01  0.10940218887E+02  0.18732881837E+02  0.51100000000E-03 0.  1.
         12    1    3    3    0    0 -0.64596449860E+01  0.64205596902E+01  0.41021342105E+01  0.99888990966E+01  0.00000000000E+00 0. -1.
</event>
<event>
 7    1  0.5910662E-013  0.5052886E+02  0.7816164E-02  0.1300439E+00
        -11   -1    0    0    0    0  0.00000000000E+00  0.00000000000E+00  0.45593999997E+02  0.45594000000E+02  0.51100000000E-03 0.  1.
         11   -1    0    0    0    0 -0.00000000000E+00 -0.00000000000E+00 -0.45593999997E+02  0.45594000000E+02  0.51100000000E-03 0. -1.
    9900012    2    1    2    0    0  0.26055581098E+02 -0.27312083990E+02  0.15110350958E+02  0.50528856572E+02  0.29999990036E+02 0.  0.
         12    1    1    2    0    0 -0.26055581098E+02  0.27312083990E+02 -0.15110350958E+02  0.40659143428E+02  0.00000000000E+00 0. -1.
         11    1    3    3    0    0 -0.25740946876E+01  0.92554431918E-01  0.59954542479E+01  0.65253353694E+01  0.51100000000E-03 0. -1.
        -11    1    3    3    0    0  0.23418766847E+02 -0.28725326496E+02  0.10365886880E+02  0.38484212789E+02  0.51100000000E-03 0.  1.
        -12    1    3    3    0    0  0.52109089392E+01  0.13206880740E+01 -0.12509901693E+01  0.55193084136E+01  0.00000000000E+00 0.  1.
</event>
<event>
 7    1  0.5910662E-013  0.5052886E+02  0.7816164E-02  0.1300439E+00
        -11   -1    0    0    0    0  0.00000000000E+00  0.00000000000E+00  0.45593999997E+02  0.45594000000E+02  0.51100000000E-03 0.  1.
         11   -1    0    0    0    0 -0.00000000000E+00 -0.00000000000E+00 -0.45593999997E+02  0.45594000000E+02  0.51100000000E-03 0. -1.
    9900012    2    1    2    0    0 -0.31778048194E+02 -0.49916150777E+01  0.24867758194E+02  0.50528856309E+02  0.29999989236E+02 0.  0.
         12    1    1    2    0    0  0.31778048194E+02  0.49916150777E+01 -0.24867758194E+02  0.40659143691E+02  0.00000000000E+00 0. -1.
         11    1    3    3    0    0  0.97134604006E+00  0.24737934914E+01  0.14241388824E+01  0.30151847680E+01  0.51100000000E-03 0. -1.
        -11    1    3    3    0    0 -0.35246008635E+02 -0.49389816144E+01  0.15513651743E+02  0.38824580548E+02  0.51100000000E-03 0.  1.
        -12    1    3    3    0    0  0.24966144011E+01 -0.25264269546E+01  0.79299675692E+01  0.86890909923E+01  0.00000000000E+00 0.  1.
</event>
<event>
 7    1  0.5910662E-013  0.5052887E+02  0.7816164E-02  0.1300439E+00
        -11   -1    0    0    0    0  0.00000000000E+00  0.00000000000E+00  0.45593999997E+02  0.45594000000E+02  0.51100000000E-03 0.  1.
         11   -1    0    0    0    0 -0.00000000000E+00 -0.00000000000E+00 -0.45593999997E+02  0.45594000000E+02  0.51100000000E-03 0. -1.
    9900012    2    1    2    0    0  0.81491304527E+01 -0.29302215608E+02  0.26984014983E+02  0.50528865340E+02  0.30000016689E+02 0.  0.
         12    1    1    2    0    0 -0.81491304527E+01  0.29302215608E+02 -0.26984014983E+02  0.40659134660E+02  0.00000000000E+00 0. -1.
         11    1    3    3    0    0  0.26087105957E+01 -0.30990813255E+02  0.22794442004E+02  0.38559336920E+02  0.51100000000E-03 0. -1.
        -11    1    3    3    0    0  0.38551443604E+01 -0.37508033741E+01  0.29760921193E+01  0.61471772835E+01  0.51100000000E-03 0.  1.
         12    1    3    3    0    0  0.16852754966E+01  0.54394010211E+01  0.12134808599E+01  0.58223511372E+01  0.00000000000E+00 0. -1.
</event>
<event>
 7    1  0.5910662E-013  0.5052890E+02  0.7816164E-02  0.1300439E+00
        -11   -1    0    0    0    0  0.00000000000E+00  0.00000000000E+00  0.45593999997E+02  0.45594000000E+02  0.51100000000E-03 0.  1.
         11   -1    0    0    0    0 -0.00000000000E+00 -0.00000000000E+00 -0.45593999997E+02  0.45594000000E+02  0.51100000000E-03 0. -1.
    9900012    2    1    2    0    0  0.12584671606E+02  0.23598549833E+02  0.30625099398E+02  0.50528902287E+02  0.30000128992E+02 0.  0.
         12    1    1    2    0    0 -0.12584671606E+02 -0.23598549833E+02 -0.30625099398E+02  0.40659097713E+02  0.00000000000E+00 0. -1.
         11    1    3    3    0    0  0.35982340214E-01  0.74373175407E+01 -0.27357528827E+01  0.79246028940E+01  0.51100000000E-03 0. -1.
        -11    1    3    3    0    0  0.14982681339E+02  0.14279705048E+02  0.33658915649E+02  0.39513457445E+02  0.51100000000E-03 0.  1.
        -12    1    3    3    0    0 -0.24339920725E+01  0.18815272438E+01 -0.29806336759E+00  0.30908419483E+01  0.00000000000E+00 0.  1.
</event>
<event>
 7    1  0.5910662E-013  0.5052886E+02  0.7816164E-02  0.1300439E+00
        -11   -1    0    0    0    0  0.00000000000E+00  0.00000000000E+00  0.45593999997E+02  0.45594000000E+02  0.51100000000E-03 0. -1.
         11   -1    0    0    0    0 -0.00000000000E+00 -0.00000000000E+00 -0.45593999997E+02  0.45594000000E+02  0.51100000000E-03 0.  1.
    9900012    2    1    2    0    0 -0.32333581853E+02  0.11864251573E+02 -0.21608893970E+02  0.50528864748E+02  0.30000014889E+02 0.  0.
         12    1    1    2    0    0  0.32333581853E+02 -0.11864251573E+02  0.21608893970E+02  0.40659135252E+02  0.00000000000E+00 0. -1.
         11    1    3    3    0    0 -0.18961907553E+01 -0.66080957459E+01  0.21909534590E+01  0.72154518977E+01  0.51100000000E-03 0. -1.
        -11    1    3    3    0    0 -0.21212509037E+02  0.11790922117E+02 -0.12624900327E+02  0.27356616979E+02  0.51100000000E-03 0.  1.
        -12    1    3    3    0    0 -0.92248820603E+01  0.66814252019E+01 -0.11174947102E+02  0.15956795871E+02  0.00000000000E+00 0.  1.
</event>
<event>
 7    1  0.5910662E-013  0.5052883E+02  0.7816164E-02  0.1300439E+00
        -11   -1    0    0    0    0  0.00000000000E+00  0.00000000000E+00  0.45593999997E+02  0.45594000000E+02  0.51100000000E-03 0.  1.
         11   -1    0    0    0    0 -0.00000000000E+00 -0.00000000000E+00 -0.45593999997E+02  0.45594000000E+02  0.51100000000E-03 0. -1.
    9900012    2    1    2    0    0  0.52845651914E+01  0.37660321525E+01  0.40137992479E+02  0.50528830460E+02  0.29999910665E+02 0.  0.
         12    1    1    2    0    0 -0.52845651914E+01 -0.37660321525E+01 -0.40137992479E+02  0.40659169540E+02  0.00000000000E+00 0. -1.
         11    1    3    3    0    0  0.12235265500E+02 -0.67999116165E+01  0.28190483134E+02  0.31474495380E+02  0.51100000000E-03 0. -1.
        -11    1    3    3    0    0  0.16229834635E+01  0.26165541263E+01  0.17589693622E+01  0.35460406508E+01  0.51100000000E-03 0.  1.
         12    1    3    3    0    0 -0.85736837718E+01  0.79493896427E+01  0.10188539984E+02  0.15508294429E+02  0.00000000000E+00 0. -1.
</event>
<event>
 7    1  0.5910662E-013  0.5052886E+02  0.7816164E-02  0.1300439E+00
        -11   -1    0    0    0    0  0.00000000000E+00  0.00000000000E+00  0.45593999997E+02  0.45594000000E+02  0.51100000000E-03 0. -1.
         11   -1    0    0    0    0 -0.00000000000E+00 -0.00000000000E+00 -0.45593999997E+02  0.45594000000E+02  0.51100000000E-03 0.  1.
    9900012    2    1    2    0    0 -0.35596959078E+02  0.77454005370E+01 -0.18056319908E+02  0.50528863097E+02  0.30000009868E+02 0.  0.
         12    1    1    2    0    0  0.35596959078E+02 -0.77454005370E+01  0.18056319908E+02  0.40659136903E+02  0.00000000000E+00 0. -1.
         11    1    3    3    0    0 -0.15144121484E+02 -0.60793878601E+01  0.11565457375E+01  0.16359736262E+02  0.51100000000E-03 0. -1.
        -11    1    3    3    0    0 -0.16801506688E+02  0.15498859422E+02 -0.11767950984E+02  0.25709724638E+02  0.51100000000E-03 0.  1.
         12    1    3    3    0    0 -0.36513309070E+01 -0.16740710251E+01 -0.74449146622E+01  0.84594021961E+01  0.00000000000E+00 0. -1.
</event>
<event>
 7    1  0.5910662E-013  0.5052887E+02  0.7816164E-02  0.1300439E+00
        -11   -1    0    0    0    0  0.00000000000E+00  0.00000000000E+00  0.45593999997E+02  0.45594000000E+02  0.51100000000E-03 0.  1.
         11   -1    0    0    0    0 -0.00000000000E+00 -0.00000000000E+00 -0.45593999997E+02  0.45594000000E+02  0.51100000000E-03 0. -1.
    9900012    2    1    2    0    0  0.80916609018E+01  0.18432455782E+02  0.35326117479E+02  0.50528868450E+02  0.30000026140E+02 0.  0.
         12    1    1    2    0    0 -0.80916609018E+01 -0.18432455782E+02 -0.35326117479E+02  0.40659131550E+02  0.00000000000E+00 0. -1.
         11    1    3    3    0    0  0.14364616338E+02  0.55226281231E+01  0.28988181736E+02  0.32820059484E+02  0.51100000000E-03 0.  1.
        -11    1    3    3    0    0 -0.64579387501E+01  0.68753440254E+01  0.68385093630E+01  0.11650774178E+02  0.51100000000E-03 0. -1.
        -12    1    3    3    0    0  0.18498331418E+00  0.60344836332E+01 -0.50057361999E+00  0.60580347882E+01  0.00000000000E+00 0.  1.
</event>
<event>
 7    1  0.5910662E-013  0.5052886E+02  0.7816164E-02  0.1300439E+00
        -11   -1    0    0    0    0  0.00000000000E+00  0.00000000000E+00  0.45593999997E+02  0.45594000000E+02  0.51100000000E-03 0. -1.
         11   -1    0    0    0    0 -0.00000000000E+00 -0.00000000000E+00 -0.45593999997E+02  0.45594000000E+02  0.51100000000E-03 0.  1.
    9900012    2    1    2    0    0 -0.25995589591E+02 -0.29883800853E+02 -0.91844281160E+01  0.50528856484E+02  0.29999989770E+02 0.  0.
         12    1    1    2    0    0  0.25995589591E+02  0.29883800853E+02  0.91844281160E+01  0.40659143516E+02  0.00000000000E+00 0. -1.
         11    1    3    3    0    0  0.21577166001E+01  0.21690750767E+00  0.45764136336E+01  0.50642227242E+01  0.51100000000E-03 0. -1.
        -11    1    3    3    0    0 -0.23222827995E+02 -0.30213903255E+02 -0.10415250832E+02  0.39505153337E+02  0.51100000000E-03 0.  1.
         12    1    3    3    0    0 -0.49304781965E+01  0.11319489466E+00 -0.33455909178E+01  0.59594804236E+01  0.00000000000E+00 0. -1.
</event>
<event>
 7    1  0.5910662E-013  0.5052886E+02  0.7816164E-02  0.1300439E+00
        -11   -1    0    0    0    0  0.00000000000E+00  0.00000000000E+00  0.45593999997E+02  0.45594000000E+02  0.51100000000E-03 0. -1.
         11   -1    0    0    0    0 -0.00000000000E+00 -0.00000000000E+00 -0.45593999997E+02  0.45594000000E+02  0.51100000000E-03 0.  1.
    9900012    2    1    2    0    0 -0.31193984959E+02 -0.76784879176E+01 -0.24922721990E+02  0.50528856555E+02  0.29999989983E+02 0.  0.
         12    1    1    2    0    0  0.31193984959E+02  0.76784879176E+01  0.24922721990E+02  0.40659143445E+02  0.00000000000E+00 0. -1.
         11    1    3    3    0    0 -0.38835157752E+01 -0.37236071110E+01  0.45602779719E+01  0.70528774366E+01  0.51100000000E-03 0. -1.
        -11    1    3    3    0    0 -0.80846448174E+01 -0.73125826061E+01 -0.17364940726E+02  0.20503085447E+02  0.51100000000E-03 0.  1.
         12    1    3    3    0    0 -0.19225824367E+02  0.33577017995E+01 -0.12118059236E+02  0.22972893671E+02  0.00000000000E+00 0. -1.
</event>
<event>
 7    1  0.5910662E-013  0.5052887E+02  0.7816164E-02  0.1300439E+00
        -11   -1    0    0    0    0  0.00000000000E+00  0.00000000000E+00  0.45593999997E+02  0.45594000000E+02  0.51100000000E-03 0.  1.
         11   -1    0    0    0    0 -0.00000000000E+00 -0.00000000000E+00 -0.45593999997E+02  0.45594000000E+02  0.51100000000E-03 0. -1.
    9900012    2    1    2    0    0 -0.12829441625E+02 -0.14977675702E+02  0.35556150892E+02  0.50528865625E+02  0.30000017555E+02 0.  0.
         12    1    1    2    0    0  0.12829441625E+02  0.14977675702E+02 -0.35556150892E+02  0.40659134375E+02  0.00000000000E+00 0. -1.
         11    1    3    3    0    0 -0.12226567918E+01 -0.16592052247E+01 -0.33658581994E+00  0.20883347154E+01  0.51100000000E-03 0. -1.
        -11    1    3    3    0    0 -0.50719986125E+01 -0.84735074960E+01  0.38618422969E+02  0.39861110020E+02  0.51100000000E-03 0.  1.
        -12    1    3    3    0    0 -0.65347862202E+01 -0.48449629810E+01 -0.27256862566E+01  0.85794208896E+01  0.00000000000E+00 0.  1.
</event>
<event>
 7    1  0.5910662E-013  0.5052886E+02  0.7816164E-02  0.1300439E+00
        -11   -1    0    0    0    0  0.00000000000E+00  0.00000000000E+00  0.45593999997E+02  0.45594000000E+02  0.51100000000E-03 0.  1.
         11   -1    0    0    0    0 -0.00000000000E+00 -0.00000000000E+00 -0.45593999997E+02  0.45594000000E+02  0.51100000000E-03 0. -1.
    9900012    2    1    2    0    0 -0.25916832108E+02  0.13875191097E+02  0.28088483488E+02  0.50528855652E+02  0.29999987239E+02 0.  0.
         12    1    1    2    0    0  0.25916832108E+02 -0.13875191097E+02 -0.28088483488E+02  0.40659144348E+02  0.00000000000E+00 0. -1.
         11    1    3    3    0    0 -0.16559177473E+02  0.16538781140E+02  0.18627680244E+02  0.29912006146E+02  0.51100000000E-03 0.  1.
        -11    1    3    3    0    0  0.33413726034E+01 -0.40939553435E+01  0.12602283173E+01  0.54326252312E+01  0.51100000000E-03 0. -1.
        -12    1    3    3    0    0 -0.12699027238E+02  0.14303653012E+01  0.82005749268E+01  0.15184224275E+02  0.00000000000E+00 0.  1.
</event>
<event>
 7    1  0.5910662E-013  0.5052886E+02  0.7816164E-02  0.1300439E+00
        -11   -1    0    0    0    0  0.00000000000E+00  0.00000000000E+00  0.45593999997E+02  0.45594000000E+02  0.51100000000E-03 0.  1.
         11   -1    0    0    0    0 -0.00000000000E+00 -0.00000000000E+00 -0.45593999997E+02  0.45594000000E+02  0.51100000000E-03 0. -1.
    9900012    2    1    2    0    0 -0.20560901950E+02  0.23455733345E+02  0.26081474848E+02  0.50528862699E+02  0.30000008661E+02 0.  0.
         12    1    1    2    0    0  0.20560901950E+02 -0.23455733345E+02 -0.26081474848E+02  0.40659137301E+02  0.00000000000E+00 0. -1.
         11    1    3    3    0    0  0.24705087808E+01  0.37753128570E+01  0.46139846580E+01  0.64533135279E+01  0.51100000000E-03 0. -1.
        -11    1    3    3    0    0 -0.25431283389E+02  0.20558368287E+02  0.12932104298E+02  0.35165835740E+02  0.51100000000E-03 0.  1.
        -12    1    3    3    0    0  0.23998726581E+01 -0.87794779886E+00  0.85353858922E+01  0.89097134321E+01  0.00000000000E+00 0.  1.
</event>
<event>
 7    1  0.5910662E-013  0.5052886E+02  0.7816164E-02  0.1300439E+00
        -11   -1    0    0    0    0  0.00000000000E+00  0.00000000000E+00  0.45593999997E+02  0.45594000000E+02  0.51100000000E-03 0.  1.
         11   -1    0    0    0    0 -0.00000000000E+00 -0.00000000000E+00 -0.45593999997E+02  0.45594000000E+02  0.51100000000E-03 0. -1.
    9900012    2    1    2    0    0  0.12665163988E+02  0.38116810191E+02 -0.63141014032E+01  0.50528862349E+02  0.30000007597E+02 0.  0.
         12    1    1    2    0    0 -0.12665163988E+02 -0.38116810191E+02  0.63141014032E+01  0.40659137651E+02  0.00000000000E+00 0. -1.
         11    1    3    3    0    0  0.71652693617E+00  0.93335073472E+00 -0.19682376931E+01  0.22931450722E+01  0.51100000000E-03 0. -1.
        -11    1    3    3    0    0  0.90027453875E+01  0.15936607620E+02 -0.15566647018E+02  0.24028012539E+02  0.51100000000E-03 0.  1.
        -12    1    3    3    0    0  0.29458916642E+01  0.21246851836E+02  0.11220783308E+02  0.24207704738E+02  0.00000000000E+00 0.  1.
</event>
<event>
 7    1  0.5910662E-013  0.5052886E+02  0.7816164E-02  0.1300439E+00
        -11   -1    0    0    0    0  0.00000000000E+00  0.00000000000E+00  0.45593999997E+02  0.45594000000E+02  0.51100000000E-03 0.  1.
         11   -1    0    0    0    0 -0.00000000000E+00 -0.00000000000E+00 -0.45593999997E+02  0.45594000000E+02  0.51100000000E-03 0. -1.
    9900012    2    1    2    0    0  0.95161604981E+01  0.25105389526E+02  0.30534041856E+02  0.50528860732E+02  0.30000002682E+02 0.  0.
         12    1    1    2    0    0 -0.95161604981E+01 -0.25105389526E+02 -0.30534041856E+02  0.40659139268E+02  0.00000000000E+00 0. -1.
         11    1    3    3    0    0 -0.31465504190E+01  0.41020055171E+01  0.12752743753E+01  0.53248055171E+01  0.51100000000E-03 0. -1.
        -11    1    3    3    0    0  0.15766175905E+02  0.19518978411E+02  0.12381454754E+02  0.27979693404E+02  0.51100000000E-03 0.  1.
        -12    1    3    3    0    0 -0.31034649882E+01  0.14844055979E+01  0.16877312727E+02  0.17224361811E+02  0.00000000000E+00 0.  1.
</event>
<event>
 7    1  0.5910662E-013  0.5052887E+02  0.7816164E-02  0.1300439E+00
        -11   -1    0    0    0    0  0.00000000000E+00  0.00000000000E+00  0.45593999997E+02  0.45594000000E+02  0.51100000000E-03 0.  1.
         11   -1    0    0    0    0 -0.00000000000E+00 -0.00000000000E+00 -0.45593999997E+02  0.45594000000E+02  0.51100000000E-03 0. -1.
    9900012    2    1    2    0    0 -0.96699333463E+01  0.37240318477E+02  0.13145953339E+02  0.50528867934E+02  0.30000024572E+02 0.  0.
         12    1    1    2    0    0  0.96699333463E+01 -0.37240318477E+02 -0.13145953339E+02  0.40659132066E+02  0.00000000000E+00 0. -1.
         11    1    3    3    0    0  0.83803944433E+01  0.13487478280E+02  0.12416624381E+02  0.20157272699E+02  0.51100000000E-03 0. -1.
        -11    1    3    3    0    0 -0.12653886319E+02  0.18528275262E+02 -0.16366894649E+01  0.22496590315E+02  0.51100000000E-03 0.  1.
         12    1    3    3    0    0 -0.53964414705E+01  0.52245649347E+01  0.23660184230E+01  0.78750049194E+01  0.00000000000E+00 0. -1.
</event>
<event>
 7    1  0.5910662E-013  0.5052886E+02  0.7816164E-02  0.1300439E+00
        -11   -1    0    0    0    0  0.00000000000E+00  0.00000000000E+00  0.45593999997E+02  0.45594000000E+02  0.51100000000E-03 0. -1.
         11   -1    0    0    0    0 -0.00000000000E+00 -0.00000000000E+00 -0.45593999997E+02  0.45594000000E+02  0.51100000000E-03 0.  1.
    9900012    2    1    2    0    0  0.20334536466E+02  0.45894106735E+01 -0.34908583459E+02  0.50528864953E+02  0.30000015512E+02 0.  0.
         12    1    1    2    0    0 -0.20334536466E+02 -0.45894106735E+01  0.34908583459E+02  0.40659135047E+02  0.00000000000E+00 0. -1.
         11    1    3    3    0    0  0.65167756054E+01  0.51307267501E+01  0.34585747895E+01  0.89863485972E+01  0.51100000000E-03 0. -1.
        -11    1    3    3    0    0  0.12153044618E+02  0.15128561652E+01 -0.24108700839E+02  0.27040981559E+02  0.51100000000E-03 0.  1.
         12    1    3    3    0    0  0.16647162429E+01 -0.20541722418E+01 -0.14258457409E+02  0.14501534797E+02  0.00000000000E+00 0. -1.
</event>
<event>
 7    1  0.5910662E-013  0.5052887E+02  0.7816164E-02  0.1300439E+00
        -11   -1    0    0    0    0  0.00000000000E+00  0.00000000000E+00  0.45593999997E+02  0.45594000000E+02  0.51100000000E-03 0. -1.
         11   -1    0    0    0    0 -0.00000000000E+00 -0.00000000000E+00 -0.45593999997E+02  0.45594000000E+02  0.51100000000E-03 0.  1.
    9900012    2    1    2    0    0  0.23255457095E+02 -0.29879294787E+02  0.14818120187E+02  0.50528865386E+02  0.30000016827E+02 0.  0.
         12    1    1    2    0    0 -0.23255457095E+02  0.29879294787E+02 -0.14818120187E+02  0.40659134614E+02  0.00000000000E+00 0. -1.
         11    1    3    3    0    0 -0.21051165448E+01  0.79542874891E+00 -0.32713714278E+01  0.39706540823E+01  0.51100000000E-03 0. -1.
        -11    1    3    3    0    0  0.17703669609E+02 -0.29968866127E+02  0.17176736186E+02  0.38814856960E+02  0.51100000000E-03 0.  1.
         12    1    3    3    0    0  0.76569040309E+01 -0.70585740958E+00  0.91275542845E+00  0.77433543438E+01  0.00000000000E+00 0. -1.
</event>
<event>
 7    1  0.5910662E-013  0.5052886E+02  0.7816164E-02  0.1300439E+00
        -11   -1    0    0    0    0  0.00000000000E+00  0.00000000000E+00  0.45593999997E+02  0.45594000000E+02  0.51100000000E-03 0.  1.
         11   -1    0    0    0    0 -0.00000000000E+00 -0.00000000000E+00 -0.45593999997E+02  0.45594000000E+02  0.51100000000E-03 0. -1.
    9900012    2    1    2    0    0 -0.92285696783E+01 -0.74753106553E+01  0.38885974194E+02  0.50528858879E+02  0.29999997049E+02 0.  0.
         12    1    1    2    0    0  0.92285696783E+01  0.74753106553E+01 -0.38885974194E+02  0.40659141121E+02  0.00000000000E+00 0. -1.
         11    1    3    3    0    0  0.76660567993E+01 -0.59256748133E+00  0.19949882103E+02  0.21380303068E+02  0.51100000000E-03 0. -1.
        -11    1    3    3    0    0 -0.86030922745E+01 -0.68641437877E+01  0.17588605935E+02  0.20748222228E+02  0.51100000000E-03 0.  1.
         12    1    3    3    0    0 -0.82915342031E+01 -0.18599386263E-01  0.13474861559E+01  0.84003335838E+01  0.00000000000E+00 0. -1.
</event>
<event>
 7    1  0.5910662E-013  0.5052887E+02  0.7816164E-02  0.1300439E+00
        -11   -1    0    0    0    0  0.00000000000E+00  0.00000000000E+00  0.45593999997E+02  0.45594000000E+02  0.51100000000E-03 0.  1.
         11   -1    0    0    0    0 -0.00000000000E+00 -0.00000000000E+00 -0.45593999997E+02  0.45594000000E+02  0.51100000000E-03 0. -1.
    9900012    2    1    2    0    0 -0.21013385460E+02 -0.33591927888E+02  0.91205786585E+01  0.50528868888E+02  0.30000027472E+02 0.  0.
         12    1    1    2    0    0  0.21013385460E+02  0.33591927888E+02 -0.91205786585E+01  0.40659131112E+02  0.00000000000E+00 0. -1.
         11    1    3    3    0    0 -0.81116972673E+01 -0.11073049528E+02  0.14322736480E+02  0.19838166219E+02  0.51100000000E-03 0. -1.
        -11    1    3    3    0    0 -0.14142289553E+02 -0.22323859347E+02 -0.11533911302E+01  0.26451641939E+02  0.51100000000E-03 0.  1.
         12    1    3    3    0    0  0.12406013596E+01 -0.19501901237E+00 -0.40487666911E+01  0.42390607294E+01  0.00000000000E+00 0. -1.
</event>
<event>
 7    1  0.5910662E-013  0.5052886E+02  0.7816164E-02  0.1300439E+00
        -11   -1    0    0    0    0  0.00000000000E+00  0.00000000000E+00  0.45593999997E+02  0.45594000000E+02  0.51100000000E-03 0. -1.
         11   -1    0    0    0    0 -0.00000000000E+00 -0.00000000000E+00 -0.45593999997E+02  0.45594000000E+02  0.51100000000E-03 0.  1.
    9900012    2    1    2    0    0  0.68476789001E+01 -0.31452628108E+02 -0.24839627330E+02  0.50528860718E+02  0.30000002640E+02 0.  0.
         12    1    1    2    0    0 -0.68476789001E+01  0.31452628108E+02  0.24839627330E+02  0.40659139282E+02  0.00000000000E+00 0. -1.
         11    1    3    3    0    0  0.17779998648E+01 -0.76123607141E+00 -0.30916897727E+01  0.36468218749E+01  0.51100000000E-03 0. -1.
        -11    1    3    3    0    0  0.16119403437E+01 -0.13280623006E+02 -0.25447551389E+02  0.28749802974E+02  0.51100000000E-03 0.  1.
        -12    1    3    3    0    0  0.34577386915E+01 -0.17410769031E+02  0.36996138319E+01  0.18132235869E+02  0.00000000000E+00 0.  1.
</event>
<event>
 7    1  0.5910662E-013  0.5052886E+02  0.7816164E-02  0.1300439E+00
        -11   -1    0    0    0    0  0.00000000000E+00  0.00000000000E+00  0.45593999997E+02  0.45594000000E+02  0.51100000000E-03 0. -1.
         11   -1    0    0    0    0 -0.00000000000E+00 -0.00000000000E+00 -0.45593999997E+02  0.45594000000E+02  0.51100000000E-03 0.  1.
    9900012    2    1    2    0    0  0.18246919902E+02  0.33113894845E+02  0.14956126384E+02  0.50528857927E+02  0.29999994156E+02 0.  0.
         12    1    1    2    0    0 -0.18246919902E+02 -0.33113894845E+02 -0.14956126384E+02  0.40659142073E+02  0.00000000000E+00 0. -1.
         11    1    3    3    0    0  0.93602008922E+01  0.44253541498E-01  0.27081784725E+01  0.97442059716E+01  0.51100000000E-03 0. -1.
        -11    1    3    3    0    0  0.48203323381E+01  0.27454675240E+02  0.13989472866E+01  0.27909708887E+02  0.51100000000E-03 0.  1.
         12    1    3    3    0    0  0.40663866714E+01  0.56149660627E+01  0.10849000625E+02  0.12874943068E+02  0.00000000000E+00 0. -1.
</event>
<event>
 7    1  0.5910662E-013  0.5052884E+02  0.7816164E-02  0.1300439E+00
        -11   -1    0    0    0    0  0.00000000000E+00  0.00000000000E+00  0.45593999997E+02  0.45594000000E+02  0.51100000000E-03 0. -1.
         11   -1    0    0    0    0 -0.00000000000E+00 -0.00000000000E+00 -0.45593999997E+02  0.45594000000E+02  0.51100000000E-03 0.  1.
    9900012    2    1    2    0    0  0.25392766512E+02 -0.20405462930E+01 -0.31689281738E+02  0.50528843622E+02  0.29999950673E+02 0.  0.
         12    1    1    2    0    0 -0.25392766512E+02  0.20405462930E+01  0.31689281738E+02  0.40659156378E+02  0.00000000000E+00 0. -1.
         11    1    3    3    0    0  0.65780169004E+01  0.65952367030E+01  0.14222458161E+01  0.94228571533E+01  0.51100000000E-03 0. -1.
        -11    1    3    3    0    0  0.57533732224E+01 -0.43922272381E+01 -0.22830922220E+02  0.23950865814E+02  0.51100000000E-03 0.  1.
        -12    1    3    3    0    0  0.13061376389E+02 -0.42435557579E+01 -0.10280605334E+02  0.17155120655E+02  0.00000000000E+00 0.  1.
</event>
<event>
 7    1  0.5910662E-013  0.5052886E+02  0.7816164E-02  0.1300439E+00
        -11   -1    0    0    0    0  0.00000000000E+00  0.00000000000E+00  0.45593999997E+02  0.45594000000E+02  0.51100000000E-03 0.  1.
         11   -1    0    0    0    0 -0.00000000000E+00 -0.00000000000E+00 -0.45593999997E+02  0.45594000000E+02  0.51100000000E-03 0. -1.
    9900012    2    1    2    0    0  0.18318818441E+02  0.35919234902E+02 -0.52340512087E+01  0.50528857890E+02  0.29999994043E+02 0.  0.
         12    1    1    2    0    0 -0.18318818441E+02 -0.35919234902E+02  0.52340512087E+01  0.40659142110E+02  0.00000000000E+00 0. -1.
         11    1    3    3    0    0 -0.66129837908E+01  0.13037209217E+02  0.22449702490E+01  0.14789870536E+02  0.51100000000E-03 0. -1.
        -11    1    3    3    0    0  0.18480983530E+02  0.17800475266E+02 -0.93620821540E+01  0.27313957137E+02  0.51100000000E-03 0.  1.
        -12    1    3    3    0    0  0.64508187020E+01  0.50815504189E+01  0.18830606963E+01  0.84250302178E+01  0.00000000000E+00 0.  1.
</event>
<event>
 7    1  0.5910662E-013  0.5052886E+02  0.7816164E-02  0.1300439E+00
        -11   -1    0    0    0    0  0.00000000000E+00  0.00000000000E+00  0.45593999997E+02  0.45594000000E+02  0.51100000000E-03 0.  1.
         11   -1    0    0    0    0 -0.00000000000E+00 -0.00000000000E+00 -0.45593999997E+02  0.45594000000E+02  0.51100000000E-03 0. -1.
    9900012    2    1    2    0    0  0.34552220290E+02  0.17755162765E+02  0.12002647428E+02  0.50528864777E+02  0.30000014978E+02 0.  0.
         12    1    1    2    0    0 -0.34552220290E+02 -0.17755162765E+02 -0.12002647428E+02  0.40659135223E+02  0.00000000000E+00 0. -1.
         11    1    3    3    0    0 -0.40573259616E+01  0.54498760268E+01 -0.14784166443E+01  0.69533271678E+01  0.51100000000E-03 0. -1.
        -11    1    3    3    0    0  0.21017827203E+02  0.11050618995E+02  0.66179059928E+01  0.24650799591E+02  0.51100000000E-03 0.  1.
         12    1    3    3    0    0  0.17591719049E+02  0.12546677426E+01  0.68631580797E+01  0.18924738019E+02  0.00000000000E+00 0. -1.
</event>
<event>
 7    1  0.5910662E-013  0.5052886E+02  0.7816164E-02  0.1300439E+00
        -11   -1    0    0    0    0  0.00000000000E+00  0.00000000000E+00  0.45593999997E+02  0.45594000000E+02  0.51100000000E-03 0.  1.
         11   -1    0    0    0    0 -0.00000000000E+00 -0.00000000000E+00 -0.45593999997E+02  0.45594000000E+02  0.51100000000E-03 0. -1.
    9900012    2    1    2    0    0 -0.30787206642E+02 -0.23026055297E+02  0.13233071187E+02  0.50528862178E+02  0.30000007077E+02 0.  0.
         12    1    1    2    0    0  0.30787206642E+02  0.23026055297E+02 -0.13233071187E+02  0.40659137822E+02  0.00000000000E+00 0. -1.
         11    1    3    3    0    0 -0.23970832420E+02 -0.15249532239E+02  0.12181546421E-01  0.28410371153E+02  0.51100000000E-03 0. -1.
        -11    1    3    3    0    0  0.58936030222E+00 -0.66868231438E+01  0.12998759858E+02  0.14629720005E+02  0.51100000000E-03 0.  1.
        -12    1    3    3    0    0 -0.74057345244E+01 -0.10896999142E+01  0.22212978221E+00  0.74887710199E+01  0.00000000000E+00 0.  1.
</event>
<event>
 7    1  0.5910662E-013  0.5052886E+02  0.7816164E-02  0.1300439E+00
        -11   -1    0    0    0    0  0.00000000000E+00  0.00000000000E+00  0.45593999997E+02  0.45594000000E+02  0.51100000000E-03 0. -1.
         11   -1    0    0    0    0 -0.00000000000E+00 -0.00000000000E+00 -0.45593999997E+02  0.45594000000E+02  0.51100000000E-03 0.  1.
    9900012    2    1    2    0    0  0.91904045544E+01  0.26732340800E+02 -0.29224720408E+02  0.50528857566E+02  0.29999993059E+02 0.  0.
         12    1    1    2    0    0 -0.91904045544E+01 -0.26732340800E+02  0.29224720408E+02  0.40659142434E+02  0.00000000000E+00 0. -1.
         11    1    3    3    0    0  0.19235196142E+01  0.16323282687E+02 -0.14493000780E+02  0.21913387627E+02  0.51100000000E-03 0.  1.
        -11    1    3    3    0    0  0.37193204491E+01 -0.27860410278E+01 -0.14200433987E+02  0.14941475660E+02  0.51100000000E-03 0. -1.
         12    1    3    3    0    0  0.35475644911E+01  0.13195099140E+02 -0.53128564099E+00  0.13673994280E+02  0.00000000000E+00 0. -1.
</event>
<event>
 7    1  0.5910662E-013  0.5052886E+02  0.7816164E-02  0.1300439E+00
        -11   -1    0    0    0    0  0.00000000000E+00  0.00000000000E+00  0.45593999997E+02  0.45594000000E+02  0.51100000000E-03 0.  1.
         11   -1    0    0    0    0 -0.00000000000E+00 -0.00000000000E+00 -0.45593999997E+02  0.45594000000E+02  0.51100000000E-03 0. -1.
    9900012    2    1    2    0    0 -0.30094950951E+02 -0.10506834927E+02  0.25240168623E+02  0.50528858776E+02  0.29999996737E+02 0.  0.
         12    1    1    2    0    0  0.30094950951E+02  0.10506834927E+02 -0.25240168623E+02  0.40659141224E+02  0.00000000000E+00 0. -1.
         11    1    3    3    0    0 -0.26207834218E+00  0.46013524413E+01 -0.14714652646E+01  0.48380098834E+01  0.51100000000E-03 0. -1.
        -11    1    3    3    0    0 -0.27037524263E+02 -0.14447747467E+02  0.28860743196E+02  0.42103534569E+02  0.51100000000E-03 0.  1.
        -12    1    3    3    0    0 -0.27953483464E+01 -0.66043990187E+00 -0.21491093083E+01  0.35873143242E+01  0.00000000000E+00 0.  1.
</event>
<event>
 7    1  0.5910662E-013  0.5052887E+02  0.7816164E-02  0.1300439E+00
        -11   -1    0    0    0    0  0.00000000000E+00  0.00000000000E+00  0.45593999997E+02  0.45594000000E+02  0.51100000000E-03 0. -1.
         11   -1    0    0    0    0 -0.00000000000E+00 -0.00000000000E+00 -0.45593999997E+02  0.45594000000E+02  0.51100000000E-03 0.  1.
    9900012    2    1    2    0    0 -0.15144350507E+02 -0.37403081365E+02  0.49822888390E+01  0.50528867570E+02  0.30000023465E+02 0.  0.
         12    1    1    2    0    0  0.15144350507E+02  0.37403081365E+02 -0.49822888390E+01  0.40659132430E+02  0.00000000000E+00 0. -1.
         11    1    3    3    0    0  0.38503472625E+00 -0.18119155569E+02 -0.54031537582E+01  0.18911534075E+02  0.51100000000E-03 0. -1.
        -11    1    3    3    0    0 -0.14566291944E+02 -0.15670897570E+02  0.14661711999E+02  0.25936840414E+02  0.51100000000E-03 0.  1.
        -12    1    3    3    0    0 -0.96309328872E+00 -0.36130282262E+01 -0.42762694017E+01  0.56804930809E+01  0.00000000000E+00 0.  1.
</event>
<event>
 7    1  0.5910662E-013  0.5052886E+02  0.7816164E-02  0.1300439E+00
        -11   -1    0    0    0    0  0.00000000000E+00  0.00000000000E+00  0.45593999997E+02  0.45594000000E+02  0.51100000000E-03 0.  1.
         11   -1    0    0    0    0 -0.00000000000E+00 -0.00000000000E+00 -0.45593999997E+02  0.45594000000E+02  0.51100000000E-03 0. -1.
    9900012    2    1    2    0    0 -0.22193427359E+01  0.45953062813E+01  0.40337615922E+02  0.50528861049E+02  0.30000003644E+02 0.  0.
         12    1    1    2    0    0  0.22193427359E+01 -0.45953062813E+01 -0.40337615922E+02  0.40659138951E+02  0.00000000000E+00 0. -1.
         11    1    3    3    0    0  0.51443769307E+01  0.96774058629E+01  0.26028502551E+02  0.28241808432E+02  0.51100000000E-03 0. -1.
        -11    1    3    3    0    0 -0.70844668643E+01  0.11222314232E+01  0.55318816548E+00  0.71941011618E+01  0.51100000000E-03 0.  1.
         12    1    3    3    0    0 -0.27925280224E+00 -0.62043310048E+01  0.13755925206E+02  0.15092951455E+02  0.00000000000E+00 0. -1.
</event>
<event>
 7    1  0.5910662E-013  0.5052886E+02  0.7816164E-02  0.1300439E+00
        -11   -1    0    0    0    0  0.00000000000E+00  0.00000000000E+00  0.45593999997E+02  0.45594000000E+02  0.51100000000E-03 0.  1.
         11   -1    0    0    0    0 -0.00000000000E+00 -0.00000000000E+00 -0.45593999997E+02  0.45594000000E+02  0.51100000000E-03 0. -1.
    9900012    2    1    2    0    0  0.11806109925E+02  0.37659971485E+02 -0.97728333068E+01  0.50528856444E+02  0.29999989648E+02 0.  0.
         12    1    1    2    0    0 -0.11806109925E+02 -0.37659971485E+02  0.97728333068E+01  0.40659143556E+02  0.00000000000E+00 0. -1.
         11    1    3    3    0    0  0.56664873302E+01  0.65086816699E+00  0.59794758181E+01  0.82635851393E+01  0.51100000000E-03 0. -1.
        -11    1    3    3    0    0  0.80210402523E+01  0.36306646996E+02 -0.14570461523E+02  0.39935047917E+02  0.51100000000E-03 0.  1.
        -12    1    3    3    0    0 -0.18814176574E+01  0.70245632189E+00 -0.11818476015E+01  0.23302233883E+01  0.00000000000E+00 0.  1.
</event>
<event>
 7    1  0.5910662E-013  0.5052885E+02  0.7816164E-02  0.1300439E+00
        -11   -1    0    0    0    0  0.00000000000E+00  0.00000000000E+00  0.45593999997E+02  0.45594000000E+02  0.51100000000E-03 0.  1.
         11   -1    0    0    0    0 -0.00000000000E+00 -0.00000000000E+00 -0.45593999997E+02  0.45594000000E+02  0.51100000000E-03 0. -1.
    9900012    2    1    2    0    0 -0.98267899728E+01  0.39125071450E+02  0.50822626979E+01  0.50528850829E+02  0.29999972580E+02 0.  0.
         12    1    1    2    0    0  0.98267899728E+01 -0.39125071450E+02 -0.50822626979E+01  0.40659149171E+02  0.00000000000E+00 0. -1.
         11    1    3    3    0    0  0.19256774978E+00 -0.30592765290E+01 -0.44198720360E+01  0.53788032400E+01  0.51100000000E-03 0. -1.
        -11    1    3    3    0    0 -0.74343538874E+01  0.21171912590E+02  0.83683034781E+01  0.23948862266E+02  0.51100000000E-03 0.  1.
         12    1    3    3    0    0 -0.25850038352E+01  0.21012435389E+02  0.11338312559E+01  0.21201185324E+02  0.00000000000E+00 0. -1.
</event>
<event>
 7    1  0.5910662E-013  0.5052882E+02  0.7816164E-02  0.1300439E+00
        -11   -1    0    0    0    0  0.00000000000E+00  0.00000000000E+00  0.45593999997E+02  0.45594000000E+02  0.51100000000E-03 0. -1.
         11   -1    0    0    0    0 -0.00000000000E+00 -0.00000000000E+00 -0.45593999997E+02  0.45594000000E+02  0.51100000000E-03 0.  1.
    9900012    2    1    2    0    0 -0.10294543702E+01 -0.37690607003E+02 -0.15216012925E+02  0.50528822907E+02  0.29999887706E+02 0.  0.
         12    1    1    2    0    0  0.10294543702E+01  0.37690607003E+02  0.15216012925E+02  0.40659177093E+02  0.00000000000E+00 0. -1.
         11    1    3    3    0    0  0.98514473049E+01 -0.13014366146E+02 -0.21885647237E+01  0.16468593018E+02  0.51100000000E-03 0. -1.
        -11    1    3    3    0    0 -0.12032660612E+02 -0.22404664025E+02 -0.16077065209E+02  0.30086972554E+02  0.51100000000E-03 0.  1.
        -12    1    3    3    0    0  0.11517589367E+01 -0.22715768321E+01  0.30496170074E+01  0.39732573343E+01  0.00000000000E+00 0.  1.
</event>
<event>
 7    1  0.5910662E-013  0.5052886E+02  0.7816164E-02  0.1300439E+00
        -11   -1    0    0    0    0  0.00000000000E+00  0.00000000000E+00  0.45593999997E+02  0.45594000000E+02  0.51100000000E-03 0. -1.
         11   -1    0    0    0    0 -0.00000000000E+00 -0.00000000000E+00 -0.45593999997E+02  0.45594000000E+02  0.51100000000E-03 0.  1.
    9900012    2    1    2    0    0  0.23641281893E+01  0.85440709180E+01 -0.39680917797E+02  0.50528862193E+02  0.30000007123E+02 0.  0.
         12    1    1    2    0    0 -0.23641281893E+01 -0.85440709180E+01  0.39680917797E+02  0.40659137807E+02  0.00000000000E+00 0. -1.
         11    1    3    3    0    0 -0.52330540571E+01  0.10600752046E+02 -0.58159930681E+01  0.13175225779E+02  0.51100000000E-03 0. -1.
        -11    1    3    3    0    0  0.13798895731E+01 -0.65435147202E+00 -0.29701629626E+02  0.29740865384E+02  0.51100000000E-03 0.  1.
        -12    1    3    3    0    0  0.62172926734E+01 -0.14023296557E+01 -0.41632951033E+01  0.76127710308E+01  0.00000000000E+00 0.  1.
</event>
<event>
 7    1  0.5910662E-013  0.5052886E+02  0.7816164E-02  0.1300439E+00
        -11   -1    0    0    0    0  0.00000000000E+00  0.00000000000E+00  0.45593999997E+02  0.45594000000E+02  0.51100000000E-03 0. -1.
         11   -1    0    0    0    0 -0.00000000000E+00 -0.00000000000E+00 -0.45593999997E+02  0.45594000000E+02  0.51100000000E-03 0.  1.
    9900012    2    1    2    0    0 -0.85124603212E+01  0.17213445200E+02 -0.35838541208E+02  0.50528859425E+02  0.29999998709E+02 0.  0.
         12    1    1    2    0    0  0.85124603212E+01 -0.17213445200E+02  0.35838541208E+02  0.40659140575E+02  0.00000000000E+00 0. -1.
         11    1    3    3    0    0 -0.15930495841E+02  0.51015009464E+01 -0.29095788639E+02  0.33561450005E+02  0.51100000000E-03 0. -1.
        -11    1    3    3    0    0  0.43575264372E+01  0.18912699787E+01 -0.31916122992E+01  0.57228776077E+01  0.51100000000E-03 0.  1.
         12    1    3    3    0    0  0.30605090825E+01  0.10220674275E+02 -0.35511402698E+01  0.11244531813E+02  0.00000000000E+00 0. -1.
</event>
<event>
 7    1  0.5910662E-013  0.5052887E+02  0.7816164E-02  0.1300439E+00
        -11   -1    0    0    0    0  0.00000000000E+00  0.00000000000E+00  0.45593999997E+02  0.45594000000E+02  0.51100000000E-03 0.  1.
         11   -1    0    0    0    0 -0.00000000000E+00 -0.00000000000E+00 -0.45593999997E+02  0.45594000000E+02  0.51100000000E-03 0. -1.
    9900012    2    1    2    0    0 -0.23609390154E+02  0.33068159962E+02 -0.15029022928E+01  0.50528865454E+02  0.30000017034E+02 0.  0.
         12    1    1    2    0    0  0.23609390154E+02 -0.33068159962E+02  0.15029022928E+01  0.40659134546E+02  0.00000000000E+00 0. -1.
         11    1    3    3    0    0 -0.14194578929E+02  0.27244095312E+02 -0.32245712821E+01  0.30888908374E+02  0.51100000000E-03 0. -1.
        -11    1    3    3    0    0 -0.70114179620E+01 -0.13577255494E+01 -0.56233838058E+01  0.90898760274E+01  0.51100000000E-03 0.  1.
        -12    1    3    3    0    0 -0.24033932631E+01  0.71817902000E+01  0.73450527951E+01  0.10550081053E+02  0.00000000000E+00 0.  1.
</event>
<event>
 7    1  0.5910662E-013  0.5052886E+02  0.7816164E-02  0.1300439E+00
        -11   -1    0    0    0    0  0.00000000000E+00  0.00000000000E+00  0.45593999997E+02  0.45594000000E+02  0.51100000000E-03 0.  1.
         11   -1    0    0    0    0 -0.00000000000E+00 -0.00000000000E+00 -0.45593999997E+02  0.45594000000E+02  0.51100000000E-03 0. -1.
    9900012    2    1    2    0    0 -0.29961558303E+02 -0.57697092165E+01  0.26873423194E+02  0.50528863332E+02  0.30000010585E+02 0.  0.
         12    1    1    2    0    0  0.29961558303E+02  0.57697092165E+01 -0.26873423194E+02  0.40659136668E+02  0.00000000000E+00 0. -1.
         11    1    3    3    0    0 -0.23336186907E+02 -0.94626717323E+01  0.48220241713E+01  0.25639260774E+02  0.51100000000E-03 0.  1.
        -11    1    3    3    0    0 -0.80972762043E+01  0.20209993554E+01  0.20611998882E+02  0.22237464300E+02  0.51100000000E-03 0. -1.
        -12    1    3    3    0    0  0.14719048084E+01  0.16719631604E+01  0.14394001402E+01  0.26521382577E+01  0.00000000000E+00 0.  1.
</event>
<event>
 7    1  0.5910662E-013  0.5052884E+02  0.7816164E-02  0.1300439E+00
        -11   -1    0    0    0    0  0.00000000000E+00  0.00000000000E+00  0.45593999997E+02  0.45594000000E+02  0.51100000000E-03 0.  1.
         11   -1    0    0    0    0 -0.00000000000E+00 -0.00000000000E+00 -0.45593999997E+02  0.45594000000E+02  0.51100000000E-03 0. -1.
    9900012    2    1    2    0    0  0.14222207581E+02  0.34787800576E+02  0.15514671130E+02  0.50528840175E+02  0.29999940196E+02 0.  0.
         12    1    1    2    0    0 -0.14222207581E+02 -0.34787800576E+02 -0.15514671130E+02  0.40659159825E+02  0.00000000000E+00 0. -1.
         11    1    3    3    0    0 -0.80071967536E+01  0.11902617446E+02  0.31971987934E+01  0.14697264449E+02  0.51100000000E-03 0. -1.
        -11    1    3    3    0    0  0.40226121768E+01  0.78115570399E+01  0.78371938548E+01  0.11773845586E+02  0.51100000000E-03 0.  1.
         12    1    3    3    0    0  0.18206792158E+02  0.15073626090E+02  0.44802784820E+01  0.24057730139E+02  0.00000000000E+00 0. -1.
</event>
<event>
 7    1  0.5910662E-013  0.5052886E+02  0.7816164E-02  0.1300439E+00
        -11   -1    0    0    0    0  0.00000000000E+00  0.00000000000E+00  0.45593999997E+02  0.45594000000E+02  0.51100000000E-03 0.  1.
         11   -1    0    0    0    0 -0.00000000000E+00 -0.00000000000E+00 -0.45593999997E+02  0.45594000000E+02  0.51100000000E-03 0. -1.
    9900012    2    1    2    0    0 -0.34087394316E+02  0.48711996170E+01  0.21621430649E+02  0.50528864491E+02  0.30000014108E+02 0.  0.
         12    1    1    2    0    0  0.34087394316E+02 -0.48711996170E+01 -0.21621430649E+02  0.40659135509E+02  0.00000000000E+00 0. -1.
         11    1    3    3    0    0 -0.72214016146E+01  0.12393186674E+02  0.26178392546E+01  0.14580562398E+02  0.51100000000E-03 0. -1.
        -11    1    3    3    0    0 -0.21365990873E+02 -0.65999133727E+01  0.82513635957E+01  0.23835885215E+02  0.51100000000E-03 0.  1.
         12    1    3    3    0    0 -0.55000018288E+01 -0.92207368473E+00  0.10752227799E+02  0.12112416878E+02  0.00000000000E+00 0. -1.
</event>
<event>
 7    1  0.5910662E-013  0.5052887E+02  0.7816164E-02  0.1300439E+00
        -11   -1    0    0    0    0  0.00000000000E+00  0.00000000000E+00  0.45593999997E+02  0.45594000000E+02  0.51100000000E-03 0.  1.
         11   -1    0    0    0    0 -0.00000000000E+00 -0.00000000000E+00 -0.45593999997E+02  0.45594000000E+02  0.51100000000E-03 0. -1.
    9900012    2    1    2    0    0  0.19855235085E+02  0.17843558079E+02  0.30668257057E+02  0.50528869216E+02  0.30000028468E+02 0.  0.
         12    1    1    2    0    0 -0.19855235085E+02 -0.17843558079E+02 -0.30668257057E+02  0.40659130784E+02  0.00000000000E+00 0. -1.
         11    1    3    3    0    0  0.24687578148E+01  0.18611098128E+00  0.58148188656E+00  0.25431326924E+01  0.51100000000E-03 0. -1.
        -11    1    3    3    0    0 -0.48283904953E+00  0.82743800016E+00 -0.50409152544E+01  0.51311415938E+01  0.51100000000E-03 0.  1.
        -12    1    3    3    0    0  0.17869316320E+02  0.16830009098E+02  0.35127690425E+02  0.42854594929E+02  0.00000000000E+00 0.  1.
</event>
<event>
 7    1  0.5910662E-013  0.5052886E+02  0.7816164E-02  0.1300439E+00
        -11   -1    0    0    0    0  0.00000000000E+00  0.00000000000E+00  0.45593999997E+02  0.45594000000E+02  0.51100000000E-03 0.  1.
         11   -1    0    0    0    0 -0.00000000000E+00 -0.00000000000E+00 -0.45593999997E+02  0.45594000000E+02  0.51100000000E-03 0. -1.
    9900012    2    1    2    0    0  0.38892890728E+02  0.11403456339E+02  0.32357481689E+01  0.50528857955E+02  0.29999994240E+02 0.  0.
         12    1    1    2    0    0 -0.38892890728E+02 -0.11403456339E+02 -0.32357481689E+01  0.40659142045E+02  0.00000000000E+00 0. -1.
         11    1    3    3    0    0  0.12580028952E+02  0.38782550089E+01 -0.97572133307E+01  0.16386006304E+02  0.51100000000E-03 0. -1.
        -11    1    3    3    0    0  0.15603271226E+02 -0.33723923524E+01  0.91016946449E+01  0.18375961166E+02  0.51100000000E-03 0.  1.
         12    1    3    3    0    0  0.10709590550E+02  0.10897593683E+02  0.38912668547E+01  0.15766890485E+02  0.00000000000E+00 0. -1.
</event>
<event>
 7    1  0.5910662E-013  0.5052886E+02  0.7816164E-02  0.1300439E+00
        -11   -1    0    0    0    0  0.00000000000E+00  0.00000000000E+00  0.45593999997E+02  0.45594000000E+02  0.51100000000E-03 0.  1.
         11   -1    0    0    0    0 -0.00000000000E+00 -0.00000000000E+00 -0.45593999997E+02  0.45594000000E+02  0.51100000000E-03 0. -1.
    9900012    2    1    2    0    0  0.28458914436E+02 -0.11247779356E+01  0.29017078680E+02  0.50528858453E+02  0.29999995753E+02 0.  0.
         12    1    1    2    0    0 -0.28458914436E+02  0.11247779356E+01 -0.29017078680E+02  0.40659141547E+02  0.00000000000E+00 0. -1.
         11    1    3    3    0    0  0.43593771507E+01 -0.68772557826E+01  0.66884412373E+01  0.10537365073E+02  0.51100000000E-03 0. -1.
        -11    1    3    3    0    0  0.39025719207E+00  0.80700209830E+01  0.10904707694E+02  0.13571668633E+02  0.51100000000E-03 0.  1.
        -12    1    3    3    0    0  0.23709280093E+02 -0.23175431359E+01  0.11423929749E+02  0.26419824746E+02  0.00000000000E+00 0.  1.
</event>
<event>
 7    1  0.5910662E-013  0.5052886E+02  0.7816164E-02  0.1300439E+00
        -11   -1    0    0    0    0  0.00000000000E+00  0.00000000000E+00  0.45593999997E+02  0.45594000000E+02  0.51100000000E-03 0.  1.
         11   -1    0    0    0    0 -0.00000000000E+00 -0.00000000000E+00 -0.45593999997E+02  0.45594000000E+02  0.51100000000E-03 0. -1.
    9900012    2    1    2    0    0 -0.36452913343E+01  0.17704691114E+02  0.36420070920E+02  0.50528858320E+02  0.29999995349E+02 0.  0.
         12    1    1    2    0    0  0.36452913343E+01 -0.17704691114E+02 -0.36420070920E+02  0.40659141680E+02  0.00000000000E+00 0. -1.
         11    1    3    3    0    0 -0.34700724194E+00  0.13626117151E+01  0.72580641886E+00  0.15823779355E+01  0.51100000000E-03 0. -1.
        -11    1    3    3    0    0 -0.13307430394E+02  0.35841416381E+01  0.27540295886E+02  0.30796130808E+02  0.51100000000E-03 0.  1.
        -12    1    3    3    0    0  0.10009146301E+02  0.12757937761E+02  0.81539686149E+01  0.18150349577E+02  0.00000000000E+00 0.  1.
</event>
<event>
 7    1  0.5910662E-013  0.5052886E+02  0.7816164E-02  0.1300439E+00
        -11   -1    0    0    0    0  0.00000000000E+00  0.00000000000E+00  0.45593999997E+02  0.45594000000E+02  0.51100000000E-03 0. -1.
         11   -1    0    0    0    0 -0.00000000000E+00 -0.00000000000E+00 -0.45593999997E+02  0.45594000000E+02  0.51100000000E-03 0.  1.
    9900012    2    1    2    0    0 -0.18303058410E+01  0.33581108961E+02 -0.22850053670E+02  0.50528857716E+02  0.29999993514E+02 0.  0.
         12    1    1    2    0    0  0.18303058410E+01 -0.33581108961E+02  0.22850053670E+02  0.40659142284E+02  0.00000000000E+00 0. -1.
         11    1    3    3    0    0  0.23239922733E+01 -0.24380259042E+00 -0.34995418750E+01  0.42079892330E+01  0.51100000000E-03 0. -1.
        -11    1    3    3    0    0  0.35558734324E+01  0.21256291869E+02  0.54314652386E+00  0.21558506171E+02  0.51100000000E-03 0.  1.
        -12    1    3    3    0    0 -0.77101715467E+01  0.12568619682E+02 -0.19893658319E+02  0.24762362312E+02  0.00000000000E+00 0.  1.
</event>
<event>
 7    1  0.5910662E-013  0.5052887E+02  0.7816164E-02  0.1300439E+00
        -11   -1    0    0    0    0  0.00000000000E+00  0.00000000000E+00  0.45593999997E+02  0.45594000000E+02  0.51100000000E-03 0.  1.
         11   -1    0    0    0    0 -0.00000000000E+00 -0.00000000000E+00 -0.45593999997E+02  0.45594000000E+02  0.51100000000E-03 0. -1.
    9900012    2    1    2    0    0  0.80870623484E+01 -0.19689766342E+02  0.34642137359E+02  0.50528866255E+02  0.30000019470E+02 0.  0.
         12    1    1    2    0    0 -0.80870623484E+01  0.19689766342E+02 -0.34642137359E+02  0.40659133745E+02  0.00000000000E+00 0. -1.
         11    1    3    3    0    0 -0.67276970150E+01 -0.16326273176E+02  0.20508645613E+02  0.27063141874E+02  0.51100000000E-03 0.  1.
        -11    1    3    3    0    0  0.10195794173E+02 -0.73471782826E+01  0.10415668352E+02  0.16322420011E+02  0.51100000000E-03 0. -1.
         12    1    3    3    0    0  0.46189651909E+01  0.39836851164E+01  0.37178233945E+01  0.71433043708E+01  0.00000000000E+00 0. -1.
</event>
<event>
 7    1  0.5910662E-013  0.5052886E+02  0.7816164E-02  0.1300439E+00
        -11   -1    0    0    0    0  0.00000000000E+00  0.00000000000E+00  0.45593999997E+02  0.45594000000E+02  0.51100000000E-03 0.  1.
         11   -1    0    0    0    0 -0.00000000000E+00 -0.00000000000E+00 -0.45593999997E+02  0.45594000000E+02  0.51100000000E-03 0. -1.
    9900012    2    1    2    0    0  0.13325696074E+02 -0.21401538158E+02  0.31899301334E+02  0.50528862810E+02  0.30000008999E+02 0.  0.
         12    1    1    2    0    0 -0.13325696074E+02  0.21401538158E+02 -0.31899301334E+02  0.40659137190E+02  0.00000000000E+00 0. -1.
         11    1    3    3    0    0 -0.58881552511E+01 -0.63851665828E+01  0.59407373175E+01  0.10522978888E+02  0.51100000000E-03 0. -1.
        -11    1    3    3    0    0  0.13849761797E+02 -0.10569359416E+02  0.53098158552E+01  0.18213220610E+02  0.51100000000E-03 0.  1.
        -12    1    3    3    0    0  0.53640895283E+01 -0.44470121594E+01  0.20648748161E+02  0.21792663312E+02  0.00000000000E+00 0.  1.
</event>
<event>
 7    1  0.5910662E-013  0.5052886E+02  0.7816164E-02  0.1300439E+00
        -11   -1    0    0    0    0  0.00000000000E+00  0.00000000000E+00  0.45593999997E+02  0.45594000000E+02  0.51100000000E-03 0. -1.
         11   -1    0    0    0    0 -0.00000000000E+00 -0.00000000000E+00 -0.45593999997E+02  0.45594000000E+02  0.51100000000E-03 0.  1.
    9900012    2    1    2    0    0  0.28954481503E+02 -0.14247039626E+02 -0.24735103258E+02  0.50528862400E+02  0.30000007750E+02 0.  0.
         12    1    1    2    0    0 -0.28954481503E+02  0.14247039626E+02  0.24735103258E+02  0.40659137600E+02  0.00000000000E+00 0. -1.
         11    1    3    3    0    0 -0.83218126153E+00 -0.12528219655E+02 -0.60501055511E+01  0.13937452810E+02  0.51100000000E-03 0. -1.
        -11    1    3    3    0    0  0.37224605079E+01  0.31554441644E+01 -0.37852580031E+01  0.61758981953E+01  0.51100000000E-03 0.  1.
         12    1    3    3    0    0  0.26064202257E+02 -0.48742641351E+01 -0.14899739704E+02  0.30415511395E+02  0.00000000000E+00 0. -1.
</event>
<event>
 7    1  0.6316860E-013  0.5052890E+02  0.7816164E-02  0.1300439E+00
        -11   -1    0    0    0    0  0.00000000000E+00  0.00000000000E+00  0.45593999997E+02  0.45594000000E+02  0.51100000000E-03 0. -1.
         11   -1    0    0    0    0 -0.00000000000E+00 -0.00000000000E+00 -0.45593999997E+02  0.45594000000E+02  0.51100000000E-03 0.  1.
    9900012    2    1    2    0    0  0.29041353154E+02  0.24825630519E+02 -0.13908651684E+02  0.50528896280E+02  0.30000110733E+02 0.  0.
         12    1    1    2    0    0 -0.29041353154E+02 -0.24825630519E+02  0.13908651684E+02  0.40659103720E+02  0.00000000000E+00 0. -1.
         11    1    3    3    0    0 -0.28805287793E+01  0.65712379120E+01  0.94000905378E+00  0.72361751656E+01  0.51100000000E-03 0. -1.
        -11    1    3    3    0    0  0.27140204778E+02  0.21656302559E+02 -0.13618814139E+02  0.37296893366E+02  0.51100000000E-03 0.  1.
         12    1    3    3    0    0  0.47816771550E+01 -0.34019099523E+01 -0.12298465982E+01  0.59958277488E+01  0.00000000000E+00 0. -1.
</event>
<event>
 7    1  0.5910662E-013  0.5052886E+02  0.7816164E-02  0.1300439E+00
        -11   -1    0    0    0    0  0.00000000000E+00  0.00000000000E+00  0.45593999997E+02  0.45594000000E+02  0.51100000000E-03 0. -1.
         11   -1    0    0    0    0 -0.00000000000E+00 -0.00000000000E+00 -0.45593999997E+02  0.45594000000E+02  0.51100000000E-03 0.  1.
    9900012    2    1    2    0    0 -0.53472648613E+01 -0.22429536236E+02 -0.33488633585E+02  0.50528856912E+02  0.29999991068E+02 0.  0.
         12    1    1    2    0    0  0.53472648613E+01  0.22429536236E+02  0.33488633585E+02  0.40659143088E+02  0.00000000000E+00 0. -1.
         11    1    3    3    0    0 -0.29507910388E+01 -0.12351260669E+01 -0.28717846779E+01  0.42988197977E+01  0.51100000000E-03 0. -1.
        -11    1    3    3    0    0 -0.14987144909E+01  0.65173363144E+01 -0.39821765952E+01  0.77832864817E+01  0.51100000000E-03 0.  1.
        -12    1    3    3    0    0 -0.89775933163E+00 -0.27711746484E+02 -0.26634672312E+02  0.38446750632E+02  0.00000000000E+00 0.  1.
</event>
<event>
 7    1  0.5910662E-013  0.5052886E+02  0.7816164E-02  0.1300439E+00
        -11   -1    0    0    0    0  0.00000000000E+00  0.00000000000E+00  0.45593999997E+02  0.45594000000E+02  0.51100000000E-03 0.  1.
         11   -1    0    0    0    0 -0.00000000000E+00 -0.00000000000E+00 -0.45593999997E+02  0.45594000000E+02  0.51100000000E-03 0. -1.
    9900012    2    1    2    0    0  0.19358157260E+02  0.19746880204E+02  0.29807512580E+02  0.50528864047E+02  0.30000012756E+02 0.  0.
         12    1    1    2    0    0 -0.19358157260E+02 -0.19746880204E+02 -0.29807512580E+02  0.40659135953E+02  0.00000000000E+00 0. -1.
         11    1    3    3    0    0  0.25220515033E+02  0.11675539749E+02  0.17500028184E+02  0.32842709902E+02  0.51100000000E-03 0. -1.
        -11    1    3    3    0    0  0.82346008101E+00  0.22313862144E+01 -0.15691927171E+00  0.23836515814E+01  0.51100000000E-03 0.  1.
         12    1    3    3    0    0 -0.66858178549E+01  0.58399542402E+01  0.12464403667E+02  0.15302502563E+02  0.00000000000E+00 0. -1.
</event>
<event>
 7    1  0.5910662E-013  0.5052887E+02  0.7816164E-02  0.1300439E+00
        -11   -1    0    0    0    0  0.00000000000E+00  0.00000000000E+00  0.45593999997E+02  0.45594000000E+02  0.51100000000E-03 0. -1.
         11   -1    0    0    0    0 -0.00000000000E+00 -0.00000000000E+00 -0.45593999997E+02  0.45594000000E+02  0.51100000000E-03 0.  1.
    9900012    2    1    2    0    0 -0.22983652796E+02 -0.20240291987E+02 -0.26744109905E+02  0.50528866583E+02  0.30000020467E+02 0.  0.
         12    1    1    2    0    0  0.22983652796E+02  0.20240291987E+02  0.26744109905E+02  0.40659133417E+02  0.00000000000E+00 0. -1.
         11    1    3    3    0    0 -0.39805086798E+01 -0.21063589550E+00  0.58640685349E+01  0.70905653423E+01  0.51100000000E-03 0. -1.
        -11    1    3    3    0    0 -0.19008644326E+02 -0.16634623326E+02 -0.27929519745E+02  0.37657633034E+02  0.51100000000E-03 0.  1.
         12    1    3    3    0    0  0.55002096938E-02 -0.33950327662E+01 -0.46786586952E+01  0.57806682072E+01  0.00000000000E+00 0. -1.
</event>
<event>
 7    1  0.5910662E-013  0.5052885E+02  0.7816164E-02  0.1300439E+00
        -11   -1    0    0    0    0  0.00000000000E+00  0.00000000000E+00  0.45593999997E+02  0.45594000000E+02  0.51100000000E-03 0.  1.
         11   -1    0    0    0    0 -0.00000000000E+00 -0.00000000000E+00 -0.45593999997E+02  0.45594000000E+02  0.51100000000E-03 0. -1.
    9900012    2    1    2    0    0  0.24280185231E+02  0.16632127089E+01  0.32571040857E+02  0.50528851289E+02  0.29999973978E+02 0.  0.
         12    1    1    2    0    0 -0.24280185231E+02 -0.16632127089E+01 -0.32571040857E+02  0.40659148711E+02  0.00000000000E+00 0. -1.
         11    1    3    3    0    0  0.25724988179E+01 -0.18988590289E+01 -0.18437252198E+01  0.36908994468E+01  0.51100000000E-03 0. -1.
        -11    1    3    3    0    0  0.22320075770E+02  0.10083083242E+02  0.30820134729E+02  0.39366674422E+02  0.51100000000E-03 0.  1.
        -12    1    3    3    0    0 -0.61238935681E+00 -0.65210115042E+01  0.35946313480E+01  0.74712774203E+01  0.00000000000E+00 0.  1.
</event>
<event>
 7    1  0.5910662E-013  0.5052886E+02  0.7816164E-02  0.1300439E+00
        -11   -1    0    0    0    0  0.00000000000E+00  0.00000000000E+00  0.45593999997E+02  0.45594000000E+02  0.51100000000E-03 0. -1.
         11   -1    0    0    0    0 -0.00000000000E+00 -0.00000000000E+00 -0.45593999997E+02  0.45594000000E+02  0.51100000000E-03 0.  1.
    9900012    2    1    2    0    0 -0.15179264709E+02  0.37560351337E+02  0.34606269100E+01  0.50528855785E+02  0.29999987644E+02 0.  0.
         12    1    1    2    0    0  0.15179264709E+02 -0.37560351337E+02 -0.34606269100E+01  0.40659144215E+02  0.00000000000E+00 0. -1.
         11    1    3    3    0    0 -0.28354791730E+00  0.32529400029E+01  0.44859840915E+00  0.32959458244E+01  0.51100000000E-03 0. -1.
        -11    1    3    3    0    0 -0.13457775494E+02  0.32637330442E+02 -0.78368471434E+01  0.36162456126E+02  0.51100000000E-03 0.  1.
        -12    1    3    3    0    0 -0.14379412973E+01  0.16700808925E+01  0.10848875644E+02  0.11070453835E+02  0.00000000000E+00 0.  1.
</event>
<event>
 7    1  0.5910662E-013  0.5052886E+02  0.7816164E-02  0.1300439E+00
        -11   -1    0    0    0    0  0.00000000000E+00  0.00000000000E+00  0.45593999997E+02  0.45594000000E+02  0.51100000000E-03 0.  1.
         11   -1    0    0    0    0 -0.00000000000E+00 -0.00000000000E+00 -0.45593999997E+02  0.45594000000E+02  0.51100000000E-03 0. -1.
    9900012    2    1    2    0    0  0.22391245430E+02  0.29341624198E+02  0.17054818391E+02  0.50528860648E+02  0.30000002427E+02 0.  0.
         12    1    1    2    0    0 -0.22391245430E+02 -0.29341624198E+02 -0.17054818391E+02  0.40659139352E+02  0.00000000000E+00 0. -1.
         11    1    3    3    0    0  0.17580301951E+02  0.14837609892E+01  0.11074952718E+02  0.20830821908E+02  0.51100000000E-03 0. -1.
        -11    1    3    3    0    0  0.41949177197E+01  0.94498896474E+01  0.43191717605E+01  0.11205043239E+02  0.51100000000E-03 0.  1.
         12    1    3    3    0    0  0.61602575861E+00  0.18407973561E+02  0.16606939120E+01  0.18492995502E+02  0.00000000000E+00 0. -1.
</event>
<event>
 7    1  0.5910662E-013  0.5052885E+02  0.7816164E-02  0.1300439E+00
        -11   -1    0    0    0    0  0.00000000000E+00  0.00000000000E+00  0.45593999997E+02  0.45594000000E+02  0.51100000000E-03 0. -1.
         11   -1    0    0    0    0 -0.00000000000E+00 -0.00000000000E+00 -0.45593999997E+02  0.45594000000E+02  0.51100000000E-03 0.  1.
    9900012    2    1    2    0    0  0.32034988677E+01  0.14189020733E+02 -0.37968088720E+02  0.50528850040E+02  0.29999970182E+02 0.  0.
         12    1    1    2    0    0 -0.32034988677E+01 -0.14189020733E+02  0.37968088720E+02  0.40659149960E+02  0.00000000000E+00 0. -1.
         11    1    3    3    0    0 -0.12515186293E+01  0.15645179826E+02 -0.21337014017E+02  0.26487848499E+02  0.51100000000E-03 0. -1.
        -11    1    3    3    0    0  0.47245865701E+01 -0.28422735515E+01  0.16111401758E+01  0.57442153622E+01  0.51100000000E-03 0.  1.
        -12    1    3    3    0    0 -0.26956907319E+00  0.13861144584E+01 -0.18242214879E+02  0.18296786179E+02  0.00000000000E+00 0.  1.
</event>
<event>
 7    1  0.5910662E-013  0.5052886E+02  0.7816164E-02  0.1300439E+00
        -11   -1    0    0    0    0  0.00000000000E+00  0.00000000000E+00  0.45593999997E+02  0.45594000000E+02  0.51100000000E-03 0.  1.
         11   -1    0    0    0    0 -0.00000000000E+00 -0.00000000000E+00 -0.45593999997E+02  0.45594000000E+02  0.51100000000E-03 0. -1.
    9900012    2    1    2    0    0  0.36666685803E+02  0.50349471825E-01  0.17570353965E+02  0.50528859315E+02  0.29999998373E+02 0.  0.
         12    1    1    2    0    0 -0.36666685803E+02 -0.50349471825E-01 -0.17570353965E+02  0.40659140685E+02  0.00000000000E+00 0. -1.
         11    1    3    3    0    0  0.13718196395E+02  0.57717496506E+01 -0.68996072435E+01  0.16404468499E+02  0.51100000000E-03 0. -1.
        -11    1    3    3    0    0  0.13081130382E+02 -0.28384294470E+01  0.12135177958E+02  0.18067517763E+02  0.51100000000E-03 0.  1.
         12    1    3    3    0    0  0.98673590259E+01 -0.28829707318E+01  0.12334783250E+02  0.16056873052E+02  0.00000000000E+00 0. -1.
</event>
<event>
 7    1  0.5910662E-013  0.5052886E+02  0.7816164E-02  0.1300439E+00
        -11   -1    0    0    0    0  0.00000000000E+00  0.00000000000E+00  0.45593999997E+02  0.45594000000E+02  0.51100000000E-03 0. -1.
         11   -1    0    0    0    0 -0.00000000000E+00 -0.00000000000E+00 -0.45593999997E+02  0.45594000000E+02  0.51100000000E-03 0.  1.
    9900012    2    1    2    0    0 -0.27091653546E+02  0.20080013012E+02 -0.22715659588E+02  0.50528858286E+02  0.29999995247E+02 0.  0.
         12    1    1    2    0    0  0.27091653546E+02 -0.20080013012E+02  0.22715659588E+02  0.40659141714E+02  0.00000000000E+00 0. -1.
         11    1    3    3    0    0 -0.45409580933E+00  0.54621784489E+00  0.49791430984E+01  0.50295549697E+01  0.51100000000E-03 0. -1.
        -11    1    3    3    0    0 -0.22753724774E+02  0.19498607644E+02 -0.17761995442E+02  0.34834123694E+02  0.51100000000E-03 0.  1.
         12    1    3    3    0    0 -0.38838329620E+01  0.35187522674E-01 -0.99328072443E+01  0.10665179623E+02  0.00000000000E+00 0. -1.
</event>
<event>
 7    1  0.5910662E-013  0.5052887E+02  0.7816164E-02  0.1300439E+00
        -11   -1    0    0    0    0  0.00000000000E+00  0.00000000000E+00  0.45593999997E+02  0.45594000000E+02  0.51100000000E-03 0.  1.
         11   -1    0    0    0    0 -0.00000000000E+00 -0.00000000000E+00 -0.45593999997E+02  0.45594000000E+02  0.51100000000E-03 0. -1.
    9900012    2    1    2    0    0 -0.36178265675E+02 -0.54093543306E+01  0.17749285023E+02  0.50528866458E+02  0.30000020086E+02 0.  0.
         12    1    1    2    0    0  0.36178265675E+02  0.54093543306E+01 -0.17749285023E+02  0.40659133542E+02  0.00000000000E+00 0. -1.
         11    1    3    3    0    0  0.42074222059E+01 -0.28291810581E+01  0.37204506508E+01  0.62887534841E+01  0.51100000000E-03 0. -1.
        -11    1    3    3    0    0 -0.10655381992E+02 -0.55846969921E+01  0.49592807965E+01  0.13012320015E+02  0.51100000000E-03 0.  1.
         12    1    3    3    0    0 -0.29730305889E+02  0.30045237196E+01  0.90695535755E+01  0.31227792959E+02  0.00000000000E+00 0. -1.
</event>
<event>
 7    1  0.5910662E-013  0.5052884E+02  0.7816164E-02  0.1300439E+00
        -11   -1    0    0    0    0  0.00000000000E+00  0.00000000000E+00  0.45593999997E+02  0.45594000000E+02  0.51100000000E-03 0. -1.
         11   -1    0    0    0    0 -0.00000000000E+00 -0.00000000000E+00 -0.45593999997E+02  0.45594000000E+02  0.51100000000E-03 0.  1.
    9900012    2    1    2    0    0  0.20086503564E+02 -0.16421992731E+02 -0.31305233939E+02  0.50528841836E+02  0.29999945243E+02 0.  0.
         12    1    1    2    0    0 -0.20086503564E+02  0.16421992731E+02  0.31305233939E+02  0.40659158164E+02  0.00000000000E+00 0. -1.
         11    1    3    3    0    0  0.13497602873E+02  0.45292932852E+01 -0.10620456403E+02  0.17762147265E+02  0.51100000000E-03 0.  1.
        -11    1    3    3    0    0 -0.44730204133E+00 -0.70405337005E+01 -0.24283074036E+00  0.70589064970E+01  0.51100000000E-03 0. -1.
        -12    1    3    3    0    0  0.70362027327E+01 -0.13910752316E+02 -0.20441946795E+02  0.25707788074E+02  0.00000000000E+00 0.  1.
</event>
<event>
 7    1  0.5910662E-013  0.5052893E+02  0.7816164E-02  0.1300439E+00
        -11   -1    0    0    0    0  0.00000000000E+00  0.00000000000E+00  0.45593999997E+02  0.45594000000E+02  0.51100000000E-03 0. -1.
         11   -1    0    0    0    0 -0.00000000000E+00 -0.00000000000E+00 -0.45593999997E+02  0.45594000000E+02  0.51100000000E-03 0.  1.
    9900012    2    1    2    0    0  0.13680075050E+02  0.25567258127E+02 -0.28501412320E+02  0.50528934028E+02  0.30000225470E+02 0.  0.
         12    1    1    2    0    0 -0.13680075050E+02 -0.25567258127E+02  0.28501412320E+02  0.40659065972E+02  0.00000000000E+00 0. -1.
         11    1    3    3    0    0  0.52848501354E+01  0.14485635577E+02 -0.21560600462E+01  0.15569581696E+02  0.51100000000E-03 0. -1.
        -11    1    3    3    0    0 -0.18635387294E+01 -0.38470026221E+01 -0.85901600046E+01  0.95949494494E+01  0.51100000000E-03 0.  1.
         12    1    3    3    0    0  0.10258763644E+02  0.14928625172E+02 -0.17755192269E+02  0.25364402882E+02  0.00000000000E+00 0. -1.
</event>
<event>
 7    1  0.5910662E-013  0.5052886E+02  0.7816164E-02  0.1300439E+00
        -11   -1    0    0    0    0  0.00000000000E+00  0.00000000000E+00  0.45593999997E+02  0.45594000000E+02  0.51100000000E-03 0.  1.
         11   -1    0    0    0    0 -0.00000000000E+00 -0.00000000000E+00 -0.45593999997E+02  0.45594000000E+02  0.51100000000E-03 0. -1.
    9900012    2    1    2    0    0  0.37815407158E+02  0.86449291316E+00  0.14913528176E+02  0.50528859709E+02  0.29999999572E+02 0.  0.
         12    1    1    2    0    0 -0.37815407158E+02 -0.86449291316E+00 -0.14913528176E+02  0.40659140291E+02  0.00000000000E+00 0. -1.
         11    1    3    3    0    0  0.27057414578E+02 -0.71080763804E+01  0.98754592288E+00  0.27992921974E+02  0.51100000000E-03 0. -1.
        -11    1    3    3    0    0  0.12737557590E+02  0.79332190736E+01  0.96973583778E+01  0.17866731598E+02  0.51100000000E-03 0.  1.
         12    1    3    3    0    0 -0.19795650096E+01  0.39350219958E-01  0.42286238756E+01  0.46692061369E+01  0.00000000000E+00 0. -1.
</event>
<event>
 7    1  0.5910662E-013  0.5052887E+02  0.7816164E-02  0.1300439E+00
        -11   -1    0    0    0    0  0.00000000000E+00  0.00000000000E+00  0.45593999997E+02  0.45594000000E+02  0.51100000000E-03 0.  1.
         11   -1    0    0    0    0 -0.00000000000E+00 -0.00000000000E+00 -0.45593999997E+02  0.45594000000E+02  0.51100000000E-03 0. -1.
    9900012    2    1    2    0    0 -0.38631274088E+02  0.60370515452E+01  0.11150960684E+02  0.50528865070E+02  0.30000015868E+02 0.  0.
         12    1    1    2    0    0  0.38631274088E+02 -0.60370515452E+01 -0.11150960684E+02  0.40659134930E+02  0.00000000000E+00 0. -1.
         11    1    3    3    0    0 -0.95950148734E+01 -0.69997298879E+01 -0.34305327931E+01  0.12362406094E+02  0.51100000000E-03 0. -1.
        -11    1    3    3    0    0 -0.19536896050E+02  0.65332023617E+01  0.16627736577E+02  0.26473659821E+02  0.51100000000E-03 0.  1.
        -12    1    3    3    0    0 -0.94993631647E+01  0.65035790715E+01 -0.20462430993E+01  0.11692799156E+02  0.00000000000E+00 0.  1.
</event>
<event>
 7    1  0.5910662E-013  0.5052886E+02  0.7816164E-02  0.1300439E+00
        -11   -1    0    0    0    0  0.00000000000E+00  0.00000000000E+00  0.45593999997E+02  0.45594000000E+02  0.51100000000E-03 0.  1.
         11   -1    0    0    0    0 -0.00000000000E+00 -0.00000000000E+00 -0.45593999997E+02  0.45594000000E+02  0.51100000000E-03 0. -1.
    9900012    2    1    2    0    0 -0.13351232879E+02  0.91330603268E+01  0.37302778572E+02  0.50528862042E+02  0.30000006662E+02 0.  0.
         12    1    1    2    0    0  0.13351232879E+02 -0.91330603268E+01 -0.37302778572E+02  0.40659137958E+02  0.00000000000E+00 0. -1.
         11    1    3    3    0    0  0.29252345979E+01  0.46670923476E+01  0.40672512724E+01  0.68469906972E+01  0.51100000000E-03 0. -1.
        -11    1    3    3    0    0 -0.14289660345E+02  0.73410728103E+00  0.50385695022E+01  0.15169722778E+02  0.51100000000E-03 0.  1.
        -12    1    3    3    0    0 -0.19868071315E+01  0.37318606982E+01  0.28196957797E+02  0.28512148566E+02  0.00000000000E+00 0.  1.
</event>
<event>
 7    1  0.5910662E-013  0.5052886E+02  0.7816164E-02  0.1300439E+00
        -11   -1    0    0    0    0  0.00000000000E+00  0.00000000000E+00  0.45593999997E+02  0.45594000000E+02  0.51100000000E-03 0.  1.
         11   -1    0    0    0    0 -0.00000000000E+00 -0.00000000000E+00 -0.45593999997E+02  0.45594000000E+02  0.51100000000E-03 0. -1.
    9900012    2    1    2    0    0  0.85102992403E+01 -0.78021678372E+01  0.38985469413E+02  0.50528857837E+02  0.29999993881E+02 0.  0.
         12    1    1    2    0    0 -0.85102992403E+01  0.78021678372E+01 -0.38985469413E+02  0.40659142163E+02  0.00000000000E+00 0. -1.
         11    1    3    3    0    0  0.10592670280E+02 -0.15731402388E+01  0.32357132430E+00  0.10713735694E+02  0.51100000000E-03 0. -1.
        -11    1    3    3    0    0  0.90379015375E+00  0.11783140743E+01  0.75353058385E+01  0.76802405587E+01  0.51100000000E-03 0.  1.
         12    1    3    3    0    0 -0.29861611930E+01 -0.74073416726E+01  0.31126592250E+02  0.32134881584E+02  0.00000000000E+00 0. -1.
</event>
<event>
 7    1  0.5910662E-013  0.5052886E+02  0.7816164E-02  0.1300439E+00
        -11   -1    0    0    0    0  0.00000000000E+00  0.00000000000E+00  0.45593999997E+02  0.45594000000E+02  0.51100000000E-03 0.  1.
         11   -1    0    0    0    0 -0.00000000000E+00 -0.00000000000E+00 -0.45593999997E+02  0.45594000000E+02  0.51100000000E-03 0. -1.
    9900012    2    1    2    0    0  0.19509642786E+02 -0.33571455956E+02  0.12062211169E+02  0.50528858901E+02  0.29999997115E+02 0.  0.
         12    1    1    2    0    0 -0.19509642786E+02  0.33571455956E+02 -0.12062211169E+02  0.40659141099E+02  0.00000000000E+00 0. -1.
         11    1    3    3    0    0 -0.71281770042E+01 -0.94938657405E+01  0.40044635301E+01  0.12529170863E+02  0.51100000000E-03 0. -1.
        -11    1    3    3    0    0  0.65672630966E+01 -0.99397452186E+01  0.60665161059E+01  0.13368997626E+02  0.51100000000E-03 0.  1.
         12    1    3    3    0    0  0.20070556694E+02 -0.14137844997E+02  0.19912315326E+01  0.24630690412E+02  0.00000000000E+00 0. -1.
</event>
<event>
 7    1  0.5910662E-013  0.5052886E+02  0.7816164E-02  0.1300439E+00
        -11   -1    0    0    0    0  0.00000000000E+00  0.00000000000E+00  0.45593999997E+02  0.45594000000E+02  0.51100000000E-03 0.  1.
         11   -1    0    0    0    0 -0.00000000000E+00 -0.00000000000E+00 -0.45593999997E+02  0.45594000000E+02  0.51100000000E-03 0. -1.
    9900012    2    1    2    0    0 -0.34592917486E+02  0.88236500048E+00  0.21347527064E+02  0.50528863020E+02  0.30000009637E+02 0.  0.
         12    1    1    2    0    0  0.34592917486E+02 -0.88236500048E+00 -0.21347527064E+02  0.40659136980E+02  0.00000000000E+00 0. -1.
         11    1    3    3    0    0  0.29420429112E+01 -0.55210713812E+01  0.54911881609E+01  0.83241211768E+01  0.51100000000E-03 0. -1.
        -11    1    3    3    0    0 -0.26108155429E+01 -0.46089694795E-01  0.39737934655E+01  0.47549465640E+01  0.51100000000E-03 0.  1.
         12    1    3    3    0    0 -0.34924144854E+02  0.64495260765E+01  0.11882545437E+02  0.37449795280E+02  0.00000000000E+00 0. -1.
</event>
<event>
 7    1  0.5910662E-013  0.5052887E+02  0.7816164E-02  0.1300439E+00
        -11   -1    0    0    0    0  0.00000000000E+00  0.00000000000E+00  0.45593999997E+02  0.45594000000E+02  0.51100000000E-03 0. -1.
         11   -1    0    0    0    0 -0.00000000000E+00 -0.00000000000E+00 -0.45593999997E+02  0.45594000000E+02  0.51100000000E-03 0.  1.
    9900012    2    1    2    0    0  0.46555784153E+01 -0.28813731982E+02  0.28306530357E+02  0.50528865455E+02  0.30000017036E+02 0.  0.
         12    1    1    2    0    0 -0.46555784153E+01  0.28813731982E+02 -0.28306530357E+02  0.40659134545E+02  0.00000000000E+00 0. -1.
         11    1    3    3    0    0  0.53373110686E+01 -0.87348510605E+01  0.26490742646E+02  0.28399717581E+02  0.51100000000E-03 0. -1.
        -11    1    3    3    0    0  0.24756584643E+01 -0.12002836267E+02 -0.23985154519E+01  0.12487987825E+02  0.51100000000E-03 0.  1.
         12    1    3    3    0    0 -0.31573911176E+01 -0.80760446545E+01  0.42143031629E+01  0.96411600484E+01  0.00000000000E+00 0. -1.
</event>
<event>
 7    1  0.5910662E-013  0.5052886E+02  0.7816164E-02  0.1300439E+00
        -11   -1    0    0    0    0  0.00000000000E+00  0.00000000000E+00  0.45593999997E+02  0.45594000000E+02  0.51100000000E-03 0. -1.
         11   -1    0    0    0    0 -0.00000000000E+00 -0.00000000000E+00 -0.45593999997E+02  0.45594000000E+02  0.51100000000E-03 0.  1.
    9900012    2    1    2    0    0 -0.13114710740E+02 -0.37444714364E+02 -0.88917500611E+01  0.50528862150E+02  0.30000006990E+02 0.  0.
         12    1    1    2    0    0  0.13114710740E+02  0.37444714364E+02  0.88917500611E+01  0.40659137850E+02  0.00000000000E+00 0. -1.
         11    1    3    3    0    0 -0.15154409642E+01 -0.26430372306E+01 -0.11909351505E+02  0.12292878452E+02  0.51100000000E-03 0. -1.
        -11    1    3    3    0    0 -0.12292166910E+02 -0.26214779525E+02 -0.43030171909E+00  0.28956815998E+02  0.51100000000E-03 0.  1.
         12    1    3    3    0    0  0.69289713486E+00 -0.85868976085E+01  0.34479031629E+01  0.92791676997E+01  0.00000000000E+00 0. -1.
</event>
<event>
 7    1  0.5910662E-013  0.5052887E+02  0.7816164E-02  0.1300439E+00
        -11   -1    0    0    0    0  0.00000000000E+00  0.00000000000E+00  0.45593999997E+02  0.45594000000E+02  0.51100000000E-03 0.  1.
         11   -1    0    0    0    0 -0.00000000000E+00 -0.00000000000E+00 -0.45593999997E+02  0.45594000000E+02  0.51100000000E-03 0. -1.
    9900012    2    1    2    0    0  0.38775119166E+02 -0.57012539705E+01  0.10823632207E+02  0.50528866004E+02  0.30000018705E+02 0.  0.
         12    1    1    2    0    0 -0.38775119166E+02  0.57012539705E+01 -0.10823632207E+02  0.40659133996E+02  0.00000000000E+00 0. -1.
         11    1    3    3    0    0  0.48212376845E+01  0.23967582403E+01 -0.31532397734E+01  0.62395275625E+01  0.51100000000E-03 0. -1.
        -11    1    3    3    0    0  0.33924258749E+02 -0.12102041366E+02  0.16435184991E+02  0.39590782297E+02  0.51100000000E-03 0.  1.
        -12    1    3    3    0    0  0.29622732271E-01  0.40040291549E+01 -0.24583130113E+01  0.46985561443E+01  0.00000000000E+00 0.  1.
</event>
<event>
 7    1  0.5910662E-013  0.5052887E+02  0.7816164E-02  0.1300439E+00
        -11   -1    0    0    0    0  0.00000000000E+00  0.00000000000E+00  0.45593999997E+02  0.45594000000E+02  0.51100000000E-03 0.  1.
         11   -1    0    0    0    0 -0.00000000000E+00 -0.00000000000E+00 -0.45593999997E+02  0.45594000000E+02  0.51100000000E-03 0. -1.
    9900012    2    1    2    0    0  0.10336317248E+02  0.37267460083E+02  0.12548385086E+02  0.50528868141E+02  0.30000025200E+02 0.  0.
         12    1    1    2    0    0 -0.10336317248E+02 -0.37267460083E+02 -0.12548385086E+02  0.40659131859E+02  0.00000000000E+00 0. -1.
         11    1    3    3    0    0  0.66021095340E+00 -0.14149051422E+01  0.24029977692E+01  0.28656994965E+01  0.51100000000E-03 0. -1.
        -11    1    3    3    0    0  0.37021110890E+01  0.14626856904E+02 -0.78740512243E+01  0.17019143702E+02  0.51100000000E-03 0.  1.
        -12    1    3    3    0    0  0.59739952061E+01  0.24055508322E+02  0.18019438541E+02  0.30644024942E+02  0.00000000000E+00 0.  1.
</event>
<event>
 7    1  0.5910662E-013  0.5052886E+02  0.7816164E-02  0.1300439E+00
        -11   -1    0    0    0    0  0.00000000000E+00  0.00000000000E+00  0.45593999997E+02  0.45594000000E+02  0.51100000000E-03 0.  1.
         11   -1    0    0    0    0 -0.00000000000E+00 -0.00000000000E+00 -0.45593999997E+02  0.45594000000E+02  0.51100000000E-03 0. -1.
    9900012    2    1    2    0    0 -0.21954502977E+02  0.19992744597E+02  0.27775095707E+02  0.50528856145E+02  0.29999988738E+02 0.  0.
         12    1    1    2    0    0  0.21954502977E+02 -0.19992744597E+02 -0.27775095707E+02  0.40659143855E+02  0.00000000000E+00 0. -1.
         11    1    3    3    0    0 -0.20907730896E+00 -0.45617703758E+01  0.73279328924E+01  0.86343536538E+01  0.51100000000E-03 0. -1.
        -11    1    3    3    0    0 -0.13180708095E+02  0.21396836846E+02  0.20999445107E+02  0.32749540271E+02  0.51100000000E-03 0.  1.
         12    1    3    3    0    0 -0.85647175739E+01  0.31576781269E+01 -0.55228229274E+00  0.91449622200E+01  0.00000000000E+00 0. -1.
</event>
<event>
 7    1  0.5910662E-013  0.5052886E+02  0.7816164E-02  0.1300439E+00
        -11   -1    0    0    0    0  0.00000000000E+00  0.00000000000E+00  0.45593999997E+02  0.45594000000E+02  0.51100000000E-03 0.  1.
         11   -1    0    0    0    0 -0.00000000000E+00 -0.00000000000E+00 -0.45593999997E+02  0.45594000000E+02  0.51100000000E-03 0. -1.
    9900012    2    1    2    0    0 -0.90126948829E+00  0.28306092015E+02  0.29173931062E+02  0.50528863444E+02  0.30000010924E+02 0.  0.
         12    1    1    2    0    0  0.90126948829E+00 -0.28306092015E+02 -0.29173931062E+02  0.40659136556E+02  0.00000000000E+00 0. -1.
         11    1    3    3    0    0 -0.81793013245E+00 -0.49467353932E+01 -0.68708426773E+00  0.50607594098E+01  0.51100000000E-03 0. -1.
        -11    1    3    3    0    0 -0.36891524425E+01  0.97873400730E+01  0.76649843557E+01  0.12967415197E+02  0.51100000000E-03 0.  1.
         12    1    3    3    0    0  0.36058130867E+01  0.23465487336E+02  0.22196030974E+02  0.32500688837E+02  0.00000000000E+00 0. -1.
</event>
<event>
 7    1  0.5910662E-013  0.5052886E+02  0.7816164E-02  0.1300439E+00
        -11   -1    0    0    0    0  0.00000000000E+00  0.00000000000E+00  0.45593999997E+02  0.45594000000E+02  0.51100000000E-03 0.  1.
         11   -1    0    0    0    0 -0.00000000000E+00 -0.00000000000E+00 -0.45593999997E+02  0.45594000000E+02  0.51100000000E-03 0. -1.
    9900012    2    1    2    0    0  0.21513499159E+02  0.31589632679E+02  0.13871924822E+02  0.50528857890E+02  0.29999994043E+02 0.  0.
         12    1    1    2    0    0 -0.21513499159E+02 -0.31589632679E+02 -0.13871924822E+02  0.40659142110E+02  0.00000000000E+00 0. -1.
         11    1    3    3    0    0  0.90722055175E+01 -0.23080409228E+01 -0.19958410223E+01  0.95715906463E+01  0.51100000000E-03 0. -1.
        -11    1    3    3    0    0  0.55219734828E+00  0.12563437391E+02  0.16137048178E+01  0.12678679919E+02  0.51100000000E-03 0.  1.
         12    1    3    3    0    0  0.11889096293E+02  0.21334236211E+02  0.14254061026E+02  0.28278587325E+02  0.00000000000E+00 0. -1.
</event>
<event>
 7    1  0.5910662E-013  0.5052875E+02  0.7816164E-02  0.1300439E+00
        -11   -1    0    0    0    0  0.00000000000E+00  0.00000000000E+00  0.45593999997E+02  0.45594000000E+02  0.51100000000E-03 0. -1.
         11   -1    0    0    0    0 -0.00000000000E+00 -0.00000000000E+00 -0.45593999997E+02  0.45594000000E+02  0.51100000000E-03 0.  1.
    9900012    2    1    2    0    0  0.17714137775E+02  0.13154292888E+02 -0.34151840466E+02  0.50528753749E+02  0.29999677492E+02 0.  0.
         12    1    1    2    0    0 -0.17714137775E+02 -0.13154292888E+02  0.34151840466E+02  0.40659246251E+02  0.00000000000E+00 0. -1.
         11    1    3    3    0    0 -0.52082255639E+01  0.13884349191E+01  0.69687336978E+00  0.54349790987E+01  0.51100000000E-03 0. -1.
        -11    1    3    3    0    0  0.21003055066E+02  0.78511520116E+01 -0.21552966861E+02  0.31101435510E+02  0.51100000000E-03 0.  1.
        -12    1    3    3    0    0  0.19193082730E+01  0.39147059571E+01 -0.13295746975E+02  0.13992339139E+02  0.00000000000E+00 0.  1.
</event>
<event>
 7    1  0.5910662E-013  0.5052886E+02  0.7816164E-02  0.1300439E+00
        -11   -1    0    0    0    0  0.00000000000E+00  0.00000000000E+00  0.45593999997E+02  0.45594000000E+02  0.51100000000E-03 0.  1.
         11   -1    0    0    0    0 -0.00000000000E+00 -0.00000000000E+00 -0.45593999997E+02  0.45594000000E+02  0.51100000000E-03 0. -1.
    9900012    2    1    2    0    0 -0.21315295822E+02 -0.34019563668E+02  0.64414903089E+01  0.50528863936E+02  0.30000012419E+02 0.  0.
         12    1    1    2    0    0  0.21315295822E+02  0.34019563668E+02 -0.64414903089E+01  0.40659136064E+02  0.00000000000E+00 0. -1.
         11    1    3    3    0    0 -0.17134268672E+02 -0.19746578624E+02  0.10375736623E+01  0.26164615221E+02  0.51100000000E-03 0. -1.
        -11    1    3    3    0    0 -0.28677188088E+01  0.41558729989E+01  0.25926497828E+01  0.56759954815E+01  0.51100000000E-03 0.  1.
        -12    1    3    3    0    0 -0.13133083409E+01 -0.18428858042E+02  0.28112668637E+01  0.18688253233E+02  0.00000000000E+00 0.  1.
</event>
<event>
 7    1  0.5910662E-013  0.5052885E+02  0.7816164E-02  0.1300439E+00
        -11   -1    0    0    0    0  0.00000000000E+00  0.00000000000E+00  0.45593999997E+02  0.45594000000E+02  0.51100000000E-03 0.  1.
         11   -1    0    0    0    0 -0.00000000000E+00 -0.00000000000E+00 -0.45593999997E+02  0.45594000000E+02  0.51100000000E-03 0. -1.
    9900012    2    1    2    0    0  0.66589576470E+01  0.61172241509E+01  0.39640938249E+02  0.50528854245E+02  0.29999982964E+02 0.  0.
         12    1    1    2    0    0 -0.66589576470E+01 -0.61172241509E+01 -0.39640938249E+02  0.40659145755E+02  0.00000000000E+00 0. -1.
         11    1    3    3    0    0 -0.69757219377E+01 -0.59290616619E+00  0.24186500497E+02  0.25179337578E+02  0.51100000000E-03 0. -1.
        -11    1    3    3    0    0  0.88199771000E+00  0.66456231822E+01  0.24555603471E+01  0.71394680698E+01  0.51100000000E-03 0.  1.
         12    1    3    3    0    0  0.12752681875E+02  0.64507134942E-01  0.12998877404E+02  0.18210048598E+02  0.00000000000E+00 0. -1.
</event>
<event>
 7    1  0.5910662E-013  0.5052885E+02  0.7816164E-02  0.1300439E+00
        -11   -1    0    0    0    0  0.00000000000E+00  0.00000000000E+00  0.45593999997E+02  0.45594000000E+02  0.51100000000E-03 0. -1.
         11   -1    0    0    0    0 -0.00000000000E+00 -0.00000000000E+00 -0.45593999997E+02  0.45594000000E+02  0.51100000000E-03 0.  1.
    9900012    2    1    2    0    0 -0.84096310597E+01 -0.43459868547E+01 -0.39541839952E+02  0.50528848471E+02  0.29999965412E+02 0.  0.
         12    1    1    2    0    0  0.84096310597E+01  0.43459868547E+01  0.39541839952E+02  0.40659151529E+02  0.00000000000E+00 0. -1.
         11    1    3    3    0    0  0.11235033483E+01 -0.10916758578E+02 -0.51356154661E+01  0.12116617684E+02  0.51100000000E-03 0. -1.
        -11    1    3    3    0    0 -0.52832721501E+01  0.84019278201E+01 -0.12191439427E+02  0.15720577320E+02  0.51100000000E-03 0.  1.
        -12    1    3    3    0    0 -0.42498622578E+01 -0.18311560971E+01 -0.22214785059E+02  0.22691653467E+02  0.00000000000E+00 0.  1.
</event>
<event>
 7    1  0.5910662E-013  0.5052886E+02  0.7816164E-02  0.1300439E+00
        -11   -1    0    0    0    0  0.00000000000E+00  0.00000000000E+00  0.45593999997E+02  0.45594000000E+02  0.51100000000E-03 0. -1.
         11   -1    0    0    0    0 -0.00000000000E+00 -0.00000000000E+00 -0.45593999997E+02  0.45594000000E+02  0.51100000000E-03 0.  1.
    9900012    2    1    2    0    0 -0.31091952287E+02 -0.24596126103E+02 -0.90270042652E+01  0.50528859303E+02  0.29999998336E+02 0.  0.
         12    1    1    2    0    0  0.31091952287E+02  0.24596126103E+02  0.90270042652E+01  0.40659140697E+02  0.00000000000E+00 0. -1.
         11    1    3    3    0    0  0.61096213970E+00 -0.31860079210E+01  0.11733307630E+01  0.34497284748E+01  0.51100000000E-03 0. -1.
        -11    1    3    3    0    0 -0.12152852059E+02  0.17938458837E+01  0.48529267382E+01  0.13208353206E+02  0.51100000000E-03 0.  1.
        -12    1    3    3    0    0 -0.19550062367E+02 -0.23203964065E+02 -0.15053261766E+02  0.33870777622E+02  0.00000000000E+00 0.  1.
</event>
<event>
 7    1  0.5910662E-013  0.5052886E+02  0.7816164E-02  0.1300439E+00
        -11   -1    0    0    0    0  0.00000000000E+00  0.00000000000E+00  0.45593999997E+02  0.45594000000E+02  0.51100000000E-03 0.  1.
         11   -1    0    0    0    0 -0.00000000000E+00 -0.00000000000E+00 -0.45593999997E+02  0.45594000000E+02  0.51100000000E-03 0. -1.
    9900012    2    1    2    0    0  0.14967340700E+01 -0.27449861779E+02  0.29957140230E+02  0.50528863569E+02  0.30000011304E+02 0.  0.
         12    1    1    2    0    0 -0.14967340700E+01  0.27449861779E+02 -0.29957140230E+02  0.40659136431E+02  0.00000000000E+00 0. -1.
         11    1    3    3    0    0  0.75828232387E+01 -0.44836565002E+00  0.95050972934E+01  0.12167461315E+02  0.51100000000E-03 0. -1.
        -11    1    3    3    0    0 -0.83005601273E+01 -0.26916744477E+02  0.13832393273E+02  0.31380655435E+02  0.51100000000E-03 0.  1.
        -12    1    3    3    0    0  0.22144709586E+01 -0.84751652234E-01  0.66196496643E+01  0.69807468187E+01  0.00000000000E+00 0.  1.
</event>
<event>
 7    1  0.5910662E-013  0.5052885E+02  0.7816164E-02  0.1300439E+00
        -11   -1    0    0    0    0  0.00000000000E+00  0.00000000000E+00  0.45593999997E+02  0.45594000000E+02  0.51100000000E-03 0.  1.
         11   -1    0    0    0    0 -0.00000000000E+00 -0.00000000000E+00 -0.45593999997E+02  0.45594000000E+02  0.51100000000E-03 0. -1.
    9900012    2    1    2    0    0  0.17182981829E+02  0.28368836796E+02  0.23518523466E+02  0.50528847135E+02  0.29999961351E+02 0.  0.
         12    1    1    2    0    0 -0.17182981829E+02 -0.28368836796E+02 -0.23518523466E+02  0.40659152865E+02  0.00000000000E+00 0. -1.
         11    1    3    3    0    0 -0.60560203642E+01  0.12056083976E+02  0.71174451690E+01  0.15253936196E+02  0.51100000000E-03 0. -1.
        -11    1    3    3    0    0  0.24271156884E+02  0.15448435986E+02  0.12911979815E+02  0.31535098762E+02  0.51100000000E-03 0.  1.
        -12    1    3    3    0    0 -0.10321546913E+01  0.86431683402E+00  0.34890984827E+01  0.37398121768E+01  0.00000000000E+00 0.  1.
</event>
<event>
 7    1  0.5910662E-013  0.5052886E+02  0.7816164E-02  0.1300439E+00
        -11   -1    0    0    0    0  0.00000000000E+00  0.00000000000E+00  0.45593999997E+02  0.45594000000E+02  0.51100000000E-03 0.  1.
         11   -1    0    0    0    0 -0.00000000000E+00 -0.00000000000E+00 -0.45593999997E+02  0.45594000000E+02  0.51100000000E-03 0. -1.
    9900012    2    1    2    0    0  0.61050804550E+01 -0.26860822708E+02  0.29906352274E+02  0.50528859450E+02  0.29999998784E+02 0.  0.
         12    1    1    2    0    0 -0.61050804550E+01  0.26860822708E+02 -0.29906352274E+02  0.40659140550E+02  0.00000000000E+00 0. -1.
         11    1    3    3    0    0 -0.72264638891E+01 -0.12282524106E+02  0.98324230699E+01  0.17313541591E+02  0.51100000000E-03 0. -1.
        -11    1    3    3    0    0  0.16374247587E+02 -0.14499227754E+02  0.20693453218E+02  0.30109177934E+02  0.51100000000E-03 0.  1.
         12    1    3    3    0    0 -0.30427032434E+01 -0.79070848188E-01 -0.61952401388E+00  0.31061399245E+01  0.00000000000E+00 0. -1.
</event>
<event>
 7    1  0.5910662E-013  0.5052887E+02  0.7816164E-02  0.1300439E+00
        -11   -1    0    0    0    0  0.00000000000E+00  0.00000000000E+00  0.45593999997E+02  0.45594000000E+02  0.51100000000E-03 0.  1.
         11   -1    0    0    0    0 -0.00000000000E+00 -0.00000000000E+00 -0.45593999997E+02  0.45594000000E+02  0.51100000000E-03 0. -1.
    9900012    2    1    2    0    0 -0.18634381067E+02  0.83541400233E+01  0.35158678166E+02  0.50528874780E+02  0.30000045382E+02 0.  0.
         12    1    1    2    0    0  0.18634381067E+02 -0.83541400233E+01 -0.35158678166E+02  0.40659125220E+02  0.00000000000E+00 0. -1.
         11    1    3    3    0    0  0.22673103673E+01 -0.14303601751E+00  0.23251587734E+02  0.23362309133E+02  0.51100000000E-03 0. -1.
        -11    1    3    3    0    0 -0.13811318555E+02  0.98741769893E+00  0.49096462336E+01  0.14691226645E+02  0.51100000000E-03 0.  1.
         12    1    3    3    0    0 -0.70903728793E+01  0.75097583419E+01  0.69974441986E+01  0.12475339003E+02  0.00000000000E+00 0. -1.
</event>
<event>
 7    1  0.5910662E-013  0.5052887E+02  0.7816164E-02  0.1300439E+00
        -11   -1    0    0    0    0  0.00000000000E+00  0.00000000000E+00  0.45593999997E+02  0.45594000000E+02  0.51100000000E-03 0.  1.
         11   -1    0    0    0    0 -0.00000000000E+00 -0.00000000000E+00 -0.45593999997E+02  0.45594000000E+02  0.51100000000E-03 0. -1.
    9900012    2    1    2    0    0  0.33084960387E+01  0.37942280488E+02  0.14233827815E+02  0.50528872502E+02  0.30000038456E+02 0.  0.
         12    1    1    2    0    0 -0.33084960387E+01 -0.37942280488E+02 -0.14233827815E+02  0.40659127498E+02  0.00000000000E+00 0. -1.
         11    1    3    3    0    0 -0.22362314013E+01  0.20579936590E+02  0.16828947516E+02  0.26678605580E+02  0.51100000000E-03 0. -1.
        -11    1    3    3    0    0 -0.23711983602E+01  0.14734613441E+02  0.55510161331E+00  0.14934508796E+02  0.51100000000E-03 0.  1.
         12    1    3    3    0    0  0.79159258001E+01  0.26277304565E+01 -0.31502213137E+01  0.89157581254E+01  0.00000000000E+00 0. -1.
</event>
<event>
 7    1  0.5910662E-013  0.5052887E+02  0.7816164E-02  0.1300439E+00
        -11   -1    0    0    0    0  0.00000000000E+00  0.00000000000E+00  0.45593999997E+02  0.45594000000E+02  0.51100000000E-03 0.  1.
         11   -1    0    0    0    0 -0.00000000000E+00 -0.00000000000E+00 -0.45593999997E+02  0.45594000000E+02  0.51100000000E-03 0. -1.
    9900012    2    1    2    0    0  0.13099867449E+02  0.38214137493E+02  0.46084852286E+01  0.50528868583E+02  0.30000026544E+02 0.  0.
         12    1    1    2    0    0 -0.13099867449E+02 -0.38214137493E+02 -0.46084852286E+01  0.40659131417E+02  0.00000000000E+00 0. -1.
         11    1    3    3    0    0 -0.14336303751E+00  0.10897040849E+02 -0.11091527732E+02  0.15549535039E+02  0.51100000000E-03 0. -1.
        -11    1    3    3    0    0  0.44339354108E+00  0.55993040187E+01  0.52557746506E+01  0.76923319459E+01  0.51100000000E-03 0.  1.
         12    1    3    3    0    0  0.12799836945E+02  0.21717792626E+02  0.10444238310E+02  0.27287001598E+02  0.00000000000E+00 0. -1.
</event>
<event>
 7    1  0.5910662E-013  0.5052889E+02  0.7816164E-02  0.1300439E+00
        -11   -1    0    0    0    0  0.00000000000E+00  0.00000000000E+00  0.45593999997E+02  0.45594000000E+02  0.51100000000E-03 0.  1.
         11   -1    0    0    0    0 -0.00000000000E+00 -0.00000000000E+00 -0.45593999997E+02  0.45594000000E+02  0.51100000000E-03 0. -1.
    9900012    2    1    2    0    0  0.32446402433E+02  0.98471298299E+00  0.24483151090E+02  0.50528888133E+02  0.30000085969E+02 0.  0.
         12    1    1    2    0    0 -0.32446402433E+02 -0.98471298299E+00 -0.24483151090E+02  0.40659111867E+02  0.00000000000E+00 0. -1.
         11    1    3    3    0    0  0.32656345902E+01  0.83670233243E+01  0.91720000693E+01  0.12837329711E+02  0.51100000000E-03 0. -1.
        -11    1    3    3    0    0  0.26129671043E+02 -0.11881332933E+02  0.14616582402E+02  0.32211337484E+02  0.51100000000E-03 0.  1.
        -12    1    3    3    0    0  0.30510967998E+01  0.44990225920E+01  0.69456861864E+00  0.54802209381E+01  0.00000000000E+00 0.  1.
</event>
<event>
 7    1  0.5910662E-013  0.5052886E+02  0.7816164E-02  0.1300439E+00
        -11   -1    0    0    0    0  0.00000000000E+00  0.00000000000E+00  0.45593999997E+02  0.45594000000E+02  0.51100000000E-03 0.  1.
         11   -1    0    0    0    0 -0.00000000000E+00 -0.00000000000E+00 -0.45593999997E+02  0.45594000000E+02  0.51100000000E-03 0. -1.
    9900012    2    1    2    0    0 -0.38342154197E+02  0.11447881756E+02  0.72104605844E+01  0.50528861703E+02  0.30000005634E+02 0.  0.
         12    1    1    2    0    0  0.38342154197E+02 -0.11447881756E+02 -0.72104605844E+01  0.40659138297E+02  0.00000000000E+00 0. -1.
         11    1    3    3    0    0 -0.88715298413E+01 -0.40405221770E+01 -0.55497333952E+01  0.11217370557E+02  0.51100000000E-03 0. -1.
        -11    1    3    3    0    0 -0.17805863758E+02  0.43983123400E+01  0.14137613207E+02  0.23157418747E+02  0.51100000000E-03 0.  1.
        -12    1    3    3    0    0 -0.11664760598E+02  0.11090091593E+02 -0.13774192269E+01  0.16154072400E+02  0.00000000000E+00 0.  1.
</event>
<event>
 7    1  0.5910662E-013  0.5052889E+02  0.7816164E-02  0.1300439E+00
        -11   -1    0    0    0    0  0.00000000000E+00  0.00000000000E+00  0.45593999997E+02  0.45594000000E+02  0.51100000000E-03 0. -1.
         11   -1    0    0    0    0 -0.00000000000E+00 -0.00000000000E+00 -0.45593999997E+02  0.45594000000E+02  0.51100000000E-03 0.  1.
    9900012    2    1    2    0    0  0.36623174653E+02 -0.10820995615E+01 -0.17627697568E+02  0.50528885614E+02  0.30000078312E+02 0.  0.
         12    1    1    2    0    0 -0.36623174653E+02  0.10820995615E+01  0.17627697568E+02  0.40659114386E+02  0.00000000000E+00 0. -1.
         11    1    3    3    0    0  0.17183730882E+01  0.89702744822E+01 -0.62557793904E+01  0.11070384203E+02  0.51100000000E-03 0. -1.
        -11    1    3    3    0    0  0.15326831025E+02 -0.21658321447E+01 -0.97405306395E+01  0.18288808479E+02  0.51100000000E-03 0.  1.
         12    1    3    3    0    0  0.19577970539E+02 -0.78865418990E+01 -0.16313875377E+01  0.21169692933E+02  0.00000000000E+00 0. -1.
</event>
<event>
 7    1  0.5910662E-013  0.5052887E+02  0.7816164E-02  0.1300439E+00
        -11   -1    0    0    0    0  0.00000000000E+00  0.00000000000E+00  0.45593999997E+02  0.45594000000E+02  0.51100000000E-03 0. -1.
         11   -1    0    0    0    0 -0.00000000000E+00 -0.00000000000E+00 -0.45593999997E+02  0.45594000000E+02  0.51100000000E-03 0.  1.
    9900012    2    1    2    0    0  0.24307498137E+02 -0.20038350601E+02 -0.25705548813E+02  0.50528865722E+02  0.30000017847E+02 0.  0.
         12    1    1    2    0    0 -0.24307498137E+02  0.20038350601E+02  0.25705548813E+02  0.40659134278E+02  0.00000000000E+00 0. -1.
         11    1    3    3    0    0  0.12539360646E+02 -0.90454310621E+01 -0.48536657991E+01  0.16205352833E+02  0.51100000000E-03 0. -1.
        -11    1    3    3    0    0 -0.43154477165E+01 -0.59467630619E+00 -0.12847547862E+02  0.13565994812E+02  0.51100000000E-03 0.  1.
        -12    1    3    3    0    0  0.16083585208E+02 -0.10398243233E+02 -0.80043351517E+01  0.20757518076E+02  0.00000000000E+00 0.  1.
</event>
<event>
 7    1  0.5910662E-013  0.5052885E+02  0.7816164E-02  0.1300439E+00
        -11   -1    0    0    0    0  0.00000000000E+00  0.00000000000E+00  0.45593999997E+02  0.45594000000E+02  0.51100000000E-03 0.  1.
         11   -1    0    0    0    0 -0.00000000000E+00 -0.00000000000E+00 -0.45593999997E+02  0.45594000000E+02  0.51100000000E-03 0. -1.
    9900012    2    1    2    0    0  0.53115727689E+01  0.13253322487E+02  0.38069710564E+02  0.50528853124E+02  0.29999979557E+02 0.  0.
         12    1    1    2    0    0 -0.53115727689E+01 -0.13253322487E+02 -0.38069710564E+02  0.40659146876E+02  0.00000000000E+00 0. -1.
         11    1    3    3    0    0  0.29477107681E+01 -0.32306424204E+01  0.21671562175E+01  0.48808416849E+01  0.51100000000E-03 0. -1.
        -11    1    3    3    0    0  0.65723179510E+00  0.22124247072E+02  0.26220773516E+02  0.34313892612E+02  0.51100000000E-03 0.  1.
        -12    1    3    3    0    0  0.17066302058E+01 -0.56402821645E+01  0.96817808304E+01  0.11334118828E+02  0.00000000000E+00 0.  1.
</event>
<event>
 7    1  0.5910662E-013  0.5052885E+02  0.7816164E-02  0.1300439E+00
        -11   -1    0    0    0    0  0.00000000000E+00  0.00000000000E+00  0.45593999997E+02  0.45594000000E+02  0.51100000000E-03 0. -1.
         11   -1    0    0    0    0 -0.00000000000E+00 -0.00000000000E+00 -0.45593999997E+02  0.45594000000E+02  0.51100000000E-03 0.  1.
    9900012    2    1    2    0    0 -0.92233718749E+01 -0.37910626457E+02  0.11440305839E+02  0.50528846236E+02  0.29999958618E+02 0.  0.
         12    1    1    2    0    0  0.92233718749E+01  0.37910626457E+02 -0.11440305839E+02  0.40659153764E+02  0.00000000000E+00 0. -1.
         11    1    3    3    0    0 -0.13752213848E+02 -0.53127346081E+01  0.43070107192E+01  0.15358999848E+02  0.51100000000E-03 0. -1.
        -11    1    3    3    0    0  0.78730904781E+00 -0.28048446356E+02  0.35703613165E+01  0.28285732777E+02  0.51100000000E-03 0.  1.
         12    1    3    3    0    0  0.37415329249E+01 -0.45494454929E+01  0.35629338031E+01  0.68841136108E+01  0.00000000000E+00 0. -1.
</event>
<event>
 7    1  0.5910662E-013  0.5052887E+02  0.7816164E-02  0.1300439E+00
        -11   -1    0    0    0    0  0.00000000000E+00  0.00000000000E+00  0.45593999997E+02  0.45594000000E+02  0.51100000000E-03 0.  1.
         11   -1    0    0    0    0 -0.00000000000E+00 -0.00000000000E+00 -0.45593999997E+02  0.45594000000E+02  0.51100000000E-03 0. -1.
    9900012    2    1    2    0    0  0.12479029782E+02  0.11836255847E+02  0.36842121698E+02  0.50528867349E+02  0.30000022793E+02 0.  0.
         12    1    1    2    0    0 -0.12479029782E+02 -0.11836255847E+02 -0.36842121698E+02  0.40659132651E+02  0.00000000000E+00 0. -1.
         11    1    3    3    0    0 -0.87891183057E+01  0.73954751901E+01  0.16980319869E+02  0.20500558943E+02  0.51100000000E-03 0. -1.
        -11    1    3    3    0    0  0.15755671616E+02  0.56198202359E+01  0.13251179863E+02  0.21340509262E+02  0.51100000000E-03 0.  1.
         12    1    3    3    0    0  0.55124764714E+01 -0.11790395794E+01  0.66106219660E+01  0.86877991433E+01  0.00000000000E+00 0. -1.
</event>
<event>
 7    1  0.5910662E-013  0.5052886E+02  0.7816164E-02  0.1300439E+00
        -11   -1    0    0    0    0  0.00000000000E+00  0.00000000000E+00  0.45593999997E+02  0.45594000000E+02  0.51100000000E-03 0.  1.
         11   -1    0    0    0    0 -0.00000000000E+00 -0.00000000000E+00 -0.45593999997E+02  0.45594000000E+02  0.51100000000E-03 0. -1.
    9900012    2    1    2    0    0  0.61585323450E+01 -0.82290921484E+01  0.39338536594E+02  0.50528856630E+02  0.29999990212E+02 0.  0.
         12    1    1    2    0    0 -0.61585323450E+01  0.82290921484E+01 -0.39338536594E+02  0.40659143370E+02  0.00000000000E+00 0. -1.
         11    1    3    3    0    0 -0.34524059050E+01 -0.15571388054E+00  0.57451503022E+01  0.67044839921E+01  0.51100000000E-03 0. -1.
        -11    1    3    3    0    0  0.58974155916E+01 -0.44093710646E+01 -0.21745964258E+01  0.76779511409E+01  0.51100000000E-03 0.  1.
        -12    1    3    3    0    0  0.37135226584E+01 -0.36640072032E+01  0.35767982718E+02  0.36146421497E+02  0.00000000000E+00 0.  1.
</event>
<event>
 7    1  0.5910662E-013  0.5052887E+02  0.7816164E-02  0.1300439E+00
        -11   -1    0    0    0    0  0.00000000000E+00  0.00000000000E+00  0.45593999997E+02  0.45594000000E+02  0.51100000000E-03 0. -1.
         11   -1    0    0    0    0 -0.00000000000E+00 -0.00000000000E+00 -0.45593999997E+02  0.45594000000E+02  0.51100000000E-03 0.  1.
    9900012    2    1    2    0    0  0.17727560505E+02 -0.33163311774E+02 -0.15462637514E+02  0.50528870543E+02  0.30000032503E+02 0.  0.
         12    1    1    2    0    0 -0.17727560505E+02  0.33163311774E+02  0.15462637514E+02  0.40659129457E+02  0.00000000000E+00 0. -1.
         11    1    3    3    0    0  0.83923552462E+01 -0.28947135712E+00 -0.19591054089E+01  0.86228483988E+01  0.51100000000E-03 0. -1.
        -11    1    3    3    0    0 -0.47033798160E+01 -0.14853978345E+02 -0.43046300536E+00  0.15586781356E+02  0.51100000000E-03 0.  1.
        -12    1    3    3    0    0  0.14038585075E+02 -0.18019862072E+02 -0.13073069100E+02  0.26319240789E+02  0.00000000000E+00 0.  1.
</event>
<event>
 7    1  0.5910662E-013  0.5052886E+02  0.7816164E-02  0.1300439E+00
        -11   -1    0    0    0    0  0.00000000000E+00  0.00000000000E+00  0.45593999997E+02  0.45594000000E+02  0.51100000000E-03 0. -1.
         11   -1    0    0    0    0 -0.00000000000E+00 -0.00000000000E+00 -0.45593999997E+02  0.45594000000E+02  0.51100000000E-03 0.  1.
    9900012    2    1    2    0    0  0.15058818745E+02 -0.10579777608E+02 -0.36255562736E+02  0.50528861476E+02  0.30000004943E+02 0.  0.
         12    1    1    2    0    0 -0.15058818745E+02  0.10579777608E+02  0.36255562736E+02  0.40659138524E+02  0.00000000000E+00 0. -1.
         11    1    3    3    0    0 -0.75611441646E+01 -0.24929462984E+01 -0.12791058081E+02  0.15066414617E+02  0.51100000000E-03 0. -1.
        -11    1    3    3    0    0  0.91729135162E+01 -0.93131741051E+01 -0.10953928591E+02  0.17054797159E+02  0.51100000000E-03 0.  1.
         12    1    3    3    0    0  0.13447049394E+02  0.12263427958E+01 -0.12510576064E+02  0.18407649700E+02  0.00000000000E+00 0. -1.
</event>
<event>
 7    1  0.5910662E-013  0.5052887E+02  0.7816164E-02  0.1300439E+00
        -11   -1    0    0    0    0  0.00000000000E+00  0.00000000000E+00  0.45593999997E+02  0.45594000000E+02  0.51100000000E-03 0. -1.
         11   -1    0    0    0    0 -0.00000000000E+00 -0.00000000000E+00 -0.45593999997E+02  0.45594000000E+02  0.51100000000E-03 0.  1.
    9900012    2    1    2    0    0  0.22375985708E+02  0.32379224155E+02  0.10201269845E+02  0.50528870647E+02  0.30000032819E+02 0.  0.
         12    1    1    2    0    0 -0.22375985708E+02 -0.32379224155E+02 -0.10201269845E+02  0.40659129353E+02  0.00000000000E+00 0. -1.
         11    1    3    3    0    0  0.18392918211E+02  0.72720216696E+01  0.13529455431E+02  0.23963052894E+02  0.51100000000E-03 0. -1.
        -11    1    3    3    0    0  0.50786875665E+01  0.10816585826E+02 -0.52069254083E+00  0.11960882798E+02  0.51100000000E-03 0.  1.
         12    1    3    3    0    0 -0.10956200690E+01  0.14290616659E+02 -0.28074930456E+01  0.14604934955E+02  0.00000000000E+00 0. -1.
</event>
<event>
 7    1  0.5910662E-013  0.5052886E+02  0.7816164E-02  0.1300439E+00
        -11   -1    0    0    0    0  0.00000000000E+00  0.00000000000E+00  0.45593999997E+02  0.45594000000E+02  0.51100000000E-03 0. -1.
         11   -1    0    0    0    0 -0.00000000000E+00 -0.00000000000E+00 -0.45593999997E+02  0.45594000000E+02  0.51100000000E-03 0.  1.
    9900012    2    1    2    0    0  0.26802416546E+02 -0.26220692623E+02 -0.15724870603E+02  0.50528858225E+02  0.29999995062E+02 0.  0.
         12    1    1    2    0    0 -0.26802416546E+02  0.26220692623E+02  0.15724870603E+02  0.40659141775E+02  0.00000000000E+00 0. -1.
         11    1    3    3    0    0  0.10667522109E+02 -0.17738275854E+02 -0.24656393940E+01  0.20845187361E+02  0.51100000000E-03 0. -1.
        -11    1    3    3    0    0 -0.55298797144E+00  0.30575064758E+01 -0.82060447925E+01  0.87745833487E+01  0.51100000000E-03 0.  1.
        -12    1    3    3    0    0  0.16687882408E+02 -0.11539923245E+02 -0.50531864165E+01  0.20909087515E+02  0.00000000000E+00 0.  1.
</event>
<event>
 7    1  0.5910662E-013  0.5052885E+02  0.7816164E-02  0.1300439E+00
        -11   -1    0    0    0    0  0.00000000000E+00  0.00000000000E+00  0.45593999997E+02  0.45594000000E+02  0.51100000000E-03 0. -1.
         11   -1    0    0    0    0 -0.00000000000E+00 -0.00000000000E+00 -0.45593999997E+02  0.45594000000E+02  0.51100000000E-03 0.  1.
    9900012    2    1    2    0    0 -0.20293311053E+02  0.22843559497E+02 -0.26823859477E+02  0.50528854397E+02  0.29999983424E+02 0.  0.
         12    1    1    2    0    0  0.20293311053E+02 -0.22843559497E+02  0.26823859477E+02  0.40659145603E+02  0.00000000000E+00 0. -1.
         11    1    3    3    0    0 -0.87085324871E+00  0.58621817261E+01 -0.19492370496E+02  0.20373415712E+02  0.51100000000E-03 0. -1.
        -11    1    3    3    0    0 -0.15053947023E+02  0.99830796910E+01 -0.10975817674E+02  0.21136503376E+02  0.51100000000E-03 0.  1.
         12    1    3    3    0    0 -0.43685107814E+01  0.69982980798E+01  0.36443286940E+01  0.90189353080E+01  0.00000000000E+00 0. -1.
</event>
<event>
 7    1  0.5910662E-013  0.5052886E+02  0.7816164E-02  0.1300439E+00
        -11   -1    0    0    0    0  0.00000000000E+00  0.00000000000E+00  0.45593999997E+02  0.45594000000E+02  0.51100000000E-03 0.  1.
         11   -1    0    0    0    0 -0.00000000000E+00 -0.00000000000E+00 -0.45593999997E+02  0.45594000000E+02  0.51100000000E-03 0. -1.
    9900012    2    1    2    0    0 -0.37338534251E+02 -0.67034037184E+01 -0.14630930127E+02  0.50528857389E+02  0.29999992521E+02 0.  0.
         12    1    1    2    0    0  0.37338534251E+02  0.67034037184E+01  0.14630930127E+02  0.40659142611E+02  0.00000000000E+00 0. -1.
         11    1    3    3    0    0 -0.13093499854E+02 -0.76399087360E+01  0.75793052480E+01  0.16948563722E+02  0.51100000000E-03 0. -1.
        -11    1    3    3    0    0 -0.89943291581E+01  0.93819818179E+00 -0.41720833986E+01  0.99591391686E+01  0.51100000000E-03 0.  1.
         12    1    3    3    0    0 -0.15250705239E+02 -0.16931642024E-02 -0.18038151976E+02  0.23621154499E+02  0.00000000000E+00 0. -1.
</event>
<event>
 7    1  0.5910662E-013  0.5052885E+02  0.7816164E-02  0.1300439E+00
        -11   -1    0    0    0    0  0.00000000000E+00  0.00000000000E+00  0.45593999997E+02  0.45594000000E+02  0.51100000000E-03 0. -1.
         11   -1    0    0    0    0 -0.00000000000E+00 -0.00000000000E+00 -0.45593999997E+02  0.45594000000E+02  0.51100000000E-03 0.  1.
    9900012    2    1    2    0    0 -0.86087265251E+01 -0.27104540699E+02 -0.29058566884E+02  0.50528848408E+02  0.29999965220E+02 0.  0.
         12    1    1    2    0    0  0.86087265251E+01  0.27104540699E+02  0.29058566884E+02  0.40659151592E+02  0.00000000000E+00 0. -1.
         11    1    3    3    0    0 -0.59754097095E+01 -0.91980752069E+01 -0.26008369343E+02  0.28226678601E+02  0.51100000000E-03 0. -1.
        -11    1    3    3    0    0  0.10104443393E+01 -0.10554700234E+02  0.41495726218E+01  0.11386028632E+02  0.51100000000E-03 0.  1.
        -12    1    3    3    0    0 -0.36437611549E+01 -0.73517652574E+01 -0.71997701628E+01  0.10916141175E+02  0.00000000000E+00 0.  1.
</event>
<event>
 7    1  0.5910662E-013  0.5052886E+02  0.7816164E-02  0.1300439E+00
        -11   -1    0    0    0    0  0.00000000000E+00  0.00000000000E+00  0.45593999997E+02  0.45594000000E+02  0.51100000000E-03 0. -1.
         11   -1    0    0    0    0 -0.00000000000E+00 -0.00000000000E+00 -0.45593999997E+02  0.45594000000E+02  0.51100000000E-03 0.  1.
    9900012    2    1    2    0    0 -0.24147844260E+01 -0.31999589278E+02 -0.24967200963E+02  0.50528855620E+02  0.29999987143E+02 0.  0.
         12    1    1    2    0    0  0.24147844260E+01  0.31999589278E+02  0.24967200963E+02  0.40659144380E+02  0.00000000000E+00 0. -1.
         11    1    3    3    0    0 -0.93761407775E+01 -0.76251226183E+01 -0.14747259219E+02  0.19066624388E+02  0.51100000000E-03 0. -1.
        -11    1    3    3    0    0  0.10948386492E+02 -0.23108248288E+02 -0.89145697126E+01  0.27080026941E+02  0.51100000000E-03 0.  1.
         12    1    3    3    0    0 -0.39870301405E+01 -0.12662183715E+01 -0.13053720312E+01  0.43822042907E+01  0.00000000000E+00 0. -1.
</event>
<event>
 7    1  0.5910662E-013  0.5052886E+02  0.7816164E-02  0.1300439E+00
        -11   -1    0    0    0    0  0.00000000000E+00  0.00000000000E+00  0.45593999997E+02  0.45594000000E+02  0.51100000000E-03 0.  1.
         11   -1    0    0    0    0 -0.00000000000E+00 -0.00000000000E+00 -0.45593999997E+02  0.45594000000E+02  0.51100000000E-03 0. -1.
    9900012    2    1    2    0    0 -0.29623286354E+02  0.27614166863E+02  0.36172103289E+01  0.50528861833E+02  0.30000006027E+02 0.  0.
         12    1    1    2    0    0  0.29623286354E+02 -0.27614166863E+02 -0.36172103289E+01  0.40659138167E+02  0.00000000000E+00 0. -1.
         11    1    3    3    0    0 -0.21592362080E+01  0.15101468983E+02  0.67488144572E+01  0.16681221876E+02  0.51100000000E-03 0.  1.
        -11    1    3    3    0    0 -0.13929757037E+02 -0.16239865848E+01 -0.26404290551E+01  0.14270505576E+02  0.51100000000E-03 0. -1.
        -12    1    3    3    0    0 -0.13534293109E+02  0.14136684465E+02 -0.49117507311E+00  0.19577134381E+02  0.00000000000E+00 0.  1.
</event>
<event>
 7    1  0.5910662E-013  0.5052886E+02  0.7816164E-02  0.1300439E+00
        -11   -1    0    0    0    0  0.00000000000E+00  0.00000000000E+00  0.45593999997E+02  0.45594000000E+02  0.51100000000E-03 0. -1.
         11   -1    0    0    0    0 -0.00000000000E+00 -0.00000000000E+00 -0.45593999997E+02  0.45594000000E+02  0.51100000000E-03 0.  1.
    9900012    2    1    2    0    0  0.65694137306E+01 -0.36406961308E+02 -0.16868353309E+02  0.50528863613E+02  0.30000011437E+02 0.  0.
         12    1    1    2    0    0 -0.65694137306E+01  0.36406961308E+02  0.16868353309E+02  0.40659136387E+02  0.00000000000E+00 0. -1.
         11    1    3    3    0    0  0.14980270333E+01  0.11241414653E+01  0.38420740450E+01  0.42742616035E+01  0.51100000000E-03 0. -1.
        -11    1    3    3    0    0  0.45741189399E+01 -0.39053607786E+02 -0.21074454469E+02  0.44612100114E+02  0.51100000000E-03 0.  1.
        -12    1    3    3    0    0  0.49726775739E+00  0.15225050127E+01  0.36402711523E+00  0.16425018955E+01  0.00000000000E+00 0.  1.
</event>
<event>
 7    1  0.5910662E-013  0.5052888E+02  0.7816164E-02  0.1300439E+00
        -11   -1    0    0    0    0  0.00000000000E+00  0.00000000000E+00  0.45593999997E+02  0.45594000000E+02  0.51100000000E-03 0.  1.
         11   -1    0    0    0    0 -0.00000000000E+00 -0.00000000000E+00 -0.45593999997E+02  0.45594000000E+02  0.51100000000E-03 0. -1.
    9900012    2    1    2    0    0 -0.27953721688E+02  0.25311586925E+02  0.15201223472E+02  0.50528878220E+02  0.30000055837E+02 0.  0.
         12    1    1    2    0    0  0.27953721688E+02 -0.25311586925E+02 -0.15201223472E+02  0.40659121780E+02  0.00000000000E+00 0. -1.
         11    1    3    3    0    0  0.15402439708E+01  0.27450501168E+01 -0.47279026335E+01  0.56798516888E+01  0.51100000000E-03 0. -1.
        -11    1    3    3    0    0 -0.27570794134E+02  0.15240976916E+02  0.11548180831E+02  0.33552891787E+02  0.51100000000E-03 0.  1.
        -12    1    3    3    0    0 -0.19231715250E+01  0.73255598927E+01  0.83809452747E+01  0.11296134744E+02  0.00000000000E+00 0.  1.
</event>
<event>
 7    1  0.5910662E-013  0.5052885E+02  0.7816164E-02  0.1300439E+00
        -11   -1    0    0    0    0  0.00000000000E+00  0.00000000000E+00  0.45593999997E+02  0.45594000000E+02  0.51100000000E-03 0.  1.
         11   -1    0    0    0    0 -0.00000000000E+00 -0.00000000000E+00 -0.45593999997E+02  0.45594000000E+02  0.51100000000E-03 0. -1.
    9900012    2    1    2    0    0 -0.14441182482E+01 -0.38313289973E+02  0.13534123323E+02  0.50528853917E+02  0.29999981966E+02 0.  0.
         12    1    1    2    0    0  0.14441182482E+01  0.38313289973E+02 -0.13534123323E+02  0.40659146083E+02  0.00000000000E+00 0. -1.
         11    1    3    3    0    0  0.11460941699E+02 -0.12546177726E+02  0.66594957520E+01  0.18251264178E+02  0.51100000000E-03 0. -1.
        -11    1    3    3    0    0 -0.81055603200E+01 -0.19197683070E+02  0.10541841715E+02  0.23353405969E+02  0.51100000000E-03 0.  1.
         12    1    3    3    0    0 -0.47994996275E+01 -0.65694291770E+01 -0.36672141433E+01  0.89241837699E+01  0.00000000000E+00 0. -1.
</event>
<event>
 7    1  0.5910662E-013  0.5052887E+02  0.7816164E-02  0.1300439E+00
        -11   -1    0    0    0    0  0.00000000000E+00  0.00000000000E+00  0.45593999997E+02  0.45594000000E+02  0.51100000000E-03 0. -1.
         11   -1    0    0    0    0 -0.00000000000E+00 -0.00000000000E+00 -0.45593999997E+02  0.45594000000E+02  0.51100000000E-03 0.  1.
    9900012    2    1    2    0    0  0.23735510175E+02 -0.27957304121E+02 -0.17555047715E+02  0.50528868218E+02  0.30000025436E+02 0.  0.
         12    1    1    2    0    0 -0.23735510175E+02  0.27957304121E+02  0.17555047715E+02  0.40659131782E+02  0.00000000000E+00 0. -1.
         11    1    3    3    0    0  0.26031076772E+01 -0.13769749315E+02 -0.15341976916E+02  0.20778797408E+02  0.51100000000E-03 0. -1.
        -11    1    3    3    0    0  0.21131662472E+02 -0.15705904093E+02 -0.47878874986E+01  0.26760912711E+02  0.51100000000E-03 0.  1.
         12    1    3    3    0    0  0.74002606057E-03  0.15183492865E+01  0.25748166998E+01  0.29891580990E+01  0.00000000000E+00 0. -1.
</event>
<event>
 7    1  0.5910662E-013  0.5052886E+02  0.7816164E-02  0.1300439E+00
        -11   -1    0    0    0    0  0.00000000000E+00  0.00000000000E+00  0.45593999997E+02  0.45594000000E+02  0.51100000000E-03 0.  1.
         11   -1    0    0    0    0 -0.00000000000E+00 -0.00000000000E+00 -0.45593999997E+02  0.45594000000E+02  0.51100000000E-03 0. -1.
    9900012    2    1    2    0    0  0.22905285348E+02 -0.26940960167E+02  0.20067347431E+02  0.50528857553E+02  0.29999993018E+02 0.  0.
         12    1    1    2    0    0 -0.22905285348E+02  0.26940960167E+02 -0.20067347431E+02  0.40659142447E+02  0.00000000000E+00 0. -1.
         11    1    3    3    0    0 -0.31572539024E+01 -0.45831605975E+01  0.58965981567E+01  0.81082355263E+01  0.51100000000E-03 0. -1.
        -11    1    3    3    0    0  0.18975234308E+02 -0.16928364058E+02 -0.28455449211E+00  0.25430493472E+02  0.51100000000E-03 0.  1.
        -12    1    3    3    0    0  0.70873049421E+01 -0.54294355118E+01  0.14455303766E+02  0.16990128554E+02  0.00000000000E+00 0.  1.
</event>
<event>
 7    1  0.5910662E-013  0.5052886E+02  0.7816164E-02  0.1300439E+00
        -11   -1    0    0    0    0  0.00000000000E+00  0.00000000000E+00  0.45593999997E+02  0.45594000000E+02  0.51100000000E-03 0. -1.
         11   -1    0    0    0    0 -0.00000000000E+00 -0.00000000000E+00 -0.45593999997E+02  0.45594000000E+02  0.51100000000E-03 0.  1.
    9900012    2    1    2    0    0 -0.10837270809E+02 -0.28051394708E+02 -0.27364906232E+02  0.50528864781E+02  0.30000014990E+02 0.  0.
         12    1    1    2    0    0  0.10837270809E+02  0.28051394708E+02  0.27364906232E+02  0.40659135219E+02  0.00000000000E+00 0. -1.
         11    1    3    3    0    0 -0.65012120244E+01  0.21092592504E+01 -0.33778726824E-01  0.68349011430E+01  0.51100000000E-03 0. -1.
        -11    1    3    3    0    0  0.50309191067E+01 -0.18039748812E+02 -0.13926374337E+02  0.23338521518E+02  0.51100000000E-03 0.  1.
         12    1    3    3    0    0 -0.93669778916E+01 -0.12120905147E+02 -0.13404753168E+02  0.20355442120E+02  0.00000000000E+00 0. -1.
</event>
<event>
 7    1  0.5910662E-013  0.5052889E+02  0.7816164E-02  0.1300439E+00
        -11   -1    0    0    0    0  0.00000000000E+00  0.00000000000E+00  0.45593999997E+02  0.45594000000E+02  0.51100000000E-03 0.  1.
         11   -1    0    0    0    0 -0.00000000000E+00 -0.00000000000E+00 -0.45593999997E+02  0.45594000000E+02  0.51100000000E-03 0. -1.
    9900012    2    1    2    0    0  0.34865732174E+02  0.60728811551E+01  0.20016603364E+02  0.50528885699E+02  0.30000078570E+02 0.  0.
         12    1    1    2    0    0 -0.34865732174E+02 -0.60728811551E+01 -0.20016603364E+02  0.40659114301E+02  0.00000000000E+00 0. -1.
         11    1    3    3    0    0 -0.39935755059E+00  0.90703284835E+01  0.34746017631E+01  0.97212757869E+01  0.51100000000E-03 0. -1.
        -11    1    3    3    0    0  0.28654164329E+02 -0.66527132974E+01  0.10867439539E+02  0.31359543523E+02  0.51100000000E-03 0.  1.
        -12    1    3    3    0    0  0.66109253957E+01  0.36552659689E+01  0.56745620619E+01  0.94480663887E+01  0.00000000000E+00 0.  1.
</event>
<event>
 7    1  0.5910662E-013  0.5052889E+02  0.7816164E-02  0.1300439E+00
        -11   -1    0    0    0    0  0.00000000000E+00  0.00000000000E+00  0.45593999997E+02  0.45594000000E+02  0.51100000000E-03 0. -1.
         11   -1    0    0    0    0 -0.00000000000E+00 -0.00000000000E+00 -0.45593999997E+02  0.45594000000E+02  0.51100000000E-03 0.  1.
    9900012    2    1    2    0    0 -0.38512915222E+02 -0.10744234816E+02 -0.73810568071E+01  0.50528890070E+02  0.30000091857E+02 0.  0.
         12    1    1    2    0    0  0.38512915222E+02  0.10744234816E+02  0.73810568071E+01  0.40659109930E+02  0.00000000000E+00 0. -1.
         11    1    3    3    0    0 -0.14276896042E+02  0.21671147053E+01  0.88628153212E+01  0.16943306715E+02  0.51100000000E-03 0. -1.
        -11    1    3    3    0    0 -0.18377839505E+02 -0.41865467167E+01 -0.11245106300E+02  0.21948224854E+02  0.51100000000E-03 0.  1.
        -12    1    3    3    0    0 -0.58581796744E+01 -0.87248028048E+01 -0.49987658286E+01  0.11637358501E+02  0.00000000000E+00 0.  1.
</event>
<event>
 7    1  0.5910662E-013  0.5052886E+02  0.7816164E-02  0.1300439E+00
        -11   -1    0    0    0    0  0.00000000000E+00  0.00000000000E+00  0.45593999997E+02  0.45594000000E+02  0.51100000000E-03 0.  1.
         11   -1    0    0    0    0 -0.00000000000E+00 -0.00000000000E+00 -0.45593999997E+02  0.45594000000E+02  0.51100000000E-03 0. -1.
    9900012    2    1    2    0    0  0.83002044711E+01  0.26327851550E+02  0.29851570693E+02  0.50528862843E+02  0.30000009098E+02 0.  0.
         12    1    1    2    0    0 -0.83002044711E+01 -0.26327851550E+02 -0.29851570693E+02  0.40659137157E+02  0.00000000000E+00 0. -1.
         11    1    3    3    0    0  0.16165421060E+02  0.13781902154E+02  0.15467368109E+02  0.26277388407E+02  0.51100000000E-03 0. -1.
        -11    1    3    3    0    0 -0.46345426677E+01 -0.28777510395E+00  0.86725583671E+01  0.98374320400E+01  0.51100000000E-03 0.  1.
        -12    1    3    3    0    0 -0.32306739208E+01  0.12833724501E+02  0.57116442166E+01  0.14414042396E+02  0.00000000000E+00 0.  1.
</event>
<event>
 7    1  0.5910662E-013  0.5052886E+02  0.7816164E-02  0.1300439E+00
        -11   -1    0    0    0    0  0.00000000000E+00  0.00000000000E+00  0.45593999997E+02  0.45594000000E+02  0.51100000000E-03 0.  1.
         11   -1    0    0    0    0 -0.00000000000E+00 -0.00000000000E+00 -0.45593999997E+02  0.45594000000E+02  0.51100000000E-03 0. -1.
    9900012    2    1    2    0    0  0.11006565736E+02  0.32923059087E+00  0.39139654904E+02  0.50528862429E+02  0.30000007838E+02 0.  0.
         12    1    1    2    0    0 -0.11006565736E+02 -0.32923059087E+00 -0.39139654904E+02  0.40659137571E+02  0.00000000000E+00 0. -1.
         11    1    3    3    0    0  0.59234879791E+01 -0.36498241902E+01  0.37666380056E+01  0.79117942709E+01  0.51100000000E-03 0. -1.
        -11    1    3    3    0    0  0.10454954942E+02  0.55709924736E+01  0.35057937816E+02  0.37005419119E+02  0.51100000000E-03 0.  1.
        -12    1    3    3    0    0 -0.53718771851E+01 -0.15919376926E+01  0.31507908199E+00  0.56116490390E+01  0.00000000000E+00 0.  1.
</event>
<event>
 7    1  0.5910662E-013  0.5052891E+02  0.7816164E-02  0.1300439E+00
        -11   -1    0    0    0    0  0.00000000000E+00  0.00000000000E+00  0.45593999997E+02  0.45594000000E+02  0.51100000000E-03 0.  1.
         11   -1    0    0    0    0 -0.00000000000E+00 -0.00000000000E+00 -0.45593999997E+02  0.45594000000E+02  0.51100000000E-03 0. -1.
    9900012    2    1    2    0    0  0.32898970810E+02  0.65852878109E+01  0.22966349744E+02  0.50528911022E+02  0.30000155543E+02 0.  0.
         12    1    1    2    0    0 -0.32898970810E+02 -0.65852878109E+01 -0.22966349744E+02  0.40659088978E+02  0.00000000000E+00 0. -1.
         11    1    3    3    0    0  0.17028608072E+02  0.11310604024E+02  0.30363127606E+01  0.20666941034E+02  0.51100000000E-03 0. -1.
        -11    1    3    3    0    0  0.11473762672E+01 -0.18049698419E+01  0.13269429004E+02  0.13440689520E+02  0.51100000000E-03 0.  1.
         12    1    3    3    0    0  0.14722986470E+02 -0.29203463715E+01  0.66606079799E+01  0.16421280468E+02  0.00000000000E+00 0. -1.
</event>
<event>
 7    1  0.5910662E-013  0.5052893E+02  0.7816164E-02  0.1300439E+00
        -11   -1    0    0    0    0  0.00000000000E+00  0.00000000000E+00  0.45593999997E+02  0.45594000000E+02  0.51100000000E-03 0.  1.
         11   -1    0    0    0    0 -0.00000000000E+00 -0.00000000000E+00 -0.45593999997E+02  0.45594000000E+02  0.51100000000E-03 0. -1.
    9900012    2    1    2    0    0 -0.19309649246E+02  0.31620460001E+02  0.16746451906E+02  0.50528933409E+02  0.30000223588E+02 0.  0.
         12    1    1    2    0    0  0.19309649246E+02 -0.31620460001E+02 -0.16746451906E+02  0.40659066591E+02  0.00000000000E+00 0. -1.
         11    1    3    3    0    0 -0.60664724814E+00  0.15519957429E+02  0.52946335011E+01  0.16409455922E+02  0.51100000000E-03 0. -1.
        -11    1    3    3    0    0 -0.22217553072E+02  0.10013532282E+02  0.56762421792E+01  0.25022194524E+02  0.51100000000E-03 0.  1.
         12    1    3    3    0    0  0.35145510743E+01  0.60869702898E+01  0.57755762255E+01  0.90972829625E+01  0.00000000000E+00 0. -1.
</event>
<event>
 7    1  0.5910662E-013  0.5052887E+02  0.7816164E-02  0.1300439E+00
        -11   -1    0    0    0    0  0.00000000000E+00  0.00000000000E+00  0.45593999997E+02  0.45594000000E+02  0.51100000000E-03 0.  1.
         11   -1    0    0    0    0 -0.00000000000E+00 -0.00000000000E+00 -0.45593999997E+02  0.45594000000E+02  0.51100000000E-03 0. -1.
    9900012    2    1    2    0    0  0.37781143362E+01  0.40432156162E+02 -0.20326530951E+01  0.50528867219E+02  0.30000022400E+02 0.  0.
         12    1    1    2    0    0 -0.37781143362E+01 -0.40432156162E+02  0.20326530951E+01  0.40659132781E+02  0.00000000000E+00 0. -1.
         11    1    3    3    0    0  0.86129329229E+00  0.36187325155E+02  0.25126064261E+01  0.36284673339E+02  0.51100000000E-03 0.  1.
        -11    1    3    3    0    0 -0.12657388895E+01  0.37209083750E+01 -0.79218862435E+01  0.88432763152E+01  0.51100000000E-03 0. -1.
         12    1    3    3    0    0  0.41825599334E+01  0.52392263218E+00  0.33766267223E+01  0.54009175649E+01  0.00000000000E+00 0. -1.
</event>
<event>
 7    1  0.5910662E-013  0.5052888E+02  0.7816164E-02  0.1300439E+00
        -11   -1    0    0    0    0  0.00000000000E+00  0.00000000000E+00  0.45593999997E+02  0.45594000000E+02  0.51100000000E-03 0.  1.
         11   -1    0    0    0    0 -0.00000000000E+00 -0.00000000000E+00 -0.45593999997E+02  0.45594000000E+02  0.51100000000E-03 0. -1.
    9900012    2    1    2    0    0  0.43134877546E+01 -0.80131737500E+01  0.39627603015E+02  0.50528879856E+02  0.30000060811E+02 0.  0.
         12    1    1    2    0    0 -0.43134877546E+01  0.80131737500E+01 -0.39627603015E+02  0.40659120144E+02  0.00000000000E+00 0. -1.
         11    1    3    3    0    0 -0.23474581689E+01 -0.64331444244E+01 -0.26074932867E+01  0.73276823444E+01  0.51100000000E-03 0. -1.
        -11    1    3    3    0    0  0.42412001971E+01 -0.31960596881E+01  0.17296137250E+02  0.18093063330E+02  0.51100000000E-03 0.  1.
         12    1    3    3    0    0  0.24197457264E+01  0.16160303625E+01  0.24938959051E+02  0.25108134181E+02  0.00000000000E+00 0. -1.
</event>
<event>
 7    1  0.5910662E-013  0.5052886E+02  0.7816164E-02  0.1300439E+00
        -11   -1    0    0    0    0  0.00000000000E+00  0.00000000000E+00  0.45593999997E+02  0.45594000000E+02  0.51100000000E-03 0.  1.
         11   -1    0    0    0    0 -0.00000000000E+00 -0.00000000000E+00 -0.45593999997E+02  0.45594000000E+02  0.51100000000E-03 0. -1.
    9900012    2    1    2    0    0  0.36701886636E+02 -0.14468558718E+02  0.98386031630E+01  0.50528858516E+02  0.29999995946E+02 0.  0.
         12    1    1    2    0    0 -0.36701886636E+02  0.14468558718E+02 -0.98386031630E+01  0.40659141484E+02  0.00000000000E+00 0. -1.
         11    1    3    3    0    0  0.11994679660E+02 -0.12759827656E+02 -0.67791787381E+01  0.18778786079E+02  0.51100000000E-03 0. -1.
        -11    1    3    3    0    0  0.21277117157E+02 -0.50121284771E+01  0.15666636834E+02  0.26893877673E+02  0.51100000000E-03 0.  1.
         12    1    3    3    0    0  0.34300898186E+01  0.33033974151E+01  0.95114506746E+00  0.48561947639E+01  0.00000000000E+00 0. -1.
</event>
<event>
 7    1  0.5910662E-013  0.5052873E+02  0.7816164E-02  0.1300439E+00
        -11   -1    0    0    0    0  0.00000000000E+00  0.00000000000E+00  0.45593999997E+02  0.45594000000E+02  0.51100000000E-03 0.  1.
         11   -1    0    0    0    0 -0.00000000000E+00 -0.00000000000E+00 -0.45593999997E+02  0.45594000000E+02  0.51100000000E-03 0. -1.
    9900012    2    1    2    0    0  0.25757765373E+02 -0.26264142237E+02  0.17317866253E+02  0.50528731241E+02  0.29999609076E+02 0.  0.
         12    1    1    2    0    0 -0.25757765373E+02  0.26264142237E+02 -0.17317866253E+02  0.40659268759E+02  0.00000000000E+00 0. -1.
         11    1    3    3    0    0  0.73138851553E+01 -0.23017990350E+01  0.36407915999E+01  0.84880244226E+01  0.51100000000E-03 0. -1.
        -11    1    3    3    0    0 -0.44892128279E+01 -0.14868150497E+01 -0.32536670321E+01  0.57402090748E+01  0.51100000000E-03 0.  1.
        -12    1    3    3    0    0  0.22933093046E+02 -0.22475528153E+02  0.16930741685E+02  0.36300497743E+02  0.00000000000E+00 0.  1.
</event>
<event>
 7    1  0.5910662E-013  0.5052886E+02  0.7816164E-02  0.1300439E+00
        -11   -1    0    0    0    0  0.00000000000E+00  0.00000000000E+00  0.45593999997E+02  0.45594000000E+02  0.51100000000E-03 0.  1.
         11   -1    0    0    0    0 -0.00000000000E+00 -0.00000000000E+00 -0.45593999997E+02  0.45594000000E+02  0.51100000000E-03 0. -1.
    9900012    2    1    2    0    0 -0.22097518224E+02 -0.21190664909E+02  0.26754837226E+02  0.50528857044E+02  0.29999991471E+02 0.  0.
         12    1    1    2    0    0  0.22097518224E+02  0.21190664909E+02 -0.26754837226E+02  0.40659142956E+02  0.00000000000E+00 0. -1.
         11    1    3    3    0    0 -0.61140554100E+01  0.10366795197E+01  0.14058424375E+02  0.15365405109E+02  0.51100000000E-03 0. -1.
        -11    1    3    3    0    0 -0.10198689810E+02 -0.23968199543E+02  0.13006318982E+02  0.29114467141E+02  0.51100000000E-03 0.  1.
        -12    1    3    3    0    0 -0.57847730042E+01  0.17408551145E+01 -0.30990613047E+00  0.60489847950E+01  0.00000000000E+00 0.  1.
</event>
<event>
 7    1  0.5910662E-013  0.5052886E+02  0.7816164E-02  0.1300439E+00
        -11   -1    0    0    0    0  0.00000000000E+00  0.00000000000E+00  0.45593999997E+02  0.45594000000E+02  0.51100000000E-03 0.  1.
         11   -1    0    0    0    0 -0.00000000000E+00 -0.00000000000E+00 -0.45593999997E+02  0.45594000000E+02  0.51100000000E-03 0. -1.
    9900012    2    1    2    0    0  0.65966844570E+01  0.42490108268E+01  0.39894798567E+02  0.50528864599E+02  0.30000014436E+02 0.  0.
         12    1    1    2    0    0 -0.65966844570E+01 -0.42490108268E+01 -0.39894798567E+02  0.40659135401E+02  0.00000000000E+00 0. -1.
         11    1    3    3    0    0 -0.19240744861E+01  0.11304649160E+02  0.89542638147E+01  0.14549089181E+02  0.51100000000E-03 0. -1.
        -11    1    3    3    0    0  0.11064766016E+02 -0.94752475034E+01  0.27162562531E+02  0.30822299813E+02  0.51100000000E-03 0.  1.
        -12    1    3    3    0    0 -0.25440070726E+01  0.24196091699E+01  0.37779722211E+01  0.51574756057E+01  0.00000000000E+00 0.  1.
</event>
<event>
 7    1  0.5910662E-013  0.5052886E+02  0.7816164E-02  0.1300439E+00
        -11   -1    0    0    0    0  0.00000000000E+00  0.00000000000E+00  0.45593999997E+02  0.45594000000E+02  0.51100000000E-03 0. -1.
         11   -1    0    0    0    0 -0.00000000000E+00 -0.00000000000E+00 -0.45593999997E+02  0.45594000000E+02  0.51100000000E-03 0.  1.
    9900012    2    1    2    0    0  0.22001107015E+02  0.31828553470E+02 -0.12492405965E+02  0.50528859174E+02  0.29999997945E+02 0.  0.
         12    1    1    2    0    0 -0.22001107015E+02 -0.31828553470E+02  0.12492405965E+02  0.40659140826E+02  0.00000000000E+00 0. -1.
         11    1    3    3    0    0  0.53412498447E+01  0.23743152525E+02 -0.83616475414E+01  0.25732924272E+02  0.51100000000E-03 0.  1.
        -11    1    3    3    0    0  0.61523106260E+01  0.55528177912E+00 -0.90560693045E+01  0.10962283311E+02  0.51100000000E-03 0. -1.
         12    1    3    3    0    0  0.10507546545E+02  0.75301191661E+01  0.49253108806E+01  0.13833651590E+02  0.00000000000E+00 0. -1.
</event>
<event>
 7    1  0.5910662E-013  0.5052886E+02  0.7816164E-02  0.1300439E+00
        -11   -1    0    0    0    0  0.00000000000E+00  0.00000000000E+00  0.45593999997E+02  0.45594000000E+02  0.51100000000E-03 0.  1.
         11   -1    0    0    0    0 -0.00000000000E+00 -0.00000000000E+00 -0.45593999997E+02  0.45594000000E+02  0.51100000000E-03 0. -1.
    9900012    2    1    2    0    0 -0.40750555141E+01  0.20966279857E+02  0.34597322595E+02  0.50528859586E+02  0.29999999197E+02 0.  0.
         12    1    1    2    0    0  0.40750555141E+01 -0.20966279857E+02 -0.34597322595E+02  0.40659140414E+02  0.00000000000E+00 0. -1.
         11    1    3    3    0    0 -0.74917099140E+01  0.41516960564E+01  0.49149906174E+01  0.98751926872E+01  0.51100000000E-03 0. -1.
        -11    1    3    3    0    0  0.58648620538E+01 -0.29490038880E+01  0.13431707682E+02  0.14950050246E+02  0.51100000000E-03 0.  1.
        -12    1    3    3    0    0 -0.24482076540E+01  0.19763587688E+02  0.16250624296E+02  0.25703616653E+02  0.00000000000E+00 0.  1.
</event>
<event>
 7    1  0.5910662E-013  0.5052888E+02  0.7816164E-02  0.1300439E+00
        -11   -1    0    0    0    0  0.00000000000E+00  0.00000000000E+00  0.45593999997E+02  0.45594000000E+02  0.51100000000E-03 0.  1.
         11   -1    0    0    0    0 -0.00000000000E+00 -0.00000000000E+00 -0.45593999997E+02  0.45594000000E+02  0.51100000000E-03 0. -1.
    9900012    2    1    2    0    0  0.27059989197E+02  0.26515765284E+01  0.30230620572E+02  0.50528876871E+02  0.30000051737E+02 0.  0.
         12    1    1    2    0    0 -0.27059989197E+02 -0.26515765284E+01 -0.30230620572E+02  0.40659123129E+02  0.00000000000E+00 0. -1.
         11    1    3    3    0    0  0.30025454028E+01 -0.11894346033E+02  0.98352956173E+01  0.15723351634E+02  0.51100000000E-03 0. -1.
        -11    1    3    3    0    0  0.12980674057E+02  0.78536725249E+01  0.12391997302E+02  0.19589274323E+02  0.51100000000E-03 0.  1.
         12    1    3    3    0    0  0.11076769737E+02  0.66922500367E+01  0.80033276528E+01  0.15216250914E+02  0.00000000000E+00 0. -1.
</event>
<event>
 7    1  0.5910662E-013  0.5052887E+02  0.7816164E-02  0.1300439E+00
        -11   -1    0    0    0    0  0.00000000000E+00  0.00000000000E+00  0.45593999997E+02  0.45594000000E+02  0.51100000000E-03 0. -1.
         11   -1    0    0    0    0 -0.00000000000E+00 -0.00000000000E+00 -0.45593999997E+02  0.45594000000E+02  0.51100000000E-03 0.  1.
    9900012    2    1    2    0    0  0.86867485587E+00  0.40587130696E+02 -0.22572810894E+01  0.50528867053E+02  0.30000021894E+02 0.  0.
         12    1    1    2    0    0 -0.86867485587E+00 -0.40587130696E+02  0.22572810894E+01  0.40659132947E+02  0.00000000000E+00 0. -1.
         11    1    3    3    0    0  0.23350558744E+01  0.35030149639E+02 -0.12225484895E+02  0.37175615003E+02  0.51100000000E-03 0. -1.
        -11    1    3    3    0    0 -0.29382228469E+01  0.15679465420E+01  0.80046798385E+01  0.86698621347E+01  0.51100000000E-03 0.  1.
         12    1    3    3    0    0  0.14718418284E+01  0.39890345145E+01  0.19635239673E+01  0.46833899150E+01  0.00000000000E+00 0. -1.
</event>
<event>
 7    1  0.5910662E-013  0.5052886E+02  0.7816164E-02  0.1300439E+00
        -11   -1    0    0    0    0  0.00000000000E+00  0.00000000000E+00  0.45593999997E+02  0.45594000000E+02  0.51100000000E-03 0.  1.
         11   -1    0    0    0    0 -0.00000000000E+00 -0.00000000000E+00 -0.45593999997E+02  0.45594000000E+02  0.51100000000E-03 0. -1.
    9900012    2    1    2    0    0 -0.23291576130E+02  0.23530619320E+02  0.23600381379E+02  0.50528861231E+02  0.30000004197E+02 0.  0.
         12    1    1    2    0    0  0.23291576130E+02 -0.23530619320E+02 -0.23600381379E+02  0.40659138769E+02  0.00000000000E+00 0. -1.
         11    1    3    3    0    0 -0.51197561851E+01  0.12368290449E+02 -0.12416058689E+00  0.13386632442E+02  0.51100000000E-03 0. -1.
        -11    1    3    3    0    0 -0.85242772514E+01  0.86986094443E+01  0.24286570390E+02  0.27169221750E+02  0.51100000000E-03 0.  1.
        -12    1    3    3    0    0 -0.96475426939E+01  0.24637194266E+01 -0.56202842402E+00  0.99730070386E+01  0.00000000000E+00 0.  1.
</event>
<event>
 7    1  0.5910662E-013  0.5052885E+02  0.7816164E-02  0.1300439E+00
        -11   -1    0    0    0    0  0.00000000000E+00  0.00000000000E+00  0.45593999997E+02  0.45594000000E+02  0.51100000000E-03 0.  1.
         11   -1    0    0    0    0 -0.00000000000E+00 -0.00000000000E+00 -0.45593999997E+02  0.45594000000E+02  0.51100000000E-03 0. -1.
    9900012    2    1    2    0    0 -0.19347964523E+02  0.53600068263E+01  0.35356649605E+02  0.50528854957E+02  0.29999985128E+02 0.  0.
         12    1    1    2    0    0  0.19347964523E+02 -0.53600068263E+01 -0.35356649605E+02  0.40659145043E+02  0.00000000000E+00 0. -1.
         11    1    3    3    0    0 -0.22612363962E+01  0.52464599683E+01  0.11434574171E+02  0.12782332298E+02  0.51100000000E-03 0.  1.
        -11    1    3    3    0    0 -0.13289675068E+01 -0.14227101814E+01 -0.46722426224E+01  0.50616311875E+01  0.51100000000E-03 0. -1.
        -12    1    3    3    0    0 -0.15757760620E+02  0.15362570394E+01  0.28594318056E+02  0.32684891472E+02  0.00000000000E+00 0.  1.
</event>
<event>
 7    1  0.5910662E-013  0.5052886E+02  0.7816164E-02  0.1300439E+00
        -11   -1    0    0    0    0  0.00000000000E+00  0.00000000000E+00  0.45593999997E+02  0.45594000000E+02  0.51100000000E-03 0.  1.
         11   -1    0    0    0    0 -0.00000000000E+00 -0.00000000000E+00 -0.45593999997E+02  0.45594000000E+02  0.51100000000E-03 0. -1.
    9900012    2    1    2    0    0 -0.19686995373E+02 -0.19291136169E+02  0.29890466555E+02  0.50528859424E+02  0.29999998704E+02 0.  0.
         12    1    1    2    0    0  0.19686995373E+02  0.19291136169E+02 -0.29890466555E+02  0.40659140576E+02  0.00000000000E+00 0. -1.
         11    1    3    3    0    0 -0.14852676753E+02 -0.30230160516E+01  0.44702198070E+00  0.15163787841E+02  0.51100000000E-03 0. -1.
        -11    1    3    3    0    0 -0.19858543150E+01 -0.16086545717E+02  0.21506196847E+02  0.26930226021E+02  0.51100000000E-03 0.  1.
         12    1    3    3    0    0 -0.28484643057E+01 -0.18157439999E+00  0.79372477275E+01  0.84348455617E+01  0.00000000000E+00 0. -1.
</event>
<event>
 7    1  0.5910662E-013  0.5052886E+02  0.7816164E-02  0.1300439E+00
        -11   -1    0    0    0    0  0.00000000000E+00  0.00000000000E+00  0.45593999997E+02  0.45594000000E+02  0.51100000000E-03 0.  1.
         11   -1    0    0    0    0 -0.00000000000E+00 -0.00000000000E+00 -0.45593999997E+02  0.45594000000E+02  0.51100000000E-03 0. -1.
    9900012    2    1    2    0    0 -0.18496126873E+02  0.32437424786E+02  0.16089509617E+02  0.50528861350E+02  0.30000004558E+02 0.  0.
         12    1    1    2    0    0  0.18496126873E+02 -0.32437424786E+02 -0.16089509617E+02  0.40659138650E+02  0.00000000000E+00 0. -1.
         11    1    3    3    0    0  0.10856514947E+01  0.18711627123E+01 -0.50723138634E+01  0.55143682552E+01  0.51100000000E-03 0. -1.
        -11    1    3    3    0    0 -0.77808645258E+00  0.14553204088E+02  0.11210926143E+02  0.18387115951E+02  0.51100000000E-03 0.  1.
         12    1    3    3    0    0 -0.18803691915E+02  0.16013057986E+02  0.99508973367E+01  0.26627377143E+02  0.00000000000E+00 0. -1.
</event>
<event>
 7    1  0.5910662E-013  0.5052886E+02  0.7816164E-02  0.1300439E+00
        -11   -1    0    0    0    0  0.00000000000E+00  0.00000000000E+00  0.45593999997E+02  0.45594000000E+02  0.51100000000E-03 0.  1.
         11   -1    0    0    0    0 -0.00000000000E+00 -0.00000000000E+00 -0.45593999997E+02  0.45594000000E+02  0.51100000000E-03 0. -1.
    9900012    2    1    2    0    0 -0.19139675527E+02  0.18858253984E+01  0.35822923813E+02  0.50528863422E+02  0.30000010859E+02 0.  0.
         12    1    1    2    0    0  0.19139675527E+02 -0.18858253984E+01 -0.35822923813E+02  0.40659136578E+02  0.00000000000E+00 0. -1.
         11    1    3    3    0    0  0.44008651171E+01  0.27707132468E+01  0.73196433140E+01  0.89789556286E+01  0.51100000000E-03 0. -1.
        -11    1    3    3    0    0 -0.22365154277E+02  0.43149785877E+01  0.15652684266E+02  0.27637396604E+02  0.51100000000E-03 0.  1.
        -12    1    3    3    0    0 -0.11753863675E+01 -0.51998664361E+01  0.12850596233E+02  0.13912511190E+02  0.00000000000E+00 0.  1.
</event>
<event>
 7    1  0.5910662E-013  0.5052886E+02  0.7816164E-02  0.1300439E+00
        -11   -1    0    0    0    0  0.00000000000E+00  0.00000000000E+00  0.45593999997E+02  0.45594000000E+02  0.51100000000E-03 0. -1.
         11   -1    0    0    0    0 -0.00000000000E+00 -0.00000000000E+00 -0.45593999997E+02  0.45594000000E+02  0.51100000000E-03 0.  1.
    9900012    2    1    2    0    0 -0.30303808767E+02  0.21002895267E+02 -0.17138358043E+02  0.50528858939E+02  0.29999997232E+02 0.  0.
         12    1    1    2    0    0  0.30303808767E+02 -0.21002895267E+02  0.17138358043E+02  0.40659141061E+02  0.00000000000E+00 0. -1.
         11    1    3    3    0    0  0.38432435889E+01  0.83932867479E+01 -0.95318952079E+00  0.92804285590E+01  0.51100000000E-03 0. -1.
        -11    1    3    3    0    0 -0.10252861400E+02  0.56737514402E+01 -0.10483241375E+02  0.15722944135E+02  0.51100000000E-03 0.  1.
         12    1    3    3    0    0 -0.23894190956E+02  0.69358570789E+01 -0.57019271480E+01  0.25525486245E+02  0.00000000000E+00 0. -1.
</event>
<event>
 7    1  0.5910662E-013  0.5052896E+02  0.7816164E-02  0.1300438E+00
        -11   -1    0    0    0    0  0.00000000000E+00  0.00000000000E+00  0.45593999997E+02  0.45594000000E+02  0.51100000000E-03 0. -1.
         11   -1    0    0    0    0 -0.00000000000E+00 -0.00000000000E+00 -0.45593999997E+02  0.45594000000E+02  0.51100000000E-03 0.  1.
    9900012    2    1    2    0    0  0.18017897875E+02  0.34261965024E+02 -0.12435049318E+02  0.50528962349E+02  0.30000311555E+02 0.  0.
         12    1    1    2    0    0 -0.18017897875E+02 -0.34261965024E+02  0.12435049318E+02  0.40659037651E+02  0.00000000000E+00 0. -1.
         11    1    3    3    0    0  0.44895947281E+01  0.19889771802E+02 -0.12924604787E+02  0.24141352329E+02  0.51100000000E-03 0. -1.
        -11    1    3    3    0    0  0.13308137518E+02  0.16842411687E+02  0.42506749447E+01  0.21882449437E+02  0.51100000000E-03 0.  1.
         12    1    3    3    0    0  0.22016562935E+00 -0.24702184641E+01 -0.37611194760E+01  0.45051605828E+01  0.00000000000E+00 0. -1.
</event>
<event>
 7    1  0.5910662E-013  0.5052885E+02  0.7816164E-02  0.1300439E+00
        -11   -1    0    0    0    0  0.00000000000E+00  0.00000000000E+00  0.45593999997E+02  0.45594000000E+02  0.51100000000E-03 0.  1.
         11   -1    0    0    0    0 -0.00000000000E+00 -0.00000000000E+00 -0.45593999997E+02  0.45594000000E+02  0.51100000000E-03 0. -1.
    9900012    2    1    2    0    0 -0.14465954354E+02  0.54960127730E+00  0.37994741230E+02  0.50528852714E+02  0.29999978308E+02 0.  0.
         12    1    1    2    0    0  0.14465954354E+02 -0.54960127730E+00 -0.37994741230E+02  0.40659147286E+02  0.00000000000E+00 0. -1.
         11    1    3    3    0    0 -0.26183981957E+01  0.75096829644E+01 -0.14934437360E+01  0.80920777178E+01  0.51100000000E-03 0. -1.
        -11    1    3    3    0    0 -0.74726393291E+01 -0.31313626003E+00  0.21608741602E+02  0.22866484355E+02  0.51100000000E-03 0.  1.
         12    1    3    3    0    0 -0.43749168289E+01 -0.66469454271E+01  0.17879443364E+02  0.19570290641E+02  0.00000000000E+00 0. -1.
</event>
<event>
 7    1  0.5910662E-013  0.5052886E+02  0.7816164E-02  0.1300439E+00
        -11   -1    0    0    0    0  0.00000000000E+00  0.00000000000E+00  0.45593999997E+02  0.45594000000E+02  0.51100000000E-03 0.  1.
         11   -1    0    0    0    0 -0.00000000000E+00 -0.00000000000E+00 -0.45593999997E+02  0.45594000000E+02  0.51100000000E-03 0. -1.
    9900012    2    1    2    0    0  0.71092642791E+01  0.39469224001E+02 -0.66935787405E+01  0.50528864764E+02  0.30000014936E+02 0.  0.
         12    1    1    2    0    0 -0.71092642791E+01 -0.39469224001E+02  0.66935787405E+01  0.40659135236E+02  0.00000000000E+00 0. -1.
         11    1    3    3    0    0  0.86918993509E+01  0.22579592977E+02 -0.16702390987E+02  0.29399948950E+02  0.51100000000E-03 0. -1.
        -11    1    3    3    0    0  0.27674755145E+01  0.31616629747E+01  0.20490838066E+01  0.46748024767E+01  0.51100000000E-03 0.  1.
         12    1    3    3    0    0 -0.43501105863E+01  0.13727968049E+02  0.79597284398E+01  0.16454113337E+02  0.00000000000E+00 0. -1.
</event>
<event>
 7    1  0.5910662E-013  0.5052887E+02  0.7816164E-02  0.1300439E+00
        -11   -1    0    0    0    0  0.00000000000E+00  0.00000000000E+00  0.45593999997E+02  0.45594000000E+02  0.51100000000E-03 0. -1.
         11   -1    0    0    0    0 -0.00000000000E+00 -0.00000000000E+00 -0.45593999997E+02  0.45594000000E+02  0.51100000000E-03 0.  1.
    9900012    2    1    2    0    0  0.32857178513E+02  0.19563615894E+02 -0.13814332823E+02  0.50528867717E+02  0.30000023913E+02 0.  0.
         12    1    1    2    0    0 -0.32857178513E+02 -0.19563615894E+02  0.13814332823E+02  0.40659132283E+02  0.00000000000E+00 0. -1.
         11    1    3    3    0    0  0.24880752748E+02  0.13244030770E+01 -0.47817594155E+01  0.25370674492E+02  0.51100000000E-03 0. -1.
        -11    1    3    3    0    0  0.21908973956E+01  0.13351985154E+02 -0.10880402417E+02  0.17362565939E+02  0.51100000000E-03 0.  1.
        -12    1    3    3    0    0  0.57855283693E+01  0.48872276628E+01  0.18478290095E+01  0.77956272864E+01  0.00000000000E+00 0.  1.
</event>
<event>
 7    1  0.5910662E-013  0.5052885E+02  0.7816164E-02  0.1300439E+00
        -11   -1    0    0    0    0  0.00000000000E+00  0.00000000000E+00  0.45593999997E+02  0.45594000000E+02  0.51100000000E-03 0.  1.
         11   -1    0    0    0    0 -0.00000000000E+00 -0.00000000000E+00 -0.45593999997E+02  0.45594000000E+02  0.51100000000E-03 0. -1.
    9900012    2    1    2    0    0  0.25342030438E+01 -0.29588237080E+02  0.27771942676E+02  0.50528846559E+02  0.29999959600E+02 0.  0.
         12    1    1    2    0    0 -0.25342030438E+01  0.29588237080E+02 -0.27771942676E+02  0.40659153441E+02  0.00000000000E+00 0. -1.
         11    1    3    3    0    0 -0.10850356414E+02 -0.64587515028E+01  0.40853530132E+01  0.13271616886E+02  0.51100000000E-03 0. -1.
        -11    1    3    3    0    0  0.78153002574E+01 -0.77443106914E+01  0.41142279131E+01  0.11746494702E+02  0.51100000000E-03 0.  1.
         12    1    3    3    0    0  0.55692591999E+01 -0.15385174886E+02  0.19572361749E+02  0.25510734971E+02  0.00000000000E+00 0. -1.
</event>
<event>
 7    1  0.5910662E-013  0.5052887E+02  0.7816164E-02  0.1300439E+00
        -11   -1    0    0    0    0  0.00000000000E+00  0.00000000000E+00  0.45593999997E+02  0.45594000000E+02  0.51100000000E-03 0. -1.
         11   -1    0    0    0    0 -0.00000000000E+00 -0.00000000000E+00 -0.45593999997E+02  0.45594000000E+02  0.51100000000E-03 0.  1.
    9900012    2    1    2    0    0  0.21916412087E+01  0.85557570622E+01 -0.39688295898E+02  0.50528866937E+02  0.30000021542E+02 0.  0.
         12    1    1    2    0    0 -0.21916412087E+01 -0.85557570622E+01  0.39688295898E+02  0.40659133063E+02  0.00000000000E+00 0. -1.
         11    1    3    3    0    0 -0.22271469000E+01 -0.65623197978E+01 -0.16892606212E+02  0.18258816209E+02  0.51100000000E-03 0. -1.
        -11    1    3    3    0    0  0.70666468162E+00  0.16582466914E+02 -0.11241534307E+02  0.20046188610E+02  0.51100000000E-03 0.  1.
        -12    1    3    3    0    0  0.37121234271E+01 -0.14643900545E+01 -0.11554155379E+02  0.12223862119E+02  0.00000000000E+00 0.  1.
</event>
<event>
 7    1  0.5910662E-013  0.5052885E+02  0.7816164E-02  0.1300439E+00
        -11   -1    0    0    0    0  0.00000000000E+00  0.00000000000E+00  0.45593999997E+02  0.45594000000E+02  0.51100000000E-03 0. -1.
         11   -1    0    0    0    0 -0.00000000000E+00 -0.00000000000E+00 -0.45593999997E+02  0.45594000000E+02  0.51100000000E-03 0.  1.
    9900012    2    1    2    0    0  0.21075036907E+02 -0.24920539650E+02 -0.24248209090E+02  0.50528854397E+02  0.29999983425E+02 0.  0.
         12    1    1    2    0    0 -0.21075036907E+02  0.24920539650E+02  0.24248209090E+02  0.40659145603E+02  0.00000000000E+00 0. -1.
         11    1    3    3    0    0  0.54496709096E+01 -0.33472474190E+01  0.10705980436E+01  0.64845322683E+01  0.51100000000E-03 0. -1.
        -11    1    3    3    0    0 -0.28917482351E+00  0.21755382566E+01 -0.12539216528E+02  0.12729828757E+02  0.51100000000E-03 0.  1.
        -12    1    3    3    0    0  0.15914540820E+02 -0.23748830488E+02 -0.12779590606E+02  0.31314493372E+02  0.00000000000E+00 0.  1.
</event>
<event>
 7    1  0.5910662E-013  0.5052885E+02  0.7816164E-02  0.1300439E+00
        -11   -1    0    0    0    0  0.00000000000E+00  0.00000000000E+00  0.45593999997E+02  0.45594000000E+02  0.51100000000E-03 0.  1.
         11   -1    0    0    0    0 -0.00000000000E+00 -0.00000000000E+00 -0.45593999997E+02  0.45594000000E+02  0.51100000000E-03 0. -1.
    9900012    2    1    2    0    0  0.40157157058E+02  0.62582196553E+01  0.11848803144E+01  0.50528849522E+02  0.29999968608E+02 0.  0.
         12    1    1    2    0    0 -0.40157157058E+02 -0.62582196553E+01 -0.11848803144E+01  0.40659150478E+02  0.00000000000E+00 0. -1.
         11    1    3    3    0    0  0.23812729312E+02 -0.11927058659E+01 -0.13369452721E+02  0.27335158513E+02  0.51100000000E-03 0. -1.
        -11    1    3    3    0    0  0.35016551234E+01  0.14130474290E+01  0.40535673332E+01  0.55398285195E+01  0.51100000000E-03 0.  1.
         12    1    3    3    0    0  0.12842772622E+02  0.60378780922E+01  0.10500765703E+02  0.17653862490E+02  0.00000000000E+00 0. -1.
</event>
<event>
 7    1  0.5910662E-013  0.5052887E+02  0.7816164E-02  0.1300439E+00
        -11   -1    0    0    0    0  0.00000000000E+00  0.00000000000E+00  0.45593999997E+02  0.45594000000E+02  0.51100000000E-03 0.  1.
         11   -1    0    0    0    0 -0.00000000000E+00 -0.00000000000E+00 -0.45593999997E+02  0.45594000000E+02  0.51100000000E-03 0. -1.
    9900012    2    1    2    0    0  0.16234853758E+02 -0.36179421234E+02 -0.89801873722E+01  0.50528871104E+02  0.30000034206E+02 0.  0.
         12    1    1    2    0    0 -0.16234853758E+02  0.36179421234E+02  0.89801873722E+01  0.40659128896E+02  0.00000000000E+00 0. -1.
         11    1    3    3    0    0  0.44512980464E+01  0.13148303115E+01  0.31369310042E+01  0.56020683173E+01  0.51100000000E-03 0. -1.
        -11    1    3    3    0    0  0.10454229927E+02 -0.37611493578E+02 -0.70271425082E+01  0.39664796793E+02  0.51100000000E-03 0.  1.
        -12    1    3    3    0    0  0.13293257843E+01  0.11724203216E+00 -0.50899758683E+01  0.52620059934E+01  0.00000000000E+00 0.  1.
</event>
<event>
 7    1  0.5910662E-013  0.5052886E+02  0.7816164E-02  0.1300439E+00
        -11   -1    0    0    0    0  0.00000000000E+00  0.00000000000E+00  0.45593999997E+02  0.45594000000E+02  0.51100000000E-03 0. -1.
         11   -1    0    0    0    0 -0.00000000000E+00 -0.00000000000E+00 -0.45593999997E+02  0.45594000000E+02  0.51100000000E-03 0.  1.
    9900012    2    1    2    0    0 -0.24632499515E+02  0.11022731284E+02 -0.30412254893E+02  0.50528857301E+02  0.29999992254E+02 0.  0.
         12    1    1    2    0    0  0.24632499515E+02 -0.11022731284E+02  0.30412254893E+02  0.40659142699E+02  0.00000000000E+00 0. -1.
         11    1    3    3    0    0 -0.20555599850E+02 -0.27433011511E+01 -0.69295622028E+01  0.21864976994E+02  0.51100000000E-03 0. -1.
        -11    1    3    3    0    0 -0.24543837310E+01  0.39374843759E+01 -0.14591749174E+02  0.15311659836E+02  0.51100000000E-03 0.  1.
         12    1    3    3    0    0 -0.16225159342E+01  0.98285480592E+01 -0.88909435163E+01  0.13352220471E+02  0.00000000000E+00 0. -1.
</event>
<event>
 7    1  0.5910662E-013  0.5052885E+02  0.7816164E-02  0.1300439E+00
        -11   -1    0    0    0    0  0.00000000000E+00  0.00000000000E+00  0.45593999997E+02  0.45594000000E+02  0.51100000000E-03 0. -1.
         11   -1    0    0    0    0 -0.00000000000E+00 -0.00000000000E+00 -0.45593999997E+02  0.45594000000E+02  0.51100000000E-03 0.  1.
    9900012    2    1    2    0    0 -0.19003079986E+01 -0.39992785460E+02 -0.70803969508E+01  0.50528854900E+02  0.29999984953E+02 0.  0.
         12    1    1    2    0    0  0.19003079986E+01  0.39992785460E+02  0.70803969508E+01  0.40659145100E+02  0.00000000000E+00 0. -1.
         11    1    3    3    0    0  0.22017953744E+01 -0.11401474777E+01  0.65317936171E+01  0.69865704934E+01  0.51100000000E-03 0. -1.
        -11    1    3    3    0    0 -0.33816339584E+01 -0.28922032981E+02 -0.34623885700E+01  0.29324180719E+02  0.51100000000E-03 0.  1.
         12    1    3    3    0    0 -0.72046941461E+00 -0.99306050011E+01 -0.10149801998E+02  0.14218103687E+02  0.00000000000E+00 0. -1.
</event>
<event>
 7    1  0.5910662E-013  0.5052886E+02  0.7816164E-02  0.1300439E+00
        -11   -1    0    0    0    0  0.00000000000E+00  0.00000000000E+00  0.45593999997E+02  0.45594000000E+02  0.51100000000E-03 0.  1.
         11   -1    0    0    0    0 -0.00000000000E+00 -0.00000000000E+00 -0.45593999997E+02  0.45594000000E+02  0.51100000000E-03 0. -1.
    9900012    2    1    2    0    0 -0.28167624564E+02  0.21717968587E+02  0.19699755694E+02  0.50528860713E+02  0.30000002624E+02 0.  0.
         12    1    1    2    0    0  0.28167624564E+02 -0.21717968587E+02 -0.19699755694E+02  0.40659139287E+02  0.00000000000E+00 0. -1.
         11    1    3    3    0    0 -0.36954670051E+01  0.11137247640E+02  0.43672705209E-01  0.11734422395E+02  0.51100000000E-03 0. -1.
        -11    1    3    3    0    0 -0.27556972699E+02  0.10397765080E+02  0.20120075825E+02  0.35669562857E+02  0.51100000000E-03 0.  1.
        -12    1    3    3    0    0  0.30848151395E+01  0.18295586721E+00 -0.46399283634E+00  0.31248754609E+01  0.00000000000E+00 0.  1.
</event>
<event>
 7    1  0.5910662E-013  0.5052895E+02  0.7816164E-02  0.1300438E+00
        -11   -1    0    0    0    0  0.00000000000E+00  0.00000000000E+00  0.45593999997E+02  0.45594000000E+02  0.51100000000E-03 0. -1.
         11   -1    0    0    0    0 -0.00000000000E+00 -0.00000000000E+00 -0.45593999997E+02  0.45594000000E+02  0.51100000000E-03 0.  1.
    9900012    2    1    2    0    0  0.11225248996E+02 -0.15793970081E+02 -0.35744971669E+02  0.50528945589E+02  0.30000260611E+02 0.  0.
         12    1    1    2    0    0 -0.11225248996E+02  0.15793970081E+02  0.35744971669E+02  0.40659054411E+02  0.00000000000E+00 0. -1.
         11    1    3    3    0    0  0.39094405229E+00  0.59288129825E+01 -0.17880643119E+01  0.62049040991E+01  0.51100000000E-03 0. -1.
        -11    1    3    3    0    0  0.55171481151E+01 -0.19991061435E+02 -0.32487033743E+02  0.38542039675E+02  0.51100000000E-03 0.  1.
        -12    1    3    3    0    0  0.53171568290E+01 -0.17317216292E+01 -0.14698736141E+01  0.57820018149E+01  0.00000000000E+00 0.  1.
</event>
<event>
 7    1  0.5910662E-013  0.5052885E+02  0.7816164E-02  0.1300439E+00
        -11   -1    0    0    0    0  0.00000000000E+00  0.00000000000E+00  0.45593999997E+02  0.45594000000E+02  0.51100000000E-03 0.  1.
         11   -1    0    0    0    0 -0.00000000000E+00 -0.00000000000E+00 -0.45593999997E+02  0.45594000000E+02  0.51100000000E-03 0. -1.
    9900012    2    1    2    0    0  0.28541373213E+02 -0.17965017735E+02  0.22711558270E+02  0.50528846957E+02  0.29999960811E+02 0.  0.
         12    1    1    2    0    0 -0.28541373213E+02  0.17965017735E+02 -0.22711558270E+02  0.40659153043E+02  0.00000000000E+00 0. -1.
         11    1    3    3    0    0  0.31571133798E+02 -0.14572987617E+02  0.12232980569E+02  0.36861284178E+02  0.51100000000E-03 0.  1.
        -11    1    3    3    0    0 -0.30925437218E+01  0.17930975771E+01  0.46688730719E+01  0.58802552338E+01  0.51100000000E-03 0. -1.
        -12    1    3    3    0    0  0.62783136886E-01 -0.51851276949E+01  0.58097046286E+01  0.77873075454E+01  0.00000000000E+00 0.  1.
</event>
<event>
 7    1  0.5910662E-013  0.5052887E+02  0.7816164E-02  0.1300439E+00
        -11   -1    0    0    0    0  0.00000000000E+00  0.00000000000E+00  0.45593999997E+02  0.45594000000E+02  0.51100000000E-03 0. -1.
         11   -1    0    0    0    0 -0.00000000000E+00 -0.00000000000E+00 -0.45593999997E+02  0.45594000000E+02  0.51100000000E-03 0.  1.
    9900012    2    1    2    0    0 -0.33969651548E+02 -0.19399783310E+02  0.11084962056E+02  0.50528865693E+02  0.30000017761E+02 0.  0.
         12    1    1    2    0    0  0.33969651548E+02  0.19399783310E+02 -0.11084962056E+02  0.40659134307E+02  0.00000000000E+00 0. -1.
         11    1    3    3    0    0 -0.14738954911E+02 -0.37692597505E+01 -0.57560723478E+01  0.16265807084E+02  0.51100000000E-03 0. -1.
        -11    1    3    3    0    0  0.17664003099E+00 -0.67338162690E+01 -0.50526523540E+00  0.67550556226E+01  0.51100000000E-03 0.  1.
         12    1    3    3    0    0 -0.19407336668E+02 -0.88967072909E+01  0.17346299640E+02  0.27508002987E+02  0.00000000000E+00 0. -1.
</event>
<event>
 7    1  0.5910662E-013  0.5052886E+02  0.7816164E-02  0.1300439E+00
        -11   -1    0    0    0    0  0.00000000000E+00  0.00000000000E+00  0.45593999997E+02  0.45594000000E+02  0.51100000000E-03 0.  1.
         11   -1    0    0    0    0 -0.00000000000E+00 -0.00000000000E+00 -0.45593999997E+02  0.45594000000E+02  0.51100000000E-03 0. -1.
    9900012    2    1    2    0    0  0.18151812452E+02 -0.35293246665E+02  0.88354034265E+01  0.50528857004E+02  0.29999991350E+02 0.  0.
         12    1    1    2    0    0 -0.18151812452E+02  0.35293246665E+02 -0.88354034265E+01  0.40659142996E+02  0.00000000000E+00 0. -1.
         11    1    3    3    0    0 -0.23208469882E+01 -0.15798470248E+01 -0.54769886090E+00  0.28604582968E+01  0.51100000000E-03 0. -1.
        -11    1    3    3    0    0  0.21296574627E+02 -0.14663255816E+02 -0.11549683762E+01  0.25882216176E+02  0.51100000000E-03 0.  1.
        -12    1    3    3    0    0 -0.82391518715E+00 -0.19050143824E+02  0.10538070664E+02  0.21786182531E+02  0.00000000000E+00 0.  1.
</event>
<event>
 7    1  0.5910662E-013  0.5052879E+02  0.7816164E-02  0.1300439E+00
        -11   -1    0    0    0    0  0.00000000000E+00  0.00000000000E+00  0.45593999997E+02  0.45594000000E+02  0.51100000000E-03 0. -1.
         11   -1    0    0    0    0 -0.00000000000E+00 -0.00000000000E+00 -0.45593999997E+02  0.45594000000E+02  0.51100000000E-03 0.  1.
    9900012    2    1    2    0    0 -0.10615633181E+02 -0.24124996114E+02 -0.30959080136E+02  0.50528785199E+02  0.29999773090E+02 0.  0.
         12    1    1    2    0    0  0.10615633181E+02  0.24124996114E+02  0.30959080136E+02  0.40659214801E+02  0.00000000000E+00 0. -1.
         11    1    3    3    0    0 -0.14876323504E+02 -0.21835605384E+02 -0.19262960633E+02  0.32698017005E+02  0.51100000000E-03 0. -1.
        -11    1    3    3    0    0  0.60204327314E+00  0.31387447522E+00 -0.13106590827E+02  0.13124164608E+02  0.51100000000E-03 0.  1.
         12    1    3    3    0    0  0.36586470496E+01 -0.26032652057E+01  0.14104713234E+01  0.47066035863E+01  0.00000000000E+00 0. -1.
</event>
<event>
 7    1  0.5910662E-013  0.5052892E+02  0.7816164E-02  0.1300439E+00
        -11   -1    0    0    0    0  0.00000000000E+00  0.00000000000E+00  0.45593999997E+02  0.45594000000E+02  0.51100000000E-03 0.  1.
         11   -1    0    0    0    0 -0.00000000000E+00 -0.00000000000E+00 -0.45593999997E+02  0.45594000000E+02  0.51100000000E-03 0. -1.
    9900012    2    1    2    0    0 -0.45718395287E+01 -0.22544906090E+02  0.33525905660E+02  0.50528919126E+02  0.30000180173E+02 0.  0.
         12    1    1    2    0    0  0.45718395287E+01  0.22544906090E+02 -0.33525905660E+02  0.40659080874E+02  0.00000000000E+00 0. -1.
         11    1    3    3    0    0 -0.13225384035E+02 -0.40108941814E+01  0.58500670028E+01  0.15007376159E+02  0.51100000000E-03 0. -1.
        -11    1    3    3    0    0  0.27479247669E+01 -0.13835295384E+00  0.52000746598E+01  0.58831121690E+01  0.51100000000E-03 0.  1.
         12    1    3    3    0    0  0.59056197389E+01 -0.18395658954E+02  0.22475763997E+02  0.29638430797E+02  0.00000000000E+00 0. -1.
</event>
<event>
 7    1  0.5910662E-013  0.5052886E+02  0.7816164E-02  0.1300439E+00
        -11   -1    0    0    0    0  0.00000000000E+00  0.00000000000E+00  0.45593999997E+02  0.45594000000E+02  0.51100000000E-03 0. -1.
         11   -1    0    0    0    0 -0.00000000000E+00 -0.00000000000E+00 -0.45593999997E+02  0.45594000000E+02  0.51100000000E-03 0.  1.
    9900012    2    1    2    0    0 -0.29803236160E+02 -0.23754164746E+02  0.14165879711E+02  0.50528863557E+02  0.30000011267E+02 0.  0.
         12    1    1    2    0    0  0.29803236160E+02  0.23754164746E+02 -0.14165879711E+02  0.40659136443E+02  0.00000000000E+00 0. -1.
         11    1    3    3    0    0 -0.30985611062E+02 -0.13231725719E+02  0.16777826729E+02  0.37638838032E+02  0.51100000000E-03 0. -1.
        -11    1    3    3    0    0 -0.57236139813E+00 -0.42349187434E-01 -0.21810687008E+01  0.22553163775E+01  0.51100000000E-03 0.  1.
         12    1    3    3    0    0  0.17547363005E+01 -0.10480089840E+02 -0.43087831713E+00  0.10634709148E+02  0.00000000000E+00 0. -1.
</event>
<event>
 7    1  0.5910662E-013  0.5052889E+02  0.7816164E-02  0.1300439E+00
        -11   -1    0    0    0    0  0.00000000000E+00  0.00000000000E+00  0.45593999997E+02  0.45594000000E+02  0.51100000000E-03 0. -1.
         11   -1    0    0    0    0 -0.00000000000E+00 -0.00000000000E+00 -0.45593999997E+02  0.45594000000E+02  0.51100000000E-03 0.  1.
    9900012    2    1    2    0    0 -0.31220716945E+02 -0.25978504057E+02 -0.18834102203E+01  0.50528891874E+02  0.30000097339E+02 0.  0.
         12    1    1    2    0    0  0.31220716945E+02  0.25978504057E+02  0.18834102203E+01  0.40659108126E+02  0.00000000000E+00 0. -1.
         11    1    3    3    0    0 -0.25088236226E+02 -0.25993964292E+02  0.82714116793E+01  0.37061058106E+02  0.51100000000E-03 0. -1.
        -11    1    3    3    0    0 -0.14925657271E+01  0.29772838665E+01 -0.41635187983E+01  0.53316846040E+01  0.51100000000E-03 0.  1.
        -12    1    3    3    0    0 -0.46399149916E+01 -0.29618236315E+01 -0.59913031012E+01  0.81361491631E+01  0.00000000000E+00 0.  1.
</event>
<event>
 7    1  0.5910662E-013  0.5052887E+02  0.7816164E-02  0.1300439E+00
        -11   -1    0    0    0    0  0.00000000000E+00  0.00000000000E+00  0.45593999997E+02  0.45594000000E+02  0.51100000000E-03 0.  1.
         11   -1    0    0    0    0 -0.00000000000E+00 -0.00000000000E+00 -0.45593999997E+02  0.45594000000E+02  0.51100000000E-03 0. -1.
    9900012    2    1    2    0    0 -0.13088555573E+01 -0.25479294077E+02  0.31658452873E+02  0.50528866121E+02  0.30000019061E+02 0.  0.
         12    1    1    2    0    0  0.13088555573E+01  0.25479294077E+02 -0.31658452873E+02  0.40659133879E+02  0.00000000000E+00 0. -1.
         11    1    3    3    0    0 -0.24301953951E+01 -0.78223078259E+00  0.21884599444E+02  0.22033007687E+02  0.51100000000E-03 0. -1.
        -11    1    3    3    0    0  0.36322054495E+01 -0.89259130849E+01  0.78133856708E+01  0.12406201543E+02  0.51100000000E-03 0.  1.
         12    1    3    3    0    0 -0.25108656117E+01 -0.15771150209E+02  0.19604677583E+01  0.16089656891E+02  0.00000000000E+00 0. -1.
</event>
<event>
 7    1  0.5910662E-013  0.5052885E+02  0.7816164E-02  0.1300439E+00
        -11   -1    0    0    0    0  0.00000000000E+00  0.00000000000E+00  0.45593999997E+02  0.45594000000E+02  0.51100000000E-03 0.  1.
         11   -1    0    0    0    0 -0.00000000000E+00 -0.00000000000E+00 -0.45593999997E+02  0.45594000000E+02  0.51100000000E-03 0. -1.
    9900012    2    1    2    0    0  0.30305059692E+02  0.23906890118E+02  0.12776156640E+02  0.50528853224E+02  0.29999979860E+02 0.  0.
         12    1    1    2    0    0 -0.30305059692E+02 -0.23906890118E+02 -0.12776156640E+02  0.40659146776E+02  0.00000000000E+00 0. -1.
         11    1    3    3    0    0 -0.31090360893E+01  0.73501205922E+01  0.43914104945E+01  0.91090539858E+01  0.51100000000E-03 0. -1.
        -11    1    3    3    0    0  0.19251472955E+02  0.16797601604E+02  0.93878167408E+01  0.27219657125E+02  0.51100000000E-03 0.  1.
         12    1    3    3    0    0  0.14162622826E+02 -0.24083207826E+00 -0.10030705949E+01  0.14200142113E+02  0.00000000000E+00 0. -1.
</event>
<event>
 7    1  0.5910662E-013  0.5052886E+02  0.7816164E-02  0.1300439E+00
        -11   -1    0    0    0    0  0.00000000000E+00  0.00000000000E+00  0.45593999997E+02  0.45594000000E+02  0.51100000000E-03 0.  1.
         11   -1    0    0    0    0 -0.00000000000E+00 -0.00000000000E+00 -0.45593999997E+02  0.45594000000E+02  0.51100000000E-03 0. -1.
    9900012    2    1    2    0    0  0.18846645400E+02 -0.21684767230E+02  0.28770480484E+02  0.50528859331E+02  0.29999998423E+02 0.  0.
         12    1    1    2    0    0 -0.18846645400E+02  0.21684767230E+02 -0.28770480484E+02  0.40659140669E+02  0.00000000000E+00 0. -1.
         11    1    3    3    0    0  0.19642925171E+02 -0.77664938961E+01  0.90021744778E+01  0.22960881566E+02  0.51100000000E-03 0. -1.
        -11    1    3    3    0    0  0.17420521575E+01 -0.11891573121E+02  0.20915931073E+02  0.24123026964E+02  0.51100000000E-03 0.  1.
         12    1    3    3    0    0 -0.25383319276E+01 -0.20267002124E+01 -0.11476250669E+01  0.34449508007E+01  0.00000000000E+00 0. -1.
</event>
<event>
 7    1  0.6804691E-013  0.5052886E+02  0.7816164E-02  0.1300439E+00
        -11   -1    0    0    0    0  0.00000000000E+00  0.00000000000E+00  0.45593999997E+02  0.45594000000E+02  0.51100000000E-03 0. -1.
         11   -1    0    0    0    0 -0.00000000000E+00 -0.00000000000E+00 -0.45593999997E+02  0.45594000000E+02  0.51100000000E-03 0.  1.
    9900012    2    1    2    0    0  0.14821621010E+02  0.60290410170E+01 -0.37378278211E+02  0.50528862442E+02  0.30000007879E+02 0.  0.
         12    1    1    2    0    0 -0.14821621010E+02 -0.60290410170E+01  0.37378278211E+02  0.40659137558E+02  0.00000000000E+00 0. -1.
         11    1    3    3    0    0 -0.73808467464E+01 -0.15773102504E+01 -0.58793758857E+01  0.95672288248E+01  0.51100000000E-03 0. -1.
        -11    1    3    3    0    0  0.82650453686E+01  0.52239358971E+01 -0.21574679719E+02  0.23686858940E+02  0.51100000000E-03 0.  1.
         12    1    3    3    0    0  0.13937422388E+02  0.23824153703E+01 -0.99242226063E+01  0.17274774678E+02  0.00000000000E+00 0. -1.
</event>
<event>
 7    1  0.5910662E-013  0.5052885E+02  0.7816164E-02  0.1300439E+00
        -11   -1    0    0    0    0  0.00000000000E+00  0.00000000000E+00  0.45593999997E+02  0.45594000000E+02  0.51100000000E-03 0.  1.
         11   -1    0    0    0    0 -0.00000000000E+00 -0.00000000000E+00 -0.45593999997E+02  0.45594000000E+02  0.51100000000E-03 0. -1.
    9900012    2    1    2    0    0  0.10054328390E+02  0.34394971726E+02  0.19211000837E+02  0.50528854010E+02  0.29999982249E+02 0.  0.
         12    1    1    2    0    0 -0.10054328390E+02 -0.34394971726E+02 -0.19211000837E+02  0.40659145990E+02  0.00000000000E+00 0. -1.
         11    1    3    3    0    0  0.84919492965E+01  0.19515518942E+01  0.20233263450E+01  0.89451443482E+01  0.51100000000E-03 0. -1.
        -11    1    3    3    0    0  0.69838945395E+00  0.30834279214E+02  0.75209376411E+01  0.31745945029E+02  0.51100000000E-03 0.  1.
        -12    1    3    3    0    0  0.86398963968E+00  0.16091406177E+01  0.96667368514E+01  0.98377646333E+01  0.00000000000E+00 0.  1.
</event>
<event>
 7    1  0.5910662E-013  0.5052886E+02  0.7816164E-02  0.1300439E+00
        -11   -1    0    0    0    0  0.00000000000E+00  0.00000000000E+00  0.45593999997E+02  0.45594000000E+02  0.51100000000E-03 0.  1.
         11   -1    0    0    0    0 -0.00000000000E+00 -0.00000000000E+00 -0.45593999997E+02  0.45594000000E+02  0.51100000000E-03 0. -1.
    9900012    2    1    2    0    0  0.29988417097E+02 -0.16067277385E+02  0.22264389441E+02  0.50528860810E+02  0.30000002917E+02 0.  0.
         12    1    1    2    0    0 -0.29988417097E+02  0.16067277385E+02 -0.22264389441E+02  0.40659139190E+02  0.00000000000E+00 0. -1.
         11    1    3    3    0    0  0.10446348769E+01 -0.21797026277E+00 -0.16533037383E+01  0.19677872277E+01  0.51100000000E-03 0. -1.
        -11    1    3    3    0    0  0.66838509338E+01 -0.18169639469E+02  0.14909342250E+02  0.24435591835E+02  0.51100000000E-03 0.  1.
        -12    1    3    3    0    0  0.22259931286E+02  0.23203323471E+01  0.90083509294E+01  0.24125481747E+02  0.00000000000E+00 0.  1.
</event>
<event>
 7    1  0.5910662E-013  0.5052886E+02  0.7816164E-02  0.1300439E+00
        -11   -1    0    0    0    0  0.00000000000E+00  0.00000000000E+00  0.45593999997E+02  0.45594000000E+02  0.51100000000E-03 0.  1.
         11   -1    0    0    0    0 -0.00000000000E+00 -0.00000000000E+00 -0.45593999997E+02  0.45594000000E+02  0.51100000000E-03 0. -1.
    9900012    2    1    2    0    0 -0.25676573865E+02  0.23548388912E+02  0.20960739793E+02  0.50528859841E+02  0.29999999972E+02 0.  0.
         12    1    1    2    0    0  0.25676573865E+02 -0.23548388912E+02 -0.20960739793E+02  0.40659140159E+02  0.00000000000E+00 0. -1.
         11    1    3    3    0    0 -0.31167869278E+02  0.18629417471E+02  0.12732151098E+02  0.38478551720E+02  0.51100000000E-03 0. -1.
        -11    1    3    3    0    0  0.40768532061E+01  0.44964577364E+00  0.41801845280E+01  0.58563517940E+01  0.51100000000E-03 0.  1.
         12    1    3    3    0    0  0.14144422066E+01  0.44693256677E+01  0.40484041668E+01  0.61939563268E+01  0.00000000000E+00 0. -1.
</event>
<event>
 7    1  0.5910662E-013  0.5052886E+02  0.7816164E-02  0.1300439E+00
        -11   -1    0    0    0    0  0.00000000000E+00  0.00000000000E+00  0.45593999997E+02  0.45594000000E+02  0.51100000000E-03 0.  1.
         11   -1    0    0    0    0 -0.00000000000E+00 -0.00000000000E+00 -0.45593999997E+02  0.45594000000E+02  0.51100000000E-03 0. -1.
    9900012    2    1    2    0    0 -0.22142748028E+02  0.25353123199E+02  0.22805340603E+02  0.50528859500E+02  0.29999998936E+02 0.  0.
         12    1    1    2    0    0  0.22142748028E+02 -0.25353123199E+02 -0.22805340603E+02  0.40659140500E+02  0.00000000000E+00 0. -1.
         11    1    3    3    0    0 -0.18209267477E+02  0.19934127852E+02  0.16227496796E+02  0.31500452819E+02  0.51100000000E-03 0.  1.
        -11    1    3    3    0    0 -0.71364796355E+01 -0.37591992504E+01  0.21577611638E+01  0.83496619149E+01  0.51100000000E-03 0. -1.
        -12    1    3    3    0    0  0.32029990846E+01  0.91781945971E+01  0.44200826437E+01  0.10678744766E+02  0.00000000000E+00 0.  1.
</event>
<event>
 7    1  0.5910662E-013  0.5052886E+02  0.7816164E-02  0.1300439E+00
        -11   -1    0    0    0    0  0.00000000000E+00  0.00000000000E+00  0.45593999997E+02  0.45594000000E+02  0.51100000000E-03 0. -1.
         11   -1    0    0    0    0 -0.00000000000E+00 -0.00000000000E+00 -0.45593999997E+02  0.45594000000E+02  0.51100000000E-03 0.  1.
    9900012    2    1    2    0    0  0.51039635074E+01 -0.36712247960E+02 -0.16713050125E+02  0.50528860336E+02  0.30000001477E+02 0.  0.
         12    1    1    2    0    0 -0.51039635074E+01  0.36712247960E+02  0.16713050125E+02  0.40659139664E+02  0.00000000000E+00 0. -1.
         11    1    3    3    0    0  0.17449989889E+00 -0.10154776932E+02  0.10437180936E+01  0.10209764565E+02  0.51100000000E-03 0. -1.
        -11    1    3    3    0    0  0.89387171813E+01 -0.19136732746E+02 -0.22319879276E+02  0.30729338037E+02  0.51100000000E-03 0.  1.
        -12    1    3    3    0    0 -0.40092535728E+01 -0.74207382821E+01  0.45631110581E+01  0.95897577336E+01  0.00000000000E+00 0.  1.
</event>
<event>
 7    1  0.5910662E-013  0.5052886E+02  0.7816164E-02  0.1300439E+00
        -11   -1    0    0    0    0  0.00000000000E+00  0.00000000000E+00  0.45593999997E+02  0.45594000000E+02  0.51100000000E-03 0.  1.
         11   -1    0    0    0    0 -0.00000000000E+00 -0.00000000000E+00 -0.45593999997E+02  0.45594000000E+02  0.51100000000E-03 0. -1.
    9900012    2    1    2    0    0 -0.25735398127E+01 -0.25476219534E+02  0.31583294234E+02  0.50528863959E+02  0.30000012490E+02 0.  0.
         12    1    1    2    0    0  0.25735398127E+01  0.25476219534E+02 -0.31583294234E+02  0.40659136041E+02  0.00000000000E+00 0. -1.
         11    1    3    3    0    0  0.90322953775E+01 -0.21672358918E+02  0.23984765972E+02  0.33564006017E+02  0.51100000000E-03 0.  1.
        -11    1    3    3    0    0 -0.74793393689E+01  0.22695069267E+01  0.42151851327E+01  0.88802570374E+01  0.51100000000E-03 0. -1.
        -12    1    3    3    0    0 -0.41264958214E+01 -0.60733675427E+01  0.33833431288E+01  0.80846009054E+01  0.00000000000E+00 0.  1.
</event>
<event>
 7    1  0.5910662E-013  0.5052886E+02  0.7816164E-02  0.1300439E+00
        -11   -1    0    0    0    0  0.00000000000E+00  0.00000000000E+00  0.45593999997E+02  0.45594000000E+02  0.51100000000E-03 0.  1.
         11   -1    0    0    0    0 -0.00000000000E+00 -0.00000000000E+00 -0.45593999997E+02  0.45594000000E+02  0.51100000000E-03 0. -1.
    9900012    2    1    2    0    0  0.14373332602E+02 -0.33119032645E+02  0.18700345806E+02  0.50528856542E+02  0.29999989946E+02 0.  0.
         12    1    1    2    0    0 -0.14373332602E+02  0.33119032645E+02 -0.18700345806E+02  0.40659143458E+02  0.00000000000E+00 0. -1.
         11    1    3    3    0    0  0.59087155835E+01  0.26374004087E+01  0.10377143811E+02  0.12229223798E+02  0.51100000000E-03 0. -1.
        -11    1    3    3    0    0  0.33309682525E+01 -0.11350300028E+02  0.59659162113E+01  0.13248275991E+02  0.51100000000E-03 0.  1.
         12    1    3    3    0    0  0.51336487659E+01 -0.24406133026E+02  0.23572857841E+01  0.25051356754E+02  0.00000000000E+00 0. -1.
</event>
<event>
 7    1  0.5910662E-013  0.5052885E+02  0.7816164E-02  0.1300439E+00
        -11   -1    0    0    0    0  0.00000000000E+00  0.00000000000E+00  0.45593999997E+02  0.45594000000E+02  0.51100000000E-03 0. -1.
         11   -1    0    0    0    0 -0.00000000000E+00 -0.00000000000E+00 -0.45593999997E+02  0.45594000000E+02  0.51100000000E-03 0.  1.
    9900012    2    1    2    0    0 -0.27991674830E+02 -0.26110173075E+02  0.13707338047E+02  0.50528854483E+02  0.29999983687E+02 0.  0.
         12    1    1    2    0    0  0.27991674830E+02  0.26110173075E+02 -0.13707338047E+02  0.40659145517E+02  0.00000000000E+00 0. -1.
         11    1    3    3    0    0 -0.18251966947E+02 -0.61462166980E+01  0.93319658481E+01  0.21400837927E+02  0.51100000000E-03 0. -1.
        -11    1    3    3    0    0  0.18399348548E+01 -0.15327777758E+02 -0.11607086616E+01  0.15481388056E+02  0.51100000000E-03 0.  1.
        -12    1    3    3    0    0 -0.11579642739E+02 -0.46361786190E+01  0.55360808603E+01  0.13646628500E+02  0.00000000000E+00 0.  1.
</event>
<event>
 7    1  0.5910662E-013  0.5052884E+02  0.7816164E-02  0.1300439E+00
        -11   -1    0    0    0    0  0.00000000000E+00  0.00000000000E+00  0.45593999997E+02  0.45594000000E+02  0.51100000000E-03 0. -1.
         11   -1    0    0    0    0 -0.00000000000E+00 -0.00000000000E+00 -0.45593999997E+02  0.45594000000E+02  0.51100000000E-03 0.  1.
    9900012    2    1    2    0    0  0.64438853579E+01  0.32561076162E+02 -0.23482331900E+02  0.50528840506E+02  0.29999941201E+02 0.  0.
         12    1    1    2    0    0 -0.64438853579E+01 -0.32561076162E+02  0.23482331900E+02  0.40659159494E+02  0.00000000000E+00 0. -1.
         11    1    3    3    0    0  0.57681886477E+01 -0.45608538290E+01 -0.40653893173E+01  0.84024269403E+01  0.51100000000E-03 0. -1.
        -11    1    3    3    0    0  0.23562667497E+01  0.25572587867E+02 -0.12525288815E+02  0.28572576071E+02  0.51100000000E-03 0.  1.
        -12    1    3    3    0    0 -0.16805700395E+01  0.11549342124E+02 -0.68916537683E+01  0.13553837494E+02  0.00000000000E+00 0.  1.
</event>
<event>
 7    1  0.5910662E-013  0.5052886E+02  0.7816164E-02  0.1300439E+00
        -11   -1    0    0    0    0  0.00000000000E+00  0.00000000000E+00  0.45593999997E+02  0.45594000000E+02  0.51100000000E-03 0.  1.
         11   -1    0    0    0    0 -0.00000000000E+00 -0.00000000000E+00 -0.45593999997E+02  0.45594000000E+02  0.51100000000E-03 0. -1.
    9900012    2    1    2    0    0  0.21665491527E+00  0.34808153839E+02  0.21012170890E+02  0.50528857872E+02  0.29999993989E+02 0.  0.
         12    1    1    2    0    0 -0.21665491527E+00 -0.34808153839E+02 -0.21012170890E+02  0.40659142128E+02  0.00000000000E+00 0. -1.
         11    1    3    3    0    0  0.25554467484E+01  0.35832859941E+00 -0.14264853172E+01  0.29484857284E+01  0.51100000000E-03 0. -1.
        -11    1    3    3    0    0 -0.22019944210E+01  0.33714910319E+02  0.26818799097E+02  0.43136897692E+02  0.51100000000E-03 0.  1.
        -12    1    3    3    0    0 -0.13679741214E+00  0.73491492061E+00 -0.43801428895E+01  0.44434744519E+01  0.00000000000E+00 0.  1.
</event>
<event>
 7    1  0.5910662E-013  0.5052886E+02  0.7816164E-02  0.1300439E+00
        -11   -1    0    0    0    0  0.00000000000E+00  0.00000000000E+00  0.45593999997E+02  0.45594000000E+02  0.51100000000E-03 0.  1.
         11   -1    0    0    0    0 -0.00000000000E+00 -0.00000000000E+00 -0.45593999997E+02  0.45594000000E+02  0.51100000000E-03 0. -1.
    9900012    2    1    2    0    0  0.16281024824E+02  0.27080285129E+02  0.25588124485E+02  0.50528859249E+02  0.29999998172E+02 0.  0.
         12    1    1    2    0    0 -0.16281024824E+02 -0.27080285129E+02 -0.25588124485E+02  0.40659140751E+02  0.00000000000E+00 0. -1.
         11    1    3    3    0    0 -0.54400792467E+01  0.19840804933E+01  0.13715035068E+02  0.14887351167E+02  0.51100000000E-03 0. -1.
        -11    1    3    3    0    0  0.21456758247E+02  0.25346768110E+02  0.11898455383E+02  0.35276399602E+02  0.51100000000E-03 0.  1.
        -12    1    3    3    0    0  0.26434582377E+00 -0.25056347507E+00 -0.25365965227E-01  0.36510847946E+00  0.00000000000E+00 0.  1.
</event>
<event>
 7    1  0.5910662E-013  0.5052885E+02  0.7816164E-02  0.1300439E+00
        -11   -1    0    0    0    0  0.00000000000E+00  0.00000000000E+00  0.45593999997E+02  0.45594000000E+02  0.51100000000E-03 0.  1.
         11   -1    0    0    0    0 -0.00000000000E+00 -0.00000000000E+00 -0.45593999997E+02  0.45594000000E+02  0.51100000000E-03 0. -1.
    9900012    2    1    2    0    0 -0.65697113180E+01 -0.19961597787E+02  0.34807182585E+02  0.50528850323E+02  0.29999971040E+02 0.  0.
         12    1    1    2    0    0  0.65697113180E+01  0.19961597787E+02 -0.34807182585E+02  0.40659149677E+02  0.00000000000E+00 0. -1.
         11    1    3    3    0    0 -0.13339022804E+02 -0.18594426972E+02  0.31353619728E+02  0.38816642231E+02  0.51100000000E-03 0.  1.
        -11    1    3    3    0    0  0.62923564646E+01  0.13836167182E+01 -0.93571575792E+00  0.65102772093E+01  0.51100000000E-03 0. -1.
         12    1    3    3    0    0  0.47695502177E+00 -0.27507875331E+01  0.43892786149E+01  0.52019308823E+01  0.00000000000E+00 0. -1.
</event>
<event>
 7    1  0.5910662E-013  0.5052889E+02  0.7816164E-02  0.1300439E+00
        -11   -1    0    0    0    0  0.00000000000E+00  0.00000000000E+00  0.45593999997E+02  0.45594000000E+02  0.51100000000E-03 0. -1.
         11   -1    0    0    0    0 -0.00000000000E+00 -0.00000000000E+00 -0.45593999997E+02  0.45594000000E+02  0.51100000000E-03 0.  1.
    9900012    2    1    2    0    0  0.31192184389E+02 -0.26080802450E+02 -0.49827662073E-01  0.50528891473E+02  0.30000096123E+02 0.  0.
         12    1    1    2    0    0 -0.31192184389E+02  0.26080802450E+02  0.49827662073E-01  0.40659108527E+02  0.00000000000E+00 0. -1.
         11    1    3    3    0    0  0.62191385751E+00 -0.10063138898E+02 -0.74735784389E+01  0.12550215786E+02  0.51100000000E-03 0. -1.
        -11    1    3    3    0    0  0.31716244849E+02 -0.14757777534E+02  0.84534168547E+01  0.35988504301E+02  0.51100000000E-03 0.  1.
        -12    1    3    3    0    0 -0.11459743178E+01 -0.12598860174E+01 -0.10296660779E+01  0.19901713860E+01  0.00000000000E+00 0.  1.
</event>
<event>
 7    1  0.5910662E-013  0.5052887E+02  0.7816164E-02  0.1300439E+00
        -11   -1    0    0    0    0  0.00000000000E+00  0.00000000000E+00  0.45593999997E+02  0.45594000000E+02  0.51100000000E-03 0.  1.
         11   -1    0    0    0    0 -0.00000000000E+00 -0.00000000000E+00 -0.45593999997E+02  0.45594000000E+02  0.51100000000E-03 0. -1.
    9900012    2    1    2    0    0  0.16378272863E+02 -0.32599356385E+02  0.17949912040E+02  0.50528865713E+02  0.30000017822E+02 0.  0.
         12    1    1    2    0    0 -0.16378272863E+02  0.32599356385E+02 -0.17949912040E+02  0.40659134287E+02  0.00000000000E+00 0. -1.
         11    1    3    3    0    0  0.22673941233E+02 -0.23090616807E+02  0.11608298787E+02  0.34380762013E+02  0.51100000000E-03 0. -1.
        -11    1    3    3    0    0 -0.64696870202E+01 -0.11158981010E+02  0.65656076308E+01  0.14473662672E+02  0.51100000000E-03 0.  1.
        -12    1    3    3    0    0  0.17401865066E+00  0.16502414327E+01 -0.22399437793E+00  0.16744410286E+01  0.00000000000E+00 0.  1.
</event>
<event>
 7    1  0.5910662E-013  0.5052885E+02  0.7816164E-02  0.1300439E+00
        -11   -1    0    0    0    0  0.00000000000E+00  0.00000000000E+00  0.45593999997E+02  0.45594000000E+02  0.51100000000E-03 0.  1.
         11   -1    0    0    0    0 -0.00000000000E+00 -0.00000000000E+00 -0.45593999997E+02  0.45594000000E+02  0.51100000000E-03 0. -1.
    9900012    2    1    2    0    0 -0.11033001658E+01  0.21419214137E+02  0.34542242486E+02  0.50528849474E+02  0.29999968462E+02 0.  0.
         12    1    1    2    0    0  0.11033001658E+01 -0.21419214137E+02 -0.34542242486E+02  0.40659150526E+02  0.00000000000E+00 0. -1.
         11    1    3    3    0    0  0.10230421528E+02  0.47352526932E+01  0.10602200959E+01  0.11322906412E+02  0.51100000000E-03 0. -1.
        -11    1    3    3    0    0 -0.58800347872E+01  0.10941670923E+02  0.19002276647E+02  0.22702015102E+02  0.51100000000E-03 0.  1.
         12    1    3    3    0    0 -0.54536869065E+01  0.57422905211E+01  0.14479745743E+02  0.16503927960E+02  0.00000000000E+00 0. -1.
</event>
<event>
 7    1  0.5910662E-013  0.5052887E+02  0.7816164E-02  0.1300439E+00
        -11   -1    0    0    0    0  0.00000000000E+00  0.00000000000E+00  0.45593999997E+02  0.45594000000E+02  0.51100000000E-03 0.  1.
         11   -1    0    0    0    0 -0.00000000000E+00 -0.00000000000E+00 -0.45593999997E+02  0.45594000000E+02  0.51100000000E-03 0. -1.
    9900012    2    1    2    0    0 -0.16047698209E+02  0.87210504667E+00  0.37348035039E+02  0.50528869337E+02  0.30000028837E+02 0.  0.
         12    1    1    2    0    0  0.16047698209E+02 -0.87210504667E+00 -0.37348035039E+02  0.40659130663E+02  0.00000000000E+00 0. -1.
         11    1    3    3    0    0  0.27325610886E+01  0.37720029635E+01  0.13586698771E+02  0.14362913361E+02  0.51100000000E-03 0. -1.
        -11    1    3    3    0    0 -0.20652290338E+02 -0.11489426858E+01  0.11554081350E+02  0.23692487450E+02  0.51100000000E-03 0.  1.
        -12    1    3    3    0    0  0.18720310401E+01 -0.17509552310E+01  0.12207254918E+02  0.12473468526E+02  0.00000000000E+00 0.  1.
</event>
<event>
 7    1  0.5910662E-013  0.5052885E+02  0.7816164E-02  0.1300439E+00
        -11   -1    0    0    0    0  0.00000000000E+00  0.00000000000E+00  0.45593999997E+02  0.45594000000E+02  0.51100000000E-03 0. -1.
         11   -1    0    0    0    0 -0.00000000000E+00 -0.00000000000E+00 -0.45593999997E+02  0.45594000000E+02  0.51100000000E-03 0.  1.
    9900012    2    1    2    0    0 -0.19441513209E+02  0.17171864251E+02 -0.31310076537E+02  0.50528852807E+02  0.29999978593E+02 0.  0.
         12    1    1    2    0    0  0.19441513209E+02 -0.17171864251E+02  0.31310076537E+02  0.40659147193E+02  0.00000000000E+00 0. -1.
         11    1    3    3    0    0 -0.82406680720E+01  0.92796895146E+01  0.11114647958E+00  0.12411027418E+02  0.51100000000E-03 0. -1.
        -11    1    3    3    0    0 -0.14703159949E+02  0.68911282479E+01 -0.18139568992E+02  0.24345729081E+02  0.51100000000E-03 0.  1.
         12    1    3    3    0    0  0.35023148119E+01  0.10010464885E+01 -0.13281654024E+02  0.13772096309E+02  0.00000000000E+00 0. -1.
</event>
<event>
 7    1  0.5910662E-013  0.5052886E+02  0.7816164E-02  0.1300439E+00
        -11   -1    0    0    0    0  0.00000000000E+00  0.00000000000E+00  0.45593999997E+02  0.45594000000E+02  0.51100000000E-03 0.  1.
         11   -1    0    0    0    0 -0.00000000000E+00 -0.00000000000E+00 -0.45593999997E+02  0.45594000000E+02  0.51100000000E-03 0. -1.
    9900012    2    1    2    0    0 -0.24342233534E+01 -0.11138712525E+02  0.39027802532E+02  0.50528859201E+02  0.29999998026E+02 0.  0.
         12    1    1    2    0    0  0.24342233534E+01  0.11138712525E+02 -0.39027802532E+02  0.40659140799E+02  0.00000000000E+00 0. -1.
         11    1    3    3    0    0  0.51266163575E+01 -0.17276405881E+02  0.18862114433E+02  0.26087080262E+02  0.51100000000E-03 0. -1.
        -11    1    3    3    0    0  0.11319727332E+01  0.36430604069E+01  0.10656655205E+02  0.11318902412E+02  0.51100000000E-03 0.  1.
        -12    1    3    3    0    0 -0.86928124441E+01  0.24946329497E+01  0.95090328949E+01  0.13122876527E+02  0.00000000000E+00 0.  1.
</event>
<event>
 7    1  0.5910662E-013  0.5052886E+02  0.7816164E-02  0.1300439E+00
        -11   -1    0    0    0    0  0.00000000000E+00  0.00000000000E+00  0.45593999997E+02  0.45594000000E+02  0.51100000000E-03 0.  1.
         11   -1    0    0    0    0 -0.00000000000E+00 -0.00000000000E+00 -0.45593999997E+02  0.45594000000E+02  0.51100000000E-03 0. -1.
    9900012    2    1    2    0    0 -0.30290169452E+02 -0.56477237987E+01  0.26528752895E+02  0.50528857367E+02  0.29999992452E+02 0.  0.
         12    1    1    2    0    0  0.30290169452E+02  0.56477237987E+01 -0.26528752895E+02  0.40659142633E+02  0.00000000000E+00 0. -1.
         11    1    3    3    0    0 -0.34638688414E+01  0.92688347333E+00 -0.26621804862E+01  0.44659495660E+01  0.51100000000E-03 0. -1.
        -11    1    3    3    0    0  0.87593064557E+00  0.67487294170E+00  0.13237565589E+02  0.13283668581E+02  0.51100000000E-03 0.  1.
         12    1    3    3    0    0 -0.27702231256E+02 -0.72494802138E+01  0.15953367792E+02  0.32779239220E+02  0.00000000000E+00 0. -1.
</event>
<event>
 7    1  0.5910662E-013  0.5052886E+02  0.7816164E-02  0.1300439E+00
        -11   -1    0    0    0    0  0.00000000000E+00  0.00000000000E+00  0.45593999997E+02  0.45594000000E+02  0.51100000000E-03 0. -1.
         11   -1    0    0    0    0 -0.00000000000E+00 -0.00000000000E+00 -0.45593999997E+02  0.45594000000E+02  0.51100000000E-03 0.  1.
    9900012    2    1    2    0    0  0.38387652977E+02  0.10830598845E+02 -0.78899816487E+01  0.50528861017E+02  0.30000003546E+02 0.  0.
         12    1    1    2    0    0 -0.38387652977E+02 -0.10830598845E+02  0.78899816487E+01  0.40659138983E+02  0.00000000000E+00 0. -1.
         11    1    3    3    0    0  0.26125078853E+01  0.22272018086E+00 -0.65397405648E+01  0.70457794917E+01  0.51100000000E-03 0. -1.
        -11    1    3    3    0    0  0.91418828740E+01  0.13281678194E+02  0.28942459025E+01  0.16381503525E+02  0.51100000000E-03 0.  1.
        -12    1    3    3    0    0  0.26633262218E+02 -0.26737995297E+01 -0.42444869865E+01  0.27101578000E+02  0.00000000000E+00 0.  1.
</event>
<event>
 7    1  0.5910662E-013  0.5052886E+02  0.7816164E-02  0.1300439E+00
        -11   -1    0    0    0    0  0.00000000000E+00  0.00000000000E+00  0.45593999997E+02  0.45594000000E+02  0.51100000000E-03 0.  1.
         11   -1    0    0    0    0 -0.00000000000E+00 -0.00000000000E+00 -0.45593999997E+02  0.45594000000E+02  0.51100000000E-03 0. -1.
    9900012    2    1    2    0    0 -0.85724836819E+01 -0.34122534051E+02  0.20379665165E+02  0.50528861313E+02  0.30000004447E+02 0.  0.
         12    1    1    2    0    0  0.85724836819E+01  0.34122534051E+02 -0.20379665165E+02  0.40659138687E+02  0.00000000000E+00 0. -1.
         11    1    3    3    0    0  0.36104737780E+01 -0.17314037041E+02  0.11719749331E+01  0.17725262341E+02  0.51100000000E-03 0.  1.
        -11    1    3    3    0    0 -0.15455859032E+02 -0.12238443405E+02  0.10228421875E+02  0.22209990763E+02  0.51100000000E-03 0. -1.
        -12    1    3    3    0    0  0.32729015721E+01 -0.45700536049E+01  0.89792683571E+01  0.10593608209E+02  0.00000000000E+00 0.  1.
</event>
<event>
 7    1  0.5910662E-013  0.5052887E+02  0.7816164E-02  0.1300439E+00
        -11   -1    0    0    0    0  0.00000000000E+00  0.00000000000E+00  0.45593999997E+02  0.45594000000E+02  0.51100000000E-03 0.  1.
         11   -1    0    0    0    0 -0.00000000000E+00 -0.00000000000E+00 -0.45593999997E+02  0.45594000000E+02  0.51100000000E-03 0. -1.
    9900012    2    1    2    0    0  0.21257799226E+02 -0.29885750521E+02  0.17553150090E+02  0.50528865845E+02  0.30000018223E+02 0.  0.
         12    1    1    2    0    0 -0.21257799226E+02  0.29885750521E+02 -0.17553150090E+02  0.40659134155E+02  0.00000000000E+00 0. -1.
         11    1    3    3    0    0  0.15219184071E+02 -0.26658379134E+01 -0.25954715436E+01  0.15667377839E+02  0.51100000000E-03 0. -1.
        -11    1    3    3    0    0  0.69706450274E+00 -0.13000875077E+02  0.11567094397E+02  0.17415691911E+02  0.51100000000E-03 0.  1.
         12    1    3    3    0    0  0.53415506524E+01 -0.14219037531E+02  0.85815272367E+01  0.17445796095E+02  0.00000000000E+00 0. -1.
</event>
<event>
 7    1  0.5910662E-013  0.5052885E+02  0.7816164E-02  0.1300439E+00
        -11   -1    0    0    0    0  0.00000000000E+00  0.00000000000E+00  0.45593999997E+02  0.45594000000E+02  0.51100000000E-03 0.  1.
         11   -1    0    0    0    0 -0.00000000000E+00 -0.00000000000E+00 -0.45593999997E+02  0.45594000000E+02  0.51100000000E-03 0. -1.
    9900012    2    1    2    0    0  0.13818407726E+02 -0.12988294432E+02  0.35965567301E+02  0.50528853236E+02  0.29999979895E+02 0.  0.
         12    1    1    2    0    0 -0.13818407726E+02  0.12988294432E+02 -0.35965567301E+02  0.40659146764E+02  0.00000000000E+00 0. -1.
         11    1    3    3    0    0 -0.12671768118E+01  0.16832791494E+01 -0.67501987739E+00  0.22124235271E+01  0.51100000000E-03 0. -1.
        -11    1    3    3    0    0  0.36488959639E+01 -0.16455486409E+02  0.31341064180E+02  0.35585949178E+02  0.51100000000E-03 0.  1.
        -12    1    3    3    0    0  0.11436688574E+02  0.17839128280E+01  0.52995229983E+01  0.12730480530E+02  0.00000000000E+00 0.  1.
</event>
<event>
 7    1  0.5910662E-013  0.5052885E+02  0.7816164E-02  0.1300439E+00
        -11   -1    0    0    0    0  0.00000000000E+00  0.00000000000E+00  0.45593999997E+02  0.45594000000E+02  0.51100000000E-03 0. -1.
         11   -1    0    0    0    0 -0.00000000000E+00 -0.00000000000E+00 -0.45593999997E+02  0.45594000000E+02  0.51100000000E-03 0.  1.
    9900012    2    1    2    0    0  0.14221423708E+02  0.44247686433E+01 -0.37833036081E+02  0.50528854794E+02  0.29999984631E+02 0.  0.
         12    1    1    2    0    0 -0.14221423708E+02 -0.44247686433E+01  0.37833036081E+02  0.40659145206E+02  0.00000000000E+00 0. -1.
         11    1    3    3    0    0 -0.31640371618E+01  0.74211956890E+01 -0.38233823317E+00  0.80765994949E+01  0.51100000000E-03 0. -1.
        -11    1    3    3    0    0  0.53261546557E+01 -0.90508808874E+00 -0.36925453194E+01  0.65438520048E+01  0.51100000000E-03 0.  1.
         12    1    3    3    0    0  0.12059306214E+02 -0.20913389570E+01 -0.33758152528E+02  0.35908403294E+02  0.00000000000E+00 0. -1.
</event>
<event>
 7    1  0.5910662E-013  0.5052886E+02  0.7816164E-02  0.1300439E+00
        -11   -1    0    0    0    0  0.00000000000E+00  0.00000000000E+00  0.45593999997E+02  0.45594000000E+02  0.51100000000E-03 0.  1.
         11   -1    0    0    0    0 -0.00000000000E+00 -0.00000000000E+00 -0.45593999997E+02  0.45594000000E+02  0.51100000000E-03 0. -1.
    9900012    2    1    2    0    0 -0.34671454409E+02 -0.36212626618E+01  0.20927077262E+02  0.50528857647E+02  0.29999993305E+02 0.  0.
         12    1    1    2    0    0  0.34671454409E+02  0.36212626618E+01 -0.20927077262E+02  0.40659142353E+02  0.00000000000E+00 0. -1.
         11    1    3    3    0    0 -0.16280599302E+02  0.65056908186E+01  0.19817755471E+02  0.26459882063E+02  0.51100000000E-03 0. -1.
        -11    1    3    3    0    0 -0.17483397850E+02 -0.62839789301E+01  0.42087481232E+01  0.19049177216E+02  0.51100000000E-03 0.  1.
         12    1    3    3    0    0 -0.90745725810E+00 -0.38429745503E+01 -0.30994263325E+01  0.50197983685E+01  0.00000000000E+00 0. -1.
</event>
<event>
 7    1  0.5910662E-013  0.5052886E+02  0.7816164E-02  0.1300439E+00
        -11   -1    0    0    0    0  0.00000000000E+00  0.00000000000E+00  0.45593999997E+02  0.45594000000E+02  0.51100000000E-03 0. -1.
         11   -1    0    0    0    0 -0.00000000000E+00 -0.00000000000E+00 -0.45593999997E+02  0.45594000000E+02  0.51100000000E-03 0.  1.
    9900012    2    1    2    0    0 -0.27015540157E+02  0.16552867650E+02  0.25481936176E+02  0.50528857010E+02  0.29999991368E+02 0.  0.
         12    1    1    2    0    0  0.27015540157E+02 -0.16552867650E+02 -0.25481936176E+02  0.40659142990E+02  0.00000000000E+00 0. -1.
         11    1    3    3    0    0 -0.80151492617E+01  0.10650379075E+02  0.13838094046E+02  0.19213694055E+02  0.51100000000E-03 0. -1.
        -11    1    3    3    0    0 -0.54294158930E+01 -0.52859021216E+01 -0.32718424655E+01  0.82537428818E+01  0.51100000000E-03 0.  1.
        -12    1    3    3    0    0 -0.13570975002E+02  0.11188390696E+02  0.14915684595E+02  0.23061420074E+02  0.00000000000E+00 0.  1.
</event>
<event>
 7    1  0.5910662E-013  0.5052886E+02  0.7816164E-02  0.1300439E+00
        -11   -1    0    0    0    0  0.00000000000E+00  0.00000000000E+00  0.45593999997E+02  0.45594000000E+02  0.51100000000E-03 0.  1.
         11   -1    0    0    0    0 -0.00000000000E+00 -0.00000000000E+00 -0.45593999997E+02  0.45594000000E+02  0.51100000000E-03 0. -1.
    9900012    2    1    2    0    0  0.16340201012E+02 -0.69317387178E+01  0.36580247212E+02  0.50528860107E+02  0.30000000782E+02 0.  0.
         12    1    1    2    0    0 -0.16340201012E+02  0.69317387178E+01 -0.36580247212E+02  0.40659139893E+02  0.00000000000E+00 0. -1.
         11    1    3    3    0    0  0.18675662702E+02 -0.52841372685E+01  0.27345683867E+02  0.33533399924E+02  0.51100000000E-03 0. -1.
        -11    1    3    3    0    0  0.62710263005E+00  0.54828045874E+01  0.70846980300E+01  0.89803869789E+01  0.51100000000E-03 0.  1.
         12    1    3    3    0    0 -0.29625643205E+01 -0.71304060368E+01  0.21498653150E+01  0.80150732046E+01  0.00000000000E+00 0. -1.
</event>
<event>
 7    1  0.5910662E-013  0.5052886E+02  0.7816164E-02  0.1300439E+00
        -11   -1    0    0    0    0  0.00000000000E+00  0.00000000000E+00  0.45593999997E+02  0.45594000000E+02  0.51100000000E-03 0. -1.
         11   -1    0    0    0    0 -0.00000000000E+00 -0.00000000000E+00 -0.45593999997E+02  0.45594000000E+02  0.51100000000E-03 0.  1.
    9900012    2    1    2    0    0 -0.37585928996E+02 -0.14908154978E+02 -0.42674224822E+01  0.50528855420E+02  0.29999986535E+02 0.  0.
         12    1    1    2    0    0  0.37585928996E+02  0.14908154978E+02  0.42674224822E+01  0.40659144580E+02  0.00000000000E+00 0. -1.
         11    1    3    3    0    0 -0.20449399314E+02 -0.17360175762E+01  0.75859739664E+01  0.21880098048E+02  0.51100000000E-03 0. -1.
        -11    1    3    3    0    0 -0.17830769170E+02 -0.13236868559E+02 -0.63439742090E+01  0.23095389745E+02  0.51100000000E-03 0.  1.
         12    1    3    3    0    0  0.69423948750E+00  0.64731157502E-01 -0.55094222396E+01  0.55533676272E+01  0.00000000000E+00 0. -1.
</event>
<event>
 7    1  0.5910662E-013  0.5052886E+02  0.7816164E-02  0.1300439E+00
        -11   -1    0    0    0    0  0.00000000000E+00  0.00000000000E+00  0.45593999997E+02  0.45594000000E+02  0.51100000000E-03 0.  1.
         11   -1    0    0    0    0 -0.00000000000E+00 -0.00000000000E+00 -0.45593999997E+02  0.45594000000E+02  0.51100000000E-03 0. -1.
    9900012    2    1    2    0    0  0.22536614302E+01 -0.34878948137E+02  0.20773670040E+02  0.50528863513E+02  0.30000011133E+02 0.  0.
         12    1    1    2    0    0 -0.22536614302E+01  0.34878948137E+02 -0.20773670040E+02  0.40659136487E+02  0.00000000000E+00 0. -1.
         11    1    3    3    0    0  0.72008802668E+01 -0.95260414654E+00 -0.50675980511E+00  0.72812730369E+01  0.51100000000E-03 0. -1.
        -11    1    3    3    0    0 -0.83516099247E+01 -0.22332552317E+02  0.76678629830E+01  0.25045726269E+02  0.51100000000E-03 0.  1.
        -12    1    3    3    0    0  0.34043910882E+01 -0.11593791673E+02  0.13612566862E+02  0.18201864207E+02  0.00000000000E+00 0.  1.
</event>
<event>
 7    1  0.5910662E-013  0.5052886E+02  0.7816164E-02  0.1300439E+00
        -11   -1    0    0    0    0  0.00000000000E+00  0.00000000000E+00  0.45593999997E+02  0.45594000000E+02  0.51100000000E-03 0.  1.
         11   -1    0    0    0    0 -0.00000000000E+00 -0.00000000000E+00 -0.45593999997E+02  0.45594000000E+02  0.51100000000E-03 0. -1.
    9900012    2    1    2    0    0 -0.22623202802E+02  0.17372440217E+01  0.33739267329E+02  0.50528862260E+02  0.30000007326E+02 0.  0.
         12    1    1    2    0    0  0.22623202802E+02 -0.17372440217E+01 -0.33739267329E+02  0.40659137740E+02  0.00000000000E+00 0. -1.
         11    1    3    3    0    0 -0.12860666476E+02  0.13420850689E+02  0.10608159574E+02  0.21402079928E+02  0.51100000000E-03 0. -1.
        -11    1    3    3    0    0 -0.88044836316E+01 -0.35500754515E+01  0.11764044990E+02  0.15116703428E+02  0.51100000000E-03 0.  1.
         12    1    3    3    0    0 -0.95805269456E+00 -0.81335312160E+01  0.11367062765E+02  0.14010078905E+02  0.00000000000E+00 0. -1.
</event>
<event>
 7    1  0.5910662E-013  0.5052888E+02  0.7816164E-02  0.1300439E+00
        -11   -1    0    0    0    0  0.00000000000E+00  0.00000000000E+00  0.45593999997E+02  0.45594000000E+02  0.51100000000E-03 0.  1.
         11   -1    0    0    0    0 -0.00000000000E+00 -0.00000000000E+00 -0.45593999997E+02  0.45594000000E+02  0.51100000000E-03 0. -1.
    9900012    2    1    2    0    0 -0.10180061820E+02  0.22014691181E+02  0.32632555352E+02  0.50528881032E+02  0.30000064385E+02 0.  0.
         12    1    1    2    0    0  0.10180061820E+02 -0.22014691181E+02 -0.32632555352E+02  0.40659118968E+02  0.00000000000E+00 0. -1.
         11    1    3    3    0    0  0.15463345001E+01  0.14723362683E+01  0.19811673749E+02  0.19926398106E+02  0.51100000000E-03 0. -1.
        -11    1    3    3    0    0 -0.11469567496E+02  0.17928390054E+02  0.15891624503E+02  0.26561661809E+02  0.51100000000E-03 0.  1.
         12    1    3    3    0    0 -0.25682882391E+00  0.26139648593E+01 -0.30707429010E+01  0.40408211163E+01  0.00000000000E+00 0. -1.
</event>
<event>
 7    1  0.5910662E-013  0.5052892E+02  0.7816164E-02  0.1300439E+00
        -11   -1    0    0    0    0  0.00000000000E+00  0.00000000000E+00  0.45593999997E+02  0.45594000000E+02  0.51100000000E-03 0.  1.
         11   -1    0    0    0    0 -0.00000000000E+00 -0.00000000000E+00 -0.45593999997E+02  0.45594000000E+02  0.51100000000E-03 0. -1.
    9900012    2    1    2    0    0  0.19566468778E+01 -0.39052064630E+01  0.40423772060E+02  0.50528924112E+02  0.30000195330E+02 0.  0.
         12    1    1    2    0    0 -0.19566468778E+01  0.39052064630E+01 -0.40423772060E+02  0.40659075888E+02  0.00000000000E+00 0. -1.
         11    1    3    3    0    0 -0.58582385001E+01 -0.34270166351E+01  0.58394354447E+01  0.89533461854E+01  0.51100000000E-03 0. -1.
        -11    1    3    3    0    0  0.11659284249E+02 -0.64142302881E+01  0.12031412588E+02  0.17939792321E+02  0.51100000000E-03 0.  1.
        -12    1    3    3    0    0 -0.38443988713E+01  0.59360404602E+01  0.22552924027E+02  0.23635785606E+02  0.00000000000E+00 0.  1.
</event>
<event>
 7    1  0.5910662E-013  0.5052885E+02  0.7816164E-02  0.1300439E+00
        -11   -1    0    0    0    0  0.00000000000E+00  0.00000000000E+00  0.45593999997E+02  0.45594000000E+02  0.51100000000E-03 0.  1.
         11   -1    0    0    0    0 -0.00000000000E+00 -0.00000000000E+00 -0.45593999997E+02  0.45594000000E+02  0.51100000000E-03 0. -1.
    9900012    2    1    2    0    0  0.33702034465E+02  0.56265980387E+01  0.22038172585E+02  0.50528846252E+02  0.29999958668E+02 0.  0.
         12    1    1    2    0    0 -0.33702034465E+02 -0.56265980387E+01 -0.22038172585E+02  0.40659153748E+02  0.00000000000E+00 0. -1.
         11    1    3    3    0    0  0.98055167175E+01  0.98207488928E+01 -0.22417690886E+01  0.14057766388E+02  0.51100000000E-03 0. -1.
        -11    1    3    3    0    0  0.82744276930E+01  0.40015412224E+01  0.11316705655E+02  0.14578968171E+02  0.51100000000E-03 0.  1.
         12    1    3    3    0    0  0.15622090055E+02 -0.81956920765E+01  0.12963236019E+02  0.21892111693E+02  0.00000000000E+00 0. -1.
</event>
<event>
 7    1  0.5910662E-013  0.5052886E+02  0.7816164E-02  0.1300439E+00
        -11   -1    0    0    0    0  0.00000000000E+00  0.00000000000E+00  0.45593999997E+02  0.45594000000E+02  0.51100000000E-03 0.  1.
         11   -1    0    0    0    0 -0.00000000000E+00 -0.00000000000E+00 -0.45593999997E+02  0.45594000000E+02  0.51100000000E-03 0. -1.
    9900012    2    1    2    0    0 -0.39571654221E+02 -0.90692945309E+01 -0.22355747845E+01  0.50528859383E+02  0.29999998581E+02 0.  0.
         12    1    1    2    0    0  0.39571654221E+02  0.90692945309E+01  0.22355747845E+01  0.40659140617E+02  0.00000000000E+00 0. -1.
         11    1    3    3    0    0 -0.27902505671E+02 -0.27691900632E+01  0.63335008851E+01  0.28745981807E+02  0.51100000000E-03 0.  1.
        -11    1    3    3    0    0 -0.34675740569E+00  0.41375931903E+01  0.15867158987E-01  0.41521283861E+01  0.51100000000E-03 0. -1.
         12    1    3    3    0    0 -0.11322391145E+02 -0.10437697658E+02 -0.85849428286E+01  0.17630749190E+02  0.00000000000E+00 0. -1.
</event>
<event>
 7    1  0.5910662E-013  0.5052887E+02  0.7816164E-02  0.1300439E+00
        -11   -1    0    0    0    0  0.00000000000E+00  0.00000000000E+00  0.45593999997E+02  0.45594000000E+02  0.51100000000E-03 0. -1.
         11   -1    0    0    0    0 -0.00000000000E+00 -0.00000000000E+00 -0.45593999997E+02  0.45594000000E+02  0.51100000000E-03 0.  1.
    9900012    2    1    2    0    0  0.44334678598E+01 -0.24194446175E+02 -0.32374961065E+02  0.50528868591E+02  0.30000026568E+02 0.  0.
         12    1    1    2    0    0 -0.44334678598E+01  0.24194446175E+02  0.32374961065E+02  0.40659131409E+02  0.00000000000E+00 0. -1.
         11    1    3    3    0    0  0.31140796331E+01  0.32742661558E+01  0.20435980183E+01  0.49592947021E+01  0.51100000000E-03 0. -1.
        -11    1    3    3    0    0  0.11950659519E+01 -0.44451330901E+01 -0.14202899225E+02  0.14930162005E+02  0.51100000000E-03 0.  1.
         12    1    3    3    0    0  0.12432227476E+00 -0.23023579241E+02 -0.20215659858E+02  0.30639411884E+02  0.00000000000E+00 0. -1.
</event>
<event>
 7    1  0.5910662E-013  0.5052885E+02  0.7816164E-02  0.1300439E+00
        -11   -1    0    0    0    0  0.00000000000E+00  0.00000000000E+00  0.45593999997E+02  0.45594000000E+02  0.51100000000E-03 0.  1.
         11   -1    0    0    0    0 -0.00000000000E+00 -0.00000000000E+00 -0.45593999997E+02  0.45594000000E+02  0.51100000000E-03 0. -1.
    9900012    2    1    2    0    0 -0.22491976200E+02 -0.23855204944E+02  0.24045925326E+02  0.50528851939E+02  0.29999975953E+02 0.  0.
         12    1    1    2    0    0  0.22491976200E+02  0.23855204944E+02 -0.24045925326E+02  0.40659148061E+02  0.00000000000E+00 0. -1.
         11    1    3    3    0    0 -0.12027570662E+02  0.32669183240E+01  0.14573596274E+01  0.12548271144E+02  0.51100000000E-03 0. -1.
        -11    1    3    3    0    0 -0.10451898348E+02 -0.23007980613E+02  0.22545728836E+02  0.33866196125E+02  0.51100000000E-03 0.  1.
        -12    1    3    3    0    0 -0.12507190098E-01 -0.41141426551E+01  0.42836862479E-01  0.41143846700E+01  0.00000000000E+00 0.  1.
</event>
<event>
 7    1  0.5910662E-013  0.5052886E+02  0.7816164E-02  0.1300439E+00
        -11   -1    0    0    0    0  0.00000000000E+00  0.00000000000E+00  0.45593999997E+02  0.45594000000E+02  0.51100000000E-03 0.  1.
         11   -1    0    0    0    0 -0.00000000000E+00 -0.00000000000E+00 -0.45593999997E+02  0.45594000000E+02  0.51100000000E-03 0. -1.
    9900012    2    1    2    0    0  0.81041235813E+01  0.24269253131E+01  0.39769316578E+02  0.50528864168E+02  0.30000013126E+02 0.  0.
         12    1    1    2    0    0 -0.81041235813E+01 -0.24269253131E+01 -0.39769316578E+02  0.40659135832E+02  0.00000000000E+00 0. -1.
         11    1    3    3    0    0  0.73871871297E+01 -0.44976839402E+01  0.17433522638E+02  0.19460919977E+02  0.51100000000E-03 0.  1.
        -11    1    3    3    0    0  0.33221740827E+01  0.11489804184E+02  0.50187380414E+01  0.12970742947E+02  0.51100000000E-03 0. -1.
        -12    1    3    3    0    0 -0.26052376311E+01 -0.45651949305E+01  0.17317055899E+02  0.18097201244E+02  0.00000000000E+00 0.  1.
</event>
<event>
 7    1  0.5910662E-013  0.5052886E+02  0.7816164E-02  0.1300439E+00
        -11   -1    0    0    0    0  0.00000000000E+00  0.00000000000E+00  0.45593999997E+02  0.45594000000E+02  0.51100000000E-03 0.  1.
         11   -1    0    0    0    0 -0.00000000000E+00 -0.00000000000E+00 -0.45593999997E+02  0.45594000000E+02  0.51100000000E-03 0. -1.
    9900012    2    1    2    0    0 -0.29284753251E+02 -0.26294541403E+02  0.10206159177E+02  0.50528863687E+02  0.30000011663E+02 0.  0.
         12    1    1    2    0    0  0.29284753251E+02  0.26294541403E+02 -0.10206159177E+02  0.40659136313E+02  0.00000000000E+00 0. -1.
         11    1    3    3    0    0 -0.19265391315E+02 -0.19185459011E+02  0.43657073591E+01  0.27537184696E+02  0.51100000000E-03 0. -1.
        -11    1    3    3    0    0  0.52227297385E+01 -0.41779884573E+01  0.22900592279E+01  0.70694317310E+01  0.51100000000E-03 0.  1.
        -12    1    3    3    0    0 -0.15242091674E+02 -0.29310939354E+01  0.35503925899E+01  0.15922247260E+02  0.00000000000E+00 0.  1.
</event>
<event>
 7    1  0.5910662E-013  0.5052886E+02  0.7816164E-02  0.1300439E+00
        -11   -1    0    0    0    0  0.00000000000E+00  0.00000000000E+00  0.45593999997E+02  0.45594000000E+02  0.51100000000E-03 0.  1.
         11   -1    0    0    0    0 -0.00000000000E+00 -0.00000000000E+00 -0.45593999997E+02  0.45594000000E+02  0.51100000000E-03 0. -1.
    9900012    2    1    2    0    0  0.94725477812E+01 -0.34101851255E+02  0.20012495527E+02  0.50528863293E+02  0.30000010467E+02 0.  0.
         12    1    1    2    0    0 -0.94725477812E+01  0.34101851255E+02 -0.20012495527E+02  0.40659136707E+02  0.00000000000E+00 0. -1.
         11    1    3    3    0    0  0.14342466044E+02 -0.12765991512E+02  0.19983457992E+02  0.27713091944E+02  0.51100000000E-03 0. -1.
        -11    1    3    3    0    0  0.18813606763E+00 -0.10458574366E+02  0.20266310878E+01  0.10654783281E+02  0.51100000000E-03 0.  1.
         12    1    3    3    0    0 -0.50580543303E+01 -0.10877285378E+02 -0.19975935530E+01  0.12160988069E+02  0.00000000000E+00 0. -1.
</event>
<event>
 7    1  0.5910662E-013  0.5052886E+02  0.7816164E-02  0.1300439E+00
        -11   -1    0    0    0    0  0.00000000000E+00  0.00000000000E+00  0.45593999997E+02  0.45594000000E+02  0.51100000000E-03 0. -1.
         11   -1    0    0    0    0 -0.00000000000E+00 -0.00000000000E+00 -0.45593999997E+02  0.45594000000E+02  0.51100000000E-03 0.  1.
    9900012    2    1    2    0    0 -0.31054717669E+02  0.24681493760E+02 -0.89215505019E+01  0.50528859735E+02  0.29999999650E+02 0.  0.
         12    1    1    2    0    0  0.31054717669E+02 -0.24681493760E+02  0.89215505019E+01  0.40659140265E+02  0.00000000000E+00 0. -1.
         11    1    3    3    0    0  0.17991963886E+01  0.90563826354E+00 -0.28880531326E+01  0.35210991845E+01  0.51100000000E-03 0. -1.
        -11    1    3    3    0    0 -0.16598651601E+02  0.19913779595E+02  0.57604742531E+01  0.26556673674E+02  0.51100000000E-03 0.  1.
        -12    1    3    3    0    0 -0.16255262457E+02  0.38620759016E+01 -0.11793971622E+02  0.20451086877E+02  0.00000000000E+00 0.  1.
</event>
<event>
 7    1  0.5910662E-013  0.5052885E+02  0.7816164E-02  0.1300439E+00
        -11   -1    0    0    0    0  0.00000000000E+00  0.00000000000E+00  0.45593999997E+02  0.45594000000E+02  0.51100000000E-03 0.  1.
         11   -1    0    0    0    0 -0.00000000000E+00 -0.00000000000E+00 -0.45593999997E+02  0.45594000000E+02  0.51100000000E-03 0. -1.
    9900012    2    1    2    0    0  0.37675137591E+02 -0.10913739698E+02  0.10707054199E+02  0.50528847079E+02  0.29999961180E+02 0.  0.
         12    1    1    2    0    0 -0.37675137591E+02  0.10913739698E+02 -0.10707054199E+02  0.40659152921E+02  0.00000000000E+00 0. -1.
         11    1    3    3    0    0  0.76232689582E+01  0.60149978605E+01 -0.65844224824E+01  0.11732393130E+02  0.51100000000E-03 0. -1.
        -11    1    3    3    0    0  0.19803487969E+02 -0.13238671967E+02  0.11308209781E+02  0.26368848664E+02  0.51100000000E-03 0.  1.
        -12    1    3    3    0    0  0.10248380664E+02 -0.36900655916E+01  0.59832669006E+01  0.12427605284E+02  0.00000000000E+00 0.  1.
</event>
<event>
 7    1  0.5910662E-013  0.5052887E+02  0.7816164E-02  0.1300439E+00
        -11   -1    0    0    0    0  0.00000000000E+00  0.00000000000E+00  0.45593999997E+02  0.45594000000E+02  0.51100000000E-03 0.  1.
         11   -1    0    0    0    0 -0.00000000000E+00 -0.00000000000E+00 -0.45593999997E+02  0.45594000000E+02  0.51100000000E-03 0. -1.
    9900012    2    1    2    0    0  0.36907416827E+01 -0.36166023672E+01  0.40329440622E+02  0.50528866122E+02  0.30000019063E+02 0.  0.
         12    1    1    2    0    0 -0.36907416827E+01  0.36166023672E+01 -0.40329440622E+02  0.40659133878E+02  0.00000000000E+00 0. -1.
         11    1    3    3    0    0  0.83707237490E+00 -0.11351631530E+00 -0.39481533030E+01  0.40375104804E+01  0.51100000000E-03 0. -1.
        -11    1    3    3    0    0  0.24897545832E+01  0.31939565242E+01  0.33861054660E+02  0.34102364421E+02  0.51100000000E-03 0.  1.
        -12    1    3    3    0    0  0.36391472467E+00 -0.66970425761E+01  0.10416539265E+02  0.12388991220E+02  0.00000000000E+00 0.  1.
</event>
<event>
 7    1  0.5910662E-013  0.5052886E+02  0.7816164E-02  0.1300439E+00
        -11   -1    0    0    0    0  0.00000000000E+00  0.00000000000E+00  0.45593999997E+02  0.45594000000E+02  0.51100000000E-03 0.  1.
         11   -1    0    0    0    0 -0.00000000000E+00 -0.00000000000E+00 -0.45593999997E+02  0.45594000000E+02  0.51100000000E-03 0. -1.
    9900012    2    1    2    0    0  0.35758245547E+01  0.12509901058E+02  0.38521181315E+02  0.50528861352E+02  0.30000004566E+02 0.  0.
         12    1    1    2    0    0 -0.35758245547E+01 -0.12509901058E+02 -0.38521181315E+02  0.40659138648E+02  0.00000000000E+00 0. -1.
         11    1    3    3    0    0 -0.34234653550E+01 -0.54246761242E+01  0.23058652680E+01  0.68164683660E+01  0.51100000000E-03 0. -1.
        -11    1    3    3    0    0  0.11722358632E+02  0.13700892702E+02  0.28492884658E+02  0.33719024736E+02  0.51100000000E-03 0.  1.
        -12    1    3    3    0    0 -0.47230687226E+01  0.42336844799E+01  0.77224313885E+01  0.99933682502E+01  0.00000000000E+00 0.  1.
</event>
<event>
 7    1  0.5910662E-013  0.5052887E+02  0.7816164E-02  0.1300439E+00
        -11   -1    0    0    0    0  0.00000000000E+00  0.00000000000E+00  0.45593999997E+02  0.45594000000E+02  0.51100000000E-03 0. -1.
         11   -1    0    0    0    0 -0.00000000000E+00 -0.00000000000E+00 -0.45593999997E+02  0.45594000000E+02  0.51100000000E-03 0.  1.
    9900012    2    1    2    0    0  0.52906640263E+01  0.23698299800E+02 -0.32612334275E+02  0.50528869585E+02  0.30000029591E+02 0.  0.
         12    1    1    2    0    0 -0.52906640263E+01 -0.23698299800E+02  0.32612334275E+02  0.40659130415E+02  0.00000000000E+00 0. -1.
         11    1    3    3    0    0 -0.24837590766E+01  0.76450365971E+01 -0.12409615153E+01  0.81336110963E+01  0.51100000000E-03 0. -1.
        -11    1    3    3    0    0  0.16319856601E+01 -0.20072233102E+01 -0.20041866912E+02  0.20208135792E+02  0.51100000000E-03 0.  1.
        -12    1    3    3    0    0  0.61424374428E+01  0.18060486513E+02 -0.11329505848E+02  0.22187122697E+02  0.00000000000E+00 0.  1.
</event>
<event>
 7    1  0.5910662E-013  0.5052887E+02  0.7816164E-02  0.1300439E+00
        -11   -1    0    0    0    0  0.00000000000E+00  0.00000000000E+00  0.45593999997E+02  0.45594000000E+02  0.51100000000E-03 0.  1.
         11   -1    0    0    0    0 -0.00000000000E+00 -0.00000000000E+00 -0.45593999997E+02  0.45594000000E+02  0.51100000000E-03 0. -1.
    9900012    2    1    2    0    0 -0.33610395717E+02 -0.18957514971E+02  0.12810871452E+02  0.50528874315E+02  0.30000043967E+02 0.  0.
         12    1    1    2    0    0  0.33610395717E+02  0.18957514971E+02 -0.12810871452E+02  0.40659125685E+02  0.00000000000E+00 0. -1.
         11    1    3    3    0    0 -0.53544819762E+01  0.49954552732E+01 -0.53132302026E+01  0.90474010670E+01  0.51100000000E-03 0. -1.
        -11    1    3    3    0    0 -0.13871752284E+02 -0.12628584585E+02  0.67915290584E+01  0.19950727487E+02  0.51100000000E-03 0.  1.
         12    1    3    3    0    0 -0.14384161457E+02 -0.11324385659E+02  0.11332572596E+02  0.21530745761E+02  0.00000000000E+00 0. -1.
</event>
<event>
 7    1  0.5910662E-013  0.5052886E+02  0.7816164E-02  0.1300439E+00
        -11   -1    0    0    0    0  0.00000000000E+00  0.00000000000E+00  0.45593999997E+02  0.45594000000E+02  0.51100000000E-03 0.  1.
         11   -1    0    0    0    0 -0.00000000000E+00 -0.00000000000E+00 -0.45593999997E+02  0.45594000000E+02  0.51100000000E-03 0. -1.
    9900012    2    1    2    0    0  0.17025777998E+02 -0.34555157850E+02  0.13008826573E+02  0.50528860568E+02  0.30000002184E+02 0.  0.
         12    1    1    2    0    0 -0.17025777998E+02  0.34555157850E+02 -0.13008826573E+02  0.40659139432E+02  0.00000000000E+00 0. -1.
         11    1    3    3    0    0  0.16912833977E+01 -0.12096947779E+02  0.80846495931E+01  0.14647803399E+02  0.51100000000E-03 0. -1.
        -11    1    3    3    0    0  0.13483962551E+02 -0.57594208634E+00  0.67329166580E+00  0.13513041009E+02  0.51100000000E-03 0.  1.
        -12    1    3    3    0    0  0.18505320492E+01 -0.21882267985E+02  0.42508853146E+01  0.22368016161E+02  0.00000000000E+00 0.  1.
</event>
<event>
 7    1  0.5910662E-013  0.5052886E+02  0.7816164E-02  0.1300439E+00
        -11   -1    0    0    0    0  0.00000000000E+00  0.00000000000E+00  0.45593999997E+02  0.45594000000E+02  0.51100000000E-03 0.  1.
         11   -1    0    0    0    0 -0.00000000000E+00 -0.00000000000E+00 -0.45593999997E+02  0.45594000000E+02  0.51100000000E-03 0. -1.
    9900012    2    1    2    0    0 -0.38109016602E+02  0.14119557852E+02 -0.12273692071E+01  0.50528862091E+02  0.30000006813E+02 0.  0.
         12    1    1    2    0    0  0.38109016602E+02 -0.14119557852E+02  0.12273692071E+01  0.40659137909E+02  0.00000000000E+00 0. -1.
         11    1    3    3    0    0 -0.36028595965E+02  0.63458677269E+01  0.15262732435E+01  0.36615014334E+02  0.51100000000E-03 0. -1.
        -11    1    3    3    0    0  0.34998187056E+01 -0.44797605405E+00 -0.17152383883E+01  0.39231946813E+01  0.51100000000E-03 0.  1.
         12    1    3    3    0    0 -0.55802393421E+01  0.82216661796E+01 -0.10384040623E+01  0.99906530758E+01  0.00000000000E+00 0. -1.
</event>
<event>
 7    1  0.5910662E-013  0.5052886E+02  0.7816164E-02  0.1300439E+00
        -11   -1    0    0    0    0  0.00000000000E+00  0.00000000000E+00  0.45593999997E+02  0.45594000000E+02  0.51100000000E-03 0.  1.
         11   -1    0    0    0    0 -0.00000000000E+00 -0.00000000000E+00 -0.45593999997E+02  0.45594000000E+02  0.51100000000E-03 0. -1.
    9900012    2    1    2    0    0 -0.14532839572E+02  0.27664251756E+02  0.26012526810E+02  0.50528858318E+02  0.29999995343E+02 0.  0.
         12    1    1    2    0    0  0.14532839572E+02 -0.27664251756E+02 -0.26012526810E+02  0.40659141682E+02  0.00000000000E+00 0. -1.
         11    1    3    3    0    0  0.38095895578E+01 -0.22368483410E+01  0.20763762763E+01  0.48813729423E+01  0.51100000000E-03 0. -1.
        -11    1    3    3    0    0 -0.69851608365E+01  0.24768502901E+02  0.19951675098E+02  0.32562870686E+02  0.51100000000E-03 0.  1.
        -12    1    3    3    0    0 -0.11357268293E+02  0.51325971967E+01  0.39844754359E+01  0.13084614689E+02  0.00000000000E+00 0.  1.
</event>
<event>
 7    1  0.5910662E-013  0.5052884E+02  0.7816164E-02  0.1300439E+00
        -11   -1    0    0    0    0  0.00000000000E+00  0.00000000000E+00  0.45593999997E+02  0.45594000000E+02  0.51100000000E-03 0. -1.
         11   -1    0    0    0    0 -0.00000000000E+00 -0.00000000000E+00 -0.45593999997E+02  0.45594000000E+02  0.51100000000E-03 0.  1.
    9900012    2    1    2    0    0 -0.31910044675E+01  0.36736133597E+00 -0.40532079790E+02  0.50528844132E+02  0.29999952222E+02 0.  0.
         12    1    1    2    0    0  0.31910044675E+01 -0.36736133597E+00  0.40532079790E+02  0.40659155868E+02  0.00000000000E+00 0. -1.
         11    1    3    3    0    0 -0.92063128642E+01 -0.11939855521E+02 -0.17072709466E+02  0.22777044479E+02  0.51100000000E-03 0. -1.
        -11    1    3    3    0    0  0.14256542842E+01  0.84239300014E+01 -0.11095993450E+02  0.14004147875E+02  0.51100000000E-03 0.  1.
         12    1    3    3    0    0  0.45896541126E+01  0.38832868558E+01 -0.12363376874E+02  0.13747651778E+02  0.00000000000E+00 0. -1.
</event>
<event>
 7    1  0.5910662E-013  0.5052883E+02  0.7816164E-02  0.1300439E+00
        -11   -1    0    0    0    0  0.00000000000E+00  0.00000000000E+00  0.45593999997E+02  0.45594000000E+02  0.51100000000E-03 0.  1.
         11   -1    0    0    0    0 -0.00000000000E+00 -0.00000000000E+00 -0.45593999997E+02  0.45594000000E+02  0.51100000000E-03 0. -1.
    9900012    2    1    2    0    0 -0.40536665467E+01 -0.23113629384E+02  0.33203854925E+02  0.50528830583E+02  0.29999911041E+02 0.  0.
         12    1    1    2    0    0  0.40536665467E+01  0.23113629384E+02 -0.33203854925E+02  0.40659169417E+02  0.00000000000E+00 0. -1.
         11    1    3    3    0    0  0.66341724518E+01 -0.12180194106E+02  0.82782561332E+01  0.16152365073E+02  0.51100000000E-03 0. -1.
        -11    1    3    3    0    0 -0.77702776051E+01 -0.26100904119E+01  0.24172506212E+02  0.25524494957E+02  0.51100000000E-03 0.  1.
         12    1    3    3    0    0 -0.29175613935E+01 -0.83233448657E+01  0.75309258030E+00  0.88519705531E+01  0.00000000000E+00 0. -1.
</event>
<event>
 7    1  0.5910662E-013  0.5052885E+02  0.7816164E-02  0.1300439E+00
        -11   -1    0    0    0    0  0.00000000000E+00  0.00000000000E+00  0.45593999997E+02  0.45594000000E+02  0.51100000000E-03 0.  1.
         11   -1    0    0    0    0 -0.00000000000E+00 -0.00000000000E+00 -0.45593999997E+02  0.45594000000E+02  0.51100000000E-03 0. -1.
    9900012    2    1    2    0    0 -0.16789077068E+02 -0.36948434505E+02 -0.24712048651E+01  0.50528846361E+02  0.29999958999E+02 0.  0.
         12    1    1    2    0    0  0.16789077068E+02  0.36948434505E+02  0.24712048651E+01  0.40659153639E+02  0.00000000000E+00 0. -1.
         11    1    3    3    0    0 -0.73274191293E+01 -0.16678635818E+01 -0.19917130300E+01  0.77743013241E+01  0.51100000000E-03 0. -1.
        -11    1    3    3    0    0 -0.48095953911E+01 -0.37172714797E+02  0.10729839440E+01  0.37497922982E+02  0.51100000000E-03 0.  1.
        -12    1    3    3    0    0 -0.46520625471E+01  0.18921438732E+01 -0.15524757792E+01  0.52566220545E+01  0.00000000000E+00 0.  1.
</event>
<event>
 7    1  0.5910662E-013  0.5052887E+02  0.7816164E-02  0.1300439E+00
        -11   -1    0    0    0    0  0.00000000000E+00  0.00000000000E+00  0.45593999997E+02  0.45594000000E+02  0.51100000000E-03 0. -1.
         11   -1    0    0    0    0 -0.00000000000E+00 -0.00000000000E+00 -0.45593999997E+02  0.45594000000E+02  0.51100000000E-03 0.  1.
    9900012    2    1    2    0    0  0.28376697547E+02  0.25235823580E+02 -0.14528640139E+02  0.50528866466E+02  0.30000020111E+02 0.  0.
         12    1    1    2    0    0 -0.28376697547E+02 -0.25235823580E+02  0.14528640139E+02  0.40659133534E+02  0.00000000000E+00 0. -1.
         11    1    3    3    0    0  0.18679681987E+01  0.20838779681E+02 -0.29134495731E+01  0.21124209630E+02  0.51100000000E-03 0. -1.
        -11    1    3    3    0    0  0.63342774332E+01  0.11819429844E+00 -0.19480364682E+01  0.66281133692E+01  0.51100000000E-03 0.  1.
         12    1    3    3    0    0  0.20174451915E+02  0.42788495999E+01 -0.96671540981E+01  0.22776543467E+02  0.00000000000E+00 0. -1.
</event>
<event>
 7    1  0.5910662E-013  0.5052886E+02  0.7816164E-02  0.1300439E+00
        -11   -1    0    0    0    0  0.00000000000E+00  0.00000000000E+00  0.45593999997E+02  0.45594000000E+02  0.51100000000E-03 0.  1.
         11   -1    0    0    0    0 -0.00000000000E+00 -0.00000000000E+00 -0.45593999997E+02  0.45594000000E+02  0.51100000000E-03 0. -1.
    9900012    2    1    2    0    0  0.34596245290E+02  0.63180212786E+01  0.20404605157E+02  0.50528862126E+02  0.30000006919E+02 0.  0.
         12    1    1    2    0    0 -0.34596245290E+02 -0.63180212786E+01 -0.20404605157E+02  0.40659137874E+02  0.00000000000E+00 0. -1.
         11    1    3    3    0    0  0.22051942738E+02  0.66205260700E+01 -0.22843728206E+01  0.23137370279E+02  0.51100000000E-03 0. -1.
        -11    1    3    3    0    0  0.59450808282E+01 -0.37220642504E+01  0.15671468979E+02  0.17169527907E+02  0.51100000000E-03 0.  1.
        -12    1    3    3    0    0  0.65992217230E+01  0.34195594591E+01  0.70175089992E+01  0.10221963940E+02  0.00000000000E+00 0.  1.
</event>
<event>
 7    1  0.5910662E-013  0.5052886E+02  0.7816164E-02  0.1300439E+00
        -11   -1    0    0    0    0  0.00000000000E+00  0.00000000000E+00  0.45593999997E+02  0.45594000000E+02  0.51100000000E-03 0.  1.
         11   -1    0    0    0    0 -0.00000000000E+00 -0.00000000000E+00 -0.45593999997E+02  0.45594000000E+02  0.51100000000E-03 0. -1.
    9900012    2    1    2    0    0 -0.37838445907E+02  0.12549995652E+02 -0.79947076791E+01  0.50528859202E+02  0.29999998031E+02 0.  0.
         12    1    1    2    0    0  0.37838445907E+02 -0.12549995652E+02  0.79947076791E+01  0.40659140798E+02  0.00000000000E+00 0. -1.
         11    1    3    3    0    0  0.98658147371E-01 -0.38305185586E+01 -0.44218836714E+01  0.58511247912E+01  0.51100000000E-03 0. -1.
        -11    1    3    3    0    0 -0.24454090762E+02  0.64518710316E+01  0.51314531879E+01  0.25806220314E+02  0.51100000000E-03 0.  1.
         12    1    3    3    0    0 -0.13483013293E+02  0.99286431794E+01 -0.87042771956E+01  0.18871514098E+02  0.00000000000E+00 0. -1.
</event>
<event>
 7    1  0.5910662E-013  0.5052886E+02  0.7816164E-02  0.1300439E+00
        -11   -1    0    0    0    0  0.00000000000E+00  0.00000000000E+00  0.45593999997E+02  0.45594000000E+02  0.51100000000E-03 0.  1.
         11   -1    0    0    0    0 -0.00000000000E+00 -0.00000000000E+00 -0.45593999997E+02  0.45594000000E+02  0.51100000000E-03 0. -1.
    9900012    2    1    2    0    0 -0.79000819595E+01  0.24715339376E+02 -0.31303449851E+02  0.50528864889E+02  0.30000015315E+02 0.  0.
         12    1    1    2    0    0  0.79000819595E+01 -0.24715339376E+02  0.31303449851E+02  0.40659135111E+02  0.00000000000E+00 0. -1.
         11    1    3    3    0    0  0.10551173347E+01  0.76310584401E+01 -0.21723874344E+02  0.23049360995E+02  0.51100000000E-03 0. -1.
        -11    1    3    3    0    0 -0.48470651977E+01  0.77375976365E+01  0.44268207163E+01  0.10146979853E+02  0.51100000000E-03 0.  1.
        -12    1    3    3    0    0 -0.41081340966E+01  0.93466832989E+01 -0.14006396223E+02  0.17332524040E+02  0.00000000000E+00 0.  1.
</event>
<event>
 7    1  0.5910662E-013  0.5052887E+02  0.7816164E-02  0.1300439E+00
        -11   -1    0    0    0    0  0.00000000000E+00  0.00000000000E+00  0.45593999997E+02  0.45594000000E+02  0.51100000000E-03 0.  1.
         11   -1    0    0    0    0 -0.00000000000E+00 -0.00000000000E+00 -0.45593999997E+02  0.45594000000E+02  0.51100000000E-03 0. -1.
    9900012    2    1    2    0    0 -0.88561832377E+01  0.19674436238E+02  0.34462295845E+02  0.50528865015E+02  0.30000015699E+02 0.  0.
         12    1    1    2    0    0  0.88561832377E+01 -0.19674436238E+02 -0.34462295845E+02  0.40659134985E+02  0.00000000000E+00 0. -1.
         11    1    3    3    0    0 -0.12817386059E+02  0.91412786795E+01  0.86876248806E+01  0.17981189827E+02  0.51100000000E-03 0. -1.
        -11    1    3    3    0    0  0.99067263168E+01  0.41281594622E+01  0.10907677503E+02  0.15302364380E+02  0.51100000000E-03 0.  1.
        -12    1    3    3    0    0 -0.59455234956E+01  0.64049980966E+01  0.14866993461E+02  0.17245310807E+02  0.00000000000E+00 0.  1.
</event>
<event>
 7    1  0.5910662E-013  0.5052885E+02  0.7816164E-02  0.1300439E+00
        -11   -1    0    0    0    0  0.00000000000E+00  0.00000000000E+00  0.45593999997E+02  0.45594000000E+02  0.51100000000E-03 0. -1.
         11   -1    0    0    0    0 -0.00000000000E+00 -0.00000000000E+00 -0.45593999997E+02  0.45594000000E+02  0.51100000000E-03 0.  1.
    9900012    2    1    2    0    0 -0.22393878794E+01  0.40127822336E+02 -0.61570371849E+01  0.50528854775E+02  0.29999984575E+02 0.  0.
         12    1    1    2    0    0  0.22393878794E+01 -0.40127822336E+02  0.61570371849E+01  0.40659145225E+02  0.00000000000E+00 0. -1.
         11    1    3    3    0    0  0.92941315678E+01  0.99422183865E+01  0.46486539898E+01  0.14381883473E+02  0.51100000000E-03 0. -1.
        -11    1    3    3    0    0 -0.12839069704E+01  0.60601626141E+01 -0.74991244985E+01  0.97268112207E+01  0.51100000000E-03 0.  1.
         12    1    3    3    0    0 -0.10249612477E+02  0.24125441336E+02 -0.33065666762E+01  0.26420160082E+02  0.00000000000E+00 0. -1.
</event>
<event>
 7    1  0.5910662E-013  0.5052885E+02  0.7816164E-02  0.1300439E+00
        -11   -1    0    0    0    0  0.00000000000E+00  0.00000000000E+00  0.45593999997E+02  0.45594000000E+02  0.51100000000E-03 0.  1.
         11   -1    0    0    0    0 -0.00000000000E+00 -0.00000000000E+00 -0.45593999997E+02  0.45594000000E+02  0.51100000000E-03 0. -1.
    9900012    2    1    2    0    0  0.13780177136E+02  0.74863072982E+01  0.37513046912E+02  0.50528846449E+02  0.29999959267E+02 0.  0.
         12    1    1    2    0    0 -0.13780177136E+02 -0.74863072982E+01 -0.37513046912E+02  0.40659153551E+02  0.00000000000E+00 0. -1.
         11    1    3    3    0    0 -0.81774518994E+01  0.24385409390E+01  0.56272657286E+01  0.10221708337E+02  0.51100000000E-03 0. -1.
        -11    1    3    3    0    0  0.35383846579E+01 -0.26564414061E+01  0.37076295056E+01  0.57726392355E+01  0.51100000000E-03 0.  1.
         12    1    3    3    0    0  0.18419244377E+02  0.77042077653E+01  0.28178151678E+02  0.34534498877E+02  0.00000000000E+00 0. -1.
</event>
<event>
 7    1  0.5910662E-013  0.5052884E+02  0.7816164E-02  0.1300439E+00
        -11   -1    0    0    0    0  0.00000000000E+00  0.00000000000E+00  0.45593999997E+02  0.45594000000E+02  0.51100000000E-03 0.  1.
         11   -1    0    0    0    0 -0.00000000000E+00 -0.00000000000E+00 -0.45593999997E+02  0.45594000000E+02  0.51100000000E-03 0. -1.
    9900012    2    1    2    0    0  0.39103944998E+02 -0.79304189508E+01 -0.78203039429E+01  0.50528840972E+02  0.29999942618E+02 0.  0.
         12    1    1    2    0    0 -0.39103944998E+02  0.79304189508E+01  0.78203039429E+01  0.40659159028E+02  0.00000000000E+00 0. -1.
         11    1    3    3    0    0  0.82313901996E+00  0.27729329022E+01  0.65527765210E+01  0.71627924109E+01  0.51100000000E-03 0. -1.
        -11    1    3    3    0    0  0.36206850778E+02 -0.12177958587E+02 -0.14392144566E+02  0.40821226636E+02  0.51100000000E-03 0.  1.
         12    1    3    3    0    0  0.20739551999E+01  0.14746067341E+01  0.19064101830E-01  0.25448219252E+01  0.00000000000E+00 0. -1.
</event>
<event>
 7    1  0.5910662E-013  0.5052888E+02  0.7816164E-02  0.1300439E+00
        -11   -1    0    0    0    0  0.00000000000E+00  0.00000000000E+00  0.45593999997E+02  0.45594000000E+02  0.51100000000E-03 0. -1.
         11   -1    0    0    0    0 -0.00000000000E+00 -0.00000000000E+00 -0.45593999997E+02  0.45594000000E+02  0.51100000000E-03 0.  1.
    9900012    2    1    2    0    0 -0.14313848791E+02  0.36857182216E+02 -0.94776732464E+01  0.50528875092E+02  0.30000046330E+02 0.  0.
         12    1    1    2    0    0  0.14313848791E+02 -0.36857182216E+02  0.94776732464E+01  0.40659124908E+02  0.00000000000E+00 0. -1.
         11    1    3    3    0    0  0.14650400667E+01  0.24214850137E+02 -0.62531897502E+01  0.25052099550E+02  0.51100000000E-03 0. -1.
        -11    1    3    3    0    0 -0.18131727854E+02  0.12851762993E+02 -0.46667135813E+01  0.22709151964E+02  0.51100000000E-03 0.  1.
         12    1    3    3    0    0  0.23528389962E+01 -0.20943091468E+00  0.14422300850E+01  0.27676235778E+01  0.00000000000E+00 0. -1.
</event>
<event>
 7    1  0.5910662E-013  0.5052887E+02  0.7816164E-02  0.1300439E+00
        -11   -1    0    0    0    0  0.00000000000E+00  0.00000000000E+00  0.45593999997E+02  0.45594000000E+02  0.51100000000E-03 0.  1.
         11   -1    0    0    0    0 -0.00000000000E+00 -0.00000000000E+00 -0.45593999997E+02  0.45594000000E+02  0.51100000000E-03 0. -1.
    9900012    2    1    2    0    0  0.12364384021E+02 -0.16422699584E+02  0.35079651912E+02  0.50528867789E+02  0.30000024132E+02 0.  0.
         12    1    1    2    0    0 -0.12364384021E+02  0.16422699584E+02 -0.35079651912E+02  0.40659132211E+02  0.00000000000E+00 0. -1.
         11    1    3    3    0    0 -0.12840917652E+01  0.70203940357E+01  0.75528091509E+01  0.10391330541E+02  0.51100000000E-03 0. -1.
        -11    1    3    3    0    0  0.66281419616E+01 -0.13952897497E+02  0.81946747060E+01  0.17486231962E+02  0.51100000000E-03 0.  1.
         12    1    3    3    0    0  0.70203338241E+01 -0.94901961223E+01  0.19332168056E+02  0.22651305286E+02  0.00000000000E+00 0. -1.
</event>
<event>
 7    1  0.5910662E-013  0.5052882E+02  0.7816164E-02  0.1300439E+00
        -11   -1    0    0    0    0  0.00000000000E+00  0.00000000000E+00  0.45593999997E+02  0.45594000000E+02  0.51100000000E-03 0. -1.
         11   -1    0    0    0    0 -0.00000000000E+00 -0.00000000000E+00 -0.45593999997E+02  0.45594000000E+02  0.51100000000E-03 0.  1.
    9900012    2    1    2    0    0 -0.27175626992E+02  0.27303655016E+02  0.13006331148E+02  0.50528819862E+02  0.29999878451E+02 0.  0.
         12    1    1    2    0    0  0.27175626992E+02 -0.27303655016E+02 -0.13006331148E+02  0.40659180138E+02  0.00000000000E+00 0. -1.
         11    1    3    3    0    0  0.38395770271E+01  0.21726712008E+00  0.69104458793E+01  0.79084650382E+01  0.51100000000E-03 0. -1.
        -11    1    3    3    0    0 -0.27927955736E+02  0.20699137925E+02  0.30371967769E+01  0.34894836107E+02  0.51100000000E-03 0.  1.
         12    1    3    3    0    0 -0.30872482826E+01  0.63872499707E+01  0.30586884916E+01  0.77255187163E+01  0.00000000000E+00 0. -1.
</event>
<event>
 7    1  0.5910662E-013  0.5052882E+02  0.7816164E-02  0.1300439E+00
        -11   -1    0    0    0    0  0.00000000000E+00  0.00000000000E+00  0.45593999997E+02  0.45594000000E+02  0.51100000000E-03 0. -1.
         11   -1    0    0    0    0 -0.00000000000E+00 -0.00000000000E+00 -0.45593999997E+02  0.45594000000E+02  0.51100000000E-03 0.  1.
    9900012    2    1    2    0    0  0.32440454858E+02 -0.18707026331E+02 -0.15837701365E+02  0.50528822315E+02  0.29999885907E+02 0.  0.
         12    1    1    2    0    0 -0.32440454858E+02  0.18707026331E+02  0.15837701365E+02  0.40659177685E+02  0.00000000000E+00 0. -1.
         11    1    3    3    0    0  0.14000485078E+02 -0.14324741498E+02 -0.81721520435E+01  0.21633212214E+02  0.51100000000E-03 0. -1.
        -11    1    3    3    0    0 -0.56015231486E+00  0.34053937687E+01 -0.76159057415E+01  0.83613693771E+01  0.51100000000E-03 0.  1.
        -12    1    3    3    0    0  0.19000122094E+02 -0.77876786013E+01 -0.49643579731E-01  0.20534240723E+02  0.00000000000E+00 0.  1.
</event>
<event>
 7    1  0.5910662E-013  0.5052886E+02  0.7816164E-02  0.1300439E+00
        -11   -1    0    0    0    0  0.00000000000E+00  0.00000000000E+00  0.45593999997E+02  0.45594000000E+02  0.51100000000E-03 0.  1.
         11   -1    0    0    0    0 -0.00000000000E+00 -0.00000000000E+00 -0.45593999997E+02  0.45594000000E+02  0.51100000000E-03 0. -1.
    9900012    2    1    2    0    0 -0.88933932710E+00 -0.20287661850E+02  0.35224787763E+02  0.50528858092E+02  0.29999994655E+02 0.  0.
         12    1    1    2    0    0  0.88933932710E+00  0.20287661850E+02 -0.35224787763E+02  0.40659141908E+02  0.00000000000E+00 0. -1.
         11    1    3    3    0    0 -0.17926056042E+01 -0.52507991201E+01 -0.38641609800E+01  0.67613657342E+01  0.51100000000E-03 0. -1.
        -11    1    3    3    0    0 -0.54368878523E+01 -0.10598143865E+02  0.25004401736E+02  0.27696579380E+02  0.51100000000E-03 0.  1.
        -12    1    3    3    0    0  0.63401541293E+01 -0.44387188653E+01  0.14084547007E+02  0.16070912978E+02  0.00000000000E+00 0.  1.
</event>
<event>
 7    1  0.5910662E-013  0.5052885E+02  0.7816164E-02  0.1300439E+00
        -11   -1    0    0    0    0  0.00000000000E+00  0.00000000000E+00  0.45593999997E+02  0.45594000000E+02  0.51100000000E-03 0. -1.
         11   -1    0    0    0    0 -0.00000000000E+00 -0.00000000000E+00 -0.45593999997E+02  0.45594000000E+02  0.51100000000E-03 0.  1.
    9900012    2    1    2    0    0  0.21822595718E+02 -0.34299026909E+02 -0.71933878626E+00  0.50528851226E+02  0.29999973785E+02 0.  0.
         12    1    1    2    0    0 -0.21822595718E+02  0.34299026909E+02  0.71933878626E+00  0.40659148774E+02  0.00000000000E+00 0. -1.
         11    1    3    3    0    0  0.45502912332E+01 -0.41601365574E+01 -0.12112713419E+02  0.13591530934E+02  0.51100000000E-03 0. -1.
        -11    1    3    3    0    0  0.71072420128E+01 -0.15096568636E+02  0.30725189232E+01  0.16966427037E+02  0.51100000000E-03 0.  1.
         12    1    3    3    0    0  0.10165062472E+02 -0.15042321716E+02  0.83208557098E+01  0.19970893255E+02  0.00000000000E+00 0. -1.
</event>
<event>
 7    1  0.5910662E-013  0.5052886E+02  0.7816164E-02  0.1300439E+00
        -11   -1    0    0    0    0  0.00000000000E+00  0.00000000000E+00  0.45593999997E+02  0.45594000000E+02  0.51100000000E-03 0.  1.
         11   -1    0    0    0    0 -0.00000000000E+00 -0.00000000000E+00 -0.45593999997E+02  0.45594000000E+02  0.51100000000E-03 0. -1.
    9900012    2    1    2    0    0 -0.39497732878E+02  0.94712471767E+01  0.18411593453E+01  0.50528864577E+02  0.30000014369E+02 0.  0.
         12    1    1    2    0    0  0.39497732878E+02 -0.94712471767E+01 -0.18411593453E+01  0.40659135423E+02  0.00000000000E+00 0. -1.
         11    1    3    3    0    0 -0.12147782848E+02  0.34467080094E+01  0.13038514556E+02  0.18150792994E+02  0.51100000000E-03 0. -1.
        -11    1    3    3    0    0 -0.24511516579E+02  0.83196044721E+01 -0.12166139182E+02  0.28601489584E+02  0.51100000000E-03 0.  1.
        -12    1    3    3    0    0 -0.28384334517E+01 -0.22950653048E+01  0.96878397149E+00  0.37765819992E+01  0.00000000000E+00 0.  1.
</event>
<event>
 7    1  0.5910662E-013  0.5052887E+02  0.7816164E-02  0.1300439E+00
        -11   -1    0    0    0    0  0.00000000000E+00  0.00000000000E+00  0.45593999997E+02  0.45594000000E+02  0.51100000000E-03 0.  1.
         11   -1    0    0    0    0 -0.00000000000E+00 -0.00000000000E+00 -0.45593999997E+02  0.45594000000E+02  0.51100000000E-03 0. -1.
    9900012    2    1    2    0    0 -0.30592328815E+02  0.11168742575E+01  0.26758682714E+02  0.50528867065E+02  0.30000021930E+02 0.  0.
         12    1    1    2    0    0  0.30592328815E+02 -0.11168742575E+01 -0.26758682714E+02  0.40659132935E+02  0.00000000000E+00 0. -1.
         11    1    3    3    0    0 -0.13375981407E+02 -0.80967082515E+01  0.85728156755E+01  0.17831621686E+02  0.51100000000E-03 0. -1.
        -11    1    3    3    0    0 -0.15563601381E+02  0.12884765442E+02  0.79761360893E+01  0.21722375920E+02  0.51100000000E-03 0.  1.
         12    1    3    3    0    0 -0.16527460277E+01 -0.36711829332E+01  0.10209730950E+02  0.10974869458E+02  0.00000000000E+00 0. -1.
</event>
<event>
 7    1  0.5910662E-013  0.5052887E+02  0.7816164E-02  0.1300439E+00
        -11   -1    0    0    0    0  0.00000000000E+00  0.00000000000E+00  0.45593999997E+02  0.45594000000E+02  0.51100000000E-03 0.  1.
         11   -1    0    0    0    0 -0.00000000000E+00 -0.00000000000E+00 -0.45593999997E+02  0.45594000000E+02  0.51100000000E-03 0. -1.
    9900012    2    1    2    0    0  0.31043249135E+02  0.13489450327E+02  0.22528120572E+02  0.50528870601E+02  0.30000032679E+02 0.  0.
         12    1    1    2    0    0 -0.31043249135E+02 -0.13489450327E+02 -0.22528120572E+02  0.40659129399E+02  0.00000000000E+00 0. -1.
         11    1    3    3    0    0  0.69137051005E+01 -0.18063136032E+00  0.19000380970E+02  0.20219951117E+02  0.51100000000E-03 0. -1.
        -11    1    3    3    0    0  0.18170875472E+02  0.55098933377E+01 -0.14538471144E+01  0.19043458502E+02  0.51100000000E-03 0.  1.
         12    1    3    3    0    0  0.59586685624E+01  0.81601883495E+01  0.49815867171E+01  0.11265460983E+02  0.00000000000E+00 0. -1.
</event>
<event>
 7    1  0.5910662E-013  0.5052882E+02  0.7816164E-02  0.1300439E+00
        -11   -1    0    0    0    0  0.00000000000E+00  0.00000000000E+00  0.45593999997E+02  0.45594000000E+02  0.51100000000E-03 0.  1.
         11   -1    0    0    0    0 -0.00000000000E+00 -0.00000000000E+00 -0.45593999997E+02  0.45594000000E+02  0.51100000000E-03 0. -1.
    9900012    2    1    2    0    0 -0.31035823345E+02 -0.10028174564E+02  0.24277197386E+02  0.50528819871E+02  0.29999878481E+02 0.  0.
         12    1    1    2    0    0  0.31035823345E+02  0.10028174564E+02 -0.24277197386E+02  0.40659180129E+02  0.00000000000E+00 0. -1.
         11    1    3    3    0    0 -0.32323918988E+01 -0.14069355505E+02  0.24768452328E+01  0.14646838713E+02  0.51100000000E-03 0. -1.
        -11    1    3    3    0    0 -0.14417535517E+02 -0.67353954852E-01  0.97131103435E+01  0.17384314187E+02  0.51100000000E-03 0.  1.
         12    1    3    3    0    0 -0.13385895929E+02  0.41085348958E+01  0.12087241810E+02  0.18497666972E+02  0.00000000000E+00 0. -1.
</event>
<event>
 7    1  0.5910662E-013  0.5052887E+02  0.7816164E-02  0.1300439E+00
        -11   -1    0    0    0    0  0.00000000000E+00  0.00000000000E+00  0.45593999997E+02  0.45594000000E+02  0.51100000000E-03 0.  1.
         11   -1    0    0    0    0 -0.00000000000E+00 -0.00000000000E+00 -0.45593999997E+02  0.45594000000E+02  0.51100000000E-03 0. -1.
    9900012    2    1    2    0    0  0.18280703153E+02  0.12577095839E+02  0.34070474513E+02  0.50528872107E+02  0.30000037255E+02 0.  0.
         12    1    1    2    0    0 -0.18280703153E+02 -0.12577095839E+02 -0.34070474513E+02  0.40659127893E+02  0.00000000000E+00 0. -1.
         11    1    3    3    0    0  0.35428208146E+01  0.22099558291E+01 -0.16724006696E+01  0.44980449477E+01  0.51100000000E-03 0. -1.
        -11    1    3    3    0    0  0.17325313420E+02  0.57165140133E+00  0.29239264524E+02  0.33991585144E+02  0.51100000000E-03 0.  1.
        -12    1    3    3    0    0 -0.25874310818E+01  0.97954886091E+01  0.65036106582E+01  0.12039242015E+02  0.00000000000E+00 0.  1.
</event>
<event>
 7    1  0.5910662E-013  0.5052886E+02  0.7816164E-02  0.1300439E+00
        -11   -1    0    0    0    0  0.00000000000E+00  0.00000000000E+00  0.45593999997E+02  0.45594000000E+02  0.51100000000E-03 0.  1.
         11   -1    0    0    0    0 -0.00000000000E+00 -0.00000000000E+00 -0.45593999997E+02  0.45594000000E+02  0.51100000000E-03 0. -1.
    9900012    2    1    2    0    0 -0.45744184292E+01 -0.96806543645E+01  0.39224042198E+02  0.50528857618E+02  0.29999993215E+02 0.  0.
         12    1    1    2    0    0  0.45744184292E+01  0.96806543645E+01 -0.39224042198E+02  0.40659142382E+02  0.00000000000E+00 0. -1.
         11    1    3    3    0    0  0.76508932451E+01 -0.24149333838E+01  0.54768470323E+00  0.80416434571E+01  0.51100000000E-03 0. -1.
        -11    1    3    3    0    0 -0.14058393374E+02 -0.57155238058E+01  0.32872701614E+02  0.36206631275E+02  0.51100000000E-03 0.  1.
        -12    1    3    3    0    0  0.18330816997E+01 -0.15501971750E+01  0.58036558808E+01  0.62805828855E+01  0.00000000000E+00 0.  1.
</event>
<event>
 7    1  0.5910662E-013  0.5052886E+02  0.7816164E-02  0.1300439E+00
        -11   -1    0    0    0    0  0.00000000000E+00  0.00000000000E+00  0.45593999997E+02  0.45594000000E+02  0.51100000000E-03 0.  1.
         11   -1    0    0    0    0 -0.00000000000E+00 -0.00000000000E+00 -0.45593999997E+02  0.45594000000E+02  0.51100000000E-03 0. -1.
    9900012    2    1    2    0    0 -0.27843205526E+02  0.26039743300E+02  0.14136946825E+02  0.50528860921E+02  0.30000003257E+02 0.  0.
         12    1    1    2    0    0  0.27843205526E+02 -0.26039743300E+02 -0.14136946825E+02  0.40659139079E+02  0.00000000000E+00 0. -1.
         11    1    3    3    0    0 -0.90798203358E+01  0.10416743954E+02 -0.23728894181E+01  0.14020780877E+02  0.51100000000E-03 0. -1.
        -11    1    3    3    0    0 -0.23141137323E+02  0.95987960208E+01  0.13656435689E+02  0.28533267560E+02  0.51100000000E-03 0.  1.
        -12    1    3    3    0    0  0.43777521336E+01  0.60242033250E+01  0.28534005544E+01  0.79748124848E+01  0.00000000000E+00 0.  1.
</event>
<event>
 7    1  0.5910662E-013  0.5052886E+02  0.7816164E-02  0.1300439E+00
        -11   -1    0    0    0    0  0.00000000000E+00  0.00000000000E+00  0.45593999997E+02  0.45594000000E+02  0.51100000000E-03 0. -1.
         11   -1    0    0    0    0 -0.00000000000E+00 -0.00000000000E+00 -0.45593999997E+02  0.45594000000E+02  0.51100000000E-03 0.  1.
    9900012    2    1    2    0    0  0.18005445902E+02 -0.34389045152E+02  0.12098054045E+02  0.50528863016E+02  0.30000009623E+02 0.  0.
         12    1    1    2    0    0 -0.18005445902E+02  0.34389045152E+02 -0.12098054045E+02  0.40659136984E+02  0.00000000000E+00 0. -1.
         11    1    3    3    0    0  0.23130116457E+02 -0.16452208657E+02  0.83838544432E+01  0.29596730776E+02  0.51100000000E-03 0. -1.
        -11    1    3    3    0    0  0.56179224020E+00 -0.12739720954E+02  0.35077138493E+01  0.13225738437E+02  0.51100000000E-03 0.  1.
         12    1    3    3    0    0 -0.56864627957E+01 -0.51971155415E+01  0.20648575264E+00  0.77063938029E+01  0.00000000000E+00 0. -1.
</event>
<event>
 7    1  0.5910662E-013  0.5052888E+02  0.7816164E-02  0.1300439E+00
        -11   -1    0    0    0    0  0.00000000000E+00  0.00000000000E+00  0.45593999997E+02  0.45594000000E+02  0.51100000000E-03 0.  1.
         11   -1    0    0    0    0 -0.00000000000E+00 -0.00000000000E+00 -0.45593999997E+02  0.45594000000E+02  0.51100000000E-03 0. -1.
    9900012    2    1    2    0    0 -0.62792665871E+01 -0.48514977176E+01  0.39877286182E+02  0.50528878363E+02  0.30000056274E+02 0.  0.
         12    1    1    2    0    0  0.62792665871E+01  0.48514977176E+01 -0.39877286182E+02  0.40659121637E+02  0.00000000000E+00 0. -1.
         11    1    3    3    0    0  0.40088053194E+01  0.14649894390E+01 -0.22409369454E+01  0.48206340661E+01  0.51100000000E-03 0. -1.
        -11    1    3    3    0    0 -0.23932285145E+01 -0.89964950444E+01  0.19669184979E+02  0.21761004200E+02  0.51100000000E-03 0.  1.
         12    1    3    3    0    0 -0.78948433919E+01  0.26800078878E+01  0.22449038149E+02  0.23947240097E+02  0.00000000000E+00 0. -1.
</event>
<event>
 7    1  0.5910662E-013  0.5052886E+02  0.7816164E-02  0.1300439E+00
        -11   -1    0    0    0    0  0.00000000000E+00  0.00000000000E+00  0.45593999997E+02  0.45594000000E+02  0.51100000000E-03 0. -1.
         11   -1    0    0    0    0 -0.00000000000E+00 -0.00000000000E+00 -0.45593999997E+02  0.45594000000E+02  0.51100000000E-03 0.  1.
    9900012    2    1    2    0    0  0.82139914789E+01 -0.38752353147E+02 -0.91625051215E+01  0.50528855511E+02  0.29999986813E+02 0.  0.
         12    1    1    2    0    0 -0.82139914789E+01  0.38752353147E+02  0.91625051215E+01  0.40659144489E+02  0.00000000000E+00 0. -1.
         11    1    3    3    0    0 -0.91812348061E+01 -0.17707483487E+02 -0.77367158840E+01  0.21394083690E+02  0.51100000000E-03 0. -1.
        -11    1    3    3    0    0  0.10110830577E+02 -0.18702995678E+02 -0.25025394034E+01  0.21407794048E+02  0.51100000000E-03 0.  1.
         12    1    3    3    0    0  0.72843957085E+01 -0.23418739814E+01  0.10767501658E+01  0.77269777729E+01  0.00000000000E+00 0. -1.
</event>
<event>
 7    1  0.5910662E-013  0.5052886E+02  0.7816164E-02  0.1300439E+00
        -11   -1    0    0    0    0  0.00000000000E+00  0.00000000000E+00  0.45593999997E+02  0.45594000000E+02  0.51100000000E-03 0.  1.
         11   -1    0    0    0    0 -0.00000000000E+00 -0.00000000000E+00 -0.45593999997E+02  0.45594000000E+02  0.51100000000E-03 0. -1.
    9900012    2    1    2    0    0  0.62707725214E+01 -0.39863827845E+02 -0.49717339942E+01  0.50528862068E+02  0.30000006742E+02 0.  0.
         12    1    1    2    0    0 -0.62707725214E+01  0.39863827845E+02  0.49717339942E+01  0.40659137932E+02  0.00000000000E+00 0. -1.
         11    1    3    3    0    0 -0.48331331945E+01 -0.86156520242E+01 -0.12756883686E+02  0.16134643409E+02  0.51100000000E-03 0. -1.
        -11    1    3    3    0    0  0.10745396157E+02 -0.24754693332E+02  0.66345410198E+01  0.27789845544E+02  0.51100000000E-03 0.  1.
         12    1    3    3    0    0  0.35850955873E+00 -0.64934824888E+01  0.11506086721E+01  0.66043731158E+01  0.00000000000E+00 0. -1.
</event>
<event>
 7    1  0.5910662E-013  0.5052886E+02  0.7816164E-02  0.1300439E+00
        -11   -1    0    0    0    0  0.00000000000E+00  0.00000000000E+00  0.45593999997E+02  0.45594000000E+02  0.51100000000E-03 0.  1.
         11   -1    0    0    0    0 -0.00000000000E+00 -0.00000000000E+00 -0.45593999997E+02  0.45594000000E+02  0.51100000000E-03 0. -1.
    9900012    2    1    2    0    0  0.63406156720E+01  0.21158848359E+02  0.34135984188E+02  0.50528859731E+02  0.29999999637E+02 0.  0.
         12    1    1    2    0    0 -0.63406156720E+01 -0.21158848359E+02 -0.34135984188E+02  0.40659140269E+02  0.00000000000E+00 0. -1.
         11    1    3    3    0    0  0.27275549302E+01  0.21326082675E+02  0.26125356013E+02  0.33834532436E+02  0.51100000000E-03 0. -1.
        -11    1    3    3    0    0 -0.13720657928E+01 -0.28621874084E+01  0.10151749363E+02  0.10636385509E+02  0.51100000000E-03 0.  1.
         12    1    3    3    0    0  0.49851265346E+01  0.26949530924E+01 -0.21411211876E+01  0.60579417854E+01  0.00000000000E+00 0. -1.
</event>
<event>
 7    1  0.5910662E-013  0.5052886E+02  0.7816164E-02  0.1300439E+00
        -11   -1    0    0    0    0  0.00000000000E+00  0.00000000000E+00  0.45593999997E+02  0.45594000000E+02  0.51100000000E-03 0. -1.
         11   -1    0    0    0    0 -0.00000000000E+00 -0.00000000000E+00 -0.45593999997E+02  0.45594000000E+02  0.51100000000E-03 0.  1.
    9900012    2    1    2    0    0  0.27603918573E+02 -0.24165153141E+02  0.17528122822E+02  0.50528855437E+02  0.29999986586E+02 0.  0.
         12    1    1    2    0    0 -0.27603918573E+02  0.24165153141E+02 -0.17528122822E+02  0.40659144563E+02  0.00000000000E+00 0. -1.
         11    1    3    3    0    0  0.20617196261E+02 -0.67321460460E+00  0.10241392795E+02  0.23030591096E+02  0.51100000000E-03 0. -1.
        -11    1    3    3    0    0  0.55081229913E+01 -0.43869524907E+01  0.38663702656E+01  0.80332801728E+01  0.51100000000E-03 0.  1.
         12    1    3    3    0    0  0.14785993203E+01 -0.19104986046E+02  0.34203597609E+01  0.19464984168E+02  0.00000000000E+00 0. -1.
</event>
<event>
 7    1  0.5910662E-013  0.5052885E+02  0.7816164E-02  0.1300439E+00
        -11   -1    0    0    0    0  0.00000000000E+00  0.00000000000E+00  0.45593999997E+02  0.45594000000E+02  0.51100000000E-03 0.  1.
         11   -1    0    0    0    0 -0.00000000000E+00 -0.00000000000E+00 -0.45593999997E+02  0.45594000000E+02  0.51100000000E-03 0. -1.
    9900012    2    1    2    0    0  0.32601872494E+02  0.90008647934E+01  0.22566992015E+02  0.50528846224E+02  0.29999958584E+02 0.  0.
         12    1    1    2    0    0 -0.32601872494E+02 -0.90008647934E+01 -0.22566992015E+02  0.40659153776E+02  0.00000000000E+00 0. -1.
         11    1    3    3    0    0  0.47389940599E+01  0.97206385580E+01  0.47574440862E+01  0.11814489120E+02  0.51100000000E-03 0. -1.
        -11    1    3    3    0    0  0.23808151731E+02  0.76728673560E+01  0.13795036926E+02  0.28565784189E+02  0.51100000000E-03 0.  1.
        -12    1    3    3    0    0  0.40547267028E+01 -0.83926411206E+01  0.40145110033E+01  0.10148572915E+02  0.00000000000E+00 0.  1.
</event>
<event>
 7    1  0.5910662E-013  0.5052886E+02  0.7816164E-02  0.1300439E+00
        -11   -1    0    0    0    0  0.00000000000E+00  0.00000000000E+00  0.45593999997E+02  0.45594000000E+02  0.51100000000E-03 0.  1.
         11   -1    0    0    0    0 -0.00000000000E+00 -0.00000000000E+00 -0.45593999997E+02  0.45594000000E+02  0.51100000000E-03 0. -1.
    9900012    2    1    2    0    0  0.14905420255E+02 -0.37801763645E+02 -0.14215112661E+01  0.50528861028E+02  0.30000003582E+02 0.  0.
         12    1    1    2    0    0 -0.14905420255E+02  0.37801763645E+02  0.14215112661E+01  0.40659138972E+02  0.00000000000E+00 0. -1.
         11    1    3    3    0    0 -0.66921779559E+01 -0.20737327301E+02  0.16437725012E+01  0.21852322020E+02  0.51100000000E-03 0. -1.
        -11    1    3    3    0    0  0.37162321854E+01  0.56236175100E-01  0.10632391845E+00  0.37181782098E+01  0.51100000000E-03 0.  1.
         12    1    3    3    0    0  0.17881366025E+02 -0.17120672520E+02 -0.31716076858E+01  0.24958360799E+02  0.00000000000E+00 0. -1.
</event>
<event>
 7    1  0.5910662E-013  0.5052886E+02  0.7816164E-02  0.1300439E+00
        -11   -1    0    0    0    0  0.00000000000E+00  0.00000000000E+00  0.45593999997E+02  0.45594000000E+02  0.51100000000E-03 0.  1.
         11   -1    0    0    0    0 -0.00000000000E+00 -0.00000000000E+00 -0.45593999997E+02  0.45594000000E+02  0.51100000000E-03 0. -1.
    9900012    2    1    2    0    0 -0.22426403126E+02 -0.14251198639E+02  0.30775401818E+02  0.50528861090E+02  0.30000003769E+02 0.  0.
         12    1    1    2    0    0  0.22426403126E+02  0.14251198639E+02 -0.30775401818E+02  0.40659138910E+02  0.00000000000E+00 0. -1.
         11    1    3    3    0    0 -0.20471660199E+02 -0.55431059382E+01  0.16449550603E+02  0.26840316877E+02  0.51100000000E-03 0. -1.
        -11    1    3    3    0    0  0.88750771789E+00 -0.99561624837E+01  0.16914100589E+02  0.19646873551E+02  0.51100000000E-03 0.  1.
        -12    1    3    3    0    0 -0.28422506457E+01  0.12480697834E+01 -0.25882493739E+01  0.40416706618E+01  0.00000000000E+00 0.  1.
</event>
<event>
 7    1  0.5910662E-013  0.5052886E+02  0.7816164E-02  0.1300439E+00
        -11   -1    0    0    0    0  0.00000000000E+00  0.00000000000E+00  0.45593999997E+02  0.45594000000E+02  0.51100000000E-03 0. -1.
         11   -1    0    0    0    0 -0.00000000000E+00 -0.00000000000E+00 -0.45593999997E+02  0.45594000000E+02  0.51100000000E-03 0.  1.
    9900012    2    1    2    0    0  0.33222173674E+02  0.14234751070E+02 -0.18623236113E+02  0.50528857302E+02  0.29999992254E+02 0.  0.
         12    1    1    2    0    0 -0.33222173674E+02 -0.14234751070E+02  0.18623236113E+02  0.40659142698E+02  0.00000000000E+00 0. -1.
         11    1    3    3    0    0 -0.32223875189E+00  0.84015563610E+00 -0.26885494987E+01  0.28351363238E+01  0.51100000000E-03 0. -1.
        -11    1    3    3    0    0  0.26147529319E+02 -0.70556566563E+00 -0.17834072785E+02  0.31658257450E+02  0.51100000000E-03 0.  1.
        -12    1    3    3    0    0  0.73968831066E+01  0.14100161100E+02  0.18993861708E+01  0.16035463528E+02  0.00000000000E+00 0.  1.
</event>
<event>
 7    1  0.5910662E-013  0.5052886E+02  0.7816164E-02  0.1300439E+00
        -11   -1    0    0    0    0  0.00000000000E+00  0.00000000000E+00  0.45593999997E+02  0.45594000000E+02  0.51100000000E-03 0.  1.
         11   -1    0    0    0    0 -0.00000000000E+00 -0.00000000000E+00 -0.45593999997E+02  0.45594000000E+02  0.51100000000E-03 0. -1.
    9900012    2    1    2    0    0  0.27654433362E+02  0.29058698807E+02  0.66325215637E+01  0.50528855847E+02  0.29999987833E+02 0.  0.
         12    1    1    2    0    0 -0.27654433362E+02 -0.29058698807E+02 -0.66325215637E+01  0.40659144153E+02  0.00000000000E+00 0. -1.
         11    1    3    3    0    0  0.12331353691E+02  0.95463520387E+01 -0.95385970263E+01  0.18280589558E+02  0.51100000000E-03 0. -1.
        -11    1    3    3    0    0  0.97847515289E+01  0.19746424938E+02  0.10848102053E+02  0.24563061265E+02  0.51100000000E-03 0.  1.
         12    1    3    3    0    0  0.55383281426E+01 -0.23407816985E+00  0.53230165375E+01  0.76852050241E+01  0.00000000000E+00 0. -1.
</event>
<event>
 7    1  0.5910662E-013  0.5052886E+02  0.7816164E-02  0.1300439E+00
        -11   -1    0    0    0    0  0.00000000000E+00  0.00000000000E+00  0.45593999997E+02  0.45594000000E+02  0.51100000000E-03 0.  1.
         11   -1    0    0    0    0 -0.00000000000E+00 -0.00000000000E+00 -0.45593999997E+02  0.45594000000E+02  0.51100000000E-03 0. -1.
    9900012    2    1    2    0    0  0.25250475383E+02  0.21901381547E+02  0.23149694494E+02  0.50528863562E+02  0.30000011283E+02 0.  0.
         12    1    1    2    0    0 -0.25250475383E+02 -0.21901381547E+02 -0.23149694494E+02  0.40659136438E+02  0.00000000000E+00 0. -1.
         11    1    3    3    0    0  0.17223295129E+02  0.22731592898E+02  0.11679476867E+02  0.30818458607E+02  0.51100000000E-03 0. -1.
        -11    1    3    3    0    0 -0.18290525308E+01 -0.26321212005E+01  0.87640758955E+01  0.93318016341E+01  0.51100000000E-03 0.  1.
        -12    1    3    3    0    0  0.98562327849E+01  0.18019098496E+01  0.27061417309E+01  0.10378603320E+02  0.00000000000E+00 0.  1.
</event>
<event>
 7    1  0.5910662E-013  0.5052886E+02  0.7816164E-02  0.1300439E+00
        -11   -1    0    0    0    0  0.00000000000E+00  0.00000000000E+00  0.45593999997E+02  0.45594000000E+02  0.51100000000E-03 0.  1.
         11   -1    0    0    0    0 -0.00000000000E+00 -0.00000000000E+00 -0.45593999997E+02  0.45594000000E+02  0.51100000000E-03 0. -1.
    9900012    2    1    2    0    0  0.19826087401E+02  0.22922994622E+02  0.27104027489E+02  0.50528859205E+02  0.29999998039E+02 0.  0.
         12    1    1    2    0    0 -0.19826087401E+02 -0.22922994622E+02 -0.27104027489E+02  0.40659140795E+02  0.00000000000E+00 0. -1.
         11    1    3    3    0    0 -0.91957847031E+00  0.11357317299E+01 -0.40809410155E+01  0.43346961784E+01  0.51100000000E-03 0. -1.
        -11    1    3    3    0    0  0.72173739661E+01  0.18874690729E+02  0.19509466582E+02  0.28088498067E+02  0.51100000000E-03 0.  1.
         12    1    3    3    0    0  0.13528291905E+02  0.29125721627E+01  0.11675501923E+02  0.18105664959E+02  0.00000000000E+00 0. -1.
</event>
<event>
 7    1  0.5910662E-013  0.5052887E+02  0.7816164E-02  0.1300439E+00
        -11   -1    0    0    0    0  0.00000000000E+00  0.00000000000E+00  0.45593999997E+02  0.45594000000E+02  0.51100000000E-03 0.  1.
         11   -1    0    0    0    0 -0.00000000000E+00 -0.00000000000E+00 -0.45593999997E+02  0.45594000000E+02  0.51100000000E-03 0. -1.
    9900012    2    1    2    0    0 -0.13909612801E+02  0.15599311636E+02  0.34876191319E+02  0.50528873439E+02  0.30000041306E+02 0.  0.
         12    1    1    2    0    0  0.13909612801E+02 -0.15599311636E+02 -0.34876191319E+02  0.40659126561E+02  0.00000000000E+00 0. -1.
         11    1    3    3    0    0  0.21154744937E+01 -0.40079615197E+01  0.12520781928E+02  0.13315741370E+02  0.51100000000E-03 0. -1.
        -11    1    3    3    0    0 -0.69785279314E+01  0.18449905047E+02  0.10788478477E+02  0.22483107358E+02  0.51100000000E-03 0.  1.
        -12    1    3    3    0    0 -0.90465593638E+01  0.11573681083E+01  0.11566930913E+02  0.14730024712E+02  0.00000000000E+00 0.  1.
</event>
<event>
 7    1  0.5910662E-013  0.5052886E+02  0.7816164E-02  0.1300439E+00
        -11   -1    0    0    0    0  0.00000000000E+00  0.00000000000E+00  0.45593999997E+02  0.45594000000E+02  0.51100000000E-03 0.  1.
         11   -1    0    0    0    0 -0.00000000000E+00 -0.00000000000E+00 -0.45593999997E+02  0.45594000000E+02  0.51100000000E-03 0. -1.
    9900012    2    1    2    0    0 -0.63389415591E+01  0.44957603842E+01  0.39909542220E+02  0.50528860784E+02  0.30000002840E+02 0.  0.
         12    1    1    2    0    0  0.63389415591E+01 -0.44957603842E+01 -0.39909542220E+02  0.40659139216E+02  0.00000000000E+00 0. -1.
         11    1    3    3    0    0  0.43403411480E+00  0.94732653882E+01  0.25583042508E+02  0.27284120051E+02  0.51100000000E-03 0. -1.
        -11    1    3    3    0    0 -0.52395244045E+01 -0.10584234180E+02  0.64530152319E+01  0.13458084373E+02  0.51100000000E-03 0.  1.
        -12    1    3    3    0    0 -0.15334512695E+01  0.56067291759E+01  0.78734844806E+01  0.97866563603E+01  0.00000000000E+00 0.  1.
</event>
<event>
 7    1  0.5910662E-013  0.5052886E+02  0.7816164E-02  0.1300439E+00
        -11   -1    0    0    0    0  0.00000000000E+00  0.00000000000E+00  0.45593999997E+02  0.45594000000E+02  0.51100000000E-03 0.  1.
         11   -1    0    0    0    0 -0.00000000000E+00 -0.00000000000E+00 -0.45593999997E+02  0.45594000000E+02  0.51100000000E-03 0. -1.
    9900012    2    1    2    0    0  0.10411565132E+02 -0.26067884444E+02  0.29414802030E+02  0.50528857531E+02  0.29999992951E+02 0.  0.
         12    1    1    2    0    0 -0.10411565132E+02  0.26067884444E+02 -0.29414802030E+02  0.40659142469E+02  0.00000000000E+00 0. -1.
         11    1    3    3    0    0 -0.28912035133E+01  0.23503761369E+00 -0.23134202450E+01  0.37102848848E+01  0.51100000000E-03 0. -1.
        -11    1    3    3    0    0  0.37353620879E+01 -0.24376037519E+02  0.23185694321E+02  0.33848494153E+02  0.51100000000E-03 0.  1.
        -12    1    3    3    0    0  0.95674065575E+01 -0.19268845387E+01  0.85425279540E+01  0.12970078493E+02  0.00000000000E+00 0.  1.
</event>
<event>
 7    1  0.5910662E-013  0.5052886E+02  0.7816164E-02  0.1300439E+00
        -11   -1    0    0    0    0  0.00000000000E+00  0.00000000000E+00  0.45593999997E+02  0.45594000000E+02  0.51100000000E-03 0. -1.
         11   -1    0    0    0    0 -0.00000000000E+00 -0.00000000000E+00 -0.45593999997E+02  0.45594000000E+02  0.51100000000E-03 0.  1.
    9900012    2    1    2    0    0 -0.24192299224E+01 -0.16665587368E+01 -0.40552871421E+02  0.50528862381E+02  0.30000007692E+02 0.  0.
         12    1    1    2    0    0  0.24192299224E+01  0.16665587368E+01  0.40552871421E+02  0.40659137619E+02  0.00000000000E+00 0. -1.
         11    1    3    3    0    0  0.55470284328E+01  0.22707156594E+01 -0.30463962614E+02  0.31048006256E+02  0.51100000000E-03 0.  1.
        -11    1    3    3    0    0 -0.11998747850E+02 -0.35458953821E+01 -0.85154460479E+01  0.15134600942E+02  0.51100000000E-03 0. -1.
        -12    1    3    3    0    0  0.40324894946E+01 -0.39137901421E+00 -0.15734627589E+01  0.43462551824E+01  0.00000000000E+00 0.  1.
</event>
<event>
 7    1  0.5910662E-013  0.5052886E+02  0.7816164E-02  0.1300439E+00
        -11   -1    0    0    0    0  0.00000000000E+00  0.00000000000E+00  0.45593999997E+02  0.45594000000E+02  0.51100000000E-03 0. -1.
         11   -1    0    0    0    0 -0.00000000000E+00 -0.00000000000E+00 -0.45593999997E+02  0.45594000000E+02  0.51100000000E-03 0.  1.
    9900012    2    1    2    0    0 -0.91393074706E+01 -0.25132356200E+02 -0.30626840144E+02  0.50528860727E+02  0.30000002665E+02 0.  0.
         12    1    1    2    0    0  0.91393074706E+01  0.25132356200E+02  0.30626840144E+02  0.40659139273E+02  0.00000000000E+00 0. -1.
         11    1    3    3    0    0 -0.16947097177E+02 -0.21655224066E+02 -0.24558800081E+02  0.36868516295E+02  0.51100000000E-03 0. -1.
        -11    1    3    3    0    0  0.75273480755E+01 -0.36426453263E+00 -0.71149658649E+01  0.10364188208E+02  0.51100000000E-03 0.  1.
         12    1    3    3    0    0  0.28044163126E+00 -0.31128676022E+01  0.10469258020E+01  0.32961562239E+01  0.00000000000E+00 0. -1.
</event>
<event>
 7    1  0.5910662E-013  0.5052885E+02  0.7816164E-02  0.1300439E+00
        -11   -1    0    0    0    0  0.00000000000E+00  0.00000000000E+00  0.45593999997E+02  0.45594000000E+02  0.51100000000E-03 0.  1.
         11   -1    0    0    0    0 -0.00000000000E+00 -0.00000000000E+00 -0.45593999997E+02  0.45594000000E+02  0.51100000000E-03 0. -1.
    9900012    2    1    2    0    0  0.39300797765E+02 -0.37943931557E+01  0.97064957354E+01  0.50528853626E+02  0.29999981082E+02 0.  0.
         12    1    1    2    0    0 -0.39300797765E+02  0.37943931557E+01 -0.97064957354E+01  0.40659146374E+02  0.00000000000E+00 0. -1.
         11    1    3    3    0    0  0.13561299760E+02 -0.55131587105E+01 -0.82884044906E+01  0.16822646029E+02  0.51100000000E-03 0. -1.
        -11    1    3    3    0    0  0.18923009400E+02  0.24775492850E+01  0.62075458290E+01  0.20068686073E+02  0.51100000000E-03 0.  1.
         12    1    3    3    0    0  0.68164886046E+01 -0.75878373022E+00  0.11787354397E+02  0.13637521524E+02  0.00000000000E+00 0. -1.
</event>
<event>
 7    1  0.5910662E-013  0.5052886E+02  0.7816164E-02  0.1300439E+00
        -11   -1    0    0    0    0  0.00000000000E+00  0.00000000000E+00  0.45593999997E+02  0.45594000000E+02  0.51100000000E-03 0. -1.
         11   -1    0    0    0    0 -0.00000000000E+00 -0.00000000000E+00 -0.45593999997E+02  0.45594000000E+02  0.51100000000E-03 0.  1.
    9900012    2    1    2    0    0  0.80518075779E+01  0.26491214230E+02 -0.29774981992E+02  0.50528860938E+02  0.30000003308E+02 0.  0.
         12    1    1    2    0    0 -0.80518075779E+01 -0.26491214230E+02  0.29774981992E+02  0.40659139062E+02  0.00000000000E+00 0. -1.
         11    1    3    3    0    0  0.16237873062E+01  0.87668817449E+00 -0.17279332735E+00  0.18534090661E+01  0.51100000000E-03 0. -1.
        -11    1    3    3    0    0  0.95069478961E+01  0.24293049101E+02 -0.86897273196E+01  0.27496284369E+02  0.51100000000E-03 0.  1.
        -12    1    3    3    0    0 -0.30789276244E+01  0.13214769538E+01 -0.20912461345E+02  0.21179167504E+02  0.00000000000E+00 0.  1.
</event>
<event>
 7    1  0.5910662E-013  0.5052886E+02  0.7816164E-02  0.1300439E+00
        -11   -1    0    0    0    0  0.00000000000E+00  0.00000000000E+00  0.45593999997E+02  0.45594000000E+02  0.51100000000E-03 0. -1.
         11   -1    0    0    0    0 -0.00000000000E+00 -0.00000000000E+00 -0.45593999997E+02  0.45594000000E+02  0.51100000000E-03 0.  1.
    9900012    2    1    2    0    0  0.27160198538E+02  0.20943835722E+02 -0.21836778803E+02  0.50528861447E+02  0.30000004854E+02 0.  0.
         12    1    1    2    0    0 -0.27160198538E+02 -0.20943835722E+02  0.21836778803E+02  0.40659138553E+02  0.00000000000E+00 0. -1.
         11    1    3    3    0    0  0.39116199403E+00  0.78642236769E+01  0.16213007109E+01  0.80391316696E+01  0.51100000000E-03 0. -1.
        -11    1    3    3    0    0  0.71091207080E+01 -0.46499271991E+01 -0.87910296213E+01  0.12224713586E+02  0.51100000000E-03 0.  1.
         12    1    3    3    0    0  0.19659915836E+02  0.17729539244E+02 -0.14667049893E+02  0.30265016191E+02  0.00000000000E+00 0. -1.
</event>
<event>
 7    1  0.5910662E-013  0.5052885E+02  0.7816164E-02  0.1300439E+00
        -11   -1    0    0    0    0  0.00000000000E+00  0.00000000000E+00  0.45593999997E+02  0.45594000000E+02  0.51100000000E-03 0. -1.
         11   -1    0    0    0    0 -0.00000000000E+00 -0.00000000000E+00 -0.45593999997E+02  0.45594000000E+02  0.51100000000E-03 0.  1.
    9900012    2    1    2    0    0 -0.28018551610E+02  0.29457398428E+02 -0.62345739081E+00  0.50528852744E+02  0.29999978401E+02 0.  0.
         12    1    1    2    0    0  0.28018551610E+02 -0.29457398428E+02  0.62345739081E+00  0.40659147256E+02  0.00000000000E+00 0. -1.
         11    1    3    3    0    0  0.20517999346E+01  0.41542717402E+01  0.46866668934E+01  0.65903492695E+01  0.51100000000E-03 0. -1.
        -11    1    3    3    0    0 -0.20982551317E+02  0.26754021368E+02 -0.66312013114E+01  0.34641275239E+02  0.51100000000E-03 0.  1.
         12    1    3    3    0    0 -0.90878002277E+01 -0.14508946798E+01  0.13210770273E+01  0.92972282355E+01  0.00000000000E+00 0. -1.
</event>
<event>
 7    1  0.5910662E-013  0.5052886E+02  0.7816164E-02  0.1300439E+00
        -11   -1    0    0    0    0  0.00000000000E+00  0.00000000000E+00  0.45593999997E+02  0.45594000000E+02  0.51100000000E-03 0. -1.
         11   -1    0    0    0    0 -0.00000000000E+00 -0.00000000000E+00 -0.45593999997E+02  0.45594000000E+02  0.51100000000E-03 0.  1.
    9900012    2    1    2    0    0  0.21985200083E+01  0.34159510752E+02 -0.21942194024E+02  0.50528861499E+02  0.30000005014E+02 0.  0.
         12    1    1    2    0    0 -0.21985200083E+01 -0.34159510752E+02  0.21942194024E+02  0.40659138501E+02  0.00000000000E+00 0. -1.
         11    1    3    3    0    0 -0.40993286334E+01 -0.28580305089E+00 -0.48508713379E+01  0.63574469425E+01  0.51100000000E-03 0. -1.
        -11    1    3    3    0    0  0.12766745626E+02  0.28516197212E+02 -0.16607115957E+02  0.35383041107E+02  0.51100000000E-03 0.  1.
        -12    1    3    3    0    0 -0.64688969841E+01  0.59291165911E+01 -0.48420672823E+00  0.87883734500E+01  0.00000000000E+00 0.  1.
</event>
<event>
 7    1  0.5910662E-013  0.5052886E+02  0.7816164E-02  0.1300439E+00
        -11   -1    0    0    0    0  0.00000000000E+00  0.00000000000E+00  0.45593999997E+02  0.45594000000E+02  0.51100000000E-03 0. -1.
         11   -1    0    0    0    0 -0.00000000000E+00 -0.00000000000E+00 -0.45593999997E+02  0.45594000000E+02  0.51100000000E-03 0.  1.
    9900012    2    1    2    0    0 -0.36388392141E+02 -0.36212314767E+01 -0.17774633508E+02  0.50528855932E+02  0.29999988091E+02 0.  0.
         12    1    1    2    0    0  0.36388392141E+02  0.36212314767E+01  0.17774633508E+02  0.40659144068E+02  0.00000000000E+00 0. -1.
         11    1    3    3    0    0 -0.95326629963E+01 -0.10023601060E+02 -0.37740615320E+01  0.14338332634E+02  0.51100000000E-03 0. -1.
        -11    1    3    3    0    0 -0.29740146787E+02  0.65995711770E+01 -0.12446321859E+02  0.32908078016E+02  0.51100000000E-03 0.  1.
        -12    1    3    3    0    0  0.28844176421E+01 -0.19720159329E+00 -0.15542501171E+01  0.32824452820E+01  0.00000000000E+00 0.  1.
</event>
<event>
 7    1  0.5910662E-013  0.5052887E+02  0.7816164E-02  0.1300439E+00
        -11   -1    0    0    0    0  0.00000000000E+00  0.00000000000E+00  0.45593999997E+02  0.45594000000E+02  0.51100000000E-03 0.  1.
         11   -1    0    0    0    0 -0.00000000000E+00 -0.00000000000E+00 -0.45593999997E+02  0.45594000000E+02  0.51100000000E-03 0. -1.
    9900012    2    1    2    0    0  0.22267801461E+02  0.28273825572E+02  0.18918267588E+02  0.50528867657E+02  0.30000023729E+02 0.  0.
         12    1    1    2    0    0 -0.22267801461E+02 -0.28273825572E+02 -0.18918267588E+02  0.40659132343E+02  0.00000000000E+00 0. -1.
         11    1    3    3    0    0  0.14840022774E+02  0.14694513194E+02 -0.21083866514E+01  0.20990480902E+02  0.51100000000E-03 0.  1.
        -11    1    3    3    0    0  0.85487364630E+01  0.16850043565E+01  0.10206463628E+02  0.13419837363E+02  0.51100000000E-03 0. -1.
         12    1    3    3    0    0 -0.11209577755E+01  0.11894308021E+02  0.10820190612E+02  0.16118549392E+02  0.00000000000E+00 0. -1.
</event>
<event>
 7    1  0.5910662E-013  0.5052886E+02  0.7816164E-02  0.1300439E+00
        -11   -1    0    0    0    0  0.00000000000E+00  0.00000000000E+00  0.45593999997E+02  0.45594000000E+02  0.51100000000E-03 0. -1.
         11   -1    0    0    0    0 -0.00000000000E+00 -0.00000000000E+00 -0.45593999997E+02  0.45594000000E+02  0.51100000000E-03 0.  1.
    9900012    2    1    2    0    0  0.35245875411E+02 -0.18773484675E+01 -0.20183401047E+02  0.50528857749E+02  0.29999993614E+02 0.  0.
         12    1    1    2    0    0 -0.35245875411E+02  0.18773484675E+01  0.20183401047E+02  0.40659142251E+02  0.00000000000E+00 0. -1.
         11    1    3    3    0    0  0.56490137312E+01 -0.87917176870E+00  0.17090671978E+01  0.59670101459E+01  0.51100000000E-03 0. -1.
        -11    1    3    3    0    0  0.91598628175E+01 -0.64537378775E+01 -0.20501210004E+02  0.23363506400E+02  0.51100000000E-03 0.  1.
        -12    1    3    3    0    0  0.20436998862E+02  0.54555611787E+01 -0.13912582408E+01  0.21198341203E+02  0.00000000000E+00 0.  1.
</event>
<event>
 7    1  0.5910662E-013  0.5052887E+02  0.7816164E-02  0.1300439E+00
        -11   -1    0    0    0    0  0.00000000000E+00  0.00000000000E+00  0.45593999997E+02  0.45594000000E+02  0.51100000000E-03 0. -1.
         11   -1    0    0    0    0 -0.00000000000E+00 -0.00000000000E+00 -0.45593999997E+02  0.45594000000E+02  0.51100000000E-03 0.  1.
    9900012    2    1    2    0    0 -0.14537004682E+02  0.37971543600E+02  0.47570046203E-01  0.50528869520E+02  0.30000029393E+02 0.  0.
         12    1    1    2    0    0  0.14537004682E+02 -0.37971543600E+02 -0.47570046203E-01  0.40659130480E+02  0.00000000000E+00 0. -1.
         11    1    3    3    0    0 -0.34646687619E+01  0.12059942230E+02  0.11755155780E+02  0.17193889144E+02  0.51100000000E-03 0. -1.
        -11    1    3    3    0    0 -0.23492657336E+01  0.70486429265E+01 -0.10034122563E+02  0.12485432811E+02  0.51100000000E-03 0.  1.
        -12    1    3    3    0    0 -0.87230701868E+01  0.18862958443E+02 -0.16734631701E+01  0.20849547566E+02  0.00000000000E+00 0.  1.
</event>
<event>
 7    1  0.5910662E-013  0.5052888E+02  0.7816164E-02  0.1300439E+00
        -11   -1    0    0    0    0  0.00000000000E+00  0.00000000000E+00  0.45593999997E+02  0.45594000000E+02  0.51100000000E-03 0.  1.
         11   -1    0    0    0    0 -0.00000000000E+00 -0.00000000000E+00 -0.45593999997E+02  0.45594000000E+02  0.51100000000E-03 0. -1.
    9900012    2    1    2    0    0  0.24894509403E+02  0.19863109478E+02  0.25276162628E+02  0.50528879083E+02  0.30000058462E+02 0.  0.
         12    1    1    2    0    0 -0.24894509403E+02 -0.19863109478E+02 -0.25276162628E+02  0.40659120917E+02  0.00000000000E+00 0. -1.
         11    1    3    3    0    0 -0.41598427339E+01  0.76258546452E+01  0.65998199082E+01  0.10909425912E+02  0.51100000000E-03 0. -1.
        -11    1    3    3    0    0  0.10553489545E+02 -0.24355908232E+01  0.90705324271E+01  0.14127377782E+02  0.51100000000E-03 0.  1.
         12    1    3    3    0    0  0.18500862592E+02  0.14672845656E+02  0.96058102922E+01  0.25492075389E+02  0.00000000000E+00 0. -1.
</event>
<event>
 7    1  0.5910662E-013  0.5052884E+02  0.7816164E-02  0.1300439E+00
        -11   -1    0    0    0    0  0.00000000000E+00  0.00000000000E+00  0.45593999997E+02  0.45594000000E+02  0.51100000000E-03 0.  1.
         11   -1    0    0    0    0 -0.00000000000E+00 -0.00000000000E+00 -0.45593999997E+02  0.45594000000E+02  0.51100000000E-03 0. -1.
    9900012    2    1    2    0    0  0.24424768206E+02 -0.13900738486E+02  0.29383111400E+02  0.50528842754E+02  0.29999948036E+02 0.  0.
         12    1    1    2    0    0 -0.24424768206E+02  0.13900738486E+02 -0.29383111400E+02  0.40659157246E+02  0.00000000000E+00 0. -1.
         11    1    3    3    0    0  0.23901023088E+02 -0.58267430256E+01  0.29431691081E+02  0.38359278918E+02  0.51100000000E-03 0.  1.
        -11    1    3    3    0    0 -0.18602760958E+01 -0.92861914298E+01 -0.35645881354E+00  0.94773963497E+01  0.51100000000E-03 0. -1.
         12    1    3    3    0    0  0.23840212142E+01  0.12121959691E+01  0.30787913239E+00  0.26921674869E+01  0.00000000000E+00 0. -1.
</event>
<event>
 7    1  0.5910662E-013  0.5052885E+02  0.7816164E-02  0.1300439E+00
        -11   -1    0    0    0    0  0.00000000000E+00  0.00000000000E+00  0.45593999997E+02  0.45594000000E+02  0.51100000000E-03 0. -1.
         11   -1    0    0    0    0 -0.00000000000E+00 -0.00000000000E+00 -0.45593999997E+02  0.45594000000E+02  0.51100000000E-03 0.  1.
    9900012    2    1    2    0    0  0.42729965651E+01  0.39903585072E+02 -0.65277577828E+01  0.50528853146E+02  0.29999979622E+02 0.  0.
         12    1    1    2    0    0 -0.42729965651E+01 -0.39903585072E+02  0.65277577828E+01  0.40659146854E+02  0.00000000000E+00 0. -1.
         11    1    3    3    0    0 -0.50014463640E+01  0.35312949984E+01  0.27984035566E+01  0.67316842487E+01  0.51100000000E-03 0. -1.
        -11    1    3    3    0    0  0.63877611197E+01  0.10656486796E+02 -0.12621790374E+02  0.17710838361E+02  0.51100000000E-03 0.  1.
         12    1    3    3    0    0  0.28866818094E+01  0.25715803278E+02  0.32956290348E+01  0.26086330536E+02  0.00000000000E+00 0. -1.
</event>
<event>
 7    1  0.5910662E-013  0.5052886E+02  0.7816164E-02  0.1300439E+00
        -11   -1    0    0    0    0  0.00000000000E+00  0.00000000000E+00  0.45593999997E+02  0.45594000000E+02  0.51100000000E-03 0. -1.
         11   -1    0    0    0    0 -0.00000000000E+00 -0.00000000000E+00 -0.45593999997E+02  0.45594000000E+02  0.51100000000E-03 0.  1.
    9900012    2    1    2    0    0  0.39945565283E+02  0.42051144466E+00 -0.75723835322E+01  0.50528855788E+02  0.29999987654E+02 0.  0.
         12    1    1    2    0    0 -0.39945565283E+02 -0.42051144466E+00  0.75723835322E+01  0.40659144212E+02  0.00000000000E+00 0. -1.
         11    1    3    3    0    0 -0.47413732176E+00 -0.19729323700E+01 -0.52817736684E+00  0.20967212329E+01  0.51100000000E-03 0. -1.
        -11    1    3    3    0    0  0.15498322790E+02  0.13549671290E+02 -0.38244932060E+01  0.20938441917E+02  0.51100000000E-03 0.  1.
        -12    1    3    3    0    0  0.24921379815E+02 -0.11156227475E+02 -0.32197129593E+01  0.27493692638E+02  0.00000000000E+00 0.  1.
</event>
<event>
 7    1  0.5910662E-013  0.5052886E+02  0.7816164E-02  0.1300439E+00
        -11   -1    0    0    0    0  0.00000000000E+00  0.00000000000E+00  0.45593999997E+02  0.45594000000E+02  0.51100000000E-03 0. -1.
         11   -1    0    0    0    0 -0.00000000000E+00 -0.00000000000E+00 -0.45593999997E+02  0.45594000000E+02  0.51100000000E-03 0.  1.
    9900012    2    1    2    0    0  0.40300489529E+02  0.23822300177E+01 -0.48333062712E+01  0.50528864180E+02  0.30000013161E+02 0.  0.
         12    1    1    2    0    0 -0.40300489529E+02 -0.23822300177E+01  0.48333062712E+01  0.40659135820E+02  0.00000000000E+00 0. -1.
         11    1    3    3    0    0  0.82784442707E+00  0.25450216706E+01 -0.34107186000E+01  0.43353734936E+01  0.51100000000E-03 0. -1.
        -11    1    3    3    0    0  0.19568617319E+02 -0.51816868616E+01  0.10132806223E+02  0.22637456233E+02  0.51100000000E-03 0.  1.
        -12    1    3    3    0    0  0.19904027783E+02  0.50188952087E+01 -0.11555393894E+02  0.23556034453E+02  0.00000000000E+00 0.  1.
</event>
<event>
 7    1  0.5910662E-013  0.5052885E+02  0.7816164E-02  0.1300439E+00
        -11   -1    0    0    0    0  0.00000000000E+00  0.00000000000E+00  0.45593999997E+02  0.45594000000E+02  0.51100000000E-03 0. -1.
         11   -1    0    0    0    0 -0.00000000000E+00 -0.00000000000E+00 -0.45593999997E+02  0.45594000000E+02  0.51100000000E-03 0.  1.
    9900012    2    1    2    0    0  0.32520247694E+01  0.24663580873E+02  0.32160512005E+02  0.50528850735E+02  0.29999972293E+02 0.  0.
         12    1    1    2    0    0 -0.32520247694E+01 -0.24663580873E+02 -0.32160512005E+02  0.40659149265E+02  0.00000000000E+00 0. -1.
         11    1    3    3    0    0  0.31081538653E+01  0.17509358063E+02  0.69684508141E+01  0.19099674009E+02  0.51100000000E-03 0.  1.
        -11    1    3    3    0    0 -0.64966618610E+01  0.10081845229E+01  0.19875426510E+02  0.20934555896E+02  0.51100000000E-03 0. -1.
        -12    1    3    3    0    0  0.66405327650E+01  0.61460382864E+01  0.53166346812E+01  0.10494620829E+02  0.00000000000E+00 0.  1.
</event>
<event>
 7    1  0.5910662E-013  0.5052886E+02  0.7816164E-02  0.1300439E+00
        -11   -1    0    0    0    0  0.00000000000E+00  0.00000000000E+00  0.45593999997E+02  0.45594000000E+02  0.51100000000E-03 0.  1.
         11   -1    0    0    0    0 -0.00000000000E+00 -0.00000000000E+00 -0.45593999997E+02  0.45594000000E+02  0.51100000000E-03 0. -1.
    9900012    2    1    2    0    0 -0.44900819937E+01  0.71638538731E+01  0.39770389193E+02  0.50528862095E+02  0.30000006824E+02 0.  0.
         12    1    1    2    0    0  0.44900819937E+01 -0.71638538731E+01 -0.39770389193E+02  0.40659137905E+02  0.00000000000E+00 0. -1.
         11    1    3    3    0    0 -0.13922210806E+02 -0.90375120911E-01  0.84354539765E+01  0.16278605758E+02  0.51100000000E-03 0. -1.
        -11    1    3    3    0    0  0.75291750660E+01  0.60329970837E+01  0.15519729706E+02  0.18274231622E+02  0.51100000000E-03 0.  1.
         12    1    3    3    0    0  0.19029537459E+01  0.12212319103E+01  0.15815205511E+02  0.15976024715E+02  0.00000000000E+00 0. -1.
</event>
<event>
 7    1  0.5910662E-013  0.5052886E+02  0.7816164E-02  0.1300439E+00
        -11   -1    0    0    0    0  0.00000000000E+00  0.00000000000E+00  0.45593999997E+02  0.45594000000E+02  0.51100000000E-03 0. -1.
         11   -1    0    0    0    0 -0.00000000000E+00 -0.00000000000E+00 -0.45593999997E+02  0.45594000000E+02  0.51100000000E-03 0.  1.
    9900012    2    1    2    0    0 -0.23241445365E+02 -0.33909436150E+01 -0.33188888421E+02  0.50528860856E+02  0.30000003059E+02 0.  0.
         12    1    1    2    0    0  0.23241445365E+02  0.33909436150E+01  0.33188888421E+02  0.40659139144E+02  0.00000000000E+00 0. -1.
         11    1    3    3    0    0  0.43428103387E+01  0.40152230920E+01 -0.13465648743E+02  0.14707335396E+02  0.51100000000E-03 0. -1.
        -11    1    3    3    0    0 -0.34337641573E+01 -0.86509085828E+00 -0.67854296915E+01  0.76538339961E+01  0.51100000000E-03 0.  1.
         12    1    3    3    0    0 -0.24150491546E+02 -0.65410758487E+01 -0.12937809987E+02  0.28167691465E+02  0.00000000000E+00 0. -1.
</event>
<event>
 7    1  0.5910662E-013  0.5052883E+02  0.7816164E-02  0.1300439E+00
        -11   -1    0    0    0    0  0.00000000000E+00  0.00000000000E+00  0.45593999997E+02  0.45594000000E+02  0.51100000000E-03 0.  1.
         11   -1    0    0    0    0 -0.00000000000E+00 -0.00000000000E+00 -0.45593999997E+02  0.45594000000E+02  0.51100000000E-03 0. -1.
    9900012    2    1    2    0    0 -0.32696803905E+02  0.92678829797E+01 -0.22320245064E+02  0.50528831536E+02  0.29999913935E+02 0.  0.
         12    1    1    2    0    0  0.32696803905E+02 -0.92678829797E+01  0.22320245064E+02  0.40659168464E+02  0.00000000000E+00 0. -1.
         11    1    3    3    0    0 -0.14147844469E+01  0.98204163037E+01 -0.60563875156E+01  0.11624199818E+02  0.51100000000E-03 0. -1.
        -11    1    3    3    0    0 -0.20614497800E+02  0.73389096577E+01 -0.81444974909E+01  0.23348446504E+02  0.51100000000E-03 0.  1.
         12    1    3    3    0    0 -0.10667521657E+02 -0.78914429818E+01 -0.81193600576E+01  0.15556185213E+02  0.00000000000E+00 0. -1.
</event>
<event>
 7    1  0.5910662E-013  0.5052886E+02  0.7816164E-02  0.1300439E+00
        -11   -1    0    0    0    0  0.00000000000E+00  0.00000000000E+00  0.45593999997E+02  0.45594000000E+02  0.51100000000E-03 0.  1.
         11   -1    0    0    0    0 -0.00000000000E+00 -0.00000000000E+00 -0.45593999997E+02  0.45594000000E+02  0.51100000000E-03 0. -1.
    9900012    2    1    2    0    0 -0.36946830813E+02  0.12893973001E+01  0.16924382985E+02  0.50528860905E+02  0.30000003207E+02 0.  0.
         12    1    1    2    0    0  0.36946830813E+02 -0.12893973001E+01 -0.16924382985E+02  0.40659139095E+02  0.00000000000E+00 0. -1.
         11    1    3    3    0    0 -0.63785040744E+01  0.11088041048E+02  0.59064012231E+01  0.14089554435E+02  0.51100000000E-03 0. -1.
        -11    1    3    3    0    0 -0.23545902094E+02 -0.12635365979E+02  0.10914129073E+02  0.28864860861E+02  0.51100000000E-03 0.  1.
        -12    1    3    3    0    0 -0.70224246445E+01  0.28367222307E+01  0.10385268931E+00  0.75744456090E+01  0.00000000000E+00 0.  1.
</event>
<event>
 7    1  0.5910662E-013  0.5052886E+02  0.7816164E-02  0.1300439E+00
        -11   -1    0    0    0    0  0.00000000000E+00  0.00000000000E+00  0.45593999997E+02  0.45594000000E+02  0.51100000000E-03 0. -1.
         11   -1    0    0    0    0 -0.00000000000E+00 -0.00000000000E+00 -0.45593999997E+02  0.45594000000E+02  0.51100000000E-03 0.  1.
    9900012    2    1    2    0    0  0.12989209496E+02  0.44972147562E+01 -0.38265145363E+02  0.50528857688E+02  0.29999993429E+02 0.  0.
         12    1    1    2    0    0 -0.12989209496E+02 -0.44972147562E+01  0.38265145363E+02  0.40659142312E+02  0.00000000000E+00 0. -1.
         11    1    3    3    0    0  0.39118172112E+01  0.75610079188E+01  0.40914538242E+00  0.85228255202E+01  0.51100000000E-03 0. -1.
        -11    1    3    3    0    0 -0.26608878759E+01 -0.37609017896E+01 -0.12046656448E+02  0.12897543890E+02  0.51100000000E-03 0.  1.
         12    1    3    3    0    0  0.11738280161E+02  0.69710862700E+00 -0.26627634297E+02  0.29108488278E+02  0.00000000000E+00 0. -1.
</event>
<event>
 7    1  0.5910662E-013  0.5052886E+02  0.7816164E-02  0.1300439E+00
        -11   -1    0    0    0    0  0.00000000000E+00  0.00000000000E+00  0.45593999997E+02  0.45594000000E+02  0.51100000000E-03 0.  1.
         11   -1    0    0    0    0 -0.00000000000E+00 -0.00000000000E+00 -0.45593999997E+02  0.45594000000E+02  0.51100000000E-03 0. -1.
    9900012    2    1    2    0    0  0.38889512310E+02  0.32138587881E+01 -0.11421148035E+02  0.50528859841E+02  0.29999999973E+02 0.  0.
         12    1    1    2    0    0 -0.38889512310E+02 -0.32138587881E+01  0.11421148035E+02  0.40659140159E+02  0.00000000000E+00 0. -1.
         11    1    3    3    0    0  0.21554697327E+02  0.73266523827E+01  0.50659060344E+01  0.23322697447E+02  0.51100000000E-03 0. -1.
        -11    1    3    3    0    0  0.80523708602E+01  0.38556168845E+01 -0.98281460794E+01  0.13277760114E+02  0.51100000000E-03 0.  1.
         12    1    3    3    0    0  0.92824441227E+01 -0.79684104791E+01 -0.66589079899E+01  0.13928402280E+02  0.00000000000E+00 0. -1.
</event>
<event>
 7    1  0.5910662E-013  0.5052886E+02  0.7816164E-02  0.1300439E+00
        -11   -1    0    0    0    0  0.00000000000E+00  0.00000000000E+00  0.45593999997E+02  0.45594000000E+02  0.51100000000E-03 0. -1.
         11   -1    0    0    0    0 -0.00000000000E+00 -0.00000000000E+00 -0.45593999997E+02  0.45594000000E+02  0.51100000000E-03 0.  1.
    9900012    2    1    2    0    0 -0.30716874830E+02 -0.18642538950E+02  0.19028788671E+02  0.50528862575E+02  0.30000008284E+02 0.  0.
         12    1    1    2    0    0  0.30716874830E+02  0.18642538950E+02 -0.19028788671E+02  0.40659137425E+02  0.00000000000E+00 0. -1.
         11    1    3    3    0    0  0.36673274340E+01 -0.88428963686E+00 -0.36107745720E+01  0.52219682057E+01  0.51100000000E-03 0. -1.
        -11    1    3    3    0    0 -0.11341139278E+02 -0.68499781072E+01  0.44045790320E+01  0.13962233235E+02  0.51100000000E-03 0.  1.
         12    1    3    3    0    0 -0.23043062986E+02 -0.10908271206E+02  0.18234984211E+02  0.31344661134E+02  0.00000000000E+00 0. -1.
</event>
<event>
 7    1  0.5910662E-013  0.5052887E+02  0.7816164E-02  0.1300439E+00
        -11   -1    0    0    0    0  0.00000000000E+00  0.00000000000E+00  0.45593999997E+02  0.45594000000E+02  0.51100000000E-03 0.  1.
         11   -1    0    0    0    0 -0.00000000000E+00 -0.00000000000E+00 -0.45593999997E+02  0.45594000000E+02  0.51100000000E-03 0. -1.
    9900012    2    1    2    0    0 -0.19138838015E+00  0.40657124888E+02  0.35604070245E+00  0.50528865741E+02  0.30000017906E+02 0.  0.
         12    1    1    2    0    0  0.19138838015E+00 -0.40657124888E+02 -0.35604070245E+00  0.40659134259E+02  0.00000000000E+00 0. -1.
         11    1    3    3    0    0 -0.12051951605E+02  0.16103714225E+02  0.35377030503E+01  0.20422891384E+02  0.51100000000E-03 0. -1.
        -11    1    3    3    0    0  0.81498699424E+01  0.24233874810E+02 -0.48524149257E+01  0.26023969706E+02  0.51100000000E-03 0.  1.
        -12    1    3    3    0    0  0.37106932823E+01  0.31953585308E+00  0.16707525779E+01  0.40820046513E+01  0.00000000000E+00 0.  1.
</event>
<event>
 7    1  0.5910662E-013  0.5052886E+02  0.7816164E-02  0.1300439E+00
        -11   -1    0    0    0    0  0.00000000000E+00  0.00000000000E+00  0.45593999997E+02  0.45594000000E+02  0.51100000000E-03 0.  1.
         11   -1    0    0    0    0 -0.00000000000E+00 -0.00000000000E+00 -0.45593999997E+02  0.45594000000E+02  0.51100000000E-03 0. -1.
    9900012    2    1    2    0    0 -0.12607455646E+02 -0.13686516674E+02  0.36151028092E+02  0.50528861929E+02  0.30000006321E+02 0.  0.
         12    1    1    2    0    0  0.12607455646E+02  0.13686516674E+02 -0.36151028092E+02  0.40659138071E+02  0.00000000000E+00 0. -1.
         11    1    3    3    0    0  0.65550509618E+01  0.19852501107E+01  0.10867601519E+02  0.12845803757E+02  0.51100000000E-03 0. -1.
        -11    1    3    3    0    0 -0.17330921182E+02 -0.78814818884E+01  0.21832920585E+02  0.28968172316E+02  0.51100000000E-03 0.  1.
        -12    1    3    3    0    0 -0.18315854252E+01 -0.77902848958E+01  0.34505059882E+01  0.87148858571E+01  0.00000000000E+00 0.  1.
</event>
<event>
 7    1  0.5910662E-013  0.5052886E+02  0.7816164E-02  0.1300439E+00
        -11   -1    0    0    0    0  0.00000000000E+00  0.00000000000E+00  0.45593999997E+02  0.45594000000E+02  0.51100000000E-03 0.  1.
         11   -1    0    0    0    0 -0.00000000000E+00 -0.00000000000E+00 -0.45593999997E+02  0.45594000000E+02  0.51100000000E-03 0. -1.
    9900012    2    1    2    0    0  0.73212444130E+01 -0.34894353020E+02  0.19543510819E+02  0.50528864402E+02  0.30000013836E+02 0.  0.
         12    1    1    2    0    0 -0.73212444130E+01  0.34894353020E+02 -0.19543510819E+02  0.40659135598E+02  0.00000000000E+00 0. -1.
         11    1    3    3    0    0  0.92016022358E+01  0.14311570052E+01  0.11014174958E+01  0.93771432132E+01  0.51100000000E-03 0. -1.
        -11    1    3    3    0    0 -0.11255707276E+01 -0.18441862645E+02  0.62927957210E+01  0.19518414011E+02  0.51100000000E-03 0.  1.
         12    1    3    3    0    0 -0.75478709527E+00 -0.17883647381E+02  0.12149297602E+02  0.21633307177E+02  0.00000000000E+00 0. -1.
</event>
<event>
 7    1  0.5910662E-013  0.5052886E+02  0.7816164E-02  0.1300439E+00
        -11   -1    0    0    0    0  0.00000000000E+00  0.00000000000E+00  0.45593999997E+02  0.45594000000E+02  0.51100000000E-03 0.  1.
         11   -1    0    0    0    0 -0.00000000000E+00 -0.00000000000E+00 -0.45593999997E+02  0.45594000000E+02  0.51100000000E-03 0. -1.
    9900012    2    1    2    0    0  0.30167280869E+02 -0.25607571333E+02  0.93462851399E+01  0.50528860922E+02  0.30000003260E+02 0.  0.
         12    1    1    2    0    0 -0.30167280869E+02  0.25607571333E+02 -0.93462851399E+01  0.40659139078E+02  0.00000000000E+00 0. -1.
         11    1    3    3    0    0  0.35316927416E+01 -0.60095783482E+01 -0.31295235735E+01  0.76407986234E+01  0.51100000000E-03 0. -1.
        -11    1    3    3    0    0  0.10372779435E+02  0.37316476963E+01  0.90135792127E+01  0.14239535042E+02  0.51100000000E-03 0.  1.
        -12    1    3    3    0    0  0.16262808693E+02 -0.23329640681E+02  0.34622295008E+01  0.28648527257E+02  0.00000000000E+00 0.  1.
</event>
<event>
 7    1  0.5910662E-013  0.5052886E+02  0.7816164E-02  0.1300439E+00
        -11   -1    0    0    0    0  0.00000000000E+00  0.00000000000E+00  0.45593999997E+02  0.45594000000E+02  0.51100000000E-03 0.  1.
         11   -1    0    0    0    0 -0.00000000000E+00 -0.00000000000E+00 -0.45593999997E+02  0.45594000000E+02  0.51100000000E-03 0. -1.
    9900012    2    1    2    0    0 -0.67853582878E+01 -0.27172164434E+02  0.29475386971E+02  0.50528855344E+02  0.29999986303E+02 0.  0.
         12    1    1    2    0    0  0.67853582878E+01  0.27172164434E+02 -0.29475386971E+02  0.40659144656E+02  0.00000000000E+00 0. -1.
         11    1    3    3    0    0 -0.76299516218E+01 -0.75634163593E+01 -0.10617497314E+01  0.10795774244E+02  0.51100000000E-03 0. -1.
        -11    1    3    3    0    0 -0.21364743637E+01 -0.21538755547E+02  0.27891452064E+02  0.35304611763E+02  0.51100000000E-03 0.  1.
        -12    1    3    3    0    0  0.29810676977E+01  0.19300074727E+01  0.26456846384E+01  0.44284693370E+01  0.00000000000E+00 0.  1.
</event>
<event>
 7    1  0.5910662E-013  0.5052885E+02  0.7816164E-02  0.1300439E+00
        -11   -1    0    0    0    0  0.00000000000E+00  0.00000000000E+00  0.45593999997E+02  0.45594000000E+02  0.51100000000E-03 0.  1.
         11   -1    0    0    0    0 -0.00000000000E+00 -0.00000000000E+00 -0.45593999997E+02  0.45594000000E+02  0.51100000000E-03 0. -1.
    9900012    2    1    2    0    0  0.45904783793E+00  0.38500469949E+02  0.13064060780E+02  0.50528848567E+02  0.29999965704E+02 0.  0.
         12    1    1    2    0    0 -0.45904783793E+00 -0.38500469949E+02 -0.13064060780E+02  0.40659151433E+02  0.00000000000E+00 0. -1.
         11    1    3    3    0    0  0.78376084914E+00  0.27038110028E+01 -0.81839448423E+01  0.86545842448E+01  0.51100000000E-03 0. -1.
        -11    1    3    3    0    0  0.16848756242E+01  0.25134217364E+02  0.15769368236E+02  0.29719365121E+02  0.51100000000E-03 0.  1.
         12    1    3    3    0    0 -0.20095886354E+01  0.10662441583E+02  0.54786373861E+01  0.12154899201E+02  0.00000000000E+00 0. -1.
</event>
<event>
 7    1  0.5910662E-013  0.5052887E+02  0.7816164E-02  0.1300439E+00
        -11   -1    0    0    0    0  0.00000000000E+00  0.00000000000E+00  0.45593999997E+02  0.45594000000E+02  0.51100000000E-03 0.  1.
         11   -1    0    0    0    0 -0.00000000000E+00 -0.00000000000E+00 -0.45593999997E+02  0.45594000000E+02  0.51100000000E-03 0. -1.
    9900012    2    1    2    0    0  0.74202507235E+01 -0.17492112141E+02  0.35946223692E+02  0.50528866885E+02  0.30000021383E+02 0.  0.
         12    1    1    2    0    0 -0.74202507235E+01  0.17492112141E+02 -0.35946223692E+02  0.40659133115E+02  0.00000000000E+00 0. -1.
         11    1    3    3    0    0 -0.43701216606E+01  0.37447357133E+01  0.22465399567E+01  0.61780216032E+01  0.51100000000E-03 0. -1.
        -11    1    3    3    0    0  0.11584299074E+02 -0.19458192714E+02  0.19051204213E+02  0.29593337611E+02  0.51100000000E-03 0.  1.
         12    1    3    3    0    0  0.20607330959E+00 -0.17786551402E+01  0.14648479523E+02  0.14757507671E+02  0.00000000000E+00 0. -1.
</event>
<event>
 7    1  0.5910662E-013  0.5052885E+02  0.7816164E-02  0.1300439E+00
        -11   -1    0    0    0    0  0.00000000000E+00  0.00000000000E+00  0.45593999997E+02  0.45594000000E+02  0.51100000000E-03 0.  1.
         11   -1    0    0    0    0 -0.00000000000E+00 -0.00000000000E+00 -0.45593999997E+02  0.45594000000E+02  0.51100000000E-03 0. -1.
    9900012    2    1    2    0    0  0.37770050731E+02  0.14436852413E+02 -0.42622386616E+01  0.50528854433E+02  0.29999983535E+02 0.  0.
         12    1    1    2    0    0 -0.37770050731E+02 -0.14436852413E+02  0.42622386616E+01  0.40659145567E+02  0.00000000000E+00 0. -1.
         11    1    3    3    0    0  0.61766029059E+01 -0.13801481307E+01 -0.72909661853E+01  0.96547097573E+01  0.51100000000E-03 0. -1.
        -11    1    3    3    0    0  0.28794316242E+02  0.19920408846E+02 -0.81672797660E-01  0.35013454659E+02  0.51100000000E-03 0.  1.
        -12    1    3    3    0    0  0.27991315830E+01 -0.41034083025E+01  0.31104003214E+01  0.58606900170E+01  0.00000000000E+00 0.  1.
</event>
<event>
 7    1  0.5910662E-013  0.5052886E+02  0.7816164E-02  0.1300439E+00
        -11   -1    0    0    0    0  0.00000000000E+00  0.00000000000E+00  0.45593999997E+02  0.45594000000E+02  0.51100000000E-03 0. -1.
         11   -1    0    0    0    0 -0.00000000000E+00 -0.00000000000E+00 -0.45593999997E+02  0.45594000000E+02  0.51100000000E-03 0.  1.
    9900012    2    1    2    0    0 -0.18673737752E+02  0.13444817694E+02 -0.33521542747E+02  0.50528862865E+02  0.30000009164E+02 0.  0.
         12    1    1    2    0    0  0.18673737752E+02 -0.13444817694E+02  0.33521542747E+02  0.40659137135E+02  0.00000000000E+00 0. -1.
         11    1    3    3    0    0  0.40194646132E+01 -0.45850826227E+01 -0.12411579249E+02  0.13828462610E+02  0.51100000000E-03 0. -1.
        -11    1    3    3    0    0 -0.20869526725E+02  0.13294173106E+02 -0.15815826670E+02  0.29366861559E+02  0.51100000000E-03 0.  1.
         12    1    3    3    0    0 -0.18236756403E+01  0.47357272106E+01 -0.52941368277E+01  0.73335386959E+01  0.00000000000E+00 0. -1.
</event>
<event>
 7    1  0.5910662E-013  0.5052886E+02  0.7816164E-02  0.1300439E+00
        -11   -1    0    0    0    0  0.00000000000E+00  0.00000000000E+00  0.45593999997E+02  0.45594000000E+02  0.51100000000E-03 0.  1.
         11   -1    0    0    0    0 -0.00000000000E+00 -0.00000000000E+00 -0.45593999997E+02  0.45594000000E+02  0.51100000000E-03 0. -1.
    9900012    2    1    2    0    0 -0.30804246104E+02 -0.75188619485E+01  0.25450549494E+02  0.50528864095E+02  0.30000012902E+02 0.  0.
         12    1    1    2    0    0  0.30804246104E+02  0.75188619485E+01 -0.25450549494E+02  0.40659135905E+02  0.00000000000E+00 0. -1.
         11    1    3    3    0    0 -0.12531541396E+02 -0.34881468795E+01 -0.42044083565E+01  0.13670543087E+02  0.51100000000E-03 0. -1.
        -11    1    3    3    0    0 -0.15158651250E+02  0.10509885237E+00  0.27176713988E+02  0.31118636488E+02  0.51100000000E-03 0.  1.
        -12    1    3    3    0    0 -0.31140534588E+01 -0.41358139214E+01  0.24782438630E+01  0.57396845193E+01  0.00000000000E+00 0.  1.
</event>
<event>
 7    1  0.5910662E-013  0.5052886E+02  0.7816164E-02  0.1300439E+00
        -11   -1    0    0    0    0  0.00000000000E+00  0.00000000000E+00  0.45593999997E+02  0.45594000000E+02  0.51100000000E-03 0. -1.
         11   -1    0    0    0    0 -0.00000000000E+00 -0.00000000000E+00 -0.45593999997E+02  0.45594000000E+02  0.51100000000E-03 0.  1.
    9900012    2    1    2    0    0 -0.28668488963E+02 -0.28371487952E+02  0.51324375081E+01  0.50528862002E+02  0.30000006540E+02 0.  0.
         12    1    1    2    0    0  0.28668488963E+02  0.28371487952E+02 -0.51324375081E+01  0.40659137998E+02  0.00000000000E+00 0. -1.
         11    1    3    3    0    0 -0.18382903809E+02 -0.72719567957E+01 -0.72562817675E+01  0.21058635603E+02  0.51100000000E-03 0. -1.
        -11    1    3    3    0    0  0.15481807847E+01 -0.11213580043E+02  0.52414084374E+01  0.12474518179E+02  0.51100000000E-03 0.  1.
         12    1    3    3    0    0 -0.11833765939E+02 -0.98859511129E+01  0.71473108381E+01  0.16995708220E+02  0.00000000000E+00 0. -1.
</event>
<event>
 7    1  0.5910662E-013  0.5052886E+02  0.7816164E-02  0.1300439E+00
        -11   -1    0    0    0    0  0.00000000000E+00  0.00000000000E+00  0.45593999997E+02  0.45594000000E+02  0.51100000000E-03 0. -1.
         11   -1    0    0    0    0 -0.00000000000E+00 -0.00000000000E+00 -0.45593999997E+02  0.45594000000E+02  0.51100000000E-03 0.  1.
    9900012    2    1    2    0    0  0.35099736795E+02 -0.13710124762E+02 -0.15271095963E+02  0.50528863069E+02  0.30000009783E+02 0.  0.
         12    1    1    2    0    0 -0.35099736795E+02  0.13710124762E+02  0.15271095963E+02  0.40659136931E+02  0.00000000000E+00 0. -1.
         11    1    3    3    0    0  0.11995785243E+02  0.28156820026E+01 -0.10933995631E+02  0.16473590667E+02  0.51100000000E-03 0. -1.
        -11    1    3    3    0    0  0.20754986893E+02 -0.11247746751E+02  0.39684810555E+01  0.23938047750E+02  0.51100000000E-03 0.  1.
        -12    1    3    3    0    0  0.23489646594E+01 -0.52780600134E+01 -0.83055813874E+01  0.10117224652E+02  0.00000000000E+00 0.  1.
</event>
<event>
 7    1  0.5910662E-013  0.5052886E+02  0.7816164E-02  0.1300439E+00
        -11   -1    0    0    0    0  0.00000000000E+00  0.00000000000E+00  0.45593999997E+02  0.45594000000E+02  0.51100000000E-03 0.  1.
         11   -1    0    0    0    0 -0.00000000000E+00 -0.00000000000E+00 -0.45593999997E+02  0.45594000000E+02  0.51100000000E-03 0. -1.
    9900012    2    1    2    0    0  0.30918161068E+02  0.10946018891E+02  0.24029510601E+02  0.50528863351E+02  0.30000010640E+02 0.  0.
         12    1    1    2    0    0 -0.30918161068E+02 -0.10946018891E+02 -0.24029510601E+02  0.40659136649E+02  0.00000000000E+00 0. -1.
         11    1    3    3    0    0  0.11081500547E+02 -0.11579070999E+01  0.37836536319E+01  0.11766751390E+02  0.51100000000E-03 0. -1.
        -11    1    3    3    0    0 -0.25445281242E+01  0.93726836088E+01  0.23921580777E+01  0.10002211852E+02  0.51100000000E-03 0.  1.
        -12    1    3    3    0    0  0.22381188645E+02  0.27312423818E+01  0.17853698891E+02  0.28759900108E+02  0.00000000000E+00 0.  1.
</event>
<event>
 7    1  0.5910662E-013  0.5052886E+02  0.7816164E-02  0.1300439E+00
        -11   -1    0    0    0    0  0.00000000000E+00  0.00000000000E+00  0.45593999997E+02  0.45594000000E+02  0.51100000000E-03 0. -1.
         11   -1    0    0    0    0 -0.00000000000E+00 -0.00000000000E+00 -0.45593999997E+02  0.45594000000E+02  0.51100000000E-03 0.  1.
    9900012    2    1    2    0    0  0.36229355750E+02  0.50274969211E+01 -0.17757351917E+02  0.50528862153E+02  0.30000006999E+02 0.  0.
         12    1    1    2    0    0 -0.36229355750E+02 -0.50274969211E+01  0.17757351917E+02  0.40659137847E+02  0.00000000000E+00 0. -1.
         11    1    3    3    0    0  0.57858614771E+00 -0.14032648551E+01 -0.21284216531E+00  0.15327153135E+01  0.51100000000E-03 0. -1.
        -11    1    3    3    0    0  0.15899943426E+02  0.17769728208E+01  0.67305903144E+01  0.17357035449E+02  0.51100000000E-03 0.  1.
        -12    1    3    3    0    0  0.19750826177E+02  0.46537889554E+01 -0.24275100066E+02  0.31639111390E+02  0.00000000000E+00 0.  1.
</event>
<event>
 7    1  0.5910662E-013  0.5052884E+02  0.7816164E-02  0.1300439E+00
        -11   -1    0    0    0    0  0.00000000000E+00  0.00000000000E+00  0.45593999997E+02  0.45594000000E+02  0.51100000000E-03 0.  1.
         11   -1    0    0    0    0 -0.00000000000E+00 -0.00000000000E+00 -0.45593999997E+02  0.45594000000E+02  0.51100000000E-03 0. -1.
    9900012    2    1    2    0    0  0.92824922336E+01 -0.39263051725E+01  0.39390185529E+02  0.50528840511E+02  0.29999941217E+02 0.  0.
         12    1    1    2    0    0 -0.92824922336E+01  0.39263051725E+01 -0.39390185529E+02  0.40659159489E+02  0.00000000000E+00 0. -1.
         11    1    3    3    0    0 -0.35192744827E+01 -0.17807140018E+01  0.16011179619E+01  0.42567375101E+01  0.51100000000E-03 0. -1.
        -11    1    3    3    0    0  0.16130339588E+02  0.37007233385E+01  0.14408265709E+02  0.21942682822E+02  0.51100000000E-03 0.  1.
        -12    1    3    3    0    0 -0.33285728716E+01 -0.58463145092E+01  0.23380801858E+02  0.24329420179E+02  0.00000000000E+00 0.  1.
</event>
<event>
 7    1  0.5910662E-013  0.5052894E+02  0.7816164E-02  0.1300438E+00
        -11   -1    0    0    0    0  0.00000000000E+00  0.00000000000E+00  0.45593999997E+02  0.45594000000E+02  0.51100000000E-03 0.  1.
         11   -1    0    0    0    0 -0.00000000000E+00 -0.00000000000E+00 -0.45593999997E+02  0.45594000000E+02  0.51100000000E-03 0. -1.
    9900012    2    1    2    0    0  0.36729315952E+02 -0.14667757208E+02  0.94325557968E+01  0.50528943682E+02  0.30000254815E+02 0.  0.
         12    1    1    2    0    0 -0.36729315952E+02  0.14667757208E+02 -0.94325557968E+01  0.40659056318E+02  0.00000000000E+00 0. -1.
         11    1    3    3    0    0  0.11240605737E+01 -0.54380461012E+01  0.63098635894E+01  0.84053694952E+01  0.51100000000E-03 0. -1.
        -11    1    3    3    0    0  0.36391598197E+02 -0.81662441987E+01 -0.14886652633E+01  0.37326292184E+02  0.51100000000E-03 0.  1.
        -12    1    3    3    0    0 -0.78634281936E+00 -0.10634669083E+01  0.46113574707E+01  0.47972820031E+01  0.00000000000E+00 0.  1.
</event>
<event>
 7    1  0.5910662E-013  0.5052887E+02  0.7816164E-02  0.1300439E+00
        -11   -1    0    0    0    0  0.00000000000E+00  0.00000000000E+00  0.45593999997E+02  0.45594000000E+02  0.51100000000E-03 0.  1.
         11   -1    0    0    0    0 -0.00000000000E+00 -0.00000000000E+00 -0.45593999997E+02  0.45594000000E+02  0.51100000000E-03 0. -1.
    9900012    2    1    2    0    0  0.29055161930E+02 -0.10978453767E+02  0.26238061769E+02  0.50528871046E+02  0.30000034032E+02 0.  0.
         12    1    1    2    0    0 -0.29055161930E+02  0.10978453767E+02 -0.26238061769E+02  0.40659128954E+02  0.00000000000E+00 0. -1.
         11    1    3    3    0    0  0.29631846572E+01  0.29454932025E-02 -0.25063152685E+01  0.38809906563E+01  0.51100000000E-03 0. -1.
        -11    1    3    3    0    0  0.15438087887E+02  0.43134913686E+01  0.21108151667E+02  0.26504619077E+02  0.51100000000E-03 0.  1.
        -12    1    3    3    0    0  0.10653889386E+02 -0.15294890629E+02  0.76362253703E+01  0.20143261312E+02  0.00000000000E+00 0.  1.
</event>
<event>
 7    1  0.5910662E-013  0.5052886E+02  0.7816164E-02  0.1300439E+00
        -11   -1    0    0    0    0  0.00000000000E+00  0.00000000000E+00  0.45593999997E+02  0.45594000000E+02  0.51100000000E-03 0.  1.
         11   -1    0    0    0    0 -0.00000000000E+00 -0.00000000000E+00 -0.45593999997E+02  0.45594000000E+02  0.51100000000E-03 0. -1.
    9900012    2    1    2    0    0  0.16801032595E+02 -0.36343898599E+02  0.70719191510E+01  0.50528859550E+02  0.29999999088E+02 0.  0.
         12    1    1    2    0    0 -0.16801032595E+02  0.36343898599E+02 -0.70719191510E+01  0.40659140450E+02  0.00000000000E+00 0. -1.
         11    1    3    3    0    0  0.18563771492E+02 -0.14687967978E+02 -0.60581046790E+01  0.24434619864E+02  0.51100000000E-03 0. -1.
        -11    1    3    3    0    0  0.81293155456E+00 -0.81593635556E+01  0.79181735369E+01  0.11398839580E+02  0.51100000000E-03 0.  1.
         12    1    3    3    0    0 -0.25756704507E+01 -0.13496567065E+02  0.52118502931E+01  0.14695400107E+02  0.00000000000E+00 0. -1.
</event>
<event>
 7    1  0.5910662E-013  0.5052886E+02  0.7816164E-02  0.1300439E+00
        -11   -1    0    0    0    0  0.00000000000E+00  0.00000000000E+00  0.45593999997E+02  0.45594000000E+02  0.51100000000E-03 0.  1.
         11   -1    0    0    0    0 -0.00000000000E+00 -0.00000000000E+00 -0.45593999997E+02  0.45594000000E+02  0.51100000000E-03 0. -1.
    9900012    2    1    2    0    0  0.22570372966E+02  0.14748484945E+02  0.30433965477E+02  0.50528858363E+02  0.29999995481E+02 0.  0.
         12    1    1    2    0    0 -0.22570372966E+02 -0.14748484945E+02 -0.30433965477E+02  0.40659141637E+02  0.00000000000E+00 0. -1.
         11    1    3    3    0    0  0.11833945343E+02  0.33846987131E+01 -0.30021046358E+01  0.12669296755E+02  0.51100000000E-03 0. -1.
        -11    1    3    3    0    0  0.31828536776E+01  0.93783910752E+01  0.17348076000E+02  0.19975998545E+02  0.51100000000E-03 0.  1.
         12    1    3    3    0    0  0.75535739453E+01  0.19853951563E+01  0.16087994113E+02  0.17883563064E+02  0.00000000000E+00 0. -1.
</event>
<event>
 7    1  0.5910662E-013  0.5052886E+02  0.7816164E-02  0.1300439E+00
        -11   -1    0    0    0    0  0.00000000000E+00  0.00000000000E+00  0.45593999997E+02  0.45594000000E+02  0.51100000000E-03 0. -1.
         11   -1    0    0    0    0 -0.00000000000E+00 -0.00000000000E+00 -0.45593999997E+02  0.45594000000E+02  0.51100000000E-03 0.  1.
    9900012    2    1    2    0    0 -0.35345013440E+02  0.18920349028E+02 -0.67761621864E+01  0.50528856423E+02  0.29999989584E+02 0.  0.
         12    1    1    2    0    0  0.35345013440E+02 -0.18920349028E+02  0.67761621864E+01  0.40659143577E+02  0.00000000000E+00 0. -1.
         11    1    3    3    0    0 -0.13094684371E+02 -0.52544653698E+01  0.29973325241E+01  0.14424429542E+02  0.51100000000E-03 0. -1.
        -11    1    3    3    0    0 -0.18209941786E+02  0.24206791344E+02 -0.10375984350E+02  0.32019240755E+02  0.51100000000E-03 0.  1.
        -12    1    3    3    0    0 -0.40403872828E+01 -0.31976945920E-01  0.60248963916E+00  0.40851861261E+01  0.00000000000E+00 0.  1.
</event>
<event>
 7    1  0.5910662E-013  0.5052885E+02  0.7816164E-02  0.1300439E+00
        -11   -1    0    0    0    0  0.00000000000E+00  0.00000000000E+00  0.45593999997E+02  0.45594000000E+02  0.51100000000E-03 0.  1.
         11   -1    0    0    0    0 -0.00000000000E+00 -0.00000000000E+00 -0.45593999997E+02  0.45594000000E+02  0.51100000000E-03 0. -1.
    9900012    2    1    2    0    0 -0.36080053875E+02  0.10361119978E+02  0.15621875780E+02  0.50528854685E+02  0.29999984301E+02 0.  0.
         12    1    1    2    0    0  0.36080053875E+02 -0.10361119978E+02 -0.15621875780E+02  0.40659145315E+02  0.00000000000E+00 0. -1.
         11    1    3    3    0    0 -0.11053165250E+02  0.42384073204E+01 -0.70845117698E+01  0.13795900331E+02  0.51100000000E-03 0. -1.
        -11    1    3    3    0    0 -0.25559398569E+02  0.53042781618E+01  0.23758838017E+02  0.35297317266E+02  0.51100000000E-03 0.  1.
        -12    1    3    3    0    0  0.53250994385E+00  0.81843449544E+00 -0.10524504670E+01  0.14356370882E+01  0.00000000000E+00 0.  1.
</event>
<event>
 7    1  0.5910662E-013  0.5052887E+02  0.7816164E-02  0.1300439E+00
        -11   -1    0    0    0    0  0.00000000000E+00  0.00000000000E+00  0.45593999997E+02  0.45594000000E+02  0.51100000000E-03 0.  1.
         11   -1    0    0    0    0 -0.00000000000E+00 -0.00000000000E+00 -0.45593999997E+02  0.45594000000E+02  0.51100000000E-03 0. -1.
    9900012    2    1    2    0    0 -0.12887973082E+02 -0.36719471186E+02  0.11779041453E+02  0.50528865333E+02  0.30000016666E+02 0.  0.
         12    1    1    2    0    0  0.12887973082E+02  0.36719471186E+02 -0.11779041453E+02  0.40659134667E+02  0.00000000000E+00 0. -1.
         11    1    3    3    0    0 -0.34070991761E+01 -0.43243227197E+01 -0.85446517498E+01  0.10164603562E+02  0.51100000000E-03 0. -1.
        -11    1    3    3    0    0 -0.53868002969E+01 -0.28750051093E+02  0.18392613560E+02  0.34552442593E+02  0.51100000000E-03 0.  1.
        -12    1    3    3    0    0 -0.40940736089E+01 -0.36450973728E+01  0.19310796431E+01  0.58118191782E+01  0.00000000000E+00 0.  1.
</event>
<event>
 7    1  0.5910662E-013  0.5052885E+02  0.7816164E-02  0.1300439E+00
        -11   -1    0    0    0    0  0.00000000000E+00  0.00000000000E+00  0.45593999997E+02  0.45594000000E+02  0.51100000000E-03 0.  1.
         11   -1    0    0    0    0 -0.00000000000E+00 -0.00000000000E+00 -0.45593999997E+02  0.45594000000E+02  0.51100000000E-03 0. -1.
    9900012    2    1    2    0    0  0.10420758824E+02  0.88709884481E+01  0.38286805674E+02  0.50528854175E+02  0.29999982749E+02 0.  0.
         12    1    1    2    0    0 -0.10420758824E+02 -0.88709884481E+01 -0.38286805674E+02  0.40659145825E+02  0.00000000000E+00 0. -1.
         11    1    3    3    0    0  0.89219422034E+01 -0.22532057112E+01  0.28386484819E+00  0.92064416671E+01  0.51100000000E-03 0. -1.
        -11    1    3    3    0    0  0.58610450852E+01  0.25630700715E+01  0.18628567517E+02  0.19696311981E+02  0.51100000000E-03 0.  1.
         12    1    3    3    0    0 -0.43622284650E+01  0.85611240878E+01  0.19374373310E+02  0.21626100526E+02  0.00000000000E+00 0. -1.
</event>
<event>
 7    1  0.5910662E-013  0.5052888E+02  0.7816164E-02  0.1300439E+00
        -11   -1    0    0    0    0  0.00000000000E+00  0.00000000000E+00  0.45593999997E+02  0.45594000000E+02  0.51100000000E-03 0.  1.
         11   -1    0    0    0    0 -0.00000000000E+00 -0.00000000000E+00 -0.45593999997E+02  0.45594000000E+02  0.51100000000E-03 0. -1.
    9900012    2    1    2    0    0 -0.16769809018E+02  0.27371285033E+02  0.24954968114E+02  0.50528878361E+02  0.30000056267E+02 0.  0.
         12    1    1    2    0    0  0.16769809018E+02 -0.27371285033E+02 -0.24954968114E+02  0.40659121639E+02  0.00000000000E+00 0. -1.
         11    1    3    3    0    0  0.53947948912E+01 -0.27751981004E+01  0.32487062409E+01  0.68818332525E+01  0.51100000000E-03 0.  1.
        -11    1    3    3    0    0 -0.12220186712E+02  0.19227366995E+02  0.10381071504E+02  0.25035799381E+02  0.51100000000E-03 0. -1.
         12    1    3    3    0    0 -0.99444171974E+01  0.10919116138E+02  0.11325190369E+02  0.18611245728E+02  0.00000000000E+00 0. -1.
</event>
<event>
 7    1  0.5910662E-013  0.5052886E+02  0.7816164E-02  0.1300439E+00
        -11   -1    0    0    0    0  0.00000000000E+00  0.00000000000E+00  0.45593999997E+02  0.45594000000E+02  0.51100000000E-03 0.  1.
         11   -1    0    0    0    0 -0.00000000000E+00 -0.00000000000E+00 -0.45593999997E+02  0.45594000000E+02  0.51100000000E-03 0. -1.
    9900012    2    1    2    0    0 -0.38716663461E+02  0.12385115135E+02  0.89153991355E+00  0.50528856503E+02  0.29999989826E+02 0.  0.
         12    1    1    2    0    0  0.38716663461E+02 -0.12385115135E+02 -0.89153991355E+00  0.40659143497E+02  0.00000000000E+00 0. -1.
         11    1    3    3    0    0 -0.41611017396E+01  0.67194713754E+01 -0.59440917437E+01  0.98893018040E+01  0.51100000000E-03 0. -1.
        -11    1    3    3    0    0 -0.28096949262E+02  0.30554762933E+01  0.13209750021E+02  0.31197307402E+02  0.51100000000E-03 0.  1.
        -12    1    3    3    0    0 -0.64586124593E+01  0.26101674668E+01 -0.63741183640E+01  0.94422472972E+01  0.00000000000E+00 0.  1.
</event>
<event>
 7    1  0.5910662E-013  0.5052885E+02  0.7816164E-02  0.1300439E+00
        -11   -1    0    0    0    0  0.00000000000E+00  0.00000000000E+00  0.45593999997E+02  0.45594000000E+02  0.51100000000E-03 0.  1.
         11   -1    0    0    0    0 -0.00000000000E+00 -0.00000000000E+00 -0.45593999997E+02  0.45594000000E+02  0.51100000000E-03 0. -1.
    9900012    2    1    2    0    0  0.17143523664E+02 -0.36807367495E+02  0.21175677812E+01  0.50528846063E+02  0.29999958094E+02 0.  0.
         12    1    1    2    0    0 -0.17143523664E+02  0.36807367495E+02 -0.21175677812E+01  0.40659153937E+02  0.00000000000E+00 0. -1.
         11    1    3    3    0    0  0.68723887824E+01 -0.21028698500E+02  0.27925662093E+01  0.22298751411E+02  0.51100000000E-03 0. -1.
        -11    1    3    3    0    0 -0.11670489806E+01  0.36854149784E+01 -0.38213911525E+01  0.54357444281E+01  0.51100000000E-03 0.  1.
        -12    1    3    3    0    0  0.11438183862E+02 -0.19464083973E+02  0.31463927244E+01  0.22794350225E+02  0.00000000000E+00 0.  1.
</event>
<event>
 7    1  0.5910662E-013  0.5052886E+02  0.7816164E-02  0.1300439E+00
        -11   -1    0    0    0    0  0.00000000000E+00  0.00000000000E+00  0.45593999997E+02  0.45594000000E+02  0.51100000000E-03 0.  1.
         11   -1    0    0    0    0 -0.00000000000E+00 -0.00000000000E+00 -0.45593999997E+02  0.45594000000E+02  0.51100000000E-03 0. -1.
    9900012    2    1    2    0    0  0.27155804136E+02  0.41504005171E+01  0.29975026065E+02  0.50528859450E+02  0.29999998783E+02 0.  0.
         12    1    1    2    0    0 -0.27155804136E+02 -0.41504005171E+01 -0.29975026065E+02  0.40659140550E+02  0.00000000000E+00 0. -1.
         11    1    3    3    0    0 -0.50240909878E+00  0.14764044197E-01 -0.24840570751E+01  0.25343978955E+01  0.51100000000E-03 0. -1.
        -11    1    3    3    0    0  0.19612765529E+02 -0.29925410105E+01  0.31467683611E+02  0.37199878837E+02  0.51100000000E-03 0.  1.
        -12    1    3    3    0    0  0.80454477051E+01  0.71281774835E+01  0.99139952919E+00  0.10794582717E+02  0.00000000000E+00 0.  1.
</event>
<event>
 7    1  0.5910662E-013  0.5052886E+02  0.7816164E-02  0.1300439E+00
        -11   -1    0    0    0    0  0.00000000000E+00  0.00000000000E+00  0.45593999997E+02  0.45594000000E+02  0.51100000000E-03 0. -1.
         11   -1    0    0    0    0 -0.00000000000E+00 -0.00000000000E+00 -0.45593999997E+02  0.45594000000E+02  0.51100000000E-03 0.  1.
    9900012    2    1    2    0    0 -0.17713653528E+02 -0.14316300546E+02 -0.33681386707E+02  0.50528858431E+02  0.29999995686E+02 0.  0.
         12    1    1    2    0    0  0.17713653528E+02  0.14316300546E+02  0.33681386707E+02  0.40659141569E+02  0.00000000000E+00 0. -1.
         11    1    3    3    0    0  0.26202859990E+01 -0.51305386357E+01 -0.46035819179E+01  0.73743672369E+01  0.51100000000E-03 0. -1.
        -11    1    3    3    0    0 -0.80207224084E+01  0.65410917476E+01 -0.40032928860E+01  0.11097036694E+02  0.51100000000E-03 0.  1.
        -12    1    3    3    0    0 -0.12313217119E+02 -0.15726853658E+02 -0.25074511903E+02  0.32057454499E+02  0.00000000000E+00 0.  1.
</event>
<event>
 7    1  0.5910662E-013  0.5052886E+02  0.7816164E-02  0.1300439E+00
        -11   -1    0    0    0    0  0.00000000000E+00  0.00000000000E+00  0.45593999997E+02  0.45594000000E+02  0.51100000000E-03 0. -1.
         11   -1    0    0    0    0 -0.00000000000E+00 -0.00000000000E+00 -0.45593999997E+02  0.45594000000E+02  0.51100000000E-03 0.  1.
    9900012    2    1    2    0    0 -0.36372420734E+02  0.70352300954E+01 -0.16754651472E+02  0.50528858365E+02  0.29999995487E+02 0.  0.
         12    1    1    2    0    0  0.36372420734E+02 -0.70352300954E+01  0.16754651472E+02  0.40659141635E+02  0.00000000000E+00 0. -1.
         11    1    3    3    0    0 -0.76983888338E+01  0.62080514476E+01 -0.18620778533E+02  0.21084081361E+02  0.51100000000E-03 0.  1.
        -11    1    3    3    0    0 -0.18834177669E+02  0.33520063741E+01  0.23541519899E+01  0.19274444922E+02  0.51100000000E-03 0. -1.
        -12    1    3    3    0    0 -0.98398542305E+01 -0.25248277263E+01 -0.48802492911E+00  0.10170332082E+02  0.00000000000E+00 0.  1.
</event>
<event>
 7    1  0.5910662E-013  0.5052886E+02  0.7816164E-02  0.1300439E+00
        -11   -1    0    0    0    0  0.00000000000E+00  0.00000000000E+00  0.45593999997E+02  0.45594000000E+02  0.51100000000E-03 0. -1.
         11   -1    0    0    0    0 -0.00000000000E+00 -0.00000000000E+00 -0.45593999997E+02  0.45594000000E+02  0.51100000000E-03 0.  1.
    9900012    2    1    2    0    0 -0.18830475262E+02  0.35111406262E+02  0.81097601720E+01  0.50528857628E+02  0.29999993248E+02 0.  0.
         12    1    1    2    0    0  0.18830475262E+02 -0.35111406262E+02 -0.81097601720E+01  0.40659142372E+02  0.00000000000E+00 0. -1.
         11    1    3    3    0    0 -0.32911930445E+01  0.48714893940E+00 -0.27426965731E+01  0.43118036247E+01  0.51100000000E-03 0. -1.
        -11    1    3    3    0    0  0.31358958970E+01  0.19071894510E+02  0.10314639950E+02  0.21908053333E+02  0.51100000000E-03 0.  1.
        -12    1    3    3    0    0 -0.18675178115E+02  0.15552362813E+02  0.53781679468E+00  0.24309000670E+02  0.00000000000E+00 0.  1.
</event>
<event>
 7    1  0.5910662E-013  0.5052886E+02  0.7816164E-02  0.1300439E+00
        -11   -1    0    0    0    0  0.00000000000E+00  0.00000000000E+00  0.45593999997E+02  0.45594000000E+02  0.51100000000E-03 0. -1.
         11   -1    0    0    0    0 -0.00000000000E+00 -0.00000000000E+00 -0.45593999997E+02  0.45594000000E+02  0.51100000000E-03 0.  1.
    9900012    2    1    2    0    0  0.12341728858E+02  0.26056515420E+02 -0.28668892232E+02  0.50528860205E+02  0.30000001079E+02 0.  0.
         12    1    1    2    0    0 -0.12341728858E+02 -0.26056515420E+02  0.28668892232E+02  0.40659139795E+02  0.00000000000E+00 0. -1.
         11    1    3    3    0    0 -0.38287071202E+01  0.45337411060E+01 -0.32190029799E+01  0.67509841560E+01  0.51100000000E-03 0. -1.
        -11    1    3    3    0    0  0.14116612767E+02  0.12350822638E+02 -0.24307281855E+01  0.18913752024E+02  0.51100000000E-03 0.  1.
        -12    1    3    3    0    0  0.20538232115E+01  0.91719516767E+01 -0.23019161067E+02  0.24864124025E+02  0.00000000000E+00 0.  1.
</event>
<event>
 7    1  0.5910662E-013  0.5052887E+02  0.7816164E-02  0.1300439E+00
        -11   -1    0    0    0    0  0.00000000000E+00  0.00000000000E+00  0.45593999997E+02  0.45594000000E+02  0.51100000000E-03 0.  1.
         11   -1    0    0    0    0 -0.00000000000E+00 -0.00000000000E+00 -0.45593999997E+02  0.45594000000E+02  0.51100000000E-03 0. -1.
    9900012    2    1    2    0    0  0.90460647083E+01 -0.33774424602E+02  0.20751438787E+02  0.50528865041E+02  0.30000015777E+02 0.  0.
         12    1    1    2    0    0 -0.90460647083E+01  0.33774424602E+02 -0.20751438787E+02  0.40659134959E+02  0.00000000000E+00 0. -1.
         11    1    3    3    0    0 -0.32847873508E+01 -0.68064830183E+00 -0.47349831399E+01  0.58028592648E+01  0.51100000000E-03 0. -1.
        -11    1    3    3    0    0  0.85520030554E+01 -0.30196666869E+02  0.24613979328E+02  0.39885127866E+02  0.51100000000E-03 0.  1.
        -12    1    3    3    0    0  0.37788490036E+01 -0.28971094316E+01  0.87244259896E+00  0.48408779100E+01  0.00000000000E+00 0.  1.
</event>
<event>
 7    1  0.5910662E-013  0.5052886E+02  0.7816164E-02  0.1300439E+00
        -11   -1    0    0    0    0  0.00000000000E+00  0.00000000000E+00  0.45593999997E+02  0.45594000000E+02  0.51100000000E-03 0.  1.
         11   -1    0    0    0    0 -0.00000000000E+00 -0.00000000000E+00 -0.45593999997E+02  0.45594000000E+02  0.51100000000E-03 0. -1.
    9900012    2    1    2    0    0 -0.36527620933E+02 -0.10469883430E+02  0.14466516519E+02  0.50528860188E+02  0.30000001026E+02 0.  0.
         12    1    1    2    0    0  0.36527620933E+02  0.10469883430E+02 -0.14466516519E+02  0.40659139812E+02  0.00000000000E+00 0. -1.
         11    1    3    3    0    0 -0.12057504191E+02  0.54656205274E+01  0.71724088837E+01  0.15056555533E+02  0.51100000000E-03 0. -1.
        -11    1    3    3    0    0 -0.10312465428E+02 -0.16913549338E+02  0.69509416848E+00  0.19821661146E+02  0.51100000000E-03 0.  1.
        -12    1    3    3    0    0 -0.14157651315E+02  0.97804538012E+00  0.65990134667E+01  0.15650643509E+02  0.00000000000E+00 0.  1.
</event>
<event>
 7    1  0.5910662E-013  0.5052887E+02  0.7816164E-02  0.1300439E+00
        -11   -1    0    0    0    0  0.00000000000E+00  0.00000000000E+00  0.45593999997E+02  0.45594000000E+02  0.51100000000E-03 0. -1.
         11   -1    0    0    0    0 -0.00000000000E+00 -0.00000000000E+00 -0.45593999997E+02  0.45594000000E+02  0.51100000000E-03 0.  1.
    9900012    2    1    2    0    0  0.33094145598E+01 -0.22077465051E+02 -0.33982325085E+02  0.50528866881E+02  0.30000021373E+02 0.  0.
         12    1    1    2    0    0 -0.33094145598E+01  0.22077465051E+02  0.33982325085E+02  0.40659133119E+02  0.00000000000E+00 0. -1.
         11    1    3    3    0    0  0.45310395694E+01  0.42726656070E+01 -0.15405404935E+02  0.16616633005E+02  0.51100000000E-03 0. -1.
        -11    1    3    3    0    0 -0.44481181246E+01 -0.13243809841E+02 -0.13681635049E+02  0.19554319008E+02  0.51100000000E-03 0.  1.
         12    1    3    3    0    0  0.32264931151E+01 -0.13106320816E+02 -0.48952851009E+01  0.14357914869E+02  0.00000000000E+00 0. -1.
</event>
<event>
 7    1  0.5910662E-013  0.5052886E+02  0.7816164E-02  0.1300439E+00
        -11   -1    0    0    0    0  0.00000000000E+00  0.00000000000E+00  0.45593999997E+02  0.45594000000E+02  0.51100000000E-03 0. -1.
         11   -1    0    0    0    0 -0.00000000000E+00 -0.00000000000E+00 -0.45593999997E+02  0.45594000000E+02  0.51100000000E-03 0.  1.
    9900012    2    1    2    0    0  0.33596361821E+02 -0.21905488504E+02 -0.66782910906E+01  0.50528861715E+02  0.30000005670E+02 0.  0.
         12    1    1    2    0    0 -0.33596361821E+02  0.21905488504E+02  0.66782910906E+01  0.40659138285E+02  0.00000000000E+00 0. -1.
         11    1    3    3    0    0 -0.26997013420E+01 -0.36759142189E+01  0.18808118552E+01  0.49333747249E+01  0.51100000000E-03 0. -1.
        -11    1    3    3    0    0  0.31472038709E+02 -0.73235428068E+01 -0.93660310847E+01  0.33642919586E+02  0.51100000000E-03 0.  1.
        -12    1    3    3    0    0  0.48240244538E+01 -0.10906031478E+02  0.80692813897E+00  0.11952567404E+02  0.00000000000E+00 0.  1.
</event>
<event>
 7    1  0.5910662E-013  0.5052886E+02  0.7816164E-02  0.1300439E+00
        -11   -1    0    0    0    0  0.00000000000E+00  0.00000000000E+00  0.45593999997E+02  0.45594000000E+02  0.51100000000E-03 0.  1.
         11   -1    0    0    0    0 -0.00000000000E+00 -0.00000000000E+00 -0.45593999997E+02  0.45594000000E+02  0.51100000000E-03 0. -1.
    9900012    2    1    2    0    0  0.38281344355E+01 -0.36821029635E+02  0.16814365590E+02  0.50528859246E+02  0.29999998165E+02 0.  0.
         12    1    1    2    0    0 -0.38281344355E+01  0.36821029635E+02 -0.16814365590E+02  0.40659140754E+02  0.00000000000E+00 0. -1.
         11    1    3    3    0    0  0.60463405550E+00 -0.64527518452E+01 -0.53651136251E+01  0.84135624552E+01  0.51100000000E-03 0. -1.
        -11    1    3    3    0    0  0.69453225288E+01 -0.30446718238E+02  0.16487291698E+02  0.35313891662E+02  0.51100000000E-03 0.  1.
        -12    1    3    3    0    0 -0.37218221488E+01  0.78440448408E-01  0.56921875164E+01  0.68014051293E+01  0.00000000000E+00 0.  1.
</event>
<event>
 7    1  0.5910662E-013  0.5052886E+02  0.7816164E-02  0.1300439E+00
        -11   -1    0    0    0    0  0.00000000000E+00  0.00000000000E+00  0.45593999997E+02  0.45594000000E+02  0.51100000000E-03 0.  1.
         11   -1    0    0    0    0 -0.00000000000E+00 -0.00000000000E+00 -0.45593999997E+02  0.45594000000E+02  0.51100000000E-03 0. -1.
    9900012    2    1    2    0    0 -0.28939067027E+02 -0.20863685118E+02  0.19503907903E+02  0.50528863504E+02  0.30000011108E+02 0.  0.
         12    1    1    2    0    0  0.28939067027E+02  0.20863685118E+02 -0.19503907903E+02  0.40659136496E+02  0.00000000000E+00 0. -1.
         11    1    3    3    0    0 -0.18331562621E+02  0.14865245700E+01  0.23897314769E+01  0.18546340885E+02  0.51100000000E-03 0. -1.
        -11    1    3    3    0    0 -0.84861107416E+00 -0.84284665307E+01  0.95139567040E+00  0.85243382616E+01  0.51100000000E-03 0.  1.
         12    1    3    3    0    0 -0.97588933314E+01 -0.13921743157E+02  0.16162780756E+02  0.23458184358E+02  0.00000000000E+00 0. -1.
</event>
<event>
 7    1  0.5910662E-013  0.5052886E+02  0.7816164E-02  0.1300439E+00
        -11   -1    0    0    0    0  0.00000000000E+00  0.00000000000E+00  0.45593999997E+02  0.45594000000E+02  0.51100000000E-03 0. -1.
         11   -1    0    0    0    0 -0.00000000000E+00 -0.00000000000E+00 -0.45593999997E+02  0.45594000000E+02  0.51100000000E-03 0.  1.
    9900012    2    1    2    0    0 -0.35870641244E+01 -0.39014048417E+02 -0.10872094746E+02  0.50528862687E+02  0.30000008623E+02 0.  0.
         12    1    1    2    0    0  0.35870641244E+01  0.39014048417E+02  0.10872094746E+02  0.40659137313E+02  0.00000000000E+00 0. -1.
         11    1    3    3    0    0  0.51987643163E+01 -0.25686439109E+01 -0.66444742815E+01  0.88189636974E+01  0.51100000000E-03 0. -1.
        -11    1    3    3    0    0 -0.68604467885E+01 -0.28844343241E+02  0.44873987654E+01  0.29986640610E+02  0.51100000000E-03 0.  1.
        -12    1    3    3    0    0 -0.19253816522E+01 -0.76010612650E+01 -0.87150192295E+01  0.11723258379E+02  0.00000000000E+00 0.  1.
</event>
<event>
 7    1  0.5910662E-013  0.5052886E+02  0.7816164E-02  0.1300439E+00
        -11   -1    0    0    0    0  0.00000000000E+00  0.00000000000E+00  0.45593999997E+02  0.45594000000E+02  0.51100000000E-03 0.  1.
         11   -1    0    0    0    0 -0.00000000000E+00 -0.00000000000E+00 -0.45593999997E+02  0.45594000000E+02  0.51100000000E-03 0. -1.
    9900012    2    1    2    0    0 -0.27363653235E+02  0.29969543953E+00  0.30071688636E+02  0.50528858431E+02  0.29999995687E+02 0.  0.
         12    1    1    2    0    0  0.27363653235E+02 -0.29969543953E+00 -0.30071688636E+02  0.40659141569E+02  0.00000000000E+00 0. -1.
         11    1    3    3    0    0 -0.61311602120E+01  0.83761492362E+01  0.11256803482E+02  0.15312303108E+02  0.51100000000E-03 0. -1.
        -11    1    3    3    0    0 -0.28504677614E+01 -0.78318575408E+01 -0.75214646693E+00  0.83683262106E+01  0.51100000000E-03 0.  1.
        -12    1    3    3    0    0 -0.18382025261E+02 -0.24459625591E+00  0.19567031620E+02  0.26848229112E+02  0.00000000000E+00 0.  1.
</event>
<event>
 7    1  0.5910662E-013  0.5052886E+02  0.7816164E-02  0.1300439E+00
        -11   -1    0    0    0    0  0.00000000000E+00  0.00000000000E+00  0.45593999997E+02  0.45594000000E+02  0.51100000000E-03 0.  1.
         11   -1    0    0    0    0 -0.00000000000E+00 -0.00000000000E+00 -0.45593999997E+02  0.45594000000E+02  0.51100000000E-03 0. -1.
    9900012    2    1    2    0    0 -0.34278069544E+02 -0.16132335451E+02  0.14762356687E+02  0.50528862359E+02  0.30000007628E+02 0.  0.
         12    1    1    2    0    0  0.34278069544E+02  0.16132335451E+02 -0.14762356687E+02  0.40659137641E+02  0.00000000000E+00 0. -1.
         11    1    3    3    0    0 -0.28206043309E+02 -0.15196688535E+02  0.12051916800E+01  0.32062013487E+02  0.51100000000E-03 0. -1.
        -11    1    3    3    0    0 -0.49073991378E+01  0.41508036621E+01  0.39785615421E+01  0.75591460856E+01  0.51100000000E-03 0.  1.
         12    1    3    3    0    0 -0.11646270968E+01 -0.50864505778E+01  0.95786034649E+01  0.10907702787E+02  0.00000000000E+00 0. -1.
</event>
<event>
 7    1  0.5910662E-013  0.5052880E+02  0.7816164E-02  0.1300439E+00
        -11   -1    0    0    0    0  0.00000000000E+00  0.00000000000E+00  0.45593999997E+02  0.45594000000E+02  0.51100000000E-03 0.  1.
         11   -1    0    0    0    0 -0.00000000000E+00 -0.00000000000E+00 -0.45593999997E+02  0.45594000000E+02  0.51100000000E-03 0. -1.
    9900012    2    1    2    0    0 -0.23690495179E+02 -0.28391980144E+02  0.16906400031E+02  0.50528801036E+02  0.29999821230E+02 0.  0.
         12    1    1    2    0    0  0.23690495179E+02  0.28391980144E+02 -0.16906400031E+02  0.40659198964E+02  0.00000000000E+00 0. -1.
         11    1    3    3    0    0  0.20795836143E+01 -0.74368471718E+00  0.22504861680E+01  0.31531608301E+01  0.51100000000E-03 0. -1.
        -11    1    3    3    0    0 -0.19463719760E+02 -0.22260120865E+02  0.21550811243E+02  0.36589436089E+02  0.51100000000E-03 0.  1.
        -12    1    3    3    0    0 -0.63063590338E+01 -0.53881745621E+01 -0.68948973803E+01  0.10786204117E+02  0.00000000000E+00 0.  1.
</event>
<event>
 7    1  0.5910662E-013  0.5052884E+02  0.7816164E-02  0.1300439E+00
        -11   -1    0    0    0    0  0.00000000000E+00  0.00000000000E+00  0.45593999997E+02  0.45594000000E+02  0.51100000000E-03 0.  1.
         11   -1    0    0    0    0 -0.00000000000E+00 -0.00000000000E+00 -0.45593999997E+02  0.45594000000E+02  0.51100000000E-03 0. -1.
    9900012    2    1    2    0    0  0.31340537796E+00 -0.13862398360E+02  0.38221765782E+02  0.50528835096E+02  0.29999924757E+02 0.  0.
         12    1    1    2    0    0 -0.31340537796E+00  0.13862398360E+02 -0.38221765782E+02  0.40659164904E+02  0.00000000000E+00 0. -1.
         11    1    3    3    0    0  0.16618148411E+01 -0.74441695185E+01  0.74452652726E+01  0.10658764639E+02  0.51100000000E-03 0. -1.
        -11    1    3    3    0    0  0.21663642395E+01  0.82997140291E+01  0.18473685503E+02  0.20368000474E+02  0.51100000000E-03 0.  1.
        -12    1    3    3    0    0 -0.35147737027E+01 -0.14717942871E+02  0.12302815006E+02  0.19502069983E+02  0.00000000000E+00 0.  1.
</event>
<event>
 7    1  0.5910662E-013  0.5052886E+02  0.7816164E-02  0.1300439E+00
        -11   -1    0    0    0    0  0.00000000000E+00  0.00000000000E+00  0.45593999997E+02  0.45594000000E+02  0.51100000000E-03 0. -1.
         11   -1    0    0    0    0 -0.00000000000E+00 -0.00000000000E+00 -0.45593999997E+02  0.45594000000E+02  0.51100000000E-03 0.  1.
    9900012    2    1    2    0    0 -0.27185476246E+02  0.29530632127E+02  0.64851598998E+01  0.50528860173E+02  0.30000000981E+02 0.  0.
         12    1    1    2    0    0  0.27185476246E+02 -0.29530632127E+02 -0.64851598998E+01  0.40659139827E+02  0.00000000000E+00 0. -1.
         11    1    3    3    0    0 -0.30950373040E+01 -0.35636958201E+01  0.16155133804E+01  0.49888944221E+01  0.51100000000E-03 0. -1.
        -11    1    3    3    0    0 -0.18094832261E+02  0.33977674315E+02  0.13232752124E+01  0.38518260137E+02  0.51100000000E-03 0.  1.
        -12    1    3    3    0    0 -0.59956066808E+01 -0.88334636800E+00  0.35463713070E+01  0.70217056136E+01  0.00000000000E+00 0.  1.
</event>
<event>
 7    1  0.5910662E-013  0.5052886E+02  0.7816164E-02  0.1300439E+00
        -11   -1    0    0    0    0  0.00000000000E+00  0.00000000000E+00  0.45593999997E+02  0.45594000000E+02  0.51100000000E-03 0.  1.
         11   -1    0    0    0    0 -0.00000000000E+00 -0.00000000000E+00 -0.45593999997E+02  0.45594000000E+02  0.51100000000E-03 0. -1.
    9900012    2    1    2    0    0  0.30838232757E+02 -0.18604258568E+02  0.18869297167E+02  0.50528863118E+02  0.30000009933E+02 0.  0.
         12    1    1    2    0    0 -0.30838232757E+02  0.18604258568E+02 -0.18869297167E+02  0.40659136882E+02  0.00000000000E+00 0. -1.
         11    1    3    3    0    0 -0.11370372868E+01 -0.13413201802E+02  0.88952149354E+01  0.16134797345E+02  0.51100000000E-03 0. -1.
        -11    1    3    3    0    0  0.16688436742E+02 -0.50283959793E+01  0.71930761066E+01  0.18855477484E+02  0.51100000000E-03 0.  1.
         12    1    3    3    0    0  0.15286833302E+02 -0.16266078636E+00  0.27810061254E+01  0.15538588289E+02  0.00000000000E+00 0. -1.
</event>
<event>
 7    1  0.5910662E-013  0.5052888E+02  0.7816164E-02  0.1300439E+00
        -11   -1    0    0    0    0  0.00000000000E+00  0.00000000000E+00  0.45593999997E+02  0.45594000000E+02  0.51100000000E-03 0.  1.
         11   -1    0    0    0    0 -0.00000000000E+00 -0.00000000000E+00 -0.45593999997E+02  0.45594000000E+02  0.51100000000E-03 0. -1.
    9900012    2    1    2    0    0 -0.19441154593E+02  0.35585808329E+02 -0.29758041143E+01  0.50528884707E+02  0.30000075555E+02 0.  0.
         12    1    1    2    0    0  0.19441154593E+02 -0.35585808329E+02  0.29758041143E+01  0.40659115293E+02  0.00000000000E+00 0. -1.
         11    1    3    3    0    0 -0.19073725263E+02  0.20366092372E+02 -0.11540730839E+02  0.30195582168E+02  0.51100000000E-03 0. -1.
        -11    1    3    3    0    0  0.45728500119E+01  0.11036715820E+02  0.50829620517E+01  0.12982933289E+02  0.51100000000E-03 0.  1.
        -12    1    3    3    0    0 -0.49402793420E+01  0.41830001365E+01  0.34819646727E+01  0.73503692492E+01  0.00000000000E+00 0.  1.
</event>
<event>
 7    1  0.5910662E-013  0.5052886E+02  0.7816164E-02  0.1300439E+00
        -11   -1    0    0    0    0  0.00000000000E+00  0.00000000000E+00  0.45593999997E+02  0.45594000000E+02  0.51100000000E-03 0.  1.
         11   -1    0    0    0    0 -0.00000000000E+00 -0.00000000000E+00 -0.45593999997E+02  0.45594000000E+02  0.51100000000E-03 0. -1.
    9900012    2    1    2    0    0 -0.39334064178E+02 -0.89896889999E+01 -0.50182041627E+01  0.50528862207E+02  0.30000007165E+02 0.  0.
         12    1    1    2    0    0  0.39334064178E+02  0.89896889999E+01  0.50182041627E+01  0.40659137793E+02  0.00000000000E+00 0. -1.
         11    1    3    3    0    0 -0.15625917272E+02 -0.97440262151E+01 -0.13420425985E+02  0.22786469041E+02  0.51100000000E-03 0. -1.
        -11    1    3    3    0    0 -0.24656315271E+02  0.21422536404E+01  0.80454535393E+01  0.26024074552E+02  0.51100000000E-03 0.  1.
         12    1    3    3    0    0  0.94816836528E+00 -0.13879164251E+01  0.35676828257E+00  0.17183186141E+01  0.00000000000E+00 0. -1.
</event>
<event>
 7    1  0.5910662E-013  0.5052887E+02  0.7816164E-02  0.1300439E+00
        -11   -1    0    0    0    0  0.00000000000E+00  0.00000000000E+00  0.45593999997E+02  0.45594000000E+02  0.51100000000E-03 0. -1.
         11   -1    0    0    0    0 -0.00000000000E+00 -0.00000000000E+00 -0.45593999997E+02  0.45594000000E+02  0.51100000000E-03 0.  1.
    9900012    2    1    2    0    0 -0.63703446628E+01 -0.37618658015E+02 -0.14050627477E+02  0.50528869974E+02  0.30000030772E+02 0.  0.
         12    1    1    2    0    0  0.63703446628E+01  0.37618658015E+02  0.14050627477E+02  0.40659130026E+02  0.00000000000E+00 0. -1.
         11    1    3    3    0    0 -0.39455040227E+01  0.86390589099E+00  0.46503560767E+01  0.61594762182E+01  0.51100000000E-03 0. -1.
        -11    1    3    3    0    0  0.26389367502E+01 -0.28017063239E+02 -0.10065638759E+02  0.29887069170E+02  0.51100000000E-03 0.  1.
         12    1    3    3    0    0 -0.50637773903E+01 -0.10465500668E+02 -0.86353447944E+01  0.14482324585E+02  0.00000000000E+00 0. -1.
</event>
<event>
 7    1  0.5910662E-013  0.5052888E+02  0.7816164E-02  0.1300439E+00
        -11   -1    0    0    0    0  0.00000000000E+00  0.00000000000E+00  0.45593999997E+02  0.45594000000E+02  0.51100000000E-03 0. -1.
         11   -1    0    0    0    0 -0.00000000000E+00 -0.00000000000E+00 -0.45593999997E+02  0.45594000000E+02  0.51100000000E-03 0.  1.
    9900012    2    1    2    0    0  0.16208130259E+02  0.33991879387E+02 -0.15330130256E+02  0.50528877476E+02  0.30000053577E+02 0.  0.
         12    1    1    2    0    0 -0.16208130259E+02 -0.33991879387E+02  0.15330130256E+02  0.40659122524E+02  0.00000000000E+00 0. -1.
         11    1    3    3    0    0  0.69759253766E+01  0.69180368614E+01 -0.16748443395E+02  0.19417340840E+02  0.51100000000E-03 0. -1.
        -11    1    3    3    0    0  0.93726991869E+01  0.18520074497E+02 -0.37842981652E+01  0.21098852156E+02  0.51100000000E-03 0.  1.
         12    1    3    3    0    0 -0.14049430440E+00  0.85537680277E+01  0.52026113041E+01  0.10012684480E+02  0.00000000000E+00 0. -1.
</event>
<event>
 7    1  0.5910662E-013  0.5052886E+02  0.7816164E-02  0.1300439E+00
        -11   -1    0    0    0    0  0.00000000000E+00  0.00000000000E+00  0.45593999997E+02  0.45594000000E+02  0.51100000000E-03 0.  1.
         11   -1    0    0    0    0 -0.00000000000E+00 -0.00000000000E+00 -0.45593999997E+02  0.45594000000E+02  0.51100000000E-03 0. -1.
    9900012    2    1    2    0    0  0.24041563151E+02  0.32672029612E+02 -0.27761646724E+01  0.50528863659E+02  0.30000011577E+02 0.  0.
         12    1    1    2    0    0 -0.24041563151E+02 -0.32672029612E+02  0.27761646724E+01  0.40659136341E+02  0.00000000000E+00 0. -1.
         11    1    3    3    0    0  0.11863079247E+02  0.23601782344E+02 -0.10308788414E+02  0.28355738358E+02  0.51100000000E-03 0. -1.
        -11    1    3    3    0    0  0.93902816557E+01 -0.11567290493E+01  0.54491540261E+00  0.94769375182E+01  0.51100000000E-03 0.  1.
         12    1    3    3    0    0  0.27882022491E+01  0.10226976317E+02  0.69877083388E+01  0.12696187782E+02  0.00000000000E+00 0. -1.
</event>
<event>
 7    1  0.5910662E-013  0.5052886E+02  0.7816164E-02  0.1300439E+00
        -11   -1    0    0    0    0  0.00000000000E+00  0.00000000000E+00  0.45593999997E+02  0.45594000000E+02  0.51100000000E-03 0.  1.
         11   -1    0    0    0    0 -0.00000000000E+00 -0.00000000000E+00 -0.45593999997E+02  0.45594000000E+02  0.51100000000E-03 0. -1.
    9900012    2    1    2    0    0 -0.54340463472E+01 -0.84842703076E+01  0.39391038872E+02  0.50528860243E+02  0.30000001196E+02 0.  0.
         12    1    1    2    0    0  0.54340463472E+01  0.84842703076E+01 -0.39391038872E+02  0.40659139757E+02  0.00000000000E+00 0. -1.
         11    1    3    3    0    0 -0.52994711212E+01 -0.12842550442E+02  0.52582268066E+01  0.14854778539E+02  0.51100000000E-03 0. -1.
        -11    1    3    3    0    0  0.25930349311E-01 -0.21205332220E+00  0.28114894287E+02  0.28115705931E+02  0.51100000000E-03 0.  1.
         12    1    3    3    0    0 -0.16050557524E+00  0.45703334567E+01  0.60179177786E+01  0.75583757737E+01  0.00000000000E+00 0. -1.
</event>
<event>
 7    1  0.5910662E-013  0.5052886E+02  0.7816164E-02  0.1300439E+00
        -11   -1    0    0    0    0  0.00000000000E+00  0.00000000000E+00  0.45593999997E+02  0.45594000000E+02  0.51100000000E-03 0.  1.
         11   -1    0    0    0    0 -0.00000000000E+00 -0.00000000000E+00 -0.45593999997E+02  0.45594000000E+02  0.51100000000E-03 0. -1.
    9900012    2    1    2    0    0 -0.31144537828E+02 -0.12950997741E+02  0.22703640814E+02  0.50528857298E+02  0.29999992244E+02 0.  0.
         12    1    1    2    0    0  0.31144537828E+02  0.12950997741E+02 -0.22703640814E+02  0.40659142702E+02  0.00000000000E+00 0. -1.
         11    1    3    3    0    0 -0.23092578363E-02 -0.19848941574E+01  0.76352944957E+01  0.78890767803E+01  0.51100000000E-03 0. -1.
        -11    1    3    3    0    0 -0.34560104779E+02 -0.11512700723E+02  0.13754788043E+02  0.38937607973E+02  0.51100000000E-03 0.  1.
        -12    1    3    3    0    0  0.34178762086E+01  0.54659713938E+00  0.13135582753E+01  0.37021725449E+01  0.00000000000E+00 0.  1.
</event>
<event>
 7    1  0.5910662E-013  0.5052886E+02  0.7816164E-02  0.1300439E+00
        -11   -1    0    0    0    0  0.00000000000E+00  0.00000000000E+00  0.45593999997E+02  0.45594000000E+02  0.51100000000E-03 0. -1.
         11   -1    0    0    0    0 -0.00000000000E+00 -0.00000000000E+00 -0.45593999997E+02  0.45594000000E+02  0.51100000000E-03 0.  1.
    9900012    2    1    2    0    0  0.41426502915E+01 -0.31202952010E+02 -0.25736743933E+02  0.50528858915E+02  0.29999997157E+02 0.  0.
         12    1    1    2    0    0 -0.41426502915E+01  0.31202952010E+02  0.25736743933E+02  0.40659141085E+02  0.00000000000E+00 0. -1.
         11    1    3    3    0    0  0.18173322315E+01 -0.26531379570E+01 -0.65791342639E+01  0.73230352575E+01  0.51100000000E-03 0. -1.
        -11    1    3    3    0    0 -0.31046603401E+01 -0.31815457394E+02 -0.13460760039E+02  0.34685073246E+02  0.51100000000E-03 0.  1.
        -12    1    3    3    0    0  0.54299784001E+01  0.32656433414E+01 -0.56968496296E+01  0.85207504107E+01  0.00000000000E+00 0.  1.
</event>
<event>
 7    1  0.5910662E-013  0.5052885E+02  0.7816164E-02  0.1300439E+00
        -11   -1    0    0    0    0  0.00000000000E+00  0.00000000000E+00  0.45593999997E+02  0.45594000000E+02  0.51100000000E-03 0.  1.
         11   -1    0    0    0    0 -0.00000000000E+00 -0.00000000000E+00 -0.45593999997E+02  0.45594000000E+02  0.51100000000E-03 0. -1.
    9900012    2    1    2    0    0 -0.30367862558E+02 -0.97484765797E+01  0.25217577677E+02  0.50528854708E+02  0.29999984370E+02 0.  0.
         12    1    1    2    0    0  0.30367862558E+02  0.97484765797E+01 -0.25217577677E+02  0.40659145292E+02  0.00000000000E+00 0. -1.
         11    1    3    3    0    0  0.27572280987E-02 -0.67089503424E+00 -0.19903094847E+01  0.21003427947E+01  0.51100000000E-03 0. -1.
        -11    1    3    3    0    0 -0.17689364949E+02 -0.17402172874E+02  0.18350684766E+02  0.30862548253E+02  0.51100000000E-03 0.  1.
        -12    1    3    3    0    0 -0.12681254838E+02  0.83245913283E+01  0.88572023953E+01  0.17565963660E+02  0.00000000000E+00 0.  1.
</event>
<event>
 7    1  0.5910662E-013  0.5052886E+02  0.7816164E-02  0.1300439E+00
        -11   -1    0    0    0    0  0.00000000000E+00  0.00000000000E+00  0.45593999997E+02  0.45594000000E+02  0.51100000000E-03 0.  1.
         11   -1    0    0    0    0 -0.00000000000E+00 -0.00000000000E+00 -0.45593999997E+02  0.45594000000E+02  0.51100000000E-03 0. -1.
    9900012    2    1    2    0    0 -0.18616108568E+02 -0.10687569075E+02  0.34530880319E+02  0.50528864169E+02  0.30000013128E+02 0.  0.
         12    1    1    2    0    0  0.18616108568E+02  0.10687569075E+02 -0.34530880319E+02  0.40659135831E+02  0.00000000000E+00 0. -1.
         11    1    3    3    0    0 -0.61477260888E+01 -0.51014433689E+01  0.47786099252E+01  0.93088330948E+01  0.51100000000E-03 0. -1.
        -11    1    3    3    0    0  0.52941426219E+01  0.17326640906E+00  0.18887702881E+02  0.19616403538E+02  0.51100000000E-03 0.  1.
        -12    1    3    3    0    0 -0.17762525101E+02 -0.57593921155E+01  0.10864567512E+02  0.21603627536E+02  0.00000000000E+00 0.  1.
</event>
<event>
 7    1  0.5910662E-013  0.5052887E+02  0.7816164E-02  0.1300439E+00
        -11   -1    0    0    0    0  0.00000000000E+00  0.00000000000E+00  0.45593999997E+02  0.45594000000E+02  0.51100000000E-03 0.  1.
         11   -1    0    0    0    0 -0.00000000000E+00 -0.00000000000E+00 -0.45593999997E+02  0.45594000000E+02  0.51100000000E-03 0. -1.
    9900012    2    1    2    0    0  0.27747408429E+02 -0.29165987727E+02 -0.57088870747E+01  0.50528869337E+02  0.30000028837E+02 0.  0.
         12    1    1    2    0    0 -0.27747408429E+02  0.29165987727E+02  0.57088870747E+01  0.40659130663E+02  0.00000000000E+00 0. -1.
         11    1    3    3    0    0 -0.24329727315E+01  0.15367605604E+01  0.73766119072E+00  0.29707126461E+01  0.51100000000E-03 0. -1.
        -11    1    3    3    0    0  0.28867158588E+02 -0.17962990070E+02 -0.22225211849E+01  0.34072297514E+02  0.51100000000E-03 0.  1.
         12    1    3    3    0    0  0.13132225733E+01 -0.12739758218E+02 -0.42240270805E+01  0.13485859177E+02  0.00000000000E+00 0. -1.
</event>
<event>
 7    1  0.5910662E-013  0.5052886E+02  0.7816164E-02  0.1300439E+00
        -11   -1    0    0    0    0  0.00000000000E+00  0.00000000000E+00  0.45593999997E+02  0.45594000000E+02  0.51100000000E-03 0.  1.
         11   -1    0    0    0    0 -0.00000000000E+00 -0.00000000000E+00 -0.45593999997E+02  0.45594000000E+02  0.51100000000E-03 0. -1.
    9900012    2    1    2    0    0 -0.34042815761E+02 -0.13730958862E+02  0.17484651998E+02  0.50528860908E+02  0.30000003217E+02 0.  0.
         12    1    1    2    0    0  0.34042815761E+02  0.13730958862E+02 -0.17484651998E+02  0.40659139092E+02  0.00000000000E+00 0. -1.
         11    1    3    3    0    0 -0.42177116470E+01 -0.82513872247E+01  0.60949069329E+00  0.92868704005E+01  0.51100000000E-03 0. -1.
        -11    1    3    3    0    0 -0.26961420861E+02 -0.84139365538E+01  0.21175440331E+02  0.35300309016E+02  0.51100000000E-03 0.  1.
        -12    1    3    3    0    0 -0.28636832532E+01  0.29343649168E+01 -0.43002790270E+01  0.59416814918E+01  0.00000000000E+00 0.  1.
</event>
<event>
 7    1  0.5910662E-013  0.5052888E+02  0.7816164E-02  0.1300439E+00
        -11   -1    0    0    0    0  0.00000000000E+00  0.00000000000E+00  0.45593999997E+02  0.45594000000E+02  0.51100000000E-03 0.  1.
         11   -1    0    0    0    0 -0.00000000000E+00 -0.00000000000E+00 -0.45593999997E+02  0.45594000000E+02  0.51100000000E-03 0. -1.
    9900012    2    1    2    0    0 -0.13088708659E+02 -0.35927118951E+02  0.13823593580E+02  0.50528881589E+02  0.30000066079E+02 0.  0.
         12    1    1    2    0    0  0.13088708659E+02  0.35927118951E+02 -0.13823593580E+02  0.40659118411E+02  0.00000000000E+00 0. -1.
         11    1    3    3    0    0  0.22823457528E+00 -0.53030985024E+01 -0.24972834978E+01  0.58661205134E+01  0.51100000000E-03 0. -1.
        -11    1    3    3    0    0 -0.16676259403E+01 -0.24826367837E+02  0.19086788746E+02  0.31359767556E+02  0.51100000000E-03 0.  1.
        -12    1    3    3    0    0 -0.11649317294E+02 -0.57976526109E+01 -0.27659116687E+01  0.13302993520E+02  0.00000000000E+00 0.  1.
</event>
<event>
 7    1  0.5910662E-013  0.5052887E+02  0.7816164E-02  0.1300439E+00
        -11   -1    0    0    0    0  0.00000000000E+00  0.00000000000E+00  0.45593999997E+02  0.45594000000E+02  0.51100000000E-03 0. -1.
         11   -1    0    0    0    0 -0.00000000000E+00 -0.00000000000E+00 -0.45593999997E+02  0.45594000000E+02  0.51100000000E-03 0.  1.
    9900012    2    1    2    0    0 -0.52055997182E+01  0.40103192906E+02 -0.42190193789E+01  0.50528874650E+02  0.30000044986E+02 0.  0.
         12    1    1    2    0    0  0.52055997182E+01 -0.40103192906E+02  0.42190193789E+01  0.40659125350E+02  0.00000000000E+00 0. -1.
         11    1    3    3    0    0 -0.94002338935E+00  0.11102965008E+02  0.12411841410E+02  0.16679726718E+02  0.51100000000E-03 0. -1.
        -11    1    3    3    0    0 -0.21315494954E+01  0.14527369619E+02 -0.65177457341E+01  0.16064525546E+02  0.51100000000E-03 0.  1.
         12    1    3    3    0    0 -0.21340268335E+01  0.14472858280E+02 -0.10113115055E+02  0.17784622387E+02  0.00000000000E+00 0. -1.
</event>
<event>
 7    1  0.5910662E-013  0.5052888E+02  0.7816164E-02  0.1300439E+00
        -11   -1    0    0    0    0  0.00000000000E+00  0.00000000000E+00  0.45593999997E+02  0.45594000000E+02  0.51100000000E-03 0.  1.
         11   -1    0    0    0    0 -0.00000000000E+00 -0.00000000000E+00 -0.45593999997E+02  0.45594000000E+02  0.51100000000E-03 0. -1.
    9900012    2    1    2    0    0  0.30922266079E+02  0.47547786697E+01  0.25968628788E+02  0.50528878751E+02  0.30000057451E+02 0.  0.
         12    1    1    2    0    0 -0.30922266079E+02 -0.47547786697E+01 -0.25968628788E+02  0.40659121249E+02  0.00000000000E+00 0. -1.
         11    1    3    3    0    0 -0.39276526621E+01  0.25880817145E+01 -0.21514420308E+01  0.51723616915E+01  0.51100000000E-03 0. -1.
        -11    1    3    3    0    0  0.17739071881E+02  0.39033320377E+01  0.11891433410E+02  0.21709833279E+02  0.51100000000E-03 0.  1.
         12    1    3    3    0    0  0.17110846860E+02 -0.17366350825E+01  0.16228637409E+02  0.23646683780E+02  0.00000000000E+00 0. -1.
</event>
<event>
 7    1  0.5910662E-013  0.5052886E+02  0.7816164E-02  0.1300439E+00
        -11   -1    0    0    0    0  0.00000000000E+00  0.00000000000E+00  0.45593999997E+02  0.45594000000E+02  0.51100000000E-03 0.  1.
         11   -1    0    0    0    0 -0.00000000000E+00 -0.00000000000E+00 -0.45593999997E+02  0.45594000000E+02  0.51100000000E-03 0. -1.
    9900012    2    1    2    0    0 -0.15661398621E+02  0.30734430534E+01  0.37395722070E+02  0.50528862182E+02  0.30000007089E+02 0.  0.
         12    1    1    2    0    0  0.15661398621E+02 -0.30734430534E+01 -0.37395722070E+02  0.40659137818E+02  0.00000000000E+00 0. -1.
         11    1    3    3    0    0  0.36345487681E+01 -0.33651169767E+00  0.17808423478E+02  0.18178644941E+02  0.51100000000E-03 0. -1.
        -11    1    3    3    0    0 -0.20992478399E+02  0.62097174348E+00  0.12234696463E+02  0.24305504583E+02  0.51100000000E-03 0.  1.
        -12    1    3    3    0    0  0.16965310098E+01  0.27889830076E+01  0.73526021284E+01  0.80447126576E+01  0.00000000000E+00 0.  1.
</event>
<event>
 7    1  0.5910662E-013  0.5052886E+02  0.7816164E-02  0.1300439E+00
        -11   -1    0    0    0    0  0.00000000000E+00  0.00000000000E+00  0.45593999997E+02  0.45594000000E+02  0.51100000000E-03 0.  1.
         11   -1    0    0    0    0 -0.00000000000E+00 -0.00000000000E+00 -0.45593999997E+02  0.45594000000E+02  0.51100000000E-03 0. -1.
    9900012    2    1    2    0    0 -0.24070355188E+02 -0.14312908217E+02 -0.29477523548E+02  0.50528859145E+02  0.29999997858E+02 0.  0.
         12    1    1    2    0    0  0.24070355188E+02  0.14312908217E+02  0.29477523548E+02  0.40659140855E+02  0.00000000000E+00 0. -1.
         11    1    3    3    0    0 -0.69833875467E+01 -0.74226701046E+01  0.43390689088E+01  0.11076608342E+02  0.51100000000E-03 0. -1.
        -11    1    3    3    0    0 -0.86405429362E+01 -0.30527680687E+01 -0.85379339383E+01  0.12524962727E+02  0.51100000000E-03 0.  1.
         12    1    3    3    0    0 -0.84464247051E+01 -0.38374700439E+01 -0.25278658519E+02  0.26927288076E+02  0.00000000000E+00 0. -1.
</event>
<event>
 7    1  0.5910662E-013  0.5052886E+02  0.7816164E-02  0.1300439E+00
        -11   -1    0    0    0    0  0.00000000000E+00  0.00000000000E+00  0.45593999997E+02  0.45594000000E+02  0.51100000000E-03 0.  1.
         11   -1    0    0    0    0 -0.00000000000E+00 -0.00000000000E+00 -0.45593999997E+02  0.45594000000E+02  0.51100000000E-03 0. -1.
    9900012    2    1    2    0    0  0.42930662534E+01 -0.40305024916E+02 -0.32000124155E+01  0.50528861657E+02  0.30000005492E+02 0.  0.
         12    1    1    2    0    0 -0.42930662534E+01  0.40305024916E+02  0.32000124155E+01  0.40659138343E+02  0.00000000000E+00 0. -1.
         11    1    3    3    0    0  0.47392345832E+01 -0.89830594706E+01 -0.33919424773E+01  0.10707986548E+02  0.51100000000E-03 0. -1.
        -11    1    3    3    0    0 -0.60091434911E+01 -0.29680778145E+02  0.67911358369E+01  0.31035107910E+02  0.51100000000E-03 0.  1.
        -12    1    3    3    0    0  0.55629751613E+01 -0.16411873008E+01 -0.65992057751E+01  0.87857671983E+01  0.00000000000E+00 0.  1.
</event>
<event>
 7    1  0.5910662E-013  0.5052886E+02  0.7816164E-02  0.1300439E+00
        -11   -1    0    0    0    0  0.00000000000E+00  0.00000000000E+00  0.45593999997E+02  0.45594000000E+02  0.51100000000E-03 0.  1.
         11   -1    0    0    0    0 -0.00000000000E+00 -0.00000000000E+00 -0.45593999997E+02  0.45594000000E+02  0.51100000000E-03 0. -1.
    9900012    2    1    2    0    0  0.53437252624E+01 -0.36948113651E+02  0.16107372891E+02  0.50528856336E+02  0.29999989318E+02 0.  0.
         12    1    1    2    0    0 -0.53437252624E+01  0.36948113651E+02 -0.16107372891E+02  0.40659143664E+02  0.00000000000E+00 0. -1.
         11    1    3    3    0    0  0.62555410075E+01 -0.14779721736E+02 -0.42461852427E+01  0.16601266737E+02  0.51100000000E-03 0. -1.
        -11    1    3    3    0    0  0.53722222211E+01 -0.18186408763E+02  0.17944836154E+02  0.26107917958E+02  0.51100000000E-03 0.  1.
         12    1    3    3    0    0 -0.62840379663E+01 -0.39819831523E+01  0.24087219803E+01  0.78196716405E+01  0.00000000000E+00 0. -1.
</event>
<event>
 7    1  0.5910662E-013  0.5052886E+02  0.7816164E-02  0.1300439E+00
        -11   -1    0    0    0    0  0.00000000000E+00  0.00000000000E+00  0.45593999997E+02  0.45594000000E+02  0.51100000000E-03 0.  1.
         11   -1    0    0    0    0 -0.00000000000E+00 -0.00000000000E+00 -0.45593999997E+02  0.45594000000E+02  0.51100000000E-03 0. -1.
    9900012    2    1    2    0    0 -0.22592714424E+02 -0.34413762950E+01  0.33628734047E+02  0.50528861182E+02  0.30000004048E+02 0.  0.
         12    1    1    2    0    0  0.22592714424E+02  0.34413762950E+01 -0.33628734047E+02  0.40659138818E+02  0.00000000000E+00 0. -1.
         11    1    3    3    0    0 -0.56842598140E+01 -0.35802804363E+01 -0.41566771389E+01  0.78998216900E+01  0.51100000000E-03 0. -1.
        -11    1    3    3    0    0 -0.80909154626E+00 -0.27337509744E+01  0.98965842381E+01  0.10299048663E+02  0.51100000000E-03 0.  1.
         12    1    3    3    0    0 -0.16099363064E+02  0.28726551156E+01  0.27888826948E+02  0.32329990829E+02  0.00000000000E+00 0. -1.
</event>
<event>
 7    1  0.5910662E-013  0.5052888E+02  0.7816164E-02  0.1300439E+00
        -11   -1    0    0    0    0  0.00000000000E+00  0.00000000000E+00  0.45593999997E+02  0.45594000000E+02  0.51100000000E-03 0. -1.
         11   -1    0    0    0    0 -0.00000000000E+00 -0.00000000000E+00 -0.45593999997E+02  0.45594000000E+02  0.51100000000E-03 0.  1.
    9900012    2    1    2    0    0 -0.23331586103E+02  0.14264581154E+02 -0.30088582839E+02  0.50528880447E+02  0.30000062606E+02 0.  0.
         12    1    1    2    0    0  0.23331586103E+02 -0.14264581154E+02  0.30088582839E+02  0.40659119553E+02  0.00000000000E+00 0. -1.
         11    1    3    3    0    0 -0.12057378360E+01  0.14089829924E+02 -0.16671387065E+01  0.14239257801E+02  0.51100000000E-03 0. -1.
        -11    1    3    3    0    0 -0.12198624986E+02  0.13961780668E+01 -0.12770120149E+02  0.17715296600E+02  0.51100000000E-03 0.  1.
         12    1    3    3    0    0 -0.99272232813E+01 -0.12214268369E+01 -0.15651323984E+02  0.18574326046E+02  0.00000000000E+00 0. -1.
</event>
<event>
 7    1  0.5910662E-013  0.5052886E+02  0.7816164E-02  0.1300439E+00
        -11   -1    0    0    0    0  0.00000000000E+00  0.00000000000E+00  0.45593999997E+02  0.45594000000E+02  0.51100000000E-03 0.  1.
         11   -1    0    0    0    0 -0.00000000000E+00 -0.00000000000E+00 -0.45593999997E+02  0.45594000000E+02  0.51100000000E-03 0. -1.
    9900012    2    1    2    0    0 -0.12263401424E+02 -0.37295348540E+02  0.10575055067E+02  0.50528858016E+02  0.29999994424E+02 0.  0.
         12    1    1    2    0    0  0.12263401424E+02  0.37295348540E+02 -0.10575055067E+02  0.40659141984E+02  0.00000000000E+00 0. -1.
         11    1    3    3    0    0 -0.11388329179E+02 -0.19643318055E+02  0.99544876460E+01  0.24792051352E+02  0.51100000000E-03 0. -1.
        -11    1    3    3    0    0  0.64397763075E-02  0.11766925999E+01 -0.57275675358E+01  0.58471939495E+01  0.51100000000E-03 0.  1.
        -12    1    3    3    0    0 -0.88151202130E+00 -0.18828723086E+02  0.63481349571E+01  0.19889612714E+02  0.00000000000E+00 0.  1.
</event>
<event>
 7    1  0.5910662E-013  0.5052886E+02  0.7816164E-02  0.1300439E+00
        -11   -1    0    0    0    0  0.00000000000E+00  0.00000000000E+00  0.45593999997E+02  0.45594000000E+02  0.51100000000E-03 0.  1.
         11   -1    0    0    0    0 -0.00000000000E+00 -0.00000000000E+00 -0.45593999997E+02  0.45594000000E+02  0.51100000000E-03 0. -1.
    9900012    2    1    2    0    0  0.73494460593E+01  0.27216042534E+02  0.29299117277E+02  0.50528860784E+02  0.30000002840E+02 0.  0.
         12    1    1    2    0    0 -0.73494460593E+01 -0.27216042534E+02 -0.29299117277E+02  0.40659139216E+02  0.00000000000E+00 0. -1.
         11    1    3    3    0    0 -0.10031032365E+02  0.10271803957E+02  0.12666357088E+02  0.19145970045E+02  0.51100000000E-03 0. -1.
        -11    1    3    3    0    0  0.12924089556E+02  0.13751718853E+02  0.66778272449E+01  0.20018372542E+02  0.51100000000E-03 0.  1.
         12    1    3    3    0    0  0.44563888685E+01  0.31925197238E+01  0.99549329439E+01  0.11364518197E+02  0.00000000000E+00 0. -1.
</event>
<event>
 7    1  0.5910662E-013  0.5052886E+02  0.7816164E-02  0.1300439E+00
        -11   -1    0    0    0    0  0.00000000000E+00  0.00000000000E+00  0.45593999997E+02  0.45594000000E+02  0.51100000000E-03 0.  1.
         11   -1    0    0    0    0 -0.00000000000E+00 -0.00000000000E+00 -0.45593999997E+02  0.45594000000E+02  0.51100000000E-03 0. -1.
    9900012    2    1    2    0    0  0.76420605841E+01 -0.25166096602E+02  0.31006966672E+02  0.50528862155E+02  0.30000007006E+02 0.  0.
         12    1    1    2    0    0 -0.76420605841E+01  0.25166096602E+02 -0.31006966672E+02  0.40659137845E+02  0.00000000000E+00 0. -1.
         11    1    3    3    0    0 -0.66419355716E+00 -0.20198703697E+02  0.57674723332E+01  0.21016482139E+02  0.51100000000E-03 0. -1.
        -11    1    3    3    0    0  0.96040411651E+00 -0.25874444469E+01  0.19979665806E+02  0.20169389946E+02  0.51100000000E-03 0.  1.
         12    1    3    3    0    0  0.73458500248E+01 -0.23799484574E+01  0.52598285329E+01  0.93429900697E+01  0.00000000000E+00 0. -1.
</event>
<event>
 7    1  0.5910662E-013  0.5052885E+02  0.7816164E-02  0.1300439E+00
        -11   -1    0    0    0    0  0.00000000000E+00  0.00000000000E+00  0.45593999997E+02  0.45594000000E+02  0.51100000000E-03 0. -1.
         11   -1    0    0    0    0 -0.00000000000E+00 -0.00000000000E+00 -0.45593999997E+02  0.45594000000E+02  0.51100000000E-03 0.  1.
    9900012    2    1    2    0    0 -0.22868063002E+01  0.15474374914E+01 -0.40565282094E+02  0.50528853953E+02  0.29999982077E+02 0.  0.
         12    1    1    2    0    0  0.22868063002E+01 -0.15474374914E+01  0.40565282094E+02  0.40659146047E+02  0.00000000000E+00 0. -1.
         11    1    3    3    0    0 -0.12775976558E+01  0.14364920257E+02 -0.14280025024E+02  0.20295376437E+02  0.51100000000E-03 0. -1.
        -11    1    3    3    0    0 -0.91664306434E+00 -0.60686435546E+01 -0.20316815845E+02  0.21223611273E+02  0.51100000000E-03 0.  1.
         12    1    3    3    0    0 -0.92565580090E-01 -0.67488392109E+01 -0.59684412250E+01  0.90098662441E+01  0.00000000000E+00 0. -1.
</event>
<event>
 7    1  0.5910662E-013  0.5052886E+02  0.7816164E-02  0.1300439E+00
        -11   -1    0    0    0    0  0.00000000000E+00  0.00000000000E+00  0.45593999997E+02  0.45594000000E+02  0.51100000000E-03 0. -1.
         11   -1    0    0    0    0 -0.00000000000E+00 -0.00000000000E+00 -0.45593999997E+02  0.45594000000E+02  0.51100000000E-03 0.  1.
    9900012    2    1    2    0    0 -0.96488223537E+01 -0.32964868595E+02 -0.21757366610E+02  0.50528864051E+02  0.30000012770E+02 0.  0.
         12    1    1    2    0    0  0.96488223537E+01  0.32964868595E+02  0.21757366610E+02  0.40659135949E+02  0.00000000000E+00 0. -1.
         11    1    3    3    0    0 -0.27724348560E+01 -0.16198281017E+02 -0.39297655714E+01  0.16897152442E+02  0.51100000000E-03 0. -1.
        -11    1    3    3    0    0 -0.68556757181E+01 -0.10948829290E+02 -0.22650147057E+02  0.26075013218E+02  0.51100000000E-03 0.  1.
        -12    1    3    3    0    0 -0.20711779517E-01 -0.58177582881E+01  0.48225460183E+01  0.75566983912E+01  0.00000000000E+00 0.  1.
</event>
<event>
 7    1  0.5910662E-013  0.5052886E+02  0.7816164E-02  0.1300439E+00
        -11   -1    0    0    0    0  0.00000000000E+00  0.00000000000E+00  0.45593999997E+02  0.45594000000E+02  0.51100000000E-03 0.  1.
         11   -1    0    0    0    0 -0.00000000000E+00 -0.00000000000E+00 -0.45593999997E+02  0.45594000000E+02  0.51100000000E-03 0. -1.
    9900012    2    1    2    0    0  0.60155828203E+01 -0.85777132772E+01  0.39286146351E+02  0.50528859615E+02  0.29999999284E+02 0.  0.
         12    1    1    2    0    0 -0.60155828203E+01  0.85777132772E+01 -0.39286146351E+02  0.40659140385E+02  0.00000000000E+00 0. -1.
         11    1    3    3    0    0  0.73171775362E+01 -0.99604786851E+01  0.15269139787E+02  0.19644308408E+02  0.51100000000E-03 0. -1.
        -11    1    3    3    0    0 -0.31755560236E+01  0.99812760161E+01  0.14899060581E+02  0.18212414266E+02  0.51100000000E-03 0.  1.
        -12    1    3    3    0    0  0.18739613077E+01 -0.85985106082E+01  0.91179459835E+01  0.12672136940E+02  0.00000000000E+00 0.  1.
</event>
<event>
 7    1  0.5910662E-013  0.5052886E+02  0.7816164E-02  0.1300439E+00
        -11   -1    0    0    0    0  0.00000000000E+00  0.00000000000E+00  0.45593999997E+02  0.45594000000E+02  0.51100000000E-03 0.  1.
         11   -1    0    0    0    0 -0.00000000000E+00 -0.00000000000E+00 -0.45593999997E+02  0.45594000000E+02  0.51100000000E-03 0. -1.
    9900012    2    1    2    0    0  0.28423027228E+01 -0.79804092466E+01  0.39766817395E+02  0.50528863483E+02  0.30000011044E+02 0.  0.
         12    1    1    2    0    0 -0.28423027228E+01  0.79804092466E+01 -0.39766817395E+02  0.40659136517E+02  0.00000000000E+00 0. -1.
         11    1    3    3    0    0 -0.11047939074E+01  0.27012830245E+00  0.48423747868E+01  0.49741464307E+01  0.51100000000E-03 0. -1.
        -11    1    3    3    0    0  0.48047187566E+01 -0.16189139148E+02  0.33399049406E+02  0.37425526718E+02  0.51100000000E-03 0.  1.
        -12    1    3    3    0    0 -0.85762212644E+00  0.79386015994E+01  0.15253932030E+01  0.81291903342E+01  0.00000000000E+00 0.  1.
</event>
<event>
 7    1  0.5910662E-013  0.5052887E+02  0.7816164E-02  0.1300439E+00
        -11   -1    0    0    0    0  0.00000000000E+00  0.00000000000E+00  0.45593999997E+02  0.45594000000E+02  0.51100000000E-03 0. -1.
         11   -1    0    0    0    0 -0.00000000000E+00 -0.00000000000E+00 -0.45593999997E+02  0.45594000000E+02  0.51100000000E-03 0.  1.
    9900012    2    1    2    0    0  0.15705725059E+02 -0.33978033648E+01 -0.37349034078E+02  0.50528865554E+02  0.30000017338E+02 0.  0.
         12    1    1    2    0    0 -0.15705725059E+02  0.33978033648E+01  0.37349034078E+02  0.40659134446E+02  0.00000000000E+00 0. -1.
         11    1    3    3    0    0 -0.56749604881E+01 -0.94240616383E+01 -0.75890311735E+01  0.13364561673E+02  0.51100000000E-03 0. -1.
        -11    1    3    3    0    0  0.16248579159E+02  0.44054436682E+01 -0.23514126140E+02  0.28919515677E+02  0.51100000000E-03 0.  1.
         12    1    3    3    0    0  0.51321063889E+01  0.16208146053E+01 -0.62458767644E+01  0.82447882040E+01  0.00000000000E+00 0. -1.
</event>
<event>
 7    1  0.5910662E-013  0.5052884E+02  0.7816164E-02  0.1300439E+00
        -11   -1    0    0    0    0  0.00000000000E+00  0.00000000000E+00  0.45593999997E+02  0.45594000000E+02  0.51100000000E-03 0. -1.
         11   -1    0    0    0    0 -0.00000000000E+00 -0.00000000000E+00 -0.45593999997E+02  0.45594000000E+02  0.51100000000E-03 0.  1.
    9900012    2    1    2    0    0  0.27323524400E+02  0.14961829057E+01 -0.30072468114E+02  0.50528844974E+02  0.29999954784E+02 0.  0.
         12    1    1    2    0    0 -0.27323524400E+02 -0.14961829057E+01  0.30072468114E+02  0.40659155026E+02  0.00000000000E+00 0. -1.
         11    1    3    3    0    0  0.12215956417E+02  0.96768344515E+01 -0.47726080806E+01  0.16298727077E+02  0.51100000000E-03 0. -1.
        -11    1    3    3    0    0  0.16617247853E+02 -0.76838252849E+01 -0.26520641003E+02  0.32226053073E+02  0.51100000000E-03 0.  1.
         12    1    3    3    0    0 -0.15096798702E+01 -0.49682626088E+00  0.12207809690E+01  0.20040648239E+01  0.00000000000E+00 0. -1.
</event>
<event>
 7    1  0.5910662E-013  0.5052886E+02  0.7816164E-02  0.1300439E+00
        -11   -1    0    0    0    0  0.00000000000E+00  0.00000000000E+00  0.45593999997E+02  0.45594000000E+02  0.51100000000E-03 0.  1.
         11   -1    0    0    0    0 -0.00000000000E+00 -0.00000000000E+00 -0.45593999997E+02  0.45594000000E+02  0.51100000000E-03 0. -1.
    9900012    2    1    2    0    0  0.25350572333E+02 -0.31775769307E+02 -0.90278693123E+00  0.50528855187E+02  0.29999985827E+02 0.  0.
         12    1    1    2    0    0 -0.25350572333E+02  0.31775769307E+02  0.90278693123E+00  0.40659144813E+02  0.00000000000E+00 0. -1.
         11    1    3    3    0    0  0.46645516847E+01 -0.19986719900E+02 -0.70561584418E-01  0.20523937097E+02  0.51100000000E-03 0. -1.
        -11    1    3    3    0    0  0.21660713907E+02 -0.14854222743E+02 -0.24971421187E+01  0.26383141953E+02  0.51100000000E-03 0.  1.
         12    1    3    3    0    0 -0.97469325902E+00  0.30651733360E+01  0.16649167719E+01  0.36217761370E+01  0.00000000000E+00 0. -1.
</event>
<event>
 7    1  0.5910662E-013  0.5052886E+02  0.7816164E-02  0.1300439E+00
        -11   -1    0    0    0    0  0.00000000000E+00  0.00000000000E+00  0.45593999997E+02  0.45594000000E+02  0.51100000000E-03 0.  1.
         11   -1    0    0    0    0 -0.00000000000E+00 -0.00000000000E+00 -0.45593999997E+02  0.45594000000E+02  0.51100000000E-03 0. -1.
    9900012    2    1    2    0    0 -0.31751367161E+02  0.95435894491E+00  0.25379235861E+02  0.50528859201E+02  0.29999998028E+02 0.  0.
         12    1    1    2    0    0  0.31751367161E+02 -0.95435894491E+00 -0.25379235861E+02  0.40659140799E+02  0.00000000000E+00 0. -1.
         11    1    3    3    0    0  0.34508286297E+01  0.26886622067E+01  0.20828389502E+01  0.48451358131E+01  0.51100000000E-03 0. -1.
        -11    1    3    3    0    0 -0.36900000292E+02 -0.27808684119E+01  0.23222618047E+02  0.43687907250E+02  0.51100000000E-03 0.  1.
        -12    1    3    3    0    0  0.16978045009E+01  0.10465651502E+01  0.73778864394E-01  0.19958161382E+01  0.00000000000E+00 0.  1.
</event>
<event>
 7    1  0.5910662E-013  0.5052885E+02  0.7816164E-02  0.1300439E+00
        -11   -1    0    0    0    0  0.00000000000E+00  0.00000000000E+00  0.45593999997E+02  0.45594000000E+02  0.51100000000E-03 0. -1.
         11   -1    0    0    0    0 -0.00000000000E+00 -0.00000000000E+00 -0.45593999997E+02  0.45594000000E+02  0.51100000000E-03 0.  1.
    9900012    2    1    2    0    0  0.92695911118E+01 -0.38705163975E+02 -0.83157402517E+01  0.50528848832E+02  0.29999966511E+02 0.  0.
         12    1    1    2    0    0 -0.92695911118E+01  0.38705163975E+02  0.83157402517E+01  0.40659151168E+02  0.00000000000E+00 0. -1.
         11    1    3    3    0    0  0.11838472062E+02 -0.18407877151E+02  0.85008648269E+01  0.23479013290E+02  0.51100000000E-03 0. -1.
        -11    1    3    3    0    0 -0.24753011426E+01 -0.20615849017E+02 -0.16150237555E+02  0.26305332536E+02  0.51100000000E-03 0.  1.
         12    1    3    3    0    0 -0.93579807972E-01  0.31856219364E+00 -0.66636752311E+00  0.74450300707E+00  0.00000000000E+00 0. -1.
</event>
<event>
 7    1  0.5910662E-013  0.5052884E+02  0.7816164E-02  0.1300439E+00
        -11   -1    0    0    0    0  0.00000000000E+00  0.00000000000E+00  0.45593999997E+02  0.45594000000E+02  0.51100000000E-03 0.  1.
         11   -1    0    0    0    0 -0.00000000000E+00 -0.00000000000E+00 -0.45593999997E+02  0.45594000000E+02  0.51100000000E-03 0. -1.
    9900012    2    1    2    0    0 -0.34366952472E+02 -0.12645922996E+02  0.17668067687E+02  0.50528838592E+02  0.29999935384E+02 0.  0.
         12    1    1    2    0    0  0.34366952472E+02  0.12645922996E+02 -0.17668067687E+02  0.40659161408E+02  0.00000000000E+00 0. -1.
         11    1    3    3    0    0 -0.30934233162E+01 -0.11614748168E+02  0.11952761713E+01  0.12078920822E+02  0.51100000000E-03 0. -1.
        -11    1    3    3    0    0 -0.12813927961E+02 -0.90698515450E+00  0.15264285447E+02  0.19950383013E+02  0.51100000000E-03 0.  1.
         12    1    3    3    0    0 -0.18459601194E+02 -0.12418967284E+00  0.12085060679E+01  0.18499534758E+02  0.00000000000E+00 0. -1.
</event>
<event>
 7    1  0.5910662E-013  0.5052885E+02  0.7816164E-02  0.1300439E+00
        -11   -1    0    0    0    0  0.00000000000E+00  0.00000000000E+00  0.45593999997E+02  0.45594000000E+02  0.51100000000E-03 0. -1.
         11   -1    0    0    0    0 -0.00000000000E+00 -0.00000000000E+00 -0.45593999997E+02  0.45594000000E+02  0.51100000000E-03 0.  1.
    9900012    2    1    2    0    0  0.15138304823E+02  0.29928663612E+02 -0.22984188670E+02  0.50528854567E+02  0.29999983943E+02 0.  0.
         12    1    1    2    0    0 -0.15138304823E+02 -0.29928663612E+02  0.22984188670E+02  0.40659145433E+02  0.00000000000E+00 0. -1.
         11    1    3    3    0    0  0.80025079494E+01 -0.27924851818E+01 -0.96532512476E+01  0.12846142101E+02  0.51100000000E-03 0. -1.
        -11    1    3    3    0    0 -0.90815580452E-01  0.23499547543E+02 -0.96280409001E+01  0.25395593201E+02  0.51100000000E-03 0.  1.
        -12    1    3    3    0    0  0.72266124539E+01  0.92216012502E+01 -0.37028965229E+01  0.12287119265E+02  0.00000000000E+00 0.  1.
</event>
<event>
 7    1  0.5910662E-013  0.5052887E+02  0.7816164E-02  0.1300439E+00
        -11   -1    0    0    0    0  0.00000000000E+00  0.00000000000E+00  0.45593999997E+02  0.45594000000E+02  0.51100000000E-03 0. -1.
         11   -1    0    0    0    0 -0.00000000000E+00 -0.00000000000E+00 -0.45593999997E+02  0.45594000000E+02  0.51100000000E-03 0.  1.
    9900012    2    1    2    0    0 -0.89081540526E+01  0.24756526709E+02 -0.30998777110E+02  0.50528868115E+02  0.30000025124E+02 0.  0.
         12    1    1    2    0    0  0.89081540526E+01 -0.24756526709E+02  0.30998777110E+02  0.40659131885E+02  0.00000000000E+00 0. -1.
         11    1    3    3    0    0  0.78537637622E+01  0.66409261909E+01 -0.12025182970E+02  0.15823669980E+02  0.51100000000E-03 0. -1.
        -11    1    3    3    0    0 -0.87090292722E+01  0.10319264678E+02 -0.10219973699E+01  0.13541746314E+02  0.51100000000E-03 0.  1.
         12    1    3    3    0    0 -0.80528885425E+01  0.77963358400E+01 -0.17951596770E+02  0.21163451822E+02  0.00000000000E+00 0. -1.
</event>
<event>
 7    1  0.5910662E-013  0.5052888E+02  0.7816164E-02  0.1300439E+00
        -11   -1    0    0    0    0  0.00000000000E+00  0.00000000000E+00  0.45593999997E+02  0.45594000000E+02  0.51100000000E-03 0. -1.
         11   -1    0    0    0    0 -0.00000000000E+00 -0.00000000000E+00 -0.45593999997E+02  0.45594000000E+02  0.51100000000E-03 0.  1.
    9900012    2    1    2    0    0 -0.21643301253E+02 -0.34416199881E+02  0.50689245893E+00  0.50528877490E+02  0.30000053617E+02 0.  0.
         12    1    1    2    0    0  0.21643301253E+02  0.34416199881E+02 -0.50689245893E+00  0.40659122510E+02  0.00000000000E+00 0. -1.
         11    1    3    3    0    0 -0.10920467602E+02 -0.91310836842E+01 -0.13242283077E+02  0.19441999980E+02  0.51100000000E-03 0. -1.
        -11    1    3    3    0    0 -0.52625131224E+01 -0.12127485250E+02  0.39542743428E+01  0.13798776348E+02  0.51100000000E-03 0.  1.
         12    1    3    3    0    0 -0.54603205286E+01 -0.13157630946E+02  0.97949011929E+01  0.17288101162E+02  0.00000000000E+00 0. -1.
</event>
<event>
 7    1  0.5910662E-013  0.5052886E+02  0.7816164E-02  0.1300439E+00
        -11   -1    0    0    0    0  0.00000000000E+00  0.00000000000E+00  0.45593999997E+02  0.45594000000E+02  0.51100000000E-03 0.  1.
         11   -1    0    0    0    0 -0.00000000000E+00 -0.00000000000E+00 -0.45593999997E+02  0.45594000000E+02  0.51100000000E-03 0. -1.
    9900012    2    1    2    0    0 -0.14265966443E+02  0.31537215177E+02  0.21331941739E+02  0.50528862305E+02  0.30000007464E+02 0.  0.
         12    1    1    2    0    0  0.14265966443E+02 -0.31537215177E+02 -0.21331941739E+02  0.40659137695E+02  0.00000000000E+00 0. -1.
         11    1    3    3    0    0 -0.19003044155E+01  0.67155316104E+01 -0.38818562673E+01  0.79861336091E+01  0.51100000000E-03 0. -1.
        -11    1    3    3    0    0 -0.13846633421E+02  0.11193424480E+02  0.22285751312E+02  0.28525019203E+02  0.51100000000E-03 0.  1.
        -12    1    3    3    0    0  0.14809713935E+01  0.13628259087E+02  0.29280466942E+01  0.14017709494E+02  0.00000000000E+00 0.  1.
</event>
<event>
 7    1  0.5910662E-013  0.5052887E+02  0.7816164E-02  0.1300439E+00
        -11   -1    0    0    0    0  0.00000000000E+00  0.00000000000E+00  0.45593999997E+02  0.45594000000E+02  0.51100000000E-03 0.  1.
         11   -1    0    0    0    0 -0.00000000000E+00 -0.00000000000E+00 -0.45593999997E+02  0.45594000000E+02  0.51100000000E-03 0. -1.
    9900012    2    1    2    0    0  0.84206664082E+01  0.38333579815E+02  0.10620450149E+02  0.50528869100E+02  0.30000028117E+02 0.  0.
         12    1    1    2    0    0 -0.84206664082E+01 -0.38333579815E+02 -0.10620450149E+02  0.40659130900E+02  0.00000000000E+00 0. -1.
         11    1    3    3    0    0  0.74536113570E+01  0.73614046670E+01 -0.38522511890E+01  0.11161829618E+02  0.51100000000E-03 0. -1.
        -11    1    3    3    0    0  0.63307208613E+01  0.26753363179E+02  0.16726236626E+02  0.32180544742E+02  0.51100000000E-03 0.  1.
        -12    1    3    3    0    0 -0.53636658102E+01  0.42188119691E+01 -0.22535352882E+01  0.71864947401E+01  0.00000000000E+00 0.  1.
</event>
<event>
 7    1  0.5910662E-013  0.5052885E+02  0.7816164E-02  0.1300439E+00
        -11   -1    0    0    0    0  0.00000000000E+00  0.00000000000E+00  0.45593999997E+02  0.45594000000E+02  0.51100000000E-03 0.  1.
         11   -1    0    0    0    0 -0.00000000000E+00 -0.00000000000E+00 -0.45593999997E+02  0.45594000000E+02  0.51100000000E-03 0. -1.
    9900012    2    1    2    0    0  0.18982631300E+02 -0.20404832123E+02  0.29605225248E+02  0.50528845717E+02  0.29999957040E+02 0.  0.
         12    1    1    2    0    0 -0.18982631300E+02  0.20404832123E+02 -0.29605225248E+02  0.40659154283E+02  0.00000000000E+00 0. -1.
         11    1    3    3    0    0 -0.55360285884E+01 -0.10295071188E+00  0.48126291223E+01  0.73361850243E+01  0.51100000000E-03 0. -1.
        -11    1    3    3    0    0  0.12869275039E+02 -0.13723706893E+02  0.52915968688E+01  0.19543780816E+02  0.51100000000E-03 0.  1.
         12    1    3    3    0    0  0.11649384850E+02 -0.65781745183E+01  0.19500999257E+02  0.23648879876E+02  0.00000000000E+00 0. -1.
</event>
<event>
 7    1  0.5910662E-013  0.5052886E+02  0.7816164E-02  0.1300439E+00
        -11   -1    0    0    0    0  0.00000000000E+00  0.00000000000E+00  0.45593999997E+02  0.45594000000E+02  0.51100000000E-03 0.  1.
         11   -1    0    0    0    0 -0.00000000000E+00 -0.00000000000E+00 -0.45593999997E+02  0.45594000000E+02  0.51100000000E-03 0. -1.
    9900012    2    1    2    0    0 -0.25519598996E+02 -0.29351024861E+02  0.11850443538E+02  0.50528860741E+02  0.30000002707E+02 0.  0.
         12    1    1    2    0    0  0.25519598996E+02  0.29351024861E+02 -0.11850443538E+02  0.40659139259E+02  0.00000000000E+00 0. -1.
         11    1    3    3    0    0 -0.11184888614E+02 -0.25596761608E+02  0.34209595858E+01  0.28142475067E+02  0.51100000000E-03 0. -1.
        -11    1    3    3    0    0 -0.57428443915E+01  0.18336725393E+01 -0.32490336286E+01  0.68482725170E+01  0.51100000000E-03 0.  1.
         12    1    3    3    0    0 -0.85918659898E+01 -0.55879357920E+01  0.11678517580E+02  0.15538113157E+02  0.00000000000E+00 0. -1.
</event>
<event>
 7    1  0.5910662E-013  0.5052886E+02  0.7816164E-02  0.1300439E+00
        -11   -1    0    0    0    0  0.00000000000E+00  0.00000000000E+00  0.45593999997E+02  0.45594000000E+02  0.51100000000E-03 0.  1.
         11   -1    0    0    0    0 -0.00000000000E+00 -0.00000000000E+00 -0.45593999997E+02  0.45594000000E+02  0.51100000000E-03 0. -1.
    9900012    2    1    2    0    0 -0.35940152202E+02 -0.66792372966E+01  0.17800533462E+02  0.50528859052E+02  0.29999997573E+02 0.  0.
         12    1    1    2    0    0  0.35940152202E+02  0.66792372966E+01 -0.17800533462E+02  0.40659140948E+02  0.00000000000E+00 0. -1.
         11    1    3    3    0    0 -0.20866397717E+02 -0.11516169746E+02  0.20879210307E+01  0.23924634455E+02  0.51100000000E-03 0. -1.
        -11    1    3    3    0    0 -0.65531550246E+01 -0.24229526304E+01  0.13489620028E+02  0.15191589417E+02  0.51100000000E-03 0.  1.
         12    1    3    3    0    0 -0.85205994601E+01  0.72598850802E+01  0.22229924026E+01  0.11412635180E+02  0.00000000000E+00 0. -1.
</event>
<event>
 7    1  0.5910662E-013  0.5052886E+02  0.7816164E-02  0.1300439E+00
        -11   -1    0    0    0    0  0.00000000000E+00  0.00000000000E+00  0.45593999997E+02  0.45594000000E+02  0.51100000000E-03 0.  1.
         11   -1    0    0    0    0 -0.00000000000E+00 -0.00000000000E+00 -0.45593999997E+02  0.45594000000E+02  0.51100000000E-03 0. -1.
    9900012    2    1    2    0    0  0.39979170540E+02 -0.23529438444E+01  0.70210284241E+01  0.50528864963E+02  0.30000015543E+02 0.  0.
         12    1    1    2    0    0 -0.39979170540E+02  0.23529438444E+01 -0.70210284241E+01  0.40659135037E+02  0.00000000000E+00 0. -1.
         11    1    3    3    0    0  0.89258805237E+01  0.94004789814E+01 -0.29178439642E+01  0.13287368508E+02  0.51100000000E-03 0. -1.
        -11    1    3    3    0    0  0.12075890021E+02 -0.94805386175E+01  0.96356932378E+01  0.18126067326E+02  0.51100000000E-03 0.  1.
        -12    1    3    3    0    0  0.18977399995E+02 -0.22728842083E+01  0.30317915043E+00  0.19115429129E+02  0.00000000000E+00 0.  1.
</event>
<event>
 7    1  0.5910662E-013  0.5052885E+02  0.7816164E-02  0.1300439E+00
        -11   -1    0    0    0    0  0.00000000000E+00  0.00000000000E+00  0.45593999997E+02  0.45594000000E+02  0.51100000000E-03 0. -1.
         11   -1    0    0    0    0 -0.00000000000E+00 -0.00000000000E+00 -0.45593999997E+02  0.45594000000E+02  0.51100000000E-03 0.  1.
    9900012    2    1    2    0    0  0.22048717595E+02 -0.30777707541E+02 -0.14824067133E+02  0.50528853483E+02  0.29999980648E+02 0.  0.
         12    1    1    2    0    0 -0.22048717595E+02  0.30777707541E+02  0.14824067133E+02  0.40659146517E+02  0.00000000000E+00 0. -1.
         11    1    3    3    0    0  0.76201631331E+01 -0.62067961788E+01  0.73441507269E+01  0.12268975309E+02  0.51100000000E-03 0. -1.
        -11    1    3    3    0    0  0.14418878581E+02 -0.13227894750E+02 -0.16417230681E+02  0.25542253670E+02  0.51100000000E-03 0.  1.
         12    1    3    3    0    0  0.96758809507E-02 -0.11343016612E+02 -0.57509871798E+01  0.12717624504E+02  0.00000000000E+00 0. -1.
</event>
<event>
 7    1  0.5910662E-013  0.5052886E+02  0.7816164E-02  0.1300439E+00
        -11   -1    0    0    0    0  0.00000000000E+00  0.00000000000E+00  0.45593999997E+02  0.45594000000E+02  0.51100000000E-03 0.  1.
         11   -1    0    0    0    0 -0.00000000000E+00 -0.00000000000E+00 -0.45593999997E+02  0.45594000000E+02  0.51100000000E-03 0. -1.
    9900012    2    1    2    0    0  0.77952912151E+01  0.39683078330E+02 -0.42014589671E+01  0.50528861688E+02  0.30000005586E+02 0.  0.
         12    1    1    2    0    0 -0.77952912151E+01 -0.39683078330E+02  0.42014589671E+01  0.40659138312E+02  0.00000000000E+00 0. -1.
         11    1    3    3    0    0  0.76530939776E+01  0.77762926232E+01  0.47212311424E+01  0.11888254630E+02  0.51100000000E-03 0. -1.
        -11    1    3    3    0    0  0.43870521074E+01  0.21482428273E+02 -0.14289413553E+02  0.26171134684E+02  0.51100000000E-03 0.  1.
        -12    1    3    3    0    0 -0.42448548698E+01  0.10424357433E+02  0.53667234433E+01  0.12469472374E+02  0.00000000000E+00 0.  1.
</event>
<event>
 7    1  0.5910662E-013  0.5052886E+02  0.7816164E-02  0.1300439E+00
        -11   -1    0    0    0    0  0.00000000000E+00  0.00000000000E+00  0.45593999997E+02  0.45594000000E+02  0.51100000000E-03 0.  1.
         11   -1    0    0    0    0 -0.00000000000E+00 -0.00000000000E+00 -0.45593999997E+02  0.45594000000E+02  0.51100000000E-03 0. -1.
    9900012    2    1    2    0    0  0.11003219731E+02 -0.99129462263E+01  0.37865923482E+02  0.50528861932E+02  0.30000006327E+02 0.  0.
         12    1    1    2    0    0 -0.11003219731E+02  0.99129462263E+01 -0.37865923482E+02  0.40659138068E+02  0.00000000000E+00 0. -1.
         11    1    3    3    0    0  0.83705601347E+01 -0.18991836822E+02  0.20245452487E+02  0.28993697410E+02  0.51100000000E-03 0. -1.
        -11    1    3    3    0    0  0.54857399110E+01  0.60039600782E+01  0.10653850883E+02  0.13403186856E+02  0.51100000000E-03 0.  1.
         12    1    3    3    0    0 -0.28530803144E+01  0.30749305179E+01  0.69666201118E+01  0.81319776655E+01  0.00000000000E+00 0. -1.
</event>
<event>
 7    1  0.5910662E-013  0.5052886E+02  0.7816164E-02  0.1300439E+00
        -11   -1    0    0    0    0  0.00000000000E+00  0.00000000000E+00  0.45593999997E+02  0.45594000000E+02  0.51100000000E-03 0. -1.
         11   -1    0    0    0    0 -0.00000000000E+00 -0.00000000000E+00 -0.45593999997E+02  0.45594000000E+02  0.51100000000E-03 0.  1.
    9900012    2    1    2    0    0 -0.35756799862E+01 -0.34136373409E+02 -0.21796521360E+02  0.50528858097E+02  0.29999994672E+02 0.  0.
         12    1    1    2    0    0  0.35756799862E+01  0.34136373409E+02  0.21796521360E+02  0.40659141903E+02  0.00000000000E+00 0. -1.
         11    1    3    3    0    0 -0.28477820727E+01 -0.21548309418E+02  0.25819677937E+01  0.21888491484E+02  0.51100000000E-03 0. -1.
        -11    1    3    3    0    0  0.22361060194E+00 -0.11417789484E+02 -0.13608767148E+02  0.17765541420E+02  0.51100000000E-03 0.  1.
         12    1    3    3    0    0 -0.95150851548E+00 -0.11702745067E+01 -0.10769722006E+02  0.10874825193E+02  0.00000000000E+00 0. -1.
</event>
<event>
 7    1  0.5910662E-013  0.5052886E+02  0.7816164E-02  0.1300439E+00
        -11   -1    0    0    0    0  0.00000000000E+00  0.00000000000E+00  0.45593999997E+02  0.45594000000E+02  0.51100000000E-03 0.  1.
         11   -1    0    0    0    0 -0.00000000000E+00 -0.00000000000E+00 -0.45593999997E+02  0.45594000000E+02  0.51100000000E-03 0. -1.
    9900012    2    1    2    0    0  0.32159004241E+02 -0.13697565863E+02  0.20768737633E+02  0.50528864160E+02  0.30000013102E+02 0.  0.
         12    1    1    2    0    0 -0.32159004241E+02  0.13697565863E+02 -0.20768737633E+02  0.40659135840E+02  0.00000000000E+00 0. -1.
         11    1    3    3    0    0  0.35158414712E+01  0.41747918642E+01  0.12725049915E+01  0.56043998407E+01  0.51100000000E-03 0. -1.
        -11    1    3    3    0    0  0.28795233790E+02 -0.14670629555E+02  0.23380920819E+02  0.39888097462E+02  0.51100000000E-03 0.  1.
         12    1    3    3    0    0 -0.15207102060E+00 -0.32017281729E+01 -0.38846881769E+01  0.50363668572E+01  0.00000000000E+00 0. -1.
</event>
<event>
 7    1  0.5910662E-013  0.5052886E+02  0.7816164E-02  0.1300439E+00
        -11   -1    0    0    0    0  0.00000000000E+00  0.00000000000E+00  0.45593999997E+02  0.45594000000E+02  0.51100000000E-03 0. -1.
         11   -1    0    0    0    0 -0.00000000000E+00 -0.00000000000E+00 -0.45593999997E+02  0.45594000000E+02  0.51100000000E-03 0.  1.
    9900012    2    1    2    0    0  0.61376684667E+01  0.18681959726E+02 -0.35587625740E+02  0.50528859586E+02  0.29999999198E+02 0.  0.
         12    1    1    2    0    0 -0.61376684667E+01 -0.18681959726E+02  0.35587625740E+02  0.40659140414E+02  0.00000000000E+00 0. -1.
         11    1    3    3    0    0  0.97291037370E+01  0.18511587722E+01 -0.49412728119E+01  0.11067900686E+02  0.51100000000E-03 0. -1.
        -11    1    3    3    0    0 -0.10898922856E+01  0.19140378976E+02 -0.17763745345E+02  0.26136040662E+02  0.51100000000E-03 0.  1.
        -12    1    3    3    0    0 -0.25015429848E+01 -0.23095780213E+01 -0.12882607583E+02  0.13324918239E+02  0.00000000000E+00 0.  1.
</event>
<event>
 7    1  0.5910662E-013  0.5052886E+02  0.7816164E-02  0.1300439E+00
        -11   -1    0    0    0    0  0.00000000000E+00  0.00000000000E+00  0.45593999997E+02  0.45594000000E+02  0.51100000000E-03 0.  1.
         11   -1    0    0    0    0 -0.00000000000E+00 -0.00000000000E+00 -0.45593999997E+02  0.45594000000E+02  0.51100000000E-03 0. -1.
    9900012    2    1    2    0    0  0.21378774583E+02 -0.71200585626E+01  0.33844025099E+02  0.50528864846E+02  0.30000015185E+02 0.  0.
         12    1    1    2    0    0 -0.21378774583E+02  0.71200585626E+01 -0.33844025099E+02  0.40659135154E+02  0.00000000000E+00 0. -1.
         11    1    3    3    0    0  0.95055434856E+01  0.38111445486E+01  0.70311956023E+01  0.12422475260E+02  0.51100000000E-03 0. -1.
        -11    1    3    3    0    0 -0.46107383077E+01 -0.40878352994E+01  0.16221397665E+02  0.17352321102E+02  0.51100000000E-03 0.  1.
        -12    1    3    3    0    0  0.16483969405E+02 -0.68433678118E+01  0.10591431832E+02  0.20754068483E+02  0.00000000000E+00 0.  1.
</event>
<event>
 7    1  0.5910662E-013  0.5052887E+02  0.7816164E-02  0.1300439E+00
        -11   -1    0    0    0    0  0.00000000000E+00  0.00000000000E+00  0.45593999997E+02  0.45594000000E+02  0.51100000000E-03 0.  1.
         11   -1    0    0    0    0 -0.00000000000E+00 -0.00000000000E+00 -0.45593999997E+02  0.45594000000E+02  0.51100000000E-03 0. -1.
    9900012    2    1    2    0    0 -0.18586921193E+02 -0.28913697672E+02  0.21718402126E+02  0.50528873799E+02  0.30000042400E+02 0.  0.
         12    1    1    2    0    0  0.18586921193E+02  0.28913697672E+02 -0.21718402126E+02  0.40659126201E+02  0.00000000000E+00 0. -1.
         11    1    3    3    0    0  0.21193414906E+01 -0.71950890160E+01 -0.12902845931E+01  0.76108967207E+01  0.51100000000E-03 0. -1.
        -11    1    3    3    0    0 -0.24157680793E+02 -0.15504578684E+02  0.15680674699E+02  0.32708852942E+02  0.51100000000E-03 0.  1.
        -12    1    3    3    0    0  0.34514181101E+01 -0.62140299725E+01  0.73280120198E+01  0.10209124136E+02  0.00000000000E+00 0.  1.
</event>
<event>
 7    1  0.5910662E-013  0.5052887E+02  0.7816164E-02  0.1300439E+00
        -11   -1    0    0    0    0  0.00000000000E+00  0.00000000000E+00  0.45593999997E+02  0.45594000000E+02  0.51100000000E-03 0.  1.
         11   -1    0    0    0    0 -0.00000000000E+00 -0.00000000000E+00 -0.45593999997E+02  0.45594000000E+02  0.51100000000E-03 0. -1.
    9900012    2    1    2    0    0 -0.21690880662E+02 -0.15674238292E+02  0.30610277254E+02  0.50528866666E+02  0.30000020718E+02 0.  0.
         12    1    1    2    0    0  0.21690880662E+02  0.15674238292E+02 -0.30610277254E+02  0.40659133334E+02  0.00000000000E+00 0. -1.
         11    1    3    3    0    0 -0.13366016076E+01 -0.26908545799E+01  0.22893111091E+02  0.23089429138E+02  0.51100000000E-03 0. -1.
        -11    1    3    3    0    0 -0.13332557046E+02 -0.11733849947E+02  0.94239804446E+01  0.20106012027E+02  0.51100000000E-03 0.  1.
         12    1    3    3    0    0 -0.70217220081E+01 -0.12495337649E+01 -0.17068142814E+01  0.73334255010E+01  0.00000000000E+00 0. -1.
</event>
<event>
 7    1  0.5910662E-013  0.5052886E+02  0.7816164E-02  0.1300439E+00
        -11   -1    0    0    0    0  0.00000000000E+00  0.00000000000E+00  0.45593999997E+02  0.45594000000E+02  0.51100000000E-03 0.  1.
         11   -1    0    0    0    0 -0.00000000000E+00 -0.00000000000E+00 -0.45593999997E+02  0.45594000000E+02  0.51100000000E-03 0. -1.
    9900012    2    1    2    0    0  0.17196115037E+02  0.16326462871E+02  0.33028858855E+02  0.50528864747E+02  0.30000014885E+02 0.  0.
         12    1    1    2    0    0 -0.17196115037E+02 -0.16326462871E+02 -0.33028858855E+02  0.40659135253E+02  0.00000000000E+00 0. -1.
         11    1    3    3    0    0  0.10616304432E+02  0.17462813357E+02  0.61166898381E+01  0.21332361918E+02  0.51100000000E-03 0. -1.
        -11    1    3    3    0    0  0.72801832597E+01 -0.12433361856E+01  0.10887402655E+02  0.13156081863E+02  0.51100000000E-03 0.  1.
         12    1    3    3    0    0 -0.70037265477E+00  0.10698569909E+00  0.16024766363E+02  0.16040420966E+02  0.00000000000E+00 0. -1.
</event>
<event>
 7    1  0.5910662E-013  0.5052885E+02  0.7816164E-02  0.1300439E+00
        -11   -1    0    0    0    0  0.00000000000E+00  0.00000000000E+00  0.45593999997E+02  0.45594000000E+02  0.51100000000E-03 0.  1.
         11   -1    0    0    0    0 -0.00000000000E+00 -0.00000000000E+00 -0.45593999997E+02  0.45594000000E+02  0.51100000000E-03 0. -1.
    9900012    2    1    2    0    0  0.98441160178E+01  0.25877010998E+02  0.29776503568E+02  0.50528849946E+02  0.29999969896E+02 0.  0.
         12    1    1    2    0    0 -0.98441160178E+01 -0.25877010998E+02 -0.29776503568E+02  0.40659150054E+02  0.00000000000E+00 0. -1.
         11    1    3    3    0    0 -0.10160989929E+02  0.11864514621E+02  0.16267949740E+02  0.22553461210E+02  0.51100000000E-03 0. -1.
        -11    1    3    3    0    0  0.15239748809E+02  0.10714392103E+02  0.11202504408E+02  0.21738082877E+02  0.51100000000E-03 0.  1.
         12    1    3    3    0    0  0.47653571377E+01  0.32981042742E+01  0.23060494196E+01  0.62373058590E+01  0.00000000000E+00 0. -1.
</event>
<event>
 7    1  0.5910662E-013  0.5052886E+02  0.7816164E-02  0.1300439E+00
        -11   -1    0    0    0    0  0.00000000000E+00  0.00000000000E+00  0.45593999997E+02  0.45594000000E+02  0.51100000000E-03 0.  1.
         11   -1    0    0    0    0 -0.00000000000E+00 -0.00000000000E+00 -0.45593999997E+02  0.45594000000E+02  0.51100000000E-03 0. -1.
    9900012    2    1    2    0    0  0.68583489638E+01 -0.50968476126E+01  0.39751114210E+02  0.50528857277E+02  0.29999992178E+02 0.  0.
         12    1    1    2    0    0 -0.68583489638E+01  0.50968476126E+01 -0.39751114210E+02  0.40659142723E+02  0.00000000000E+00 0. -1.
         11    1    3    3    0    0  0.11024245211E+02 -0.10360071012E+02  0.76747096090E+01  0.16963673591E+02  0.51100000000E-03 0. -1.
        -11    1    3    3    0    0 -0.35894963843E+00 -0.34828873891E+00  0.17299006835E+02  0.17306235513E+02  0.51100000000E-03 0.  1.
         12    1    3    3    0    0 -0.38069466091E+01  0.56115121386E+01  0.14777397765E+02  0.16258948173E+02  0.00000000000E+00 0. -1.
</event>
<event>
 7    1  0.5910662E-013  0.5052886E+02  0.7816164E-02  0.1300439E+00
        -11   -1    0    0    0    0  0.00000000000E+00  0.00000000000E+00  0.45593999997E+02  0.45594000000E+02  0.51100000000E-03 0. -1.
         11   -1    0    0    0    0 -0.00000000000E+00 -0.00000000000E+00 -0.45593999997E+02  0.45594000000E+02  0.51100000000E-03 0.  1.
    9900012    2    1    2    0    0 -0.34484545673E+02  0.40559783875E+01 -0.21154920124E+02  0.50528862080E+02  0.30000006778E+02 0.  0.
         12    1    1    2    0    0  0.34484545673E+02 -0.40559783875E+01  0.21154920124E+02  0.40659137920E+02  0.00000000000E+00 0. -1.
         11    1    3    3    0    0 -0.20963378182E+02  0.19181814753E+00  0.27703940542E+01  0.21146515138E+02  0.51100000000E-03 0. -1.
        -11    1    3    3    0    0 -0.37478359086E+01 -0.32288584826E+01 -0.61426014297E+01  0.78869102749E+01  0.51100000000E-03 0.  1.
         12    1    3    3    0    0 -0.97733315823E+01  0.70930187225E+01 -0.17782712749E+02  0.21495436667E+02  0.00000000000E+00 0. -1.
</event>
<event>
 7    1  0.5910662E-013  0.5052885E+02  0.7816164E-02  0.1300439E+00
        -11   -1    0    0    0    0  0.00000000000E+00  0.00000000000E+00  0.45593999997E+02  0.45594000000E+02  0.51100000000E-03 0. -1.
         11   -1    0    0    0    0 -0.00000000000E+00 -0.00000000000E+00 -0.45593999997E+02  0.45594000000E+02  0.51100000000E-03 0.  1.
    9900012    2    1    2    0    0 -0.24957330859E+02  0.14910468513E+02 -0.28424915540E+02  0.50528852710E+02  0.29999978298E+02 0.  0.
         12    1    1    2    0    0  0.24957330859E+02 -0.14910468513E+02  0.28424915540E+02  0.40659147290E+02  0.00000000000E+00 0. -1.
         11    1    3    3    0    0 -0.14225901707E+02  0.19518000801E+02 -0.91468611854E+01  0.25826221257E+02  0.51100000000E-03 0. -1.
        -11    1    3    3    0    0 -0.10658783738E+02 -0.55037911763E+01 -0.20149768133E+02  0.23450256804E+02  0.51100000000E-03 0.  1.
        -12    1    3    3    0    0 -0.72645413569E-01  0.89625888865E+00  0.87171377779E+00  0.12523746492E+01  0.00000000000E+00 0.  1.
</event>
<event>
 7    1  0.5910662E-013  0.5052886E+02  0.7816164E-02  0.1300439E+00
        -11   -1    0    0    0    0  0.00000000000E+00  0.00000000000E+00  0.45593999997E+02  0.45594000000E+02  0.51100000000E-03 0.  1.
         11   -1    0    0    0    0 -0.00000000000E+00 -0.00000000000E+00 -0.45593999997E+02  0.45594000000E+02  0.51100000000E-03 0. -1.
    9900012    2    1    2    0    0 -0.10591256951E+01  0.12149694474E+02  0.38786971283E+02  0.50528856325E+02  0.29999989286E+02 0.  0.
         12    1    1    2    0    0  0.10591256951E+01 -0.12149694474E+02 -0.38786971283E+02  0.40659143675E+02  0.00000000000E+00 0. -1.
         11    1    3    3    0    0  0.89516088547E+00 -0.34921652708E+01  0.30674314718E+02  0.30885435321E+02  0.51100000000E-03 0. -1.
        -11    1    3    3    0    0 -0.48084878839E+01  0.10656773381E+02  0.74445144972E+01  0.13860345269E+02  0.51100000000E-03 0.  1.
         12    1    3    3    0    0  0.28542013034E+01  0.49850863637E+01  0.66814206788E+00  0.57830757350E+01  0.00000000000E+00 0. -1.
</event>
<event>
 7    1  0.5910662E-013  0.5052886E+02  0.7816164E-02  0.1300439E+00
        -11   -1    0    0    0    0  0.00000000000E+00  0.00000000000E+00  0.45593999997E+02  0.45594000000E+02  0.51100000000E-03 0.  1.
         11   -1    0    0    0    0 -0.00000000000E+00 -0.00000000000E+00 -0.45593999997E+02  0.45594000000E+02  0.51100000000E-03 0. -1.
    9900012    2    1    2    0    0  0.30571493328E+02 -0.24515158891E+02 -0.10842349329E+02  0.50528858854E+02  0.29999996973E+02 0.  0.
         12    1    1    2    0    0 -0.30571493328E+02  0.24515158891E+02  0.10842349329E+02  0.40659141146E+02  0.00000000000E+00 0. -1.
         11    1    3    3    0    0 -0.37349690998E+01  0.21635796010E+01 -0.22475754580E-01  0.43164309664E+01  0.51100000000E-03 0. -1.
        -11    1    3    3    0    0  0.17699325328E+02 -0.79654665369E+01 -0.81496065569E+01  0.21050673659E+02  0.51100000000E-03 0.  1.
         12    1    3    3    0    0  0.16607137100E+02 -0.18713271955E+02 -0.26702670176E+01  0.25161754229E+02  0.00000000000E+00 0. -1.
</event>
<event>
 7    1  0.5910662E-013  0.5052879E+02  0.7816164E-02  0.1300439E+00
        -11   -1    0    0    0    0  0.00000000000E+00  0.00000000000E+00  0.45593999997E+02  0.45594000000E+02  0.51100000000E-03 0. -1.
         11   -1    0    0    0    0 -0.00000000000E+00 -0.00000000000E+00 -0.45593999997E+02  0.45594000000E+02  0.51100000000E-03 0.  1.
    9900012    2    1    2    0    0  0.27401482933E+02 -0.30874310476E+01 -0.29879720445E+02  0.50528792048E+02  0.29999793909E+02 0.  0.
         12    1    1    2    0    0 -0.27401482933E+02  0.30874310476E+01  0.29879720445E+02  0.40659207952E+02  0.00000000000E+00 0. -1.
         11    1    3    3    0    0 -0.40155208024E+00 -0.36278115518E+01 -0.17364011911E+01  0.40419487981E+01  0.51100000000E-03 0. -1.
        -11    1    3    3    0    0  0.12691304973E+02  0.10352126860E+02 -0.49344399800E+01  0.17105100134E+02  0.51100000000E-03 0.  1.
        -12    1    3    3    0    0  0.15111730040E+02 -0.98117463557E+01 -0.23208879274E+02  0.29381743116E+02  0.00000000000E+00 0.  1.
</event>
<event>
 7    1  0.5910662E-013  0.5052886E+02  0.7816164E-02  0.1300439E+00
        -11   -1    0    0    0    0  0.00000000000E+00  0.00000000000E+00  0.45593999997E+02  0.45594000000E+02  0.51100000000E-03 0. -1.
         11   -1    0    0    0    0 -0.00000000000E+00 -0.00000000000E+00 -0.45593999997E+02  0.45594000000E+02  0.51100000000E-03 0.  1.
    9900012    2    1    2    0    0 -0.26494021833E+02  0.57075013509E+01 -0.30309348186E+02  0.50528863855E+02  0.30000012174E+02 0.  0.
         12    1    1    2    0    0  0.26494021833E+02 -0.57075013509E+01  0.30309348186E+02  0.40659136145E+02  0.00000000000E+00 0. -1.
         11    1    3    3    0    0 -0.72860335396E+01 -0.64344622833E+01 -0.97318603487E+01  0.13754915330E+02  0.51100000000E-03 0. -1.
        -11    1    3    3    0    0 -0.10093165732E+02  0.10898382069E+02 -0.69966177499E+00  0.14870650728E+02  0.51100000000E-03 0.  1.
        -12    1    3    3    0    0 -0.91148225613E+01  0.12435815654E+01 -0.19877826062E+02  0.21903297797E+02  0.00000000000E+00 0.  1.
</event>
<event>
 7    1  0.5910662E-013  0.5052896E+02  0.7816164E-02  0.1300438E+00
        -11   -1    0    0    0    0  0.00000000000E+00  0.00000000000E+00  0.45593999997E+02  0.45594000000E+02  0.51100000000E-03 0. -1.
         11   -1    0    0    0    0 -0.00000000000E+00 -0.00000000000E+00 -0.45593999997E+02  0.45594000000E+02  0.51100000000E-03 0.  1.
    9900012    2    1    2    0    0  0.26112635588E+02  0.31069630076E+02  0.24425266729E+01  0.50528959345E+02  0.30000302423E+02 0.  0.
         12    1    1    2    0    0 -0.26112635588E+02 -0.31069630076E+02 -0.24425266729E+01  0.40659040655E+02  0.00000000000E+00 0. -1.
         11    1    3    3    0    0  0.17223895298E+02  0.67246166274E+01 -0.82493641983E+01  0.20246852792E+02  0.51100000000E-03 0. -1.
        -11    1    3    3    0    0  0.88204987112E+01  0.16329957687E+02  0.23408766817E+01  0.18706908336E+02  0.51100000000E-03 0.  1.
         12    1    3    3    0    0  0.68241578749E-01  0.80150557619E+01  0.83510141895E+01  0.11575198217E+02  0.00000000000E+00 0. -1.
</event>
<event>
 7    1  0.5910662E-013  0.5052886E+02  0.7816164E-02  0.1300439E+00
        -11   -1    0    0    0    0  0.00000000000E+00  0.00000000000E+00  0.45593999997E+02  0.45594000000E+02  0.51100000000E-03 0. -1.
         11   -1    0    0    0    0 -0.00000000000E+00 -0.00000000000E+00 -0.45593999997E+02  0.45594000000E+02  0.51100000000E-03 0.  1.
    9900012    2    1    2    0    0  0.18200449742E+02  0.35735050377E+02 -0.67018831789E+01  0.50528862843E+02  0.30000009096E+02 0.  0.
         12    1    1    2    0    0 -0.18200449742E+02 -0.35735050377E+02  0.67018831789E+01  0.40659137157E+02  0.00000000000E+00 0. -1.
         11    1    3    3    0    0  0.94608649872E+01  0.63418840994E+01  0.84409704200E+01  0.14176651302E+02  0.51100000000E-03 0. -1.
        -11    1    3    3    0    0  0.11847678453E+02  0.22038737075E+02 -0.10680836322E+02  0.27205765591E+02  0.51100000000E-03 0.  1.
         12    1    3    3    0    0 -0.31080936988E+01  0.73544292025E+01 -0.44620172766E+01  0.91464459497E+01  0.00000000000E+00 0. -1.
</event>
<event>
 7    1  0.5910662E-013  0.5052889E+02  0.7816164E-02  0.1300439E+00
        -11   -1    0    0    0    0  0.00000000000E+00  0.00000000000E+00  0.45593999997E+02  0.45594000000E+02  0.51100000000E-03 0. -1.
         11   -1    0    0    0    0 -0.00000000000E+00 -0.00000000000E+00 -0.45593999997E+02  0.45594000000E+02  0.51100000000E-03 0.  1.
    9900012    2    1    2    0    0 -0.21839070702E+01  0.39470911236E+02  0.95100520510E+01  0.50528888181E+02  0.30000086114E+02 0.  0.
         12    1    1    2    0    0  0.21839070702E+01 -0.39470911236E+02 -0.95100520510E+01  0.40659111819E+02  0.00000000000E+00 0. -1.
         11    1    3    3    0    0  0.47375096792E+01  0.10243380586E+02 -0.49345539105E+01  0.12317494321E+02  0.51100000000E-03 0. -1.
        -11    1    3    3    0    0 -0.29382930575E+01  0.65119519310E+01  0.13328281756E+02  0.15122241199E+02  0.51100000000E-03 0.  1.
        -12    1    3    3    0    0 -0.39831236919E+01  0.22715578719E+02  0.11163242057E+01  0.23089152661E+02  0.00000000000E+00 0.  1.
</event>
<event>
 7    1  0.5910662E-013  0.5052886E+02  0.7816164E-02  0.1300439E+00
        -11   -1    0    0    0    0  0.00000000000E+00  0.00000000000E+00  0.45593999997E+02  0.45594000000E+02  0.51100000000E-03 0. -1.
         11   -1    0    0    0    0 -0.00000000000E+00 -0.00000000000E+00 -0.45593999997E+02  0.45594000000E+02  0.51100000000E-03 0.  1.
    9900012    2    1    2    0    0 -0.27862116482E+02  0.26132078967E+02 -0.13927773098E+02  0.50528856508E+02  0.29999989842E+02 0.  0.
         12    1    1    2    0    0  0.27862116482E+02 -0.26132078967E+02  0.13927773098E+02  0.40659143492E+02  0.00000000000E+00 0. -1.
         11    1    3    3    0    0 -0.73222811486E+01  0.24657364923E+01  0.45762050162E+01  0.89798279649E+01  0.51100000000E-03 0. -1.
        -11    1    3    3    0    0 -0.15825526353E+02  0.71921763721E+01 -0.17054799851E+02  0.24352430752E+02  0.51100000000E-03 0.  1.
        -12    1    3    3    0    0 -0.47143089812E+01  0.16474166103E+02 -0.14491782634E+01  0.17196597791E+02  0.00000000000E+00 0.  1.
</event>
<event>
 7    1  0.5910662E-013  0.5052886E+02  0.7816164E-02  0.1300439E+00
        -11   -1    0    0    0    0  0.00000000000E+00  0.00000000000E+00  0.45593999997E+02  0.45594000000E+02  0.51100000000E-03 0. -1.
         11   -1    0    0    0    0 -0.00000000000E+00 -0.00000000000E+00 -0.45593999997E+02  0.45594000000E+02  0.51100000000E-03 0.  1.
    9900012    2    1    2    0    0 -0.11959256873E+02  0.18207842638E+01 -0.38817863203E+02  0.50528861003E+02  0.30000003505E+02 0.  0.
         12    1    1    2    0    0  0.11959256873E+02 -0.18207842638E+01  0.38817863203E+02  0.40659138997E+02  0.00000000000E+00 0. -1.
         11    1    3    3    0    0 -0.18523008789E+02 -0.52040311152E+01 -0.20328556159E+02  0.27989890858E+02  0.51100000000E-03 0. -1.
        -11    1    3    3    0    0  0.77857678866E+01  0.37224531934E+01 -0.92459176448E+01  0.12647601856E+02  0.51100000000E-03 0.  1.
         12    1    3    3    0    0 -0.12220159705E+01  0.33023621857E+01 -0.92433893993E+01  0.98913682888E+01  0.00000000000E+00 0. -1.
</event>
<event>
 7    1  0.5910662E-013  0.5052885E+02  0.7816164E-02  0.1300439E+00
        -11   -1    0    0    0    0  0.00000000000E+00  0.00000000000E+00  0.45593999997E+02  0.45594000000E+02  0.51100000000E-03 0. -1.
         11   -1    0    0    0    0 -0.00000000000E+00 -0.00000000000E+00 -0.45593999997E+02  0.45594000000E+02  0.51100000000E-03 0.  1.
    9900012    2    1    2    0    0  0.77960145910E+01  0.39724318988E+02 -0.37903455034E+01  0.50528854884E+02  0.29999984904E+02 0.  0.
         12    1    1    2    0    0 -0.77960145910E+01 -0.39724318988E+02  0.37903455034E+01  0.40659145116E+02  0.00000000000E+00 0. -1.
         11    1    3    3    0    0  0.16187221640E+02  0.27472747905E+02  0.17192317151E+01  0.31933270735E+02  0.51100000000E-03 0. -1.
        -11    1    3    3    0    0 -0.14975409911E+01 -0.15902836203E+01 -0.14027866561E+01  0.25960434659E+01  0.51100000000E-03 0.  1.
         12    1    3    3    0    0 -0.68936660577E+01  0.13841854703E+02 -0.41067905624E+01  0.15999540683E+02  0.00000000000E+00 0. -1.
</event>
<event>
 7    1  0.5910662E-013  0.5052886E+02  0.7816164E-02  0.1300439E+00
        -11   -1    0    0    0    0  0.00000000000E+00  0.00000000000E+00  0.45593999997E+02  0.45594000000E+02  0.51100000000E-03 0. -1.
         11   -1    0    0    0    0 -0.00000000000E+00 -0.00000000000E+00 -0.45593999997E+02  0.45594000000E+02  0.51100000000E-03 0.  1.
    9900012    2    1    2    0    0  0.10288324727E+02 -0.38022284217E+02 -0.10080772214E+02  0.50528859685E+02  0.29999999498E+02 0.  0.
         12    1    1    2    0    0 -0.10288324727E+02  0.38022284217E+02  0.10080772214E+02  0.40659140315E+02  0.00000000000E+00 0. -1.
         11    1    3    3    0    0  0.46577615238E+01 -0.24276008085E+01  0.75451533992E+01  0.91933306357E+01  0.51100000000E-03 0. -1.
        -11    1    3    3    0    0 -0.13621188867E+01 -0.16104968828E+02 -0.43456155250E+01  0.16736480017E+02  0.51100000000E-03 0.  1.
         12    1    3    3    0    0  0.69926820902E+01 -0.19489714580E+02 -0.13280310088E+02  0.24599049032E+02  0.00000000000E+00 0. -1.
</event>
<event>
 7    1  0.5910662E-013  0.5052886E+02  0.7816164E-02  0.1300439E+00
        -11   -1    0    0    0    0  0.00000000000E+00  0.00000000000E+00  0.45593999997E+02  0.45594000000E+02  0.51100000000E-03 0.  1.
         11   -1    0    0    0    0 -0.00000000000E+00 -0.00000000000E+00 -0.45593999997E+02  0.45594000000E+02  0.51100000000E-03 0. -1.
    9900012    2    1    2    0    0  0.18142537217E+02  0.23320002266E+02  0.27931906797E+02  0.50528861056E+02  0.30000003666E+02 0.  0.
         12    1    1    2    0    0 -0.18142537217E+02 -0.23320002266E+02 -0.27931906797E+02  0.40659138944E+02  0.00000000000E+00 0. -1.
         11    1    3    3    0    0 -0.13433715261E+01  0.18541051929E+02  0.10952868378E+02  0.21576389402E+02  0.51100000000E-03 0. -1.
        -11    1    3    3    0    0  0.15663540944E+02  0.79461512104E+01  0.94789387366E+01  0.19958409601E+02  0.51100000000E-03 0.  1.
        -12    1    3    3    0    0  0.38223677993E+01 -0.31672008733E+01  0.75000996823E+01  0.89940620528E+01  0.00000000000E+00 0.  1.
</event>
<event>
 7    1  0.5910662E-013  0.5052886E+02  0.7816164E-02  0.1300439E+00
        -11   -1    0    0    0    0  0.00000000000E+00  0.00000000000E+00  0.45593999997E+02  0.45594000000E+02  0.51100000000E-03 0.  1.
         11   -1    0    0    0    0 -0.00000000000E+00 -0.00000000000E+00 -0.45593999997E+02  0.45594000000E+02  0.51100000000E-03 0. -1.
    9900012    2    1    2    0    0  0.25502705092E+02 -0.28800109866E+02  0.13165543657E+02  0.50528857915E+02  0.29999994120E+02 0.  0.
         12    1    1    2    0    0 -0.25502705092E+02  0.28800109866E+02 -0.13165543657E+02  0.40659142085E+02  0.00000000000E+00 0. -1.
         11    1    3    3    0    0 -0.10764732742E-02  0.19341627712E+01  0.34282120011E+01  0.39361941733E+01  0.51100000000E-03 0. -1.
        -11    1    3    3    0    0  0.20456129959E+02 -0.32958150008E+02  0.46127521287E+01  0.39063670940E+02  0.51100000000E-03 0.  1.
        -12    1    3    3    0    0  0.50476516054E+01  0.22238773704E+01  0.51245795268E+01  0.75289928022E+01  0.00000000000E+00 0.  1.
</event>
<event>
 7    1  0.5910662E-013  0.5052886E+02  0.7816164E-02  0.1300439E+00
        -11   -1    0    0    0    0  0.00000000000E+00  0.00000000000E+00  0.45593999997E+02  0.45594000000E+02  0.51100000000E-03 0.  1.
         11   -1    0    0    0    0 -0.00000000000E+00 -0.00000000000E+00 -0.45593999997E+02  0.45594000000E+02  0.51100000000E-03 0. -1.
    9900012    2    1    2    0    0  0.14736551014E+02  0.23038055180E+02  0.30087336018E+02  0.50528859442E+02  0.29999998760E+02 0.  0.
         12    1    1    2    0    0 -0.14736551014E+02 -0.23038055180E+02 -0.30087336018E+02  0.40659140558E+02  0.00000000000E+00 0. -1.
         11    1    3    3    0    0  0.16701016951E+02  0.17224319240E+02  0.13737887868E+02  0.27646531497E+02  0.51100000000E-03 0. -1.
        -11    1    3    3    0    0 -0.76728751310E+01  0.68207320851E+00  0.50095701962E+01  0.91887991843E+01  0.51100000000E-03 0.  1.
        -12    1    3    3    0    0  0.57084091941E+01  0.51316627313E+01  0.11339877954E+02  0.13693528761E+02  0.00000000000E+00 0.  1.
</event>
<event>
 7    1  0.5910662E-013  0.5052886E+02  0.7816164E-02  0.1300439E+00
        -11   -1    0    0    0    0  0.00000000000E+00  0.00000000000E+00  0.45593999997E+02  0.45594000000E+02  0.51100000000E-03 0.  1.
         11   -1    0    0    0    0 -0.00000000000E+00 -0.00000000000E+00 -0.45593999997E+02  0.45594000000E+02  0.51100000000E-03 0. -1.
    9900012    2    1    2    0    0 -0.24141154975E+02  0.32562607141E+02  0.31697358829E+01  0.50528856220E+02  0.29999988967E+02 0.  0.
         12    1    1    2    0    0  0.24141154975E+02 -0.32562607141E+02 -0.31697358829E+01  0.40659143780E+02  0.00000000000E+00 0. -1.
         11    1    3    3    0    0 -0.14046137163E+02  0.17774155811E+02  0.12504852647E+02  0.25876358399E+02  0.51100000000E-03 0.  1.
        -11    1    3    3    0    0 -0.15258267544E+01  0.11674695681E+02 -0.10087227078E+02  0.15504154827E+02  0.51100000000E-03 0. -1.
         12    1    3    3    0    0 -0.85691910568E+01  0.31137556491E+01  0.75211031403E+00  0.91483429939E+01  0.00000000000E+00 0. -1.
</event>
<event>
 7    1  0.5910662E-013  0.5052887E+02  0.7816164E-02  0.1300439E+00
        -11   -1    0    0    0    0  0.00000000000E+00  0.00000000000E+00  0.45593999997E+02  0.45594000000E+02  0.51100000000E-03 0.  1.
         11   -1    0    0    0    0 -0.00000000000E+00 -0.00000000000E+00 -0.45593999997E+02  0.45594000000E+02  0.51100000000E-03 0. -1.
    9900012    2    1    2    0    0 -0.16953887936E+02 -0.36004250168E+02  0.83321174785E+01  0.50528873989E+02  0.30000042977E+02 0.  0.
         12    1    1    2    0    0  0.16953887936E+02  0.36004250168E+02 -0.83321174785E+01  0.40659126011E+02  0.00000000000E+00 0. -1.
         11    1    3    3    0    0 -0.14852074232E+01 -0.71280317885E+01  0.90965201561E+01  0.11651667584E+02  0.51100000000E-03 0. -1.
        -11    1    3    3    0    0 -0.18971000477E+02 -0.28392984687E+02  0.22631617519E+01  0.34222541400E+02  0.51100000000E-03 0.  1.
         12    1    3    3    0    0  0.35023199642E+01 -0.48323369277E+00 -0.30275644295E+01  0.46546650050E+01  0.00000000000E+00 0. -1.
</event>
<event>
 7    1  0.5910662E-013  0.5052885E+02  0.7816164E-02  0.1300439E+00
        -11   -1    0    0    0    0  0.00000000000E+00  0.00000000000E+00  0.45593999997E+02  0.45594000000E+02  0.51100000000E-03 0. -1.
         11   -1    0    0    0    0 -0.00000000000E+00 -0.00000000000E+00 -0.45593999997E+02  0.45594000000E+02  0.51100000000E-03 0.  1.
    9900012    2    1    2    0    0  0.36640244723E+02  0.39712249890E+00  0.17621043976E+02  0.50528850594E+02  0.29999971866E+02 0.  0.
         12    1    1    2    0    0 -0.36640244723E+02 -0.39712249890E+00 -0.17621043976E+02  0.40659149406E+02  0.00000000000E+00 0. -1.
         11    1    3    3    0    0  0.32107146271E+01 -0.69262966731E+01 -0.51650885197E+01  0.92173973386E+01  0.51100000000E-03 0. -1.
        -11    1    3    3    0    0  0.30052580863E+02  0.57903996908E+01  0.19064603899E+02  0.36057529965E+02  0.51100000000E-03 0.  1.
         12    1    3    3    0    0  0.33769492329E+01  0.15330194812E+01  0.37215285963E+01  0.52539232907E+01  0.00000000000E+00 0. -1.
</event>
<event>
 7    1  0.5910662E-013  0.5052886E+02  0.7816164E-02  0.1300439E+00
        -11   -1    0    0    0    0  0.00000000000E+00  0.00000000000E+00  0.45593999997E+02  0.45594000000E+02  0.51100000000E-03 0.  1.
         11   -1    0    0    0    0 -0.00000000000E+00 -0.00000000000E+00 -0.45593999997E+02  0.45594000000E+02  0.51100000000E-03 0. -1.
    9900012    2    1    2    0    0 -0.38079272264E+02 -0.76476612128E+01  0.12026963844E+02  0.50528861329E+02  0.30000004496E+02 0.  0.
         12    1    1    2    0    0  0.38079272264E+02  0.76476612128E+01 -0.12026963844E+02  0.40659138671E+02  0.00000000000E+00 0. -1.
         11    1    3    3    0    0 -0.22784988131E+01  0.39796967985E+01 -0.28726098961E+01  0.54112319601E+01  0.51100000000E-03 0. -1.
        -11    1    3    3    0    0 -0.31945887685E+02 -0.14997756097E+02  0.74355728706E+01  0.36066052904E+02  0.51100000000E-03 0.  1.
        -12    1    3    3    0    0 -0.38548857661E+01  0.33703980859E+01  0.74640008691E+01  0.90515764650E+01  0.00000000000E+00 0.  1.
</event>
<event>
 7    1  0.5910662E-013  0.5052886E+02  0.7816164E-02  0.1300439E+00
        -11   -1    0    0    0    0  0.00000000000E+00  0.00000000000E+00  0.45593999997E+02  0.45594000000E+02  0.51100000000E-03 0.  1.
         11   -1    0    0    0    0 -0.00000000000E+00 -0.00000000000E+00 -0.45593999997E+02  0.45594000000E+02  0.51100000000E-03 0. -1.
    9900012    2    1    2    0    0 -0.19741631678E+02  0.69666786870E+01  0.34855398772E+02  0.50528862567E+02  0.30000008259E+02 0.  0.
         12    1    1    2    0    0  0.19741631678E+02 -0.69666786870E+01 -0.34855398772E+02  0.40659137433E+02  0.00000000000E+00 0. -1.
         11    1    3    3    0    0 -0.43062397508E+01 -0.92874703170E+01  0.13833071564E+02  0.17209145093E+02  0.51100000000E-03 0. -1.
        -11    1    3    3    0    0 -0.13952106571E+02  0.68821513584E+01  0.88919183911E+01  0.17919026146E+02  0.51100000000E-03 0.  1.
         12    1    3    3    0    0 -0.14832853562E+01  0.93719976457E+01  0.12130408817E+02  0.15400691328E+02  0.00000000000E+00 0. -1.
</event>
<event>
 7    1  0.5910662E-013  0.5052887E+02  0.7816164E-02  0.1300439E+00
        -11   -1    0    0    0    0  0.00000000000E+00  0.00000000000E+00  0.45593999997E+02  0.45594000000E+02  0.51100000000E-03 0.  1.
         11   -1    0    0    0    0 -0.00000000000E+00 -0.00000000000E+00 -0.45593999997E+02  0.45594000000E+02  0.51100000000E-03 0. -1.
    9900012    2    1    2    0    0  0.20519746979E+02 -0.24158060181E+02  0.25465531483E+02  0.50528865952E+02  0.30000018547E+02 0.  0.
         12    1    1    2    0    0 -0.20519746979E+02  0.24158060181E+02 -0.25465531483E+02  0.40659134048E+02  0.00000000000E+00 0. -1.
         11    1    3    3    0    0 -0.17855826920E+01 -0.87355140211E+01  0.85783785521E+01  0.12372796354E+02  0.51100000000E-03 0. -1.
        -11    1    3    3    0    0  0.21729348982E+02 -0.44619660913E+01  0.66775320422E+01  0.23165991950E+02  0.51100000000E-03 0.  1.
        -12    1    3    3    0    0  0.57598068921E+00 -0.10960580069E+02  0.10209620889E+02  0.14990077648E+02  0.00000000000E+00 0.  1.
</event>
<event>
 7    1  0.5910662E-013  0.5052886E+02  0.7816164E-02  0.1300439E+00
        -11   -1    0    0    0    0  0.00000000000E+00  0.00000000000E+00  0.45593999997E+02  0.45594000000E+02  0.51100000000E-03 0. -1.
         11   -1    0    0    0    0 -0.00000000000E+00 -0.00000000000E+00 -0.45593999997E+02  0.45594000000E+02  0.51100000000E-03 0.  1.
    9900012    2    1    2    0    0  0.33887193231E+02  0.17617430132E+02 -0.13944534473E+02  0.50528858946E+02  0.29999997253E+02 0.  0.
         12    1    1    2    0    0 -0.33887193231E+02 -0.17617430132E+02  0.13944534473E+02  0.40659141054E+02  0.00000000000E+00 0. -1.
         11    1    3    3    0    0  0.90246484049E+00 -0.15897233414E+01 -0.24472360762E+01  0.30546076285E+01  0.51100000000E-03 0. -1.
        -11    1    3    3    0    0  0.22775579828E+02  0.93816249259E+01  0.56081129255E+01  0.25262479166E+02  0.51100000000E-03 0.  1.
        -12    1    3    3    0    0  0.10209148563E+02  0.98255285477E+01 -0.17105411323E+02  0.22211772152E+02  0.00000000000E+00 0.  1.
</event>
<event>
 7    1  0.5910662E-013  0.5052886E+02  0.7816164E-02  0.1300439E+00
        -11   -1    0    0    0    0  0.00000000000E+00  0.00000000000E+00  0.45593999997E+02  0.45594000000E+02  0.51100000000E-03 0. -1.
         11   -1    0    0    0    0 -0.00000000000E+00 -0.00000000000E+00 -0.45593999997E+02  0.45594000000E+02  0.51100000000E-03 0.  1.
    9900012    2    1    2    0    0  0.34575119402E+01 -0.33258520998E+02  0.23131844417E+02  0.50528857929E+02  0.29999994161E+02 0.  0.
         12    1    1    2    0    0 -0.34575119402E+01  0.33258520998E+02 -0.23131844417E+02  0.40659142071E+02  0.00000000000E+00 0. -1.
         11    1    3    3    0    0  0.10355501311E+02 -0.20004141335E+01  0.17510319765E+01  0.10691313172E+02  0.51100000000E-03 0. -1.
        -11    1    3    3    0    0 -0.39627198093E+01 -0.24588255473E+01  0.28251875079E+01  0.54525825143E+01  0.51100000000E-03 0.  1.
         12    1    3    3    0    0 -0.29352695610E+01 -0.28799281317E+02  0.18555624933E+02  0.34384962243E+02  0.00000000000E+00 0. -1.
</event>
<event>
 7    1  0.5910662E-013  0.5052886E+02  0.7816164E-02  0.1300439E+00
        -11   -1    0    0    0    0  0.00000000000E+00  0.00000000000E+00  0.45593999997E+02  0.45594000000E+02  0.51100000000E-03 0.  1.
         11   -1    0    0    0    0 -0.00000000000E+00 -0.00000000000E+00 -0.45593999997E+02  0.45594000000E+02  0.51100000000E-03 0. -1.
    9900012    2    1    2    0    0  0.21095266145E+02  0.31749623100E+02  0.14146252623E+02  0.50528864692E+02  0.30000014719E+02 0.  0.
         12    1    1    2    0    0 -0.21095266145E+02 -0.31749623100E+02 -0.14146252623E+02  0.40659135308E+02  0.00000000000E+00 0. -1.
         11    1    3    3    0    0 -0.97799302746E+00 -0.49026646736E+01  0.34031026252E+01  0.60476192839E+01  0.51100000000E-03 0. -1.
        -11    1    3    3    0    0  0.19395878659E+02  0.34944928365E+02  0.95753690097E+01  0.41097880959E+02  0.51100000000E-03 0.  1.
         12    1    3    3    0    0  0.26773805136E+01  0.17073594083E+01  0.11677809877E+01  0.33833644496E+01  0.00000000000E+00 0. -1.
</event>
<event>
 7    1  0.5910662E-013  0.5052886E+02  0.7816164E-02  0.1300439E+00
        -11   -1    0    0    0    0  0.00000000000E+00  0.00000000000E+00  0.45593999997E+02  0.45594000000E+02  0.51100000000E-03 0.  1.
         11   -1    0    0    0    0 -0.00000000000E+00 -0.00000000000E+00 -0.45593999997E+02  0.45594000000E+02  0.51100000000E-03 0. -1.
    9900012    2    1    2    0    0 -0.60595332950E+01  0.35644541021E+02  0.18598768902E+02  0.50528862613E+02  0.30000008399E+02 0.  0.
         12    1    1    2    0    0  0.60595332950E+01 -0.35644541021E+02 -0.18598768902E+02  0.40659137387E+02  0.00000000000E+00 0. -1.
         11    1    3    3    0    0  0.36108038056E+01  0.64922707799E+00 -0.18126122928E+00  0.36731806130E+01  0.51100000000E-03 0. -1.
        -11    1    3    3    0    0 -0.16223262510E+02  0.31048829216E+02  0.17274676141E+02  0.39059422399E+02  0.51100000000E-03 0.  1.
        -12    1    3    3    0    0  0.65529254096E+01  0.39464847275E+01  0.15053539909E+01  0.77962596010E+01  0.00000000000E+00 0.  1.
</event>
<event>
 7    1  0.5910662E-013  0.5052887E+02  0.7816164E-02  0.1300439E+00
        -11   -1    0    0    0    0  0.00000000000E+00  0.00000000000E+00  0.45593999997E+02  0.45594000000E+02  0.51100000000E-03 0.  1.
         11   -1    0    0    0    0 -0.00000000000E+00 -0.00000000000E+00 -0.45593999997E+02  0.45594000000E+02  0.51100000000E-03 0. -1.
    9900012    2    1    2    0    0 -0.26284847617E+02  0.15163469157E+02  0.27061797714E+02  0.50528869332E+02  0.30000028823E+02 0.  0.
         12    1    1    2    0    0  0.26284847617E+02 -0.15163469157E+02 -0.27061797714E+02  0.40659130668E+02  0.00000000000E+00 0. -1.
         11    1    3    3    0    0 -0.15448875882E+02  0.19401003555E+02  0.17019500935E+02  0.30078731976E+02  0.51100000000E-03 0. -1.
        -11    1    3    3    0    0 -0.94521566790E+01 -0.21564414071E+01 -0.40952887481E+00  0.97036704183E+01  0.51100000000E-03 0.  1.
        -12    1    3    3    0    0 -0.13838150568E+01 -0.20810929916E+01  0.10451825654E+02  0.10746466938E+02  0.00000000000E+00 0.  1.
</event>
<event>
 7    1  0.5910662E-013  0.5052886E+02  0.7816164E-02  0.1300439E+00
        -11   -1    0    0    0    0  0.00000000000E+00  0.00000000000E+00  0.45593999997E+02  0.45594000000E+02  0.51100000000E-03 0.  1.
         11   -1    0    0    0    0 -0.00000000000E+00 -0.00000000000E+00 -0.45593999997E+02  0.45594000000E+02  0.51100000000E-03 0. -1.
    9900012    2    1    2    0    0 -0.26684095903E+02 -0.17512419562E+02  0.25188092703E+02  0.50528858013E+02  0.29999994417E+02 0.  0.
         12    1    1    2    0    0  0.26684095903E+02  0.17512419562E+02 -0.25188092703E+02  0.40659141987E+02  0.00000000000E+00 0. -1.
         11    1    3    3    0    0 -0.60995606377E+01 -0.14230886417E+00  0.13939839913E+02  0.15216570863E+02  0.51100000000E-03 0. -1.
        -11    1    3    3    0    0 -0.24487009650E+02 -0.16269336162E+02  0.10269382002E+02  0.31141052450E+02  0.51100000000E-03 0.  1.
        -12    1    3    3    0    0  0.39024743845E+01 -0.11007745356E+01  0.97887078806E+00  0.41712346996E+01  0.00000000000E+00 0.  1.
</event>
<event>
 7    1  0.5910662E-013  0.5052886E+02  0.7816164E-02  0.1300439E+00
        -11   -1    0    0    0    0  0.00000000000E+00  0.00000000000E+00  0.45593999997E+02  0.45594000000E+02  0.51100000000E-03 0. -1.
         11   -1    0    0    0    0 -0.00000000000E+00 -0.00000000000E+00 -0.45593999997E+02  0.45594000000E+02  0.51100000000E-03 0.  1.
    9900012    2    1    2    0    0 -0.41753520418E+01 -0.13904851992E+02 -0.37978775640E+02  0.50528857453E+02  0.29999992713E+02 0.  0.
         12    1    1    2    0    0  0.41753520418E+01  0.13904851992E+02  0.37978775640E+02  0.40659142547E+02  0.00000000000E+00 0. -1.
         11    1    3    3    0    0  0.52734906403E+01 -0.91846545596E+01 -0.16206738640E+01  0.10714203981E+02  0.51100000000E-03 0. -1.
        -11    1    3    3    0    0 -0.81133048891E+01 -0.54816178511E+01 -0.12365007478E+02  0.15772357487E+02  0.51100000000E-03 0.  1.
         12    1    3    3    0    0 -0.13355377931E+01  0.76142041913E+00 -0.23993094298E+02  0.24042295985E+02  0.00000000000E+00 0. -1.
</event>
<event>
 7    1  0.5910662E-013  0.5052886E+02  0.7816164E-02  0.1300439E+00
        -11   -1    0    0    0    0  0.00000000000E+00  0.00000000000E+00  0.45593999997E+02  0.45594000000E+02  0.51100000000E-03 0.  1.
         11   -1    0    0    0    0 -0.00000000000E+00 -0.00000000000E+00 -0.45593999997E+02  0.45594000000E+02  0.51100000000E-03 0. -1.
    9900012    2    1    2    0    0  0.21171101862E+02 -0.65735553599E+01  0.34084288824E+02  0.50528856763E+02  0.29999990617E+02 0.  0.
         12    1    1    2    0    0 -0.21171101862E+02  0.65735553599E+01 -0.34084288824E+02  0.40659143237E+02  0.00000000000E+00 0. -1.
         11    1    3    3    0    0 -0.12771055540E+01 -0.49014143039E+01  0.16021578790E+02  0.16803149942E+02  0.51100000000E-03 0. -1.
        -11    1    3    3    0    0  0.15492045438E+02  0.24312421407E+01  0.20808391210E+01  0.15819111919E+02  0.51100000000E-03 0.  1.
        -12    1    3    3    0    0  0.69561619787E+01 -0.41033831967E+01  0.15981870912E+02  0.17906594902E+02  0.00000000000E+00 0.  1.
</event>
<event>
 7    1  0.5910662E-013  0.5052887E+02  0.7816164E-02  0.1300439E+00
        -11   -1    0    0    0    0  0.00000000000E+00  0.00000000000E+00  0.45593999997E+02  0.45594000000E+02  0.51100000000E-03 0. -1.
         11   -1    0    0    0    0 -0.00000000000E+00 -0.00000000000E+00 -0.45593999997E+02  0.45594000000E+02  0.51100000000E-03 0.  1.
    9900012    2    1    2    0    0  0.66421723539E+01 -0.17072059846E+02 -0.36298641348E+02  0.50528867635E+02  0.30000023664E+02 0.  0.
         12    1    1    2    0    0 -0.66421723539E+01  0.17072059846E+02  0.36298641348E+02  0.40659132365E+02  0.00000000000E+00 0. -1.
         11    1    3    3    0    0  0.90441268141E+01  0.18563590445E+01 -0.10367139635E+02  0.13882358705E+02  0.51100000000E-03 0. -1.
        -11    1    3    3    0    0 -0.17003486721E+00 -0.78985343807E+01  0.50297735491E+00  0.79163592453E+01  0.51100000000E-03 0.  1.
         12    1    3    3    0    0 -0.22319195930E+01 -0.11029884510E+02 -0.26434479068E+02  0.28730149686E+02  0.00000000000E+00 0. -1.
</event>
<event>
 7    1  0.5910662E-013  0.5052885E+02  0.7816164E-02  0.1300439E+00
        -11   -1    0    0    0    0  0.00000000000E+00  0.00000000000E+00  0.45593999997E+02  0.45594000000E+02  0.51100000000E-03 0. -1.
         11   -1    0    0    0    0 -0.00000000000E+00 -0.00000000000E+00 -0.45593999997E+02  0.45594000000E+02  0.51100000000E-03 0.  1.
    9900012    2    1    2    0    0  0.28893072076E+02 -0.27229066525E+02  0.87712376091E+01  0.50528852357E+02  0.29999977225E+02 0.  0.
         12    1    1    2    0    0 -0.28893072076E+02  0.27229066525E+02 -0.87712376091E+01  0.40659147643E+02  0.00000000000E+00 0. -1.
         11    1    3    3    0    0 -0.47434017116E+01 -0.76209187690E+01  0.50989859511E+01  0.10323658299E+02  0.51100000000E-03 0. -1.
        -11    1    3    3    0    0  0.32948724071E+02 -0.20558440448E+02  0.38156074880E+01  0.39023412874E+02  0.51100000000E-03 0.  1.
         12    1    3    3    0    0  0.68774971736E+00  0.95029269203E+00 -0.14335583004E+00  0.11817811846E+01  0.00000000000E+00 0. -1.
</event>
<event>
 7    1  0.5910662E-013  0.5052886E+02  0.7816164E-02  0.1300439E+00
        -11   -1    0    0    0    0  0.00000000000E+00  0.00000000000E+00  0.45593999997E+02  0.45594000000E+02  0.51100000000E-03 0.  1.
         11   -1    0    0    0    0 -0.00000000000E+00 -0.00000000000E+00 -0.45593999997E+02  0.45594000000E+02  0.51100000000E-03 0. -1.
    9900012    2    1    2    0    0 -0.71729803130E+01 -0.85784033490E+00  0.40012229315E+02  0.50528855501E+02  0.29999986782E+02 0.  0.
         12    1    1    2    0    0  0.71729803130E+01  0.85784033490E+00 -0.40012229315E+02  0.40659144499E+02  0.00000000000E+00 0. -1.
         11    1    3    3    0    0  0.13702903053E+01  0.17292004398E+01 -0.20745709482E+01  0.30284772678E+01  0.51100000000E-03 0. -1.
        -11    1    3    3    0    0 -0.72539818343E+01 -0.10869408890E+02  0.30661803347E+02  0.33330323833E+02  0.51100000000E-03 0.  1.
        -12    1    3    3    0    0 -0.12892887840E+01  0.82823681156E+01  0.11424996916E+02  0.14170054400E+02  0.00000000000E+00 0.  1.
</event>
<event>
 7    1  0.5910662E-013  0.5052887E+02  0.7816164E-02  0.1300439E+00
        -11   -1    0    0    0    0  0.00000000000E+00  0.00000000000E+00  0.45593999997E+02  0.45594000000E+02  0.51100000000E-03 0.  1.
         11   -1    0    0    0    0 -0.00000000000E+00 -0.00000000000E+00 -0.45593999997E+02  0.45594000000E+02  0.51100000000E-03 0. -1.
    9900012    2    1    2    0    0 -0.17430230942E+02  0.27918818051E+02  0.23872399429E+02  0.50528870563E+02  0.30000032564E+02 0.  0.
         12    1    1    2    0    0  0.17430230942E+02 -0.27918818051E+02 -0.23872399429E+02  0.40659129437E+02  0.00000000000E+00 0. -1.
         11    1    3    3    0    0 -0.16521198699E+02  0.27147263438E+02  0.23923478281E+02  0.39777590826E+02  0.51100000000E-03 0. -1.
        -11    1    3    3    0    0 -0.55678818865E+01 -0.76206009948E+00  0.10682015740E+01  0.57204107510E+01  0.51100000000E-03 0.  1.
         12    1    3    3    0    0  0.46588496433E+01  0.15336147132E+01 -0.11192804255E+01  0.50308689864E+01  0.00000000000E+00 0. -1.
</event>
<event>
 7    1  0.5910662E-013  0.5052885E+02  0.7816164E-02  0.1300439E+00
        -11   -1    0    0    0    0  0.00000000000E+00  0.00000000000E+00  0.45593999997E+02  0.45594000000E+02  0.51100000000E-03 0.  1.
         11   -1    0    0    0    0 -0.00000000000E+00 -0.00000000000E+00 -0.45593999997E+02  0.45594000000E+02  0.51100000000E-03 0. -1.
    9900012    2    1    2    0    0 -0.18665243308E+02  0.44411008943E+01  0.35847619549E+02  0.50528849588E+02  0.29999968808E+02 0.  0.
         12    1    1    2    0    0  0.18665243308E+02 -0.44411008943E+01 -0.35847619549E+02  0.40659150412E+02  0.00000000000E+00 0. -1.
         11    1    3    3    0    0 -0.10473171328E+01 -0.21245243403E+01 -0.25914595931E+01  0.35108602839E+01  0.51100000000E-03 0. -1.
        -11    1    3    3    0    0 -0.14949739718E+02  0.31038597822E+01  0.39645328368E+02  0.42483887826E+02  0.51100000000E-03 0.  1.
        -12    1    3    3    0    0 -0.26681864574E+01  0.34617654524E+01 -0.12062492260E+01  0.45341014781E+01  0.00000000000E+00 0.  1.
</event>
<event>
 7    1  0.5910662E-013  0.5052887E+02  0.7816164E-02  0.1300439E+00
        -11   -1    0    0    0    0  0.00000000000E+00  0.00000000000E+00  0.45593999997E+02  0.45594000000E+02  0.51100000000E-03 0. -1.
         11   -1    0    0    0    0 -0.00000000000E+00 -0.00000000000E+00 -0.45593999997E+02  0.45594000000E+02  0.51100000000E-03 0.  1.
    9900012    2    1    2    0    0 -0.28229480031E+02  0.29257769046E+02 -0.49441422489E+00  0.50528867719E+02  0.30000023920E+02 0.  0.
         12    1    1    2    0    0  0.28229480031E+02 -0.29257769046E+02  0.49441422489E+00  0.40659132281E+02  0.00000000000E+00 0. -1.
         11    1    3    3    0    0 -0.99351922335E+00  0.78713957399E+01  0.10729007589E+01  0.80060644290E+01  0.51100000000E-03 0. -1.
        -11    1    3    3    0    0 -0.12302532626E+02  0.10682493234E+00 -0.92751626680E+01  0.15407542418E+02  0.51100000000E-03 0.  1.
        -12    1    3    3    0    0 -0.14933428182E+02  0.21279548374E+02  0.77078476842E+01  0.27115260873E+02  0.00000000000E+00 0.  1.
</event>
<event>
 7    1  0.5910662E-013  0.5052888E+02  0.7816164E-02  0.1300439E+00
        -11   -1    0    0    0    0  0.00000000000E+00  0.00000000000E+00  0.45593999997E+02  0.45594000000E+02  0.51100000000E-03 0.  1.
         11   -1    0    0    0    0 -0.00000000000E+00 -0.00000000000E+00 -0.45593999997E+02  0.45594000000E+02  0.51100000000E-03 0. -1.
    9900012    2    1    2    0    0  0.23710429874E+01 -0.13011609972E+02  0.38447893734E+02  0.50528875913E+02  0.30000048825E+02 0.  0.
         12    1    1    2    0    0 -0.23710429874E+01  0.13011609972E+02 -0.38447893734E+02  0.40659124087E+02  0.00000000000E+00 0. -1.
         11    1    3    3    0    0  0.11281595822E+01  0.59256480241E+01  0.12416433914E+01  0.61585491085E+01  0.51100000000E-03 0. -1.
        -11    1    3    3    0    0 -0.73772311372E+00 -0.15951831091E+02  0.15106544066E+02  0.21982102366E+02  0.51100000000E-03 0.  1.
        -12    1    3    3    0    0  0.19806065189E+01 -0.29854269055E+01  0.22099706277E+02  0.22388224439E+02  0.00000000000E+00 0.  1.
</event>
<event>
 7    1  0.5910662E-013  0.5052886E+02  0.7816164E-02  0.1300439E+00
        -11   -1    0    0    0    0  0.00000000000E+00  0.00000000000E+00  0.45593999997E+02  0.45594000000E+02  0.51100000000E-03 0. -1.
         11   -1    0    0    0    0 -0.00000000000E+00 -0.00000000000E+00 -0.45593999997E+02  0.45594000000E+02  0.51100000000E-03 0.  1.
    9900012    2    1    2    0    0 -0.24997712920E+02 -0.32013808119E+02 -0.18427794242E+01  0.50528863296E+02  0.30000010475E+02 0.  0.
         12    1    1    2    0    0  0.24997712920E+02  0.32013808119E+02  0.18427794242E+01  0.40659136704E+02  0.00000000000E+00 0. -1.
         11    1    3    3    0    0  0.41524417592E+00 -0.35616479321E+01 -0.49744202392E+01  0.61320975771E+01  0.51100000000E-03 0. -1.
        -11    1    3    3    0    0 -0.29165356297E+02 -0.22744020469E+02  0.49826420386E+01  0.37319367585E+02  0.51100000000E-03 0.  1.
        -12    1    3    3    0    0  0.37523992015E+01 -0.57081397181E+01 -0.18510012235E+01  0.70773981334E+01  0.00000000000E+00 0.  1.
</event>
<event>
 7    1  0.5910662E-013  0.5052890E+02  0.7816164E-02  0.1300439E+00
        -11   -1    0    0    0    0  0.00000000000E+00  0.00000000000E+00  0.45593999997E+02  0.45594000000E+02  0.51100000000E-03 0. -1.
         11   -1    0    0    0    0 -0.00000000000E+00 -0.00000000000E+00 -0.45593999997E+02  0.45594000000E+02  0.51100000000E-03 0.  1.
    9900012    2    1    2    0    0 -0.17950158487E+02 -0.36030513716E+02  0.57232853091E+01  0.50528903809E+02  0.30000133618E+02 0.  0.
         12    1    1    2    0    0  0.17950158487E+02  0.36030513716E+02 -0.57232853091E+01  0.40659096191E+02  0.00000000000E+00 0. -1.
         11    1    3    3    0    0  0.51729461346E+01 -0.66966485859E+01 -0.37792830885E+01  0.92675484848E+01  0.51100000000E-03 0. -1.
        -11    1    3    3    0    0 -0.16078122337E+02 -0.18310827586E+02  0.13137565127E+02  0.27683714391E+02  0.51100000000E-03 0.  1.
        -12    1    3    3    0    0 -0.70449822852E+01 -0.11023037544E+02 -0.36349967293E+01  0.13577640934E+02  0.00000000000E+00 0.  1.
</event>
<event>
 7    1  0.5910662E-013  0.5052886E+02  0.7816164E-02  0.1300439E+00
        -11   -1    0    0    0    0  0.00000000000E+00  0.00000000000E+00  0.45593999997E+02  0.45594000000E+02  0.51100000000E-03 0.  1.
         11   -1    0    0    0    0 -0.00000000000E+00 -0.00000000000E+00 -0.45593999997E+02  0.45594000000E+02  0.51100000000E-03 0. -1.
    9900012    2    1    2    0    0  0.29358760499E+02 -0.11266515761E+02  0.25773915655E+02  0.50528856826E+02  0.29999990808E+02 0.  0.
         12    1    1    2    0    0 -0.29358760499E+02  0.11266515761E+02 -0.25773915655E+02  0.40659143174E+02  0.00000000000E+00 0. -1.
         11    1    3    3    0    0  0.15353309216E+01 -0.10209441056E+02  0.10652326108E+02  0.14834486155E+02  0.51100000000E-03 0. -1.
        -11    1    3    3    0    0  0.25776922397E+02 -0.63743411806E+01  0.11453729219E+02  0.28918330987E+02  0.51100000000E-03 0.  1.
         12    1    3    3    0    0  0.20465071801E+01  0.53172664759E+01  0.36678603285E+01  0.67760396843E+01  0.00000000000E+00 0. -1.
</event>
<event>
 7    1  0.5910662E-013  0.5052887E+02  0.7816164E-02  0.1300439E+00
        -11   -1    0    0    0    0  0.00000000000E+00  0.00000000000E+00  0.45593999997E+02  0.45594000000E+02  0.51100000000E-03 0. -1.
         11   -1    0    0    0    0 -0.00000000000E+00 -0.00000000000E+00 -0.45593999997E+02  0.45594000000E+02  0.51100000000E-03 0.  1.
    9900012    2    1    2    0    0 -0.22722490540E+02  0.19695967951E+02 -0.27366447746E+02  0.50528865822E+02  0.30000018152E+02 0.  0.
         12    1    1    2    0    0  0.22722490540E+02 -0.19695967951E+02  0.27366447746E+02  0.40659134178E+02  0.00000000000E+00 0. -1.
         11    1    3    3    0    0  0.38930365749E+01  0.71369251586E+01 -0.64401712388E+01  0.10371462787E+02  0.51100000000E-03 0. -1.
        -11    1    3    3    0    0 -0.20278586997E+02  0.84668697850E+01 -0.23512474968E+02  0.32182999455E+02  0.51100000000E-03 0.  1.
         12    1    3    3    0    0 -0.63369401181E+01  0.40921730077E+01  0.25861984604E+01  0.79744035803E+01  0.00000000000E+00 0. -1.
</event>
<event>
 7    1  0.5910662E-013  0.5052888E+02  0.7816164E-02  0.1300439E+00
        -11   -1    0    0    0    0  0.00000000000E+00  0.00000000000E+00  0.45593999997E+02  0.45594000000E+02  0.51100000000E-03 0.  1.
         11   -1    0    0    0    0 -0.00000000000E+00 -0.00000000000E+00 -0.45593999997E+02  0.45594000000E+02  0.51100000000E-03 0. -1.
    9900012    2    1    2    0    0 -0.11441138288E+02  0.10827163412E+02  0.37483825485E+02  0.50528876966E+02  0.30000052026E+02 0.  0.
         12    1    1    2    0    0  0.11441138288E+02 -0.10827163412E+02 -0.37483825485E+02  0.40659123034E+02  0.00000000000E+00 0. -1.
         11    1    3    3    0    0  0.10257332133E+02  0.42777392051E+01  0.11685618322E+02  0.16126549259E+02  0.51100000000E-03 0. -1.
        -11    1    3    3    0    0 -0.13086686892E+02  0.29797619555E+01  0.15836645625E+02  0.20759087168E+02  0.51100000000E-03 0.  1.
         12    1    3    3    0    0 -0.86117835280E+01  0.35696622510E+01  0.99615615383E+01  0.13643240539E+02  0.00000000000E+00 0. -1.
</event>
<event>
 7    1  0.5910662E-013  0.5052886E+02  0.7816164E-02  0.1300439E+00
        -11   -1    0    0    0    0  0.00000000000E+00  0.00000000000E+00  0.45593999997E+02  0.45594000000E+02  0.51100000000E-03 0. -1.
         11   -1    0    0    0    0 -0.00000000000E+00 -0.00000000000E+00 -0.45593999997E+02  0.45594000000E+02  0.51100000000E-03 0.  1.
    9900012    2    1    2    0    0  0.49691056022E+01 -0.23694637016E+02 -0.32665547489E+02  0.50528858020E+02  0.29999994437E+02 0.  0.
         12    1    1    2    0    0 -0.49691056022E+01  0.23694637016E+02  0.32665547489E+02  0.40659141980E+02  0.00000000000E+00 0. -1.
         11    1    3    3    0    0  0.14642788923E+02 -0.16240181527E+02 -0.27093934041E+02  0.34817180034E+02  0.51100000000E-03 0. -1.
        -11    1    3    3    0    0 -0.43900109707E+01  0.88715364380E+00 -0.22857861905E+00  0.44845831865E+01  0.51100000000E-03 0.  1.
        -12    1    3    3    0    0 -0.52836723505E+01 -0.83416091336E+01 -0.53430348290E+01  0.11227094799E+02  0.00000000000E+00 0.  1.
</event>
<event>
 7    1  0.5910662E-013  0.5052883E+02  0.7816164E-02  0.1300439E+00
        -11   -1    0    0    0    0  0.00000000000E+00  0.00000000000E+00  0.45593999997E+02  0.45594000000E+02  0.51100000000E-03 0. -1.
         11   -1    0    0    0    0 -0.00000000000E+00 -0.00000000000E+00 -0.45593999997E+02  0.45594000000E+02  0.51100000000E-03 0.  1.
    9900012    2    1    2    0    0 -0.84382863722E+01 -0.38975812280E+02 -0.79277613662E+01  0.50528831046E+02  0.29999912447E+02 0.  0.
         12    1    1    2    0    0  0.84382863722E+01  0.38975812280E+02  0.79277613662E+01  0.40659168954E+02  0.00000000000E+00 0. -1.
         11    1    3    3    0    0 -0.92765468090E+01 -0.20166959338E+02 -0.25791307832E+01  0.22347538690E+02  0.51100000000E-03 0. -1.
        -11    1    3    3    0    0  0.79772060318E+00 -0.11204787118E+02 -0.13144818902E+02  0.17290745407E+02  0.51100000000E-03 0.  1.
        -12    1    3    3    0    0  0.40539833651E-01 -0.76040658236E+01  0.77961883190E+01  0.10890546948E+02  0.00000000000E+00 0.  1.
</event>
<event>
 7    1  0.5910662E-013  0.5052886E+02  0.7816164E-02  0.1300439E+00
        -11   -1    0    0    0    0  0.00000000000E+00  0.00000000000E+00  0.45593999997E+02  0.45594000000E+02  0.51100000000E-03 0.  1.
         11   -1    0    0    0    0 -0.00000000000E+00 -0.00000000000E+00 -0.45593999997E+02  0.45594000000E+02  0.51100000000E-03 0. -1.
    9900012    2    1    2    0    0  0.14851965192E+02 -0.34622608206E+02  0.15292478206E+02  0.50528858853E+02  0.29999996971E+02 0.  0.
         12    1    1    2    0    0 -0.14851965192E+02  0.34622608206E+02 -0.15292478206E+02  0.40659141147E+02  0.00000000000E+00 0. -1.
         11    1    3    3    0    0 -0.46995556764E+01 -0.61594622816E+01 -0.13838848339E+00  0.77488031842E+01  0.51100000000E-03 0. -1.
        -11    1    3    3    0    0  0.22321606949E+02 -0.22775489787E+02  0.17170566012E+02  0.36218854334E+02  0.51100000000E-03 0.  1.
        -12    1    3    3    0    0 -0.27700860804E+01 -0.56876561376E+01 -0.17396993222E+01  0.65612013354E+01  0.00000000000E+00 0.  1.
</event>
<event>
 7    1  0.5910662E-013  0.5052886E+02  0.7816164E-02  0.1300439E+00
        -11   -1    0    0    0    0  0.00000000000E+00  0.00000000000E+00  0.45593999997E+02  0.45594000000E+02  0.51100000000E-03 0. -1.
         11   -1    0    0    0    0 -0.00000000000E+00 -0.00000000000E+00 -0.45593999997E+02  0.45594000000E+02  0.51100000000E-03 0.  1.
    9900012    2    1    2    0    0 -0.99941852199E+01 -0.39276616107E+02 -0.32602277914E+01  0.50528863312E+02  0.30000010522E+02 0.  0.
         12    1    1    2    0    0  0.99941852199E+01  0.39276616107E+02  0.32602277914E+01  0.40659136688E+02  0.00000000000E+00 0. -1.
         11    1    3    3    0    0 -0.18908144063E+01 -0.18099219316E+01  0.52271773912E+01  0.58458857548E+01  0.51100000000E-03 0. -1.
        -11    1    3    3    0    0 -0.14589415771E+02 -0.31774869208E+02 -0.47740968875E+01  0.35288601093E+02  0.51100000000E-03 0.  1.
        -12    1    3    3    0    0  0.64860449578E+01 -0.56918249668E+01 -0.37133082951E+01  0.93943764638E+01  0.00000000000E+00 0.  1.
</event>
<event>
 7    1  0.5910662E-013  0.5052885E+02  0.7816164E-02  0.1300439E+00
        -11   -1    0    0    0    0  0.00000000000E+00  0.00000000000E+00  0.45593999997E+02  0.45594000000E+02  0.51100000000E-03 0. -1.
         11   -1    0    0    0    0 -0.00000000000E+00 -0.00000000000E+00 -0.45593999997E+02  0.45594000000E+02  0.51100000000E-03 0.  1.
    9900012    2    1    2    0    0  0.26070559851E+02  0.19066463606E+02 -0.24697413487E+02  0.50528851480E+02  0.29999974559E+02 0.  0.
         12    1    1    2    0    0 -0.26070559851E+02 -0.19066463606E+02  0.24697413487E+02  0.40659148520E+02  0.00000000000E+00 0. -1.
         11    1    3    3    0    0 -0.57004448545E+01  0.34272159519E+01 -0.31979634412E+01  0.73802338142E+01  0.51100000000E-03 0. -1.
        -11    1    3    3    0    0  0.28131291828E+02  0.92002781590E+01 -0.19643082623E+02  0.35522744732E+02  0.51100000000E-03 0.  1.
        -12    1    3    3    0    0  0.36397128777E+01  0.64389694955E+01 -0.18563674237E+01  0.76258729341E+01  0.00000000000E+00 0.  1.
</event>
<event>
 7    1  0.5910662E-013  0.5052886E+02  0.7816164E-02  0.1300439E+00
        -11   -1    0    0    0    0  0.00000000000E+00  0.00000000000E+00  0.45593999997E+02  0.45594000000E+02  0.51100000000E-03 0. -1.
         11   -1    0    0    0    0 -0.00000000000E+00 -0.00000000000E+00 -0.45593999997E+02  0.45594000000E+02  0.51100000000E-03 0.  1.
    9900012    2    1    2    0    0  0.36559867627E+02 -0.14969461690E+02  0.96154586199E+01  0.50528858978E+02  0.29999997349E+02 0.  0.
         12    1    1    2    0    0 -0.36559867627E+02  0.14969461690E+02 -0.96154586199E+01  0.40659141022E+02  0.00000000000E+00 0. -1.
         11    1    3    3    0    0  0.44931590113E+01 -0.95602965251E+01  0.10984889774E+02  0.15239932781E+02  0.51100000000E-03 0. -1.
        -11    1    3    3    0    0  0.13978266294E+02  0.32890987484E+01  0.31816401855E+01  0.14708260730E+02  0.51100000000E-03 0.  1.
         12    1    3    3    0    0  0.18088442322E+02 -0.86982639136E+01 -0.45510713398E+01  0.20580665467E+02  0.00000000000E+00 0. -1.
</event>
<event>
 7    1  0.5910662E-013  0.5052886E+02  0.7816164E-02  0.1300439E+00
        -11   -1    0    0    0    0  0.00000000000E+00  0.00000000000E+00  0.45593999997E+02  0.45594000000E+02  0.51100000000E-03 0. -1.
         11   -1    0    0    0    0 -0.00000000000E+00 -0.00000000000E+00 -0.45593999997E+02  0.45594000000E+02  0.51100000000E-03 0.  1.
    9900012    2    1    2    0    0 -0.39392048611E+02  0.82391016647E+01  0.57921492422E+01  0.50528864706E+02  0.30000014760E+02 0.  0.
         12    1    1    2    0    0  0.39392048611E+02 -0.82391016647E+01 -0.57921492422E+01  0.40659135294E+02  0.00000000000E+00 0. -1.
         11    1    3    3    0    0 -0.76018377512E+01 -0.22650168973E+01  0.46123912922E+01  0.91756412547E+01  0.51100000000E-03 0. -1.
        -11    1    3    3    0    0 -0.45057570280E+01  0.31433931163E+01 -0.96377745356E+01  0.11093667786E+02  0.51100000000E-03 0.  1.
        -12    1    3    3    0    0 -0.27284453832E+02  0.73607254457E+01  0.10817532486E+02  0.30259555665E+02  0.00000000000E+00 0.  1.
</event>
<event>
 7    1  0.5910662E-013  0.5052886E+02  0.7816164E-02  0.1300439E+00
        -11   -1    0    0    0    0  0.00000000000E+00  0.00000000000E+00  0.45593999997E+02  0.45594000000E+02  0.51100000000E-03 0.  1.
         11   -1    0    0    0    0 -0.00000000000E+00 -0.00000000000E+00 -0.45593999997E+02  0.45594000000E+02  0.51100000000E-03 0. -1.
    9900012    2    1    2    0    0  0.18231566432E+02 -0.27306168549E+02  0.23982256283E+02  0.50528862383E+02  0.30000007699E+02 0.  0.
         12    1    1    2    0    0 -0.18231566432E+02  0.27306168549E+02 -0.23982256283E+02  0.40659137617E+02  0.00000000000E+00 0. -1.
         11    1    3    3    0    0  0.12848542294E+02 -0.59589389501E+01 -0.34421232484E+01  0.14575397258E+02  0.51100000000E-03 0. -1.
        -11    1    3    3    0    0  0.53936840271E+01 -0.87019744100E+01  0.15477493501E+02  0.18557181665E+02  0.51100000000E-03 0.  1.
         12    1    3    3    0    0 -0.10659889808E-01 -0.12645255189E+02  0.11946886030E+02  0.17396283460E+02  0.00000000000E+00 0. -1.
</event>
<event>
 7    1  0.5910662E-013  0.5052886E+02  0.7816164E-02  0.1300439E+00
        -11   -1    0    0    0    0  0.00000000000E+00  0.00000000000E+00  0.45593999997E+02  0.45594000000E+02  0.51100000000E-03 0. -1.
         11   -1    0    0    0    0 -0.00000000000E+00 -0.00000000000E+00 -0.45593999997E+02  0.45594000000E+02  0.51100000000E-03 0.  1.
    9900012    2    1    2    0    0  0.36176416701E+02 -0.82337092695E+01 -0.16632458374E+02  0.50528858774E+02  0.29999996730E+02 0.  0.
         12    1    1    2    0    0 -0.36176416701E+02  0.82337092695E+01  0.16632458374E+02  0.40659141226E+02  0.00000000000E+00 0. -1.
         11    1    3    3    0    0 -0.44836840498E+00  0.27976080164E+01 -0.58502296257E+01  0.65002178251E+01  0.51100000000E-03 0. -1.
        -11    1    3    3    0    0  0.18837147281E+02 -0.14478539780E+02 -0.18567835377E+01  0.23830943691E+02  0.51100000000E-03 0.  1.
         12    1    3    3    0    0  0.17787637825E+02  0.34472224939E+01 -0.89254452110E+01  0.20197697258E+02  0.00000000000E+00 0. -1.
</event>
<event>
 7    1  0.5910662E-013  0.5052884E+02  0.7816164E-02  0.1300439E+00
        -11   -1    0    0    0    0  0.00000000000E+00  0.00000000000E+00  0.45593999997E+02  0.45594000000E+02  0.51100000000E-03 0. -1.
         11   -1    0    0    0    0 -0.00000000000E+00 -0.00000000000E+00 -0.45593999997E+02  0.45594000000E+02  0.51100000000E-03 0.  1.
    9900012    2    1    2    0    0 -0.38893003611E+02 -0.25563697396E+01 -0.11574399501E+02  0.50528837688E+02  0.29999932636E+02 0.  0.
         12    1    1    2    0    0  0.38893003611E+02  0.25563697396E+01  0.11574399501E+02  0.40659162312E+02  0.00000000000E+00 0. -1.
         11    1    3    3    0    0  0.30698831748E+01  0.36904398335E+01 -0.55615875978E+01  0.73467534150E+01  0.51100000000E-03 0. -1.
        -11    1    3    3    0    0 -0.21443196780E+02 -0.21880145048E+01 -0.55592903525E+01  0.22259914759E+02  0.51100000000E-03 0.  1.
         12    1    3    3    0    0 -0.20519690006E+02 -0.40587950683E+01 -0.45352155040E+00  0.20922169513E+02  0.00000000000E+00 0. -1.
</event>
<event>
 7    1  0.5910662E-013  0.5052886E+02  0.7816164E-02  0.1300439E+00
        -11   -1    0    0    0    0  0.00000000000E+00  0.00000000000E+00  0.45593999997E+02  0.45594000000E+02  0.51100000000E-03 0. -1.
         11   -1    0    0    0    0 -0.00000000000E+00 -0.00000000000E+00 -0.45593999997E+02  0.45594000000E+02  0.51100000000E-03 0.  1.
    9900012    2    1    2    0    0  0.20198617143E+02  0.33810401829E+02  0.10101412855E+02  0.50528856526E+02  0.29999989897E+02 0.  0.
         12    1    1    2    0    0 -0.20198617143E+02 -0.33810401829E+02 -0.10101412855E+02  0.40659143474E+02  0.00000000000E+00 0. -1.
         11    1    3    3    0    0 -0.82320513475E+00 -0.21692824846E+00  0.92218107043E+01  0.92610214062E+01  0.51100000000E-03 0. -1.
        -11    1    3    3    0    0  0.16227972228E+02  0.32326004026E+02  0.67719202627E+00  0.36177012152E+02  0.51100000000E-03 0.  1.
        -12    1    3    3    0    0  0.47938500498E+01  0.17013260511E+01  0.20241012466E+00  0.50908229679E+01  0.00000000000E+00 0.  1.
</event>
<event>
 7    1  0.5910662E-013  0.5052886E+02  0.7816164E-02  0.1300439E+00
        -11   -1    0    0    0    0  0.00000000000E+00  0.00000000000E+00  0.45593999997E+02  0.45594000000E+02  0.51100000000E-03 0.  1.
         11   -1    0    0    0    0 -0.00000000000E+00 -0.00000000000E+00 -0.45593999997E+02  0.45594000000E+02  0.51100000000E-03 0. -1.
    9900012    2    1    2    0    0  0.65674258350E+01  0.16346441835E+02  0.36644624013E+02  0.50528859431E+02  0.29999998726E+02 0.  0.
         12    1    1    2    0    0 -0.65674258350E+01 -0.16346441835E+02 -0.36644624013E+02  0.40659140569E+02  0.00000000000E+00 0. -1.
         11    1    3    3    0    0  0.36897269413E+01  0.26401382015E+01  0.42749656348E+01  0.62337585824E+01  0.51100000000E-03 0. -1.
        -11    1    3    3    0    0  0.14208086253E+01  0.15663936688E+01  0.31992446895E+02  0.32062266684E+02  0.51100000000E-03 0.  1.
        -12    1    3    3    0    0  0.14568902685E+01  0.12139909964E+02  0.37721148284E+00  0.12232834165E+02  0.00000000000E+00 0.  1.
</event>
<event>
 7    1  0.5910662E-013  0.5052886E+02  0.7816164E-02  0.1300439E+00
        -11   -1    0    0    0    0  0.00000000000E+00  0.00000000000E+00  0.45593999997E+02  0.45594000000E+02  0.51100000000E-03 0.  1.
         11   -1    0    0    0    0 -0.00000000000E+00 -0.00000000000E+00 -0.45593999997E+02  0.45594000000E+02  0.51100000000E-03 0. -1.
    9900012    2    1    2    0    0 -0.29984747375E+01  0.11561534838E+02  0.38865225964E+02  0.50528859234E+02  0.29999998129E+02 0.  0.
         12    1    1    2    0    0  0.29984747375E+01 -0.11561534838E+02 -0.38865225964E+02  0.40659140766E+02  0.00000000000E+00 0. -1.
         11    1    3    3    0    0  0.93006854380E+01  0.19215311547E+00  0.28789170781E+01  0.97379585253E+01  0.51100000000E-03 0. -1.
        -11    1    3    3    0    0 -0.26670056128E+01  0.67498119427E+00  0.15571454273E+02  0.15812612276E+02  0.51100000000E-03 0.  1.
         12    1    3    3    0    0 -0.96321545627E+01  0.10694400528E+02  0.20414854613E+02  0.24978288433E+02  0.00000000000E+00 0. -1.
</event>
<event>
 7    1  0.5910662E-013  0.5052886E+02  0.7816164E-02  0.1300439E+00
        -11   -1    0    0    0    0  0.00000000000E+00  0.00000000000E+00  0.45593999997E+02  0.45594000000E+02  0.51100000000E-03 0. -1.
         11   -1    0    0    0    0 -0.00000000000E+00 -0.00000000000E+00 -0.45593999997E+02  0.45594000000E+02  0.51100000000E-03 0.  1.
    9900012    2    1    2    0    0  0.20611064176E+02  0.23342231172E+01 -0.34969998674E+02  0.50528863619E+02  0.30000011455E+02 0.  0.
         12    1    1    2    0    0 -0.20611064176E+02 -0.23342231172E+01  0.34969998674E+02  0.40659136381E+02  0.00000000000E+00 0. -1.
         11    1    3    3    0    0  0.31110790891E+01  0.27263248479E+01  0.13197508902E+01  0.43420505465E+01  0.51100000000E-03 0. -1.
        -11    1    3    3    0    0  0.91306119729E+01  0.10061309369E+02 -0.25865037160E+02  0.29216402392E+02  0.51100000000E-03 0.  1.
        -12    1    3    3    0    0  0.83693731142E+01 -0.10453411099E+02 -0.10424712404E+02  0.16970410680E+02  0.00000000000E+00 0.  1.
</event>
<event>
 7    1  0.5910662E-013  0.5052886E+02  0.7816164E-02  0.1300439E+00
        -11   -1    0    0    0    0  0.00000000000E+00  0.00000000000E+00  0.45593999997E+02  0.45594000000E+02  0.51100000000E-03 0.  1.
         11   -1    0    0    0    0 -0.00000000000E+00 -0.00000000000E+00 -0.45593999997E+02  0.45594000000E+02  0.51100000000E-03 0. -1.
    9900012    2    1    2    0    0  0.23622181610E+02 -0.70835146842E+01  0.32326187333E+02  0.50528855496E+02  0.29999986766E+02 0.  0.
         12    1    1    2    0    0 -0.23622181610E+02  0.70835146842E+01 -0.32326187333E+02  0.40659144504E+02  0.00000000000E+00 0. -1.
         11    1    3    3    0    0  0.49208662429E+01 -0.12828983445E+02  0.12733588338E+02  0.18733446374E+02  0.51100000000E-03 0.  1.
        -11    1    3    3    0    0  0.85366680834E+01  0.26161142443E+01  0.19174931803E+02  0.21151755616E+02  0.51100000000E-03 0. -1.
         12    1    3    3    0    0  0.10164647283E+02  0.31293545161E+01  0.41766719162E+00  0.10643653507E+02  0.00000000000E+00 0. -1.
</event>
<event>
 7    1  0.5910662E-013  0.5052885E+02  0.7816164E-02  0.1300439E+00
        -11   -1    0    0    0    0  0.00000000000E+00  0.00000000000E+00  0.45593999997E+02  0.45594000000E+02  0.51100000000E-03 0.  1.
         11   -1    0    0    0    0 -0.00000000000E+00 -0.00000000000E+00 -0.45593999997E+02  0.45594000000E+02  0.51100000000E-03 0. -1.
    9900012    2    1    2    0    0 -0.56685333729E+01  0.38347269335E+02  0.12268705267E+02  0.50528850169E+02  0.29999970574E+02 0.  0.
         12    1    1    2    0    0  0.56685333729E+01 -0.38347269335E+02 -0.12268705267E+02  0.40659149831E+02  0.00000000000E+00 0. -1.
         11    1    3    3    0    0 -0.62714964246E+01  0.54741255996E+01  0.12781869462E+01  0.84220829143E+01  0.51100000000E-03 0. -1.
        -11    1    3    3    0    0 -0.10017532529E-01  0.21115244112E+02  0.18557359983E+02  0.28111016418E+02  0.51100000000E-03 0.  1.
        -12    1    3    3    0    0  0.61298058422E+00  0.11757899624E+02 -0.75668416619E+01  0.13995750837E+02  0.00000000000E+00 0.  1.
</event>
<event>
 7    1  0.7906858E-013  0.5052886E+02  0.7816164E-02  0.1300439E+00
        -11   -1    0    0    0    0  0.00000000000E+00  0.00000000000E+00  0.45593999997E+02  0.45594000000E+02  0.51100000000E-03 0. -1.
         11   -1    0    0    0    0 -0.00000000000E+00 -0.00000000000E+00 -0.45593999997E+02  0.45594000000E+02  0.51100000000E-03 0.  1.
    9900012    2    1    2    0    0 -0.14922146075E+02 -0.36472969636E+02 -0.10010895738E+02  0.50528855997E+02  0.29999988289E+02 0.  0.
         12    1    1    2    0    0  0.14922146075E+02  0.36472969636E+02  0.10010895738E+02  0.40659144003E+02  0.00000000000E+00 0. -1.
         11    1    3    3    0    0 -0.25727367238E+01 -0.12297212739E+01 -0.87055119690E+01  0.91606292123E+01  0.51100000000E-03 0. -1.
        -11    1    3    3    0    0 -0.41976047681E+01 -0.12155767936E+02  0.80337169245E+01  0.15163218253E+02  0.51100000000E-03 0.  1.
        -12    1    3    3    0    0 -0.81518045834E+01 -0.23087480427E+02 -0.93391006930E+01  0.26205008532E+02  0.00000000000E+00 0.  1.
</event>
<event>
 7    1  0.5910662E-013  0.5052886E+02  0.7816164E-02  0.1300439E+00
        -11   -1    0    0    0    0  0.00000000000E+00  0.00000000000E+00  0.45593999997E+02  0.45594000000E+02  0.51100000000E-03 0.  1.
         11   -1    0    0    0    0 -0.00000000000E+00 -0.00000000000E+00 -0.45593999997E+02  0.45594000000E+02  0.51100000000E-03 0. -1.
    9900012    2    1    2    0    0 -0.78391708938E+01 -0.44959139938E+01  0.39642144713E+02  0.50528862277E+02  0.30000007378E+02 0.  0.
         12    1    1    2    0    0  0.78391708938E+01  0.44959139938E+01 -0.39642144713E+02  0.40659137723E+02  0.00000000000E+00 0. -1.
         11    1    3    3    0    0 -0.45663195922E+01 -0.29828431261E+01  0.21910736135E+00  0.54586295011E+01  0.51100000000E-03 0. -1.
        -11    1    3    3    0    0 -0.67477819484E+01  0.59858222687E+01  0.34021092118E+02  0.35196552937E+02  0.51100000000E-03 0.  1.
        -12    1    3    3    0    0  0.34749306468E+01 -0.74988931365E+01  0.54019452333E+01  0.98736798397E+01  0.00000000000E+00 0.  1.
</event>
<event>
 7    1  0.5910662E-013  0.5052886E+02  0.7816164E-02  0.1300439E+00
        -11   -1    0    0    0    0  0.00000000000E+00  0.00000000000E+00  0.45593999997E+02  0.45594000000E+02  0.51100000000E-03 0. -1.
         11   -1    0    0    0    0 -0.00000000000E+00 -0.00000000000E+00 -0.45593999997E+02  0.45594000000E+02  0.51100000000E-03 0.  1.
    9900012    2    1    2    0    0 -0.12214671843E+02  0.38687205358E+02 -0.26958851344E+01  0.50528857568E+02  0.29999993064E+02 0.  0.
         12    1    1    2    0    0  0.12214671843E+02 -0.38687205358E+02  0.26958851344E+01  0.40659142432E+02  0.00000000000E+00 0. -1.
         11    1    3    3    0    0 -0.62085858344E+01  0.53799309753E+01 -0.72445230889E+00  0.82471223327E+01  0.51100000000E-03 0. -1.
        -11    1    3    3    0    0  0.78797944203E+01  0.24634287076E+02 -0.12228683963E+01  0.25892753180E+02  0.51100000000E-03 0.  1.
        -12    1    3    3    0    0 -0.13885880429E+02  0.86729873062E+01 -0.74856442920E+00  0.16388982055E+02  0.00000000000E+00 0.  1.
</event>
<event>
 7    1  0.5910662E-013  0.5052885E+02  0.7816164E-02  0.1300439E+00
        -11   -1    0    0    0    0  0.00000000000E+00  0.00000000000E+00  0.45593999997E+02  0.45594000000E+02  0.51100000000E-03 0. -1.
         11   -1    0    0    0    0 -0.00000000000E+00 -0.00000000000E+00 -0.45593999997E+02  0.45594000000E+02  0.51100000000E-03 0.  1.
    9900012    2    1    2    0    0 -0.12996722205E+01  0.40422957369E+02  0.41787193921E+01  0.50528851877E+02  0.29999975764E+02 0.  0.
         12    1    1    2    0    0  0.12996722205E+01 -0.40422957369E+02 -0.41787193921E+01  0.40659148123E+02  0.00000000000E+00 0. -1.
         11    1    3    3    0    0  0.11263876443E+02  0.97781604279E+01  0.30638383085E+00  0.14919155646E+02  0.51100000000E-03 0. -1.
        -11    1    3    3    0    0 -0.12036838111E+01  0.19321841384E+02  0.20952213497E+01  0.19472348650E+02  0.51100000000E-03 0.  1.
         12    1    3    3    0    0 -0.11359864852E+02  0.11322955558E+02  0.17771142115E+01  0.16137347581E+02  0.00000000000E+00 0. -1.
</event>
<event>
 7    1  0.5910662E-013  0.5052886E+02  0.7816164E-02  0.1300439E+00
        -11   -1    0    0    0    0  0.00000000000E+00  0.00000000000E+00  0.45593999997E+02  0.45594000000E+02  0.51100000000E-03 0. -1.
         11   -1    0    0    0    0 -0.00000000000E+00 -0.00000000000E+00 -0.45593999997E+02  0.45594000000E+02  0.51100000000E-03 0.  1.
    9900012    2    1    2    0    0 -0.39870232234E+02  0.62959475895E+01 -0.48879032466E+01  0.50528856224E+02  0.29999988979E+02 0.  0.
         12    1    1    2    0    0  0.39870232234E+02 -0.62959475895E+01  0.48879032466E+01  0.40659143776E+02  0.00000000000E+00 0. -1.
         11    1    3    3    0    0 -0.63465470477E+01  0.11443549074E+02 -0.56860064186E+01  0.14267590690E+02  0.51100000000E-03 0. -1.
        -11    1    3    3    0    0 -0.24434751400E+02 -0.34801675839E+01 -0.52285235177E+01  0.25229072532E+02  0.51100000000E-03 0.  1.
         12    1    3    3    0    0 -0.90889337861E+01 -0.16674339008E+01  0.60266266898E+01  0.11032193002E+02  0.00000000000E+00 0. -1.
</event>
