<event>
 8    1  0.1164123E-009  0.9118800E+02  0.7816164E-02  0.1184000E+00
        -11   -1    0    0    0    0  0.00000000000E+00  0.00000000000E+00  0.45593999997E+02  0.45594000000E+02  0.51100000000E-03 0. -1.
         11   -1    0    0    0    0 -0.00000000000E+00 -0.00000000000E+00 -0.45593999997E+02  0.45594000000E+02  0.51100000000E-03 0.  1.
         23    2    1    2    0    0 -0.71054273576E-14 -0.35527136788E-14  0.35527136788E-14  0.91188000000E+02  0.91188000000E+02 0.  0.
    9900012    2    3    3    0    0 -0.20604814922E+02 -0.31060415118E+02  0.22233208752E+02  0.47787270090E+02  0.19999995649E+02 0.  0.
        -12    1    3    3    0    0  0.20604814922E+02  0.31060415118E+02 -0.22233208752E+02  0.43400729910E+02  0.00000000000E+00 0.  1.
         11    1    4    4    0    0 -0.17153461956E+02 -0.15553372427E+02  0.15495639833E+02  0.27861505793E+02  0.51100000000E-03 0. -1.
        -11    1    4    4    0    0 -0.42371318602E+01 -0.34620879151E+01 -0.10356565024E+01  0.55688350473E+01  0.51100000000E-03 0.  1.
         12    1    4    4    0    0  0.78577889447E+00 -0.12044954777E+02  0.77732254214E+01  0.14356929250E+02  0.00000000000E+00 0. -1.
</event>
<event>
 8    1  0.1164123E-009  0.9118800E+02  0.7816164E-02  0.1184000E+00
        -11   -1    0    0    0    0  0.00000000000E+00  0.00000000000E+00  0.45593999997E+02  0.45594000000E+02  0.51100000000E-03 0. -1.
         11   -1    0    0    0    0 -0.00000000000E+00 -0.00000000000E+00 -0.45593999997E+02  0.45594000000E+02  0.51100000000E-03 0.  1.
         23    2    1    2    0    0  0.61062266354E-15  0.00000000000E+00 -0.71054273576E-14  0.91188000000E+02  0.91188000000E+02 0.  0.
    9900012    2    3    3    0    0  0.40400013094E+00 -0.12339269004E+02  0.41607722828E+02  0.47787269884E+02  0.19999994710E+02 0.  0.
        -12    1    3    3    0    0 -0.40400013094E+00  0.12339269004E+02 -0.41607722828E+02  0.43400730116E+02  0.00000000000E+00 0.  1.
         11    1    4    4    0    0 -0.28485459754E+01 -0.24120733028E+01  0.78166610693E+01  0.86621303572E+01  0.51100000000E-03 0. -1.
        -11    1    4    4    0    0  0.60466038058E+01 -0.73464100258E+01  0.63900781316E+01  0.11461424721E+02  0.51100000000E-03 0.  1.
         12    1    4    4    0    0 -0.27940576995E+01 -0.25807856752E+01  0.27400983627E+02  0.27663714806E+02  0.00000000000E+00 0. -1.
</event>
<event>
 8    1  0.1164123E-009  0.9118800E+02  0.7816164E-02  0.1184000E+00
        -11   -1    0    0    0    0  0.00000000000E+00  0.00000000000E+00  0.45593999997E+02  0.45594000000E+02  0.51100000000E-03 0. -1.
         11   -1    0    0    0    0 -0.00000000000E+00 -0.00000000000E+00 -0.45593999997E+02  0.45594000000E+02  0.51100000000E-03 0.  1.
         23    2    1    2    0    0  0.00000000000E+00  0.00000000000E+00  0.00000000000E+00  0.91188000000E+02  0.91188000000E+02 0.  0.
    9900012    2    3    3    0    0  0.21375317099E+02  0.23063553846E+02 -0.29913066970E+02  0.47787271058E+02  0.20000000064E+02 0.  0.
         12    1    3    3    0    0 -0.21375317099E+02 -0.23063553846E+02  0.29913066970E+02  0.43400728942E+02  0.00000000000E+00 0. -1.
         11    1    4    4    0    0 -0.20945608275E+01  0.23323728567E+01 -0.46498457505E+01  0.56078707160E+01  0.51100000000E-03 0. -1.
        -11    1    4    4    0    0  0.11667885496E+02  0.12444236550E+02 -0.21172513261E+02  0.27189591635E+02  0.51100000000E-03 0.  1.
         12    1    4    4    0    0  0.11801992430E+02  0.82869444395E+01 -0.40907079591E+01  0.14989808707E+02  0.00000000000E+00 0. -1.
</event>
<event>
 8    1  0.1164123E-009  0.9118800E+02  0.7816164E-02  0.1184000E+00
        -11   -1    0    0    0    0  0.00000000000E+00  0.00000000000E+00  0.45593999997E+02  0.45594000000E+02  0.51100000000E-03 0.  1.
         11   -1    0    0    0    0 -0.00000000000E+00 -0.00000000000E+00 -0.45593999997E+02  0.45594000000E+02  0.51100000000E-03 0. -1.
         23    2    1    2    0    0  0.00000000000E+00  0.00000000000E+00 -0.35527136788E-14  0.91188000000E+02  0.91188000000E+02 0.  0.
    9900012    2    3    3    0    0 -0.36120893131E+02 -0.29101986917E+01 -0.23883758818E+02  0.47787284427E+02  0.20000061016E+02 0.  0.
        -12    1    3    3    0    0  0.36120893131E+02  0.29101986917E+01  0.23883758818E+02  0.43400715573E+02  0.00000000000E+00 0.  1.
         11    1    4    4    0    0 -0.78155689445E+01 -0.50914517951E+01 -0.12409663643E+02  0.15524359932E+02  0.51100000000E-03 0. -1.
        -11    1    4    4    0    0 -0.44452865032E+01  0.25900844691E+01 -0.57632632400E+01  0.77255623153E+01  0.51100000000E-03 0.  1.
        -12    1    4    4    0    0 -0.23860037683E+02 -0.40883136578E+00 -0.57108319343E+01  0.24537362179E+02  0.00000000000E+00 0.  1.
</event>
<event>
 8    1  0.1164123E-009  0.9118800E+02  0.7816164E-02  0.1184000E+00
        -11   -1    0    0    0    0  0.00000000000E+00  0.00000000000E+00  0.45593999997E+02  0.45594000000E+02  0.51100000000E-03 0. -1.
         11   -1    0    0    0    0 -0.00000000000E+00 -0.00000000000E+00 -0.45593999997E+02  0.45594000000E+02  0.51100000000E-03 0.  1.
         23    2    1    2    0    0  0.35527136788E-14  0.00000000000E+00  0.35527136788E-14  0.91188000000E+02  0.91188000000E+02 0.  0.
    9900012    2    3    3    0    0 -0.30776148021E+02  0.18849547508E+02 -0.24106966655E+02  0.47787279159E+02  0.20000036996E+02 0.  0.
         12    1    3    3    0    0  0.30776148021E+02 -0.18849547508E+02  0.24106966655E+02  0.43400720841E+02  0.00000000000E+00 0. -1.
         11    1    4    4    0    0 -0.86825121785E+01  0.10921270222E+02 -0.98785957279E+01  0.17095227837E+02  0.51100000000E-03 0. -1.
        -11    1    4    4    0    0 -0.78577185695E+01  0.32178124866E+01 -0.13156765027E+02  0.15658816193E+02  0.51100000000E-03 0.  1.
        -12    1    4    4    0    0 -0.14235917273E+02  0.47104647994E+01 -0.10716058995E+01  0.15033235129E+02  0.00000000000E+00 0.  1.
</event>
<event>
 8    1  0.1164123E-009  0.9118800E+02  0.7816164E-02  0.1184000E+00
        -11   -1    0    0    0    0  0.00000000000E+00  0.00000000000E+00  0.45593999997E+02  0.45594000000E+02  0.51100000000E-03 0. -1.
         11   -1    0    0    0    0 -0.00000000000E+00 -0.00000000000E+00 -0.45593999997E+02  0.45594000000E+02  0.51100000000E-03 0.  1.
         23    2    1    2    0    0 -0.88817841970E-15  0.00000000000E+00  0.00000000000E+00  0.91188000000E+02  0.91188000000E+02 0.  0.
    9900012    2    3    3    0    0  0.56126328247E+01  0.16258495012E+02  0.39846994179E+02  0.47787271292E+02  0.20000001128E+02 0.  0.
        -12    1    3    3    0    0 -0.56126328247E+01 -0.16258495012E+02 -0.39846994179E+02  0.43400728708E+02  0.00000000000E+00 0.  1.
         11    1    4    4    0    0  0.15012696291E+01  0.97978934717E+01  0.12525557270E+02  0.15973168507E+02  0.51100000000E-03 0. -1.
        -11    1    4    4    0    0 -0.52139908935E+01  0.25294738075E+01  0.68105948813E+01  0.89424907984E+01  0.51100000000E-03 0.  1.
         12    1    4    4    0    0  0.93253540890E+01  0.39311277327E+01  0.20510842028E+02  0.22871611986E+02  0.00000000000E+00 0. -1.
</event>
<event>
 8    1  0.1164123E-009  0.9118800E+02  0.7816164E-02  0.1184000E+00
        -11   -1    0    0    0    0  0.00000000000E+00  0.00000000000E+00  0.45593999997E+02  0.45594000000E+02  0.51100000000E-03 0. -1.
         11   -1    0    0    0    0 -0.00000000000E+00 -0.00000000000E+00 -0.45593999997E+02  0.45594000000E+02  0.51100000000E-03 0.  1.
         23    2    1    2    0    0 -0.35527136788E-14  0.35527136788E-14  0.00000000000E+00  0.91188000000E+02  0.91188000000E+02 0.  0.
    9900012    2    3    3    0    0  0.28162523257E+02 -0.19746234782E+02  0.26468503763E+02  0.47787271945E+02  0.20000004107E+02 0.  0.
        -12    1    3    3    0    0 -0.28162523257E+02  0.19746234782E+02 -0.26468503763E+02  0.43400728055E+02  0.00000000000E+00 0.  1.
         11    1    4    4    0    0  0.69994383502E+01 -0.71435618081E+01  0.13515187776E+01  0.10092037247E+02  0.51100000000E-03 0. -1.
        -11    1    4    4    0    0  0.77069456755E+01 -0.11323908047E+02  0.79221260380E+01  0.15823652749E+02  0.51100000000E-03 0.  1.
         12    1    4    4    0    0  0.13456139231E+02 -0.12787649266E+01  0.17194858947E+02  0.21871581949E+02  0.00000000000E+00 0. -1.
</event>
<event>
 8    1  0.1164123E-009  0.9118800E+02  0.7816164E-02  0.1184000E+00
        -11   -1    0    0    0    0  0.00000000000E+00  0.00000000000E+00  0.45593999997E+02  0.45594000000E+02  0.51100000000E-03 0. -1.
         11   -1    0    0    0    0 -0.00000000000E+00 -0.00000000000E+00 -0.45593999997E+02  0.45594000000E+02  0.51100000000E-03 0.  1.
         23    2    1    2    0    0  0.00000000000E+00  0.00000000000E+00 -0.35527136788E-14  0.91188000000E+02  0.91188000000E+02 0.  0.
    9900012    2    3    3    0    0 -0.26009191603E+02  0.19168642981E+02  0.28977720507E+02  0.47787271811E+02  0.20000003497E+02 0.  0.
        -12    1    3    3    0    0  0.26009191603E+02 -0.19168642981E+02 -0.28977720507E+02  0.43400728189E+02  0.00000000000E+00 0.  1.
         11    1    4    4    0    0 -0.10805814471E+01 -0.21347357124E+01  0.22374080137E+01  0.32757819992E+01  0.51100000000E-03 0. -1.
        -11    1    4    4    0    0 -0.30375386123E+01  0.10211304167E+02  0.11233800698E+02  0.15482107479E+02  0.51100000000E-03 0.  1.
         12    1    4    4    0    0 -0.21891071543E+02  0.11092074527E+02  0.15506511795E+02  0.29029382333E+02  0.00000000000E+00 0. -1.
</event>
<event>
 8    1  0.1164123E-009  0.9118800E+02  0.7816164E-02  0.1184000E+00
        -11   -1    0    0    0    0  0.00000000000E+00  0.00000000000E+00  0.45593999997E+02  0.45594000000E+02  0.51100000000E-03 0. -1.
         11   -1    0    0    0    0 -0.00000000000E+00 -0.00000000000E+00 -0.45593999997E+02  0.45594000000E+02  0.51100000000E-03 0.  1.
         23    2    1    2    0    0 -0.17763568394E-14  0.00000000000E+00 -0.71054273576E-14  0.91188000000E+02  0.91188000000E+02 0.  0.
    9900012    2    3    3    0    0  0.14845395277E+02  0.22915358581E+02  0.33736072494E+02  0.47787285638E+02  0.20000066537E+02 0.  0.
        -12    1    3    3    0    0 -0.14845395277E+02 -0.22915358581E+02 -0.33736072494E+02  0.43400714362E+02  0.00000000000E+00 0.  1.
         11    1    4    4    0    0 -0.33528407833E-01 -0.21796154783E+00  0.47586099765E+00  0.52447625367E+00  0.51100000000E-03 0.  1.
        -11    1    4    4    0    0  0.16847198337E+02  0.16675833360E+02  0.15654791620E+02  0.28407464001E+02  0.51100000000E-03 0. -1.
         12    1    4    4    0    0 -0.19682746522E+01  0.64574867691E+01  0.17605419877E+02  0.18855345383E+02  0.00000000000E+00 0. -1.
</event>
<event>
 8    1  0.1164123E-009  0.9118800E+02  0.7816164E-02  0.1184000E+00
        -11   -1    0    0    0    0  0.00000000000E+00  0.00000000000E+00  0.45593999997E+02  0.45594000000E+02  0.51100000000E-03 0. -1.
         11   -1    0    0    0    0 -0.00000000000E+00 -0.00000000000E+00 -0.45593999997E+02  0.45594000000E+02  0.51100000000E-03 0.  1.
         23    2    1    2    0    0 -0.88817841970E-15 -0.17763568394E-14  0.00000000000E+00  0.91188000000E+02  0.91188000000E+02 0.  0.
    9900012    2    3    3    0    0 -0.73722622566E+01 -0.10035224439E+02  0.41576038944E+02  0.47787274262E+02  0.20000014671E+02 0.  0.
        -12    1    3    3    0    0  0.73722622566E+01  0.10035224439E+02 -0.41576038944E+02  0.43400725738E+02  0.00000000000E+00 0.  1.
         11    1    4    4    0    0  0.10296866512E+01 -0.48883227338E+01  0.12379945169E+02  0.13349868778E+02  0.51100000000E-03 0. -1.
        -11    1    4    4    0    0  0.11704318698E+01 -0.70180502778E+01  0.61209196481E+01  0.93855526242E+01  0.51100000000E-03 0.  1.
        -12    1    4    4    0    0 -0.95723807776E+01  0.18711485723E+01  0.23075174127E+02  0.25051852860E+02  0.00000000000E+00 0.  1.
</event>
<event>
 8    1  0.1164123E-009  0.9118800E+02  0.7816164E-02  0.1184000E+00
        -11   -1    0    0    0    0  0.00000000000E+00  0.00000000000E+00  0.45593999997E+02  0.45594000000E+02  0.51100000000E-03 0. -1.
         11   -1    0    0    0    0 -0.00000000000E+00 -0.00000000000E+00 -0.45593999997E+02  0.45594000000E+02  0.51100000000E-03 0.  1.
         23    2    1    2    0    0  0.00000000000E+00  0.44408920985E-15  0.71054273576E-14  0.91188000000E+02  0.91188000000E+02 0.  0.
    9900012    2    3    3    0    0  0.15866417978E+01  0.23988301628E+01  0.43305327510E+02  0.47787271791E+02  0.20000003404E+02 0.  0.
        -12    1    3    3    0    0 -0.15866417978E+01 -0.23988301628E+01 -0.43305327510E+02  0.43400728209E+02  0.00000000000E+00 0.  1.
         11    1    4    4    0    0  0.41769833910E+01 -0.16786641537E+00  0.25538749400E+02  0.25878622270E+02  0.51100000000E-03 0. -1.
        -11    1    4    4    0    0 -0.13922892326E+01 -0.30372495076E+01  0.15315803115E+02  0.15676006481E+02  0.51100000000E-03 0.  1.
        -12    1    4    4    0    0 -0.11980523607E+01  0.56039460858E+01  0.24507749943E+01  0.62326430400E+01  0.00000000000E+00 0.  1.
</event>
<event>
 8    1  0.1164123E-009  0.9118800E+02  0.7816164E-02  0.1184000E+00
        -11   -1    0    0    0    0  0.00000000000E+00  0.00000000000E+00  0.45593999997E+02  0.45594000000E+02  0.51100000000E-03 0. -1.
         11   -1    0    0    0    0 -0.00000000000E+00 -0.00000000000E+00 -0.45593999997E+02  0.45594000000E+02  0.51100000000E-03 0.  1.
         23    2    1    2    0    0 -0.35527136788E-14 -0.35527136788E-14 -0.35527136788E-14  0.91188000000E+02  0.91188000000E+02 0.  0.
    9900012    2    3    3    0    0 -0.20082370032E+02  0.25056198781E+02 -0.29197749710E+02  0.47787271070E+02  0.20000000119E+02 0.  0.
         12    1    3    3    0    0  0.20082370032E+02 -0.25056198781E+02  0.29197749710E+02  0.43400728930E+02  0.00000000000E+00 0. -1.
         11    1    4    4    0    0 -0.96368320722E+00 -0.10458202593E+01 -0.47334462555E+01  0.49424628530E+01  0.51100000000E-03 0. -1.
        -11    1    4    4    0    0 -0.48961839681E+01  0.33965115054E+01 -0.11780713973E+02  0.13202050214E+02  0.51100000000E-03 0.  1.
         12    1    4    4    0    0 -0.14222502857E+02  0.22705507535E+02 -0.12683589481E+02  0.29642758004E+02  0.00000000000E+00 0. -1.
</event>
<event>
 8    1  0.1164123E-009  0.9118800E+02  0.7816164E-02  0.1184000E+00
        -11   -1    0    0    0    0  0.00000000000E+00  0.00000000000E+00  0.45593999997E+02  0.45594000000E+02  0.51100000000E-03 0. -1.
         11   -1    0    0    0    0 -0.00000000000E+00 -0.00000000000E+00 -0.45593999997E+02  0.45594000000E+02  0.51100000000E-03 0.  1.
         23    2    1    2    0    0  0.17763568394E-14  0.00000000000E+00  0.00000000000E+00  0.91188000000E+02  0.91188000000E+02 0.  0.
    9900012    2    3    3    0    0  0.12556598229E+02 -0.25245495628E+02  0.32994238352E+02  0.47787274510E+02  0.20000015803E+02 0.  0.
        -12    1    3    3    0    0 -0.12556598229E+02  0.25245495628E+02 -0.32994238352E+02  0.43400725490E+02  0.00000000000E+00 0.  1.
         11    1    4    4    0    0  0.17855446448E+01 -0.10730206302E+02  0.13272957554E+02  0.17160911964E+02  0.51100000000E-03 0. -1.
        -11    1    4    4    0    0 -0.32063196822E+01 -0.22268836669E+00  0.13857822734E+01  0.35000669684E+01  0.51100000000E-03 0.  1.
         12    1    4    4    0    0  0.13977373266E+02 -0.14292600959E+02  0.18335498525E+02  0.27126295578E+02  0.00000000000E+00 0. -1.
</event>
<event>
 8    1  0.1164123E-009  0.9118800E+02  0.7816164E-02  0.1184000E+00
        -11   -1    0    0    0    0  0.00000000000E+00  0.00000000000E+00  0.45593999997E+02  0.45594000000E+02  0.51100000000E-03 0. -1.
         11   -1    0    0    0    0 -0.00000000000E+00 -0.00000000000E+00 -0.45593999997E+02  0.45594000000E+02  0.51100000000E-03 0.  1.
         23    2    1    2    0    0 -0.17763568394E-14  0.00000000000E+00  0.71054273576E-14  0.91188000000E+02  0.91188000000E+02 0.  0.
    9900012    2    3    3    0    0  0.14232910146E+02 -0.18530312160E+02 -0.36574239361E+02  0.47787272070E+02  0.20000004678E+02 0.  0.
         12    1    3    3    0    0 -0.14232910146E+02  0.18530312160E+02  0.36574239361E+02  0.43400727930E+02  0.00000000000E+00 0. -1.
         11    1    4    4    0    0  0.16958669110E+01 -0.12824802847E+02 -0.14202980663E+02  0.19211355825E+02  0.51100000000E-03 0. -1.
        -11    1    4    4    0    0  0.51840764330E+00 -0.89284443823E+00 -0.11845931749E+02  0.11890837520E+02  0.51100000000E-03 0.  1.
         12    1    4    4    0    0  0.12018635592E+02 -0.48126648744E+01 -0.10525326949E+02  0.16685078725E+02  0.00000000000E+00 0. -1.
</event>
<event>
 8    1  0.1164123E-009  0.9118800E+02  0.7816164E-02  0.1184000E+00
        -11   -1    0    0    0    0  0.00000000000E+00  0.00000000000E+00  0.45593999997E+02  0.45594000000E+02  0.51100000000E-03 0. -1.
         11   -1    0    0    0    0 -0.00000000000E+00 -0.00000000000E+00 -0.45593999997E+02  0.45594000000E+02  0.51100000000E-03 0.  1.
         23    2    1    2    0    0  0.00000000000E+00  0.00000000000E+00  0.00000000000E+00  0.91188000000E+02  0.91188000000E+02 0.  0.
    9900012    2    3    3    0    0 -0.12941081739E+02 -0.39911768821E+02  0.11099723027E+02  0.47787254174E+02  0.19999923079E+02 0.  0.
        -12    1    3    3    0    0  0.12941081739E+02  0.39911768821E+02 -0.11099723027E+02  0.43400745826E+02  0.00000000000E+00 0.  1.
         11    1    4    4    0    0 -0.59782738329E+01 -0.16807843696E+02 -0.25483393383E+01  0.18020471730E+02  0.51100000000E-03 0. -1.
        -11    1    4    4    0    0 -0.25166839739E+01 -0.39683699870E+01 -0.15291864561E+01  0.49416667286E+01  0.51100000000E-03 0.  1.
         12    1    4    4    0    0 -0.44461239321E+01 -0.19135555139E+02  0.15177248822E+02  0.24825115715E+02  0.00000000000E+00 0. -1.
</event>
<event>
 8    1  0.1164123E-009  0.9118800E+02  0.7816164E-02  0.1184000E+00
        -11   -1    0    0    0    0  0.00000000000E+00  0.00000000000E+00  0.45593999997E+02  0.45594000000E+02  0.51100000000E-03 0. -1.
         11   -1    0    0    0    0 -0.00000000000E+00 -0.00000000000E+00 -0.45593999997E+02  0.45594000000E+02  0.51100000000E-03 0.  1.
         23    2    1    2    0    0  0.00000000000E+00  0.00000000000E+00  0.00000000000E+00  0.91188000000E+02  0.91188000000E+02 0.  0.
    9900012    2    3    3    0    0  0.19782451583E+02 -0.33112176228E+02  0.19896270205E+02  0.47787272203E+02  0.20000005284E+02 0.  0.
        -12    1    3    3    0    0 -0.19782451583E+02  0.33112176228E+02 -0.19896270205E+02  0.43400727797E+02  0.00000000000E+00 0.  1.
         11    1    4    4    0    0  0.44459956377E+01 -0.68292028590E+00  0.52968059254E-01  0.44984512005E+01  0.51100000000E-03 0. -1.
        -11    1    4    4    0    0  0.10955470279E+02 -0.22927636202E+02  0.63095956754E+01  0.26182242621E+02  0.51100000000E-03 0.  1.
         12    1    4    4    0    0  0.43809856661E+01 -0.95016197409E+01  0.13533706470E+02  0.17106578381E+02  0.00000000000E+00 0. -1.
</event>
<event>
 8    1  0.1164123E-009  0.9118800E+02  0.7816164E-02  0.1184000E+00
        -11   -1    0    0    0    0  0.00000000000E+00  0.00000000000E+00  0.45593999997E+02  0.45594000000E+02  0.51100000000E-03 0. -1.
         11   -1    0    0    0    0 -0.00000000000E+00 -0.00000000000E+00 -0.45593999997E+02  0.45594000000E+02  0.51100000000E-03 0.  1.
         23    2    1    2    0    0  0.00000000000E+00  0.00000000000E+00  0.00000000000E+00  0.91188000000E+02  0.91188000000E+02 0.  0.
    9900012    2    3    3    0    0  0.17399131457E+02  0.19685964772E+02  0.34544989463E+02  0.47787270957E+02  0.19999999600E+02 0.  0.
        -12    1    3    3    0    0 -0.17399131457E+02 -0.19685964772E+02 -0.34544989463E+02  0.43400729043E+02  0.00000000000E+00 0.  1.
         11    1    4    4    0    0  0.13297245054E+02  0.12792997753E+02  0.16486760002E+02  0.24744509960E+02  0.51100000000E-03 0. -1.
        -11    1    4    4    0    0 -0.75898825061E+00  0.75796441098E+01  0.50510927924E+01  0.91400550684E+01  0.51100000000E-03 0.  1.
         12    1    4    4    0    0  0.48608746542E+01 -0.68667708986E+00  0.13007136668E+02  0.13902705929E+02  0.00000000000E+00 0. -1.
</event>
<event>
 8    1  0.1164123E-009  0.9118800E+02  0.7816164E-02  0.1184000E+00
        -11   -1    0    0    0    0  0.00000000000E+00  0.00000000000E+00  0.45593999997E+02  0.45594000000E+02  0.51100000000E-03 0. -1.
         11   -1    0    0    0    0 -0.00000000000E+00 -0.00000000000E+00 -0.45593999997E+02  0.45594000000E+02  0.51100000000E-03 0.  1.
         23    2    1    2    0    0  0.00000000000E+00  0.35527136788E-14  0.00000000000E+00  0.91188000000E+02  0.91188000000E+02 0.  0.
    9900012    2    3    3    0    0 -0.72672509765E+01 -0.24690930535E+02  0.34945214423E+02  0.47787274216E+02  0.20000014462E+02 0.  0.
        -12    1    3    3    0    0  0.72672509765E+01  0.24690930535E+02 -0.34945214423E+02  0.43400725784E+02  0.00000000000E+00 0.  1.
         11    1    4    4    0    0 -0.75017816586E+00 -0.65522564000E+01  0.19480282402E+02  0.20566386020E+02  0.51100000000E-03 0. -1.
        -11    1    4    4    0    0 -0.13672576124E+01 -0.40281886730E+01  0.10616312899E+02  0.11436861335E+02  0.51100000000E-03 0.  1.
        -12    1    4    4    0    0 -0.51498151982E+01 -0.14110485462E+02  0.48486191221E+01  0.15784026861E+02  0.00000000000E+00 0.  1.
</event>
<event>
 8    1  0.1164123E-009  0.9118800E+02  0.7816164E-02  0.1184000E+00
        -11   -1    0    0    0    0  0.00000000000E+00  0.00000000000E+00  0.45593999997E+02  0.45594000000E+02  0.51100000000E-03 0. -1.
         11   -1    0    0    0    0 -0.00000000000E+00 -0.00000000000E+00 -0.45593999997E+02  0.45594000000E+02  0.51100000000E-03 0.  1.
         23    2    1    2    0    0  0.66613381478E-15  0.00000000000E+00  0.00000000000E+00  0.91188000000E+02  0.91188000000E+02 0.  0.
    9900012    2    3    3    0    0  0.79892106081E+00  0.19326580850E+02  0.38851806402E+02  0.47787333382E+02  0.20000284220E+02 0.  0.
        -12    1    3    3    0    0 -0.79892106081E+00 -0.19326580850E+02 -0.38851806402E+02  0.43400666618E+02  0.00000000000E+00 0.  1.
         11    1    4    4    0    0 -0.42831158786E+01  0.80366105954E+00  0.11268684726E+02  0.12081978664E+02  0.51100000000E-03 0. -1.
        -11    1    4    4    0    0 -0.13318786134E+01  0.25955617251E+01  0.12548074949E+02  0.12882741420E+02  0.51100000000E-03 0.  1.
        -12    1    4    4    0    0  0.64139155528E+01  0.15927358065E+02  0.15035046727E+02  0.22822613298E+02  0.00000000000E+00 0.  1.
</event>
<event>
 8    1  0.1164123E-009  0.9118800E+02  0.7816164E-02  0.1184000E+00
        -11   -1    0    0    0    0  0.00000000000E+00  0.00000000000E+00  0.45593999997E+02  0.45594000000E+02  0.51100000000E-03 0. -1.
         11   -1    0    0    0    0 -0.00000000000E+00 -0.00000000000E+00 -0.45593999997E+02  0.45594000000E+02  0.51100000000E-03 0.  1.
         23    2    1    2    0    0  0.00000000000E+00  0.00000000000E+00 -0.35527136788E-14  0.91188000000E+02  0.91188000000E+02 0.  0.
    9900012    2    3    3    0    0 -0.12159769496E+02  0.35037760714E+02 -0.22541499371E+02  0.47787264247E+02  0.19999969007E+02 0.  0.
         12    1    3    3    0    0  0.12159769496E+02 -0.35037760714E+02  0.22541499371E+02  0.43400735753E+02  0.00000000000E+00 0. -1.
         11    1    4    4    0    0 -0.16711399957E+01  0.32895810859E+01 -0.57324551296E+01  0.68172644572E+01  0.51100000000E-03 0. -1.
        -11    1    4    4    0    0 -0.12815275922E+01  0.23947701864E+02 -0.58869756294E+01  0.24693951079E+02  0.51100000000E-03 0.  1.
        -12    1    4    4    0    0 -0.92071019079E+01  0.78004777634E+01 -0.10922068612E+02  0.16276048711E+02  0.00000000000E+00 0.  1.
</event>
<event>
 8    1  0.1164123E-009  0.9118800E+02  0.7816164E-02  0.1184000E+00
        -11   -1    0    0    0    0  0.00000000000E+00  0.00000000000E+00  0.45593999997E+02  0.45594000000E+02  0.51100000000E-03 0. -1.
         11   -1    0    0    0    0 -0.00000000000E+00 -0.00000000000E+00 -0.45593999997E+02  0.45594000000E+02  0.51100000000E-03 0.  1.
         23    2    1    2    0    0  0.00000000000E+00 -0.35527136788E-14  0.00000000000E+00  0.91188000000E+02  0.91188000000E+02 0.  0.
    9900012    2    3    3    0    0 -0.16906250311E+02  0.28025941374E+02  0.28501738643E+02  0.47787265039E+02  0.19999972619E+02 0.  0.
        -12    1    3    3    0    0  0.16906250311E+02 -0.28025941374E+02 -0.28501738643E+02  0.43400734961E+02  0.00000000000E+00 0.  1.
         11    1    4    4    0    0 -0.11660529619E+02  0.96277634939E+01  0.15872402151E+02  0.21922475480E+02  0.51100000000E-03 0. -1.
        -11    1    4    4    0    0 -0.26254452784E+00 -0.12622758146E+01 -0.82058467438E+00  0.15282765883E+01  0.51100000000E-03 0.  1.
        -12    1    4    4    0    0 -0.49831761635E+01  0.19660453695E+02  0.13449921167E+02  0.24336512970E+02  0.00000000000E+00 0.  1.
</event>
<event>
 8    1  0.1164123E-009  0.9118800E+02  0.7816164E-02  0.1184000E+00
        -11   -1    0    0    0    0  0.00000000000E+00  0.00000000000E+00  0.45593999997E+02  0.45594000000E+02  0.51100000000E-03 0. -1.
         11   -1    0    0    0    0 -0.00000000000E+00 -0.00000000000E+00 -0.45593999997E+02  0.45594000000E+02  0.51100000000E-03 0.  1.
         23    2    1    2    0    0 -0.35527136788E-14  0.00000000000E+00 -0.35527136788E-14  0.91188000000E+02  0.91188000000E+02 0.  0.
    9900012    2    3    3    0    0  0.27070735825E+02  0.18847174306E+02  0.28206069361E+02  0.47787273437E+02  0.20000010908E+02 0.  0.
        -12    1    3    3    0    0 -0.27070735825E+02 -0.18847174306E+02 -0.28206069361E+02  0.43400726563E+02  0.00000000000E+00 0.  1.
         11    1    4    4    0    0  0.43488448176E+01 -0.23567601415E+01  0.55743643871E+01  0.74525370306E+01  0.51100000000E-03 0. -1.
        -11    1    4    4    0    0  0.51973142065E+01  0.92706740991E+01  0.13673246400E+02  0.17318058223E+02  0.51100000000E-03 0.  1.
         12    1    4    4    0    0  0.17524576801E+02  0.11933260349E+02  0.89584585731E+01  0.23016678184E+02  0.00000000000E+00 0. -1.
</event>
<event>
 8    1  0.1164123E-009  0.9118800E+02  0.7816164E-02  0.1184000E+00
        -11   -1    0    0    0    0  0.00000000000E+00  0.00000000000E+00  0.45593999997E+02  0.45594000000E+02  0.51100000000E-03 0. -1.
         11   -1    0    0    0    0 -0.00000000000E+00 -0.00000000000E+00 -0.45593999997E+02  0.45594000000E+02  0.51100000000E-03 0.  1.
         23    2    1    2    0    0  0.17763568394E-14  0.00000000000E+00  0.00000000000E+00  0.91188000000E+02  0.91188000000E+02 0.  0.
    9900012    2    3    3    0    0  0.13152603178E+02 -0.92749311877E+01  0.40306428586E+02  0.47787268390E+02  0.19999987897E+02 0.  0.
        -12    1    3    3    0    0 -0.13152603178E+02  0.92749311877E+01 -0.40306428586E+02  0.43400731610E+02  0.00000000000E+00 0.  1.
         11    1    4    4    0    0 -0.11931962125E+01 -0.66472713402E+01  0.24266229282E+02  0.25188485808E+02  0.51100000000E-03 0. -1.
        -11    1    4    4    0    0 -0.11321527088E+00  0.94553397176E+00  0.50730316147E+00  0.10789851473E+01  0.51100000000E-03 0.  1.
        -12    1    4    4    0    0  0.14459014661E+02 -0.35731938193E+01  0.15532896143E+02  0.21519797435E+02  0.00000000000E+00 0.  1.
</event>
<event>
 8    1  0.1164123E-009  0.9118800E+02  0.7816164E-02  0.1184000E+00
        -11   -1    0    0    0    0  0.00000000000E+00  0.00000000000E+00  0.45593999997E+02  0.45594000000E+02  0.51100000000E-03 0. -1.
         11   -1    0    0    0    0 -0.00000000000E+00 -0.00000000000E+00 -0.45593999997E+02  0.45594000000E+02  0.51100000000E-03 0.  1.
         23    2    1    2    0    0 -0.71054273576E-14  0.00000000000E+00  0.00000000000E+00  0.91188000000E+02  0.91188000000E+02 0.  0.
    9900012    2    3    3    0    0  0.38194260969E+02 -0.65760247004E+01  0.19534016158E+02  0.47787268910E+02  0.19999990269E+02 0.  0.
        -12    1    3    3    0    0 -0.38194260969E+02  0.65760247004E+01 -0.19534016158E+02  0.43400731090E+02  0.00000000000E+00 0.  1.
         11    1    4    4    0    0  0.12447426225E+00 -0.28598428107E+01  0.41490119520E+00  0.28924622741E+01  0.51100000000E-03 0. -1.
        -11    1    4    4    0    0  0.45501853219E+01 -0.20899403585E+01  0.81929473958E+01  0.96018969197E+01  0.51100000000E-03 0.  1.
         12    1    4    4    0    0  0.33519601385E+02 -0.16262415312E+01  0.10926167567E+02  0.35292909716E+02  0.00000000000E+00 0. -1.
</event>
<event>
 8    1  0.1164123E-009  0.9118800E+02  0.7816164E-02  0.1184000E+00
        -11   -1    0    0    0    0  0.00000000000E+00  0.00000000000E+00  0.45593999997E+02  0.45594000000E+02  0.51100000000E-03 0.  1.
         11   -1    0    0    0    0 -0.00000000000E+00 -0.00000000000E+00 -0.45593999997E+02  0.45594000000E+02  0.51100000000E-03 0. -1.
         23    2    1    2    0    0  0.00000000000E+00  0.00000000000E+00  0.00000000000E+00  0.91188000000E+02  0.91188000000E+02 0.  0.
    9900012    2    3    3    0    0 -0.34250920394E+02  0.17692429699E+02 -0.19936791349E+02  0.47787271138E+02  0.20000000426E+02 0.  0.
         12    1    3    3    0    0  0.34250920394E+02 -0.17692429699E+02  0.19936791349E+02  0.43400728862E+02  0.00000000000E+00 0. -1.
         11    1    4    4    0    0 -0.12543434143E+02  0.60629837952E+01 -0.10034784914E+01  0.13967980596E+02  0.51100000000E-03 0.  1.
        -11    1    4    4    0    0  0.73881787324E+00  0.40012454597E+01 -0.12935671594E+01  0.42695589159E+01  0.51100000000E-03 0. -1.
         12    1    4    4    0    0 -0.22446304124E+02  0.76282004439E+01 -0.17639745698E+02  0.29549731626E+02  0.00000000000E+00 0. -1.
</event>
<event>
 8    1  0.1208361E-009  0.9118800E+02  0.7816164E-02  0.1184000E+00
        -11   -1    0    0    0    0  0.00000000000E+00  0.00000000000E+00  0.45593999997E+02  0.45594000000E+02  0.51100000000E-03 0. -1.
         11   -1    0    0    0    0 -0.00000000000E+00 -0.00000000000E+00 -0.45593999997E+02  0.45594000000E+02  0.51100000000E-03 0.  1.
         23    2    1    2    0    0  0.00000000000E+00  0.88817841970E-15  0.00000000000E+00  0.91188000000E+02  0.91188000000E+02 0.  0.
    9900012    2    3    3    0    0 -0.10339807074E+02 -0.70362740481E+01 -0.41559629095E+02  0.47787268056E+02  0.19999986373E+02 0.  0.
         12    1    3    3    0    0  0.10339807074E+02  0.70362740481E+01  0.41559629095E+02  0.43400731944E+02  0.00000000000E+00 0. -1.
         11    1    4    4    0    0 -0.11448704350E+02 -0.44051506453E+01 -0.16475045138E+02  0.20540333397E+02  0.51100000000E-03 0. -1.
        -11    1    4    4    0    0  0.97044651378E+00 -0.33611714184E+01 -0.17704004095E+01  0.39209128543E+01  0.51100000000E-03 0.  1.
        -12    1    4    4    0    0  0.13845076295E+00  0.73004801563E+00 -0.23314183548E+02  0.23326021804E+02  0.00000000000E+00 0.  1.
</event>
<event>
 8    1  0.1164123E-009  0.9118800E+02  0.7816164E-02  0.1184000E+00
        -11   -1    0    0    0    0  0.00000000000E+00  0.00000000000E+00  0.45593999997E+02  0.45594000000E+02  0.51100000000E-03 0. -1.
         11   -1    0    0    0    0 -0.00000000000E+00 -0.00000000000E+00 -0.45593999997E+02  0.45594000000E+02  0.51100000000E-03 0.  1.
         23    2    1    2    0    0 -0.88817841970E-15  0.00000000000E+00  0.35527136788E-14  0.91188000000E+02  0.91188000000E+02 0.  0.
    9900012    2    3    3    0    0  0.62094985983E+01  0.33830702198E+02 -0.26467886254E+02  0.47787270895E+02  0.19999999321E+02 0.  0.
         12    1    3    3    0    0 -0.62094985983E+01 -0.33830702198E+02  0.26467886254E+02  0.43400729105E+02  0.00000000000E+00 0. -1.
         11    1    4    4    0    0  0.21282340973E+01  0.63403620554E+01 -0.68554393735E+01  0.95774015595E+01  0.51100000000E-03 0. -1.
        -11    1    4    4    0    0 -0.47014589372E+01  0.21843879771E+02 -0.12992752651E+02  0.25847058272E+02  0.51100000000E-03 0.  1.
         12    1    4    4    0    0  0.87827234382E+01  0.56464603714E+01 -0.66196942294E+01  0.12362811064E+02  0.00000000000E+00 0. -1.
</event>
<event>
 8    1  0.1164123E-009  0.9118800E+02  0.7816164E-02  0.1184000E+00
        -11   -1    0    0    0    0  0.00000000000E+00  0.00000000000E+00  0.45593999997E+02  0.45594000000E+02  0.51100000000E-03 0. -1.
         11   -1    0    0    0    0 -0.00000000000E+00 -0.00000000000E+00 -0.45593999997E+02  0.45594000000E+02  0.51100000000E-03 0.  1.
         23    2    1    2    0    0 -0.35527136788E-14  0.88817841970E-15  0.00000000000E+00  0.91188000000E+02  0.91188000000E+02 0.  0.
    9900012    2    3    3    0    0  0.27704687826E+02  0.58859448990E+01  0.32885088268E+02  0.47787272986E+02  0.20000008854E+02 0.  0.
        -12    1    3    3    0    0 -0.27704687826E+02 -0.58859448990E+01 -0.32885088268E+02  0.43400727014E+02  0.00000000000E+00 0.  1.
         11    1    4    4    0    0  0.10268558120E+02 -0.65742511443E+01  0.13834623770E+02  0.18440739657E+02  0.51100000000E-03 0. -1.
        -11    1    4    4    0    0  0.72273644941E+01  0.19708554362E+01  0.46727895981E+01  0.88291580329E+01  0.51100000000E-03 0.  1.
        -12    1    4    4    0    0  0.10208765212E+02  0.10489340607E+02  0.14377674900E+02  0.20517375296E+02  0.00000000000E+00 0.  1.
</event>
<event>
 8    1  0.1164123E-009  0.9118800E+02  0.7816164E-02  0.1184000E+00
        -11   -1    0    0    0    0  0.00000000000E+00  0.00000000000E+00  0.45593999997E+02  0.45594000000E+02  0.51100000000E-03 0. -1.
         11   -1    0    0    0    0 -0.00000000000E+00 -0.00000000000E+00 -0.45593999997E+02  0.45594000000E+02  0.51100000000E-03 0.  1.
         23    2    1    2    0    0  0.00000000000E+00  0.00000000000E+00  0.00000000000E+00  0.91188000000E+02  0.91188000000E+02 0.  0.
    9900012    2    3    3    0    0  0.30233866958E+01  0.41823913271E+02 -0.11191157464E+02  0.47787278879E+02  0.20000035720E+02 0.  0.
         12    1    3    3    0    0 -0.30233866958E+01 -0.41823913271E+02  0.11191157464E+02  0.43400721121E+02  0.00000000000E+00 0. -1.
         11    1    4    4    0    0 -0.15493077112E+01  0.45738584664E+01 -0.45588647533E+01  0.66410679679E+01  0.51100000000E-03 0. -1.
        -11    1    4    4    0    0 -0.56183065938E+01  0.96170174786E+01 -0.12755854287E+01  0.11210687428E+02  0.51100000000E-03 0.  1.
        -12    1    4    4    0    0  0.10191001001E+02  0.27633037326E+02 -0.53567072819E+01  0.29935523483E+02  0.00000000000E+00 0.  1.
</event>
<event>
 8    1  0.1164123E-009  0.9118800E+02  0.7816164E-02  0.1184000E+00
        -11   -1    0    0    0    0  0.00000000000E+00  0.00000000000E+00  0.45593999997E+02  0.45594000000E+02  0.51100000000E-03 0. -1.
         11   -1    0    0    0    0 -0.00000000000E+00 -0.00000000000E+00 -0.45593999997E+02  0.45594000000E+02  0.51100000000E-03 0.  1.
         23    2    1    2    0    0  0.00000000000E+00  0.17763568394E-14 -0.35527136788E-14  0.91188000000E+02  0.91188000000E+02 0.  0.
    9900012    2    3    3    0    0 -0.33725393405E+02 -0.12838620235E+02 -0.24112045994E+02  0.47787273141E+02  0.20000009561E+02 0.  0.
         12    1    3    3    0    0  0.33725393405E+02  0.12838620235E+02  0.24112045994E+02  0.43400726859E+02  0.00000000000E+00 0. -1.
         11    1    4    4    0    0 -0.45175019997E+00  0.28425762863E+01 -0.26458871281E+01  0.39096083106E+01  0.51100000000E-03 0. -1.
        -11    1    4    4    0    0 -0.60085898583E+01 -0.13068670442E+01  0.28141184797E+00  0.61555053769E+01  0.51100000000E-03 0.  1.
        -12    1    4    4    0    0 -0.27265053347E+02 -0.14374329477E+02 -0.21747570713E+02  0.37722159454E+02  0.00000000000E+00 0.  1.
</event>
<event>
 8    1  0.1164123E-009  0.9118800E+02  0.7816164E-02  0.1184000E+00
        -11   -1    0    0    0    0  0.00000000000E+00  0.00000000000E+00  0.45593999997E+02  0.45594000000E+02  0.51100000000E-03 0. -1.
         11   -1    0    0    0    0 -0.00000000000E+00 -0.00000000000E+00 -0.45593999997E+02  0.45594000000E+02  0.51100000000E-03 0.  1.
         23    2    1    2    0    0 -0.17763568394E-14  0.00000000000E+00  0.00000000000E+00  0.91188000000E+02  0.91188000000E+02 0.  0.
    9900012    2    3    3    0    0  0.14132410379E+02  0.33038945061E+02 -0.24337756731E+02  0.47787270552E+02  0.19999997756E+02 0.  0.
         12    1    3    3    0    0 -0.14132410379E+02 -0.33038945061E+02  0.24337756731E+02  0.43400729448E+02  0.00000000000E+00 0. -1.
         11    1    4    4    0    0  0.21798500577E+01  0.13504759347E+01  0.23553691118E+01  0.34818522999E+01  0.51100000000E-03 0. -1.
        -11    1    4    4    0    0  0.84701991922E+01  0.14051262335E+02 -0.76033342222E+01  0.18082946085E+02  0.51100000000E-03 0.  1.
        -12    1    4    4    0    0  0.34823611295E+01  0.17637206791E+02 -0.19089791621E+02  0.26222472167E+02  0.00000000000E+00 0.  1.
</event>
<event>
 8    1  0.1164123E-009  0.9118800E+02  0.7816164E-02  0.1184000E+00
        -11   -1    0    0    0    0  0.00000000000E+00  0.00000000000E+00  0.45593999997E+02  0.45594000000E+02  0.51100000000E-03 0. -1.
         11   -1    0    0    0    0 -0.00000000000E+00 -0.00000000000E+00 -0.45593999997E+02  0.45594000000E+02  0.51100000000E-03 0.  1.
         23    2    1    2    0    0  0.00000000000E+00 -0.35527136788E-14  0.00000000000E+00  0.91188000000E+02  0.91188000000E+02 0.  0.
    9900012    2    3    3    0    0 -0.19804020336E+02 -0.30902769483E+02  0.23161234450E+02  0.47787272305E+02  0.20000005750E+02 0.  0.
        -12    1    3    3    0    0  0.19804020336E+02  0.30902769483E+02 -0.23161234450E+02  0.43400727695E+02  0.00000000000E+00 0.  1.
         11    1    4    4    0    0 -0.64302476007E+01 -0.27483936865E+01  0.10286009220E+02  0.12437995738E+02  0.51100000000E-03 0. -1.
        -11    1    4    4    0    0 -0.57236780142E+01 -0.28484667199E+01  0.14879820004E+01  0.65641711860E+01  0.51100000000E-03 0.  1.
        -12    1    4    4    0    0 -0.76500947212E+01 -0.25305909076E+02  0.11387243230E+02  0.28785105381E+02  0.00000000000E+00 0.  1.
</event>
<event>
 8    1  0.1164123E-009  0.9118800E+02  0.7816164E-02  0.1184000E+00
        -11   -1    0    0    0    0  0.00000000000E+00  0.00000000000E+00  0.45593999997E+02  0.45594000000E+02  0.51100000000E-03 0. -1.
         11   -1    0    0    0    0 -0.00000000000E+00 -0.00000000000E+00 -0.45593999997E+02  0.45594000000E+02  0.51100000000E-03 0.  1.
         23    2    1    2    0    0  0.35527136788E-14  0.00000000000E+00  0.71054273576E-14  0.91188000000E+02  0.91188000000E+02 0.  0.
    9900012    2    3    3    0    0  0.21956489262E+02 -0.25953558804E+02  0.26980514169E+02  0.47787276733E+02  0.20000025935E+02 0.  0.
        -12    1    3    3    0    0 -0.21956489262E+02  0.25953558804E+02 -0.26980514169E+02  0.43400723267E+02  0.00000000000E+00 0.  1.
         11    1    4    4    0    0  0.59850010556E+01 -0.10897526645E+02  0.85587040039E+01  0.15093963664E+02  0.51100000000E-03 0. -1.
        -11    1    4    4    0    0  0.61383260193E+01 -0.15527944340E+02  0.85785965993E+01  0.18772011656E+02  0.51100000000E-03 0.  1.
         12    1    4    4    0    0  0.98331621871E+01  0.47191218106E+00  0.98432135664E+01  0.13921301412E+02  0.00000000000E+00 0. -1.
</event>
<event>
 8    1  0.1164123E-009  0.9118800E+02  0.7816164E-02  0.1184000E+00
        -11   -1    0    0    0    0  0.00000000000E+00  0.00000000000E+00  0.45593999997E+02  0.45594000000E+02  0.51100000000E-03 0. -1.
         11   -1    0    0    0    0 -0.00000000000E+00 -0.00000000000E+00 -0.45593999997E+02  0.45594000000E+02  0.51100000000E-03 0.  1.
         23    2    1    2    0    0  0.00000000000E+00 -0.35527136788E-14  0.00000000000E+00  0.91188000000E+02  0.91188000000E+02 0.  0.
    9900012    2    3    3    0    0 -0.29722245994E+02  0.30020507103E+02 -0.99489093629E+01  0.47787267850E+02  0.19999985434E+02 0.  0.
         12    1    3    3    0    0  0.29722245994E+02 -0.30020507103E+02  0.99489093629E+01  0.43400732150E+02  0.00000000000E+00 0. -1.
         11    1    4    4    0    0 -0.20050219424E+02  0.16814233138E+02 -0.79191692614E+01  0.27339403377E+02  0.51100000000E-03 0.  1.
        -11    1    4    4    0    0 -0.46612953283E+01  0.62830991099E+01 -0.70542101615E+01  0.10534082296E+02  0.51100000000E-03 0. -1.
        -12    1    4    4    0    0 -0.50107312419E+01  0.69231748548E+01  0.50244700600E+01  0.99137821760E+01  0.00000000000E+00 0.  1.
</event>
<event>
 8    1  0.1164123E-009  0.9118800E+02  0.7816164E-02  0.1184000E+00
        -11   -1    0    0    0    0  0.00000000000E+00  0.00000000000E+00  0.45593999997E+02  0.45594000000E+02  0.51100000000E-03 0. -1.
         11   -1    0    0    0    0 -0.00000000000E+00 -0.00000000000E+00 -0.45593999997E+02  0.45594000000E+02  0.51100000000E-03 0.  1.
         23    2    1    2    0    0  0.77715611724E-15  0.00000000000E+00  0.00000000000E+00  0.91188000000E+02  0.91188000000E+02 0.  0.
    9900012    2    3    3    0    0  0.78621128236E+00 -0.18247834518E+02  0.39370318672E+02  0.47787267459E+02  0.19999983653E+02 0.  0.
        -12    1    3    3    0    0 -0.78621128236E+00  0.18247834518E+02 -0.39370318672E+02  0.43400732541E+02  0.00000000000E+00 0.  1.
         11    1    4    4    0    0  0.49433287255E+01 -0.73574876786E+01  0.56927638903E+01  0.10534547204E+02  0.51100000000E-03 0. -1.
        -11    1    4    4    0    0  0.11552096859E+01 -0.46504632747E+01  0.33735700360E+01  0.58602297854E+01  0.51100000000E-03 0.  1.
         12    1    4    4    0    0 -0.53123271291E+01 -0.62398835647E+01  0.30303984745E+02  0.31392490469E+02  0.00000000000E+00 0. -1.
</event>
<event>
 8    1  0.1164123E-009  0.9118800E+02  0.7816164E-02  0.1184000E+00
        -11   -1    0    0    0    0  0.00000000000E+00  0.00000000000E+00  0.45593999997E+02  0.45594000000E+02  0.51100000000E-03 0. -1.
         11   -1    0    0    0    0 -0.00000000000E+00 -0.00000000000E+00 -0.45593999997E+02  0.45594000000E+02  0.51100000000E-03 0.  1.
         23    2    1    2    0    0  0.00000000000E+00  0.00000000000E+00  0.35527136788E-14  0.91188000000E+02  0.91188000000E+02 0.  0.
    9900012    2    3    3    0    0 -0.29953673037E+02  0.13180430601E+02  0.28507501883E+02  0.47787263338E+02  0.19999964862E+02 0.  0.
        -12    1    3    3    0    0  0.29953673037E+02 -0.13180430601E+02 -0.28507501883E+02  0.43400736662E+02  0.00000000000E+00 0.  1.
         11    1    4    4    0    0 -0.21303640248E+02  0.13368346941E+02  0.16374281001E+02  0.30011245664E+02  0.51100000000E-03 0. -1.
        -11    1    4    4    0    0 -0.10706298334E+02  0.41110280381E+00  0.10989357058E+02  0.15347957465E+02  0.51100000000E-03 0.  1.
         12    1    4    4    0    0  0.20562655457E+01 -0.59901914365E+00  0.11438638243E+01  0.24280602088E+01  0.00000000000E+00 0. -1.
</event>
<event>
 8    1  0.1164123E-009  0.9118800E+02  0.7816164E-02  0.1184000E+00
        -11   -1    0    0    0    0  0.00000000000E+00  0.00000000000E+00  0.45593999997E+02  0.45594000000E+02  0.51100000000E-03 0.  1.
         11   -1    0    0    0    0 -0.00000000000E+00 -0.00000000000E+00 -0.45593999997E+02  0.45594000000E+02  0.51100000000E-03 0. -1.
         23    2    1    2    0    0  0.88817841970E-15  0.00000000000E+00  0.35527136788E-14  0.91188000000E+02  0.91188000000E+02 0.  0.
    9900012    2    3    3    0    0  0.43825665548E+01 -0.36411745438E+02 -0.23207773701E+02  0.47787275863E+02  0.20000021970E+02 0.  0.
         12    1    3    3    0    0 -0.43825665548E+01  0.36411745438E+02  0.23207773701E+02  0.43400724137E+02  0.00000000000E+00 0. -1.
         11    1    4    4    0    0 -0.36005048416E+01 -0.12146233861E+02 -0.47334880305E+01  0.13524072660E+02  0.51100000000E-03 0. -1.
        -11    1    4    4    0    0 -0.69218044276E+00 -0.10026547896E+02 -0.13563809903E+02  0.16881579187E+02  0.51100000000E-03 0.  1.
        -12    1    4    4    0    0  0.86752518392E+01 -0.14238963682E+02 -0.49104757668E+01  0.17381624017E+02  0.00000000000E+00 0.  1.
</event>
<event>
 8    1  0.1164123E-009  0.9118800E+02  0.7816164E-02  0.1184000E+00
        -11   -1    0    0    0    0  0.00000000000E+00  0.00000000000E+00  0.45593999997E+02  0.45594000000E+02  0.51100000000E-03 0. -1.
         11   -1    0    0    0    0 -0.00000000000E+00 -0.00000000000E+00 -0.45593999997E+02  0.45594000000E+02  0.51100000000E-03 0.  1.
         23    2    1    2    0    0  0.00000000000E+00  0.00000000000E+00 -0.71054273576E-14  0.91188000000E+02  0.91188000000E+02 0.  0.
    9900012    2    3    3    0    0 -0.51771353920E+01  0.18634384916E+02 -0.38853324773E+02  0.47787264085E+02  0.19999968269E+02 0.  0.
         12    1    3    3    0    0  0.51771353920E+01 -0.18634384916E+02  0.38853324773E+02  0.43400735915E+02  0.00000000000E+00 0. -1.
         11    1    4    4    0    0 -0.86783618488E+01  0.78008484927E+01 -0.19817648612E+02  0.22997965092E+02  0.51100000000E-03 0. -1.
        -11    1    4    4    0    0 -0.17731215256E+01 -0.33270889102E+00  0.31745547258E+00  0.18317842091E+01  0.51100000000E-03 0.  1.
        -12    1    4    4    0    0  0.52743479823E+01  0.11166245315E+02 -0.19353131633E+02  0.22957514784E+02  0.00000000000E+00 0.  1.
</event>
<event>
 8    1  0.1164123E-009  0.9118800E+02  0.7816164E-02  0.1184000E+00
        -11   -1    0    0    0    0  0.00000000000E+00  0.00000000000E+00  0.45593999997E+02  0.45594000000E+02  0.51100000000E-03 0. -1.
         11   -1    0    0    0    0 -0.00000000000E+00 -0.00000000000E+00 -0.45593999997E+02  0.45594000000E+02  0.51100000000E-03 0.  1.
         23    2    1    2    0    0  0.00000000000E+00 -0.35527136788E-14  0.00000000000E+00  0.91188000000E+02  0.91188000000E+02 0.  0.
    9900012    2    3    3    0    0 -0.17341664942E+02 -0.16298217531E+02 -0.36294050358E+02  0.47787270409E+02  0.19999997104E+02 0.  0.
         12    1    3    3    0    0  0.17341664942E+02  0.16298217531E+02  0.36294050358E+02  0.43400729591E+02  0.00000000000E+00 0. -1.
         11    1    4    4    0    0 -0.15027468443E+01 -0.10255070077E+02 -0.10955633409E+02  0.15081465911E+02  0.51100000000E-03 0. -1.
        -11    1    4    4    0    0 -0.31305484559E+00 -0.40215821138E+01 -0.17566772587E+01  0.43996637697E+01  0.51100000000E-03 0.  1.
        -12    1    4    4    0    0 -0.15525863252E+02 -0.20215653398E+01 -0.23581739690E+02  0.28306140729E+02  0.00000000000E+00 0.  1.
</event>
<event>
 8    1  0.1164123E-009  0.9118800E+02  0.7816164E-02  0.1184000E+00
        -11   -1    0    0    0    0  0.00000000000E+00  0.00000000000E+00  0.45593999997E+02  0.45594000000E+02  0.51100000000E-03 0. -1.
         11   -1    0    0    0    0 -0.00000000000E+00 -0.00000000000E+00 -0.45593999997E+02  0.45594000000E+02  0.51100000000E-03 0.  1.
         23    2    1    2    0    0  0.17763568394E-14  0.00000000000E+00  0.00000000000E+00  0.91188000000E+02  0.91188000000E+02 0.  0.
    9900012    2    3    3    0    0 -0.13565227310E+02  0.23378512277E+02 -0.33956632257E+02  0.47787273019E+02  0.20000009002E+02 0.  0.
         12    1    3    3    0    0  0.13565227310E+02 -0.23378512277E+02  0.33956632257E+02  0.43400726981E+02  0.00000000000E+00 0. -1.
         11    1    4    4    0    0  0.26314726327E+01  0.17449027656E+01 -0.22056791553E+01  0.38515392605E+01  0.51100000000E-03 0. -1.
        -11    1    4    4    0    0 -0.24314808009E+01  0.86086867733E+01 -0.19267566098E+02  0.21242897412E+02  0.51100000000E-03 0.  1.
         12    1    4    4    0    0 -0.13765219142E+02  0.13024922738E+02 -0.12483387004E+02  0.22692836346E+02  0.00000000000E+00 0. -1.
</event>
<event>
 8    1  0.1164123E-009  0.9118800E+02  0.7816164E-02  0.1184000E+00
        -11   -1    0    0    0    0  0.00000000000E+00  0.00000000000E+00  0.45593999997E+02  0.45594000000E+02  0.51100000000E-03 0. -1.
         11   -1    0    0    0    0 -0.00000000000E+00 -0.00000000000E+00 -0.45593999997E+02  0.45594000000E+02  0.51100000000E-03 0.  1.
         23    2    1    2    0    0  0.35527136788E-14  0.00000000000E+00  0.00000000000E+00  0.91188000000E+02  0.91188000000E+02 0.  0.
    9900012    2    3    3    0    0 -0.25334389977E+02  0.11556206360E+02 -0.33290326271E+02  0.47787273691E+02  0.20000012065E+02 0.  0.
         12    1    3    3    0    0  0.25334389977E+02 -0.11556206360E+02  0.33290326271E+02  0.43400726309E+02  0.00000000000E+00 0. -1.
         11    1    4    4    0    0 -0.56471271876E+01 -0.32722405595E+00 -0.52007168522E+01  0.76840469216E+01  0.51100000000E-03 0. -1.
        -11    1    4    4    0    0 -0.22036216072E+02  0.11092204569E+02 -0.20363050438E+02  0.31988836246E+02  0.51100000000E-03 0.  1.
         12    1    4    4    0    0  0.23489532828E+01  0.79122584634E+00 -0.77265589818E+01  0.81143905232E+01  0.00000000000E+00 0. -1.
</event>
<event>
 8    1  0.1164123E-009  0.9118800E+02  0.7816164E-02  0.1184000E+00
        -11   -1    0    0    0    0  0.00000000000E+00  0.00000000000E+00  0.45593999997E+02  0.45594000000E+02  0.51100000000E-03 0. -1.
         11   -1    0    0    0    0 -0.00000000000E+00 -0.00000000000E+00 -0.45593999997E+02  0.45594000000E+02  0.51100000000E-03 0.  1.
         23    2    1    2    0    0  0.00000000000E+00  0.00000000000E+00  0.00000000000E+00  0.91188000000E+02  0.91188000000E+02 0.  0.
    9900012    2    3    3    0    0 -0.12382938545E+02  0.14375576060E+02  0.39033687151E+02  0.47787273201E+02  0.20000009834E+02 0.  0.
        -12    1    3    3    0    0  0.12382938545E+02 -0.14375576060E+02 -0.39033687151E+02  0.43400726799E+02  0.00000000000E+00 0.  1.
         11    1    4    4    0    0  0.12660447512E+01  0.71528772498E+01  0.42135351318E+01  0.83976425758E+01  0.51100000000E-03 0. -1.
        -11    1    4    4    0    0 -0.45800606604E+01  0.67629034447E+01  0.97127688210E+01  0.12690614528E+02  0.51100000000E-03 0.  1.
         12    1    4    4    0    0 -0.90689226359E+01  0.45979536513E+00  0.25107383198E+02  0.26699016098E+02  0.00000000000E+00 0. -1.
</event>
<event>
 8    1  0.1164123E-009  0.9118800E+02  0.7816164E-02  0.1184000E+00
        -11   -1    0    0    0    0  0.00000000000E+00  0.00000000000E+00  0.45593999997E+02  0.45594000000E+02  0.51100000000E-03 0. -1.
         11   -1    0    0    0    0 -0.00000000000E+00 -0.00000000000E+00 -0.45593999997E+02  0.45594000000E+02  0.51100000000E-03 0.  1.
         23    2    1    2    0    0  0.00000000000E+00  0.00000000000E+00  0.71054273576E-14  0.91188000000E+02  0.91188000000E+02 0.  0.
    9900012    2    3    3    0    0 -0.22359747249E+01 -0.27318861923E+02 -0.33649704927E+02  0.47787280634E+02  0.20000043724E+02 0.  0.
         12    1    3    3    0    0  0.22359747249E+01  0.27318861923E+02  0.33649704927E+02  0.43400719366E+02  0.00000000000E+00 0. -1.
         11    1    4    4    0    0 -0.43286051092E+00 -0.48589576961E+00  0.56815814350E+00  0.86386738449E+00  0.51100000000E-03 0. -1.
        -11    1    4    4    0    0  0.15698503427E+00 -0.91722404831E+01 -0.25561725333E+02  0.27157990390E+02  0.51100000000E-03 0.  1.
        -12    1    4    4    0    0 -0.19600992482E+01 -0.17660725671E+02 -0.86561377377E+01  0.19765422859E+02  0.00000000000E+00 0.  1.
</event>
<event>
 8    1  0.1164123E-009  0.9118800E+02  0.7816164E-02  0.1184000E+00
        -11   -1    0    0    0    0  0.00000000000E+00  0.00000000000E+00  0.45593999997E+02  0.45594000000E+02  0.51100000000E-03 0.  1.
         11   -1    0    0    0    0 -0.00000000000E+00 -0.00000000000E+00 -0.45593999997E+02  0.45594000000E+02  0.51100000000E-03 0. -1.
         23    2    1    2    0    0  0.00000000000E+00  0.00000000000E+00  0.35527136788E-14  0.91188000000E+02  0.91188000000E+02 0.  0.
    9900012    2    3    3    0    0 -0.28413803579E+02  0.11217550197E+02 -0.30829300598E+02  0.47787269112E+02  0.19999991190E+02 0.  0.
         12    1    3    3    0    0  0.28413803579E+02 -0.11217550197E+02  0.30829300598E+02  0.43400730888E+02  0.00000000000E+00 0. -1.
         11    1    4    4    0    0 -0.62291364123E+01  0.40138835373E+00 -0.11214897983E+02  0.12834998640E+02  0.51100000000E-03 0. -1.
        -11    1    4    4    0    0  0.14217067892E+01  0.40807440107E+01 -0.21595895620E+01  0.48308952807E+01  0.51100000000E-03 0.  1.
         12    1    4    4    0    0 -0.23606373956E+02  0.67354178330E+01 -0.17454813053E+02  0.30121375192E+02  0.00000000000E+00 0. -1.
</event>
<event>
 8    1  0.1164123E-009  0.9118800E+02  0.7816164E-02  0.1184000E+00
        -11   -1    0    0    0    0  0.00000000000E+00  0.00000000000E+00  0.45593999997E+02  0.45594000000E+02  0.51100000000E-03 0. -1.
         11   -1    0    0    0    0 -0.00000000000E+00 -0.00000000000E+00 -0.45593999997E+02  0.45594000000E+02  0.51100000000E-03 0.  1.
         23    2    1    2    0    0  0.00000000000E+00  0.17763568394E-14  0.00000000000E+00  0.91188000000E+02  0.91188000000E+02 0.  0.
    9900012    2    3    3    0    0  0.13751027947E+02  0.15674914940E+02 -0.38063492338E+02  0.47787272161E+02  0.20000005090E+02 0.  0.
         12    1    3    3    0    0 -0.13751027947E+02 -0.15674914940E+02  0.38063492338E+02  0.43400727839E+02  0.00000000000E+00 0. -1.
         11    1    4    4    0    0  0.79235094804E+00 -0.29455175658E+01 -0.65101962019E+01  0.71893357554E+01  0.51100000000E-03 0. -1.
        -11    1    4    4    0    0  0.74439109238E+01  0.52347250098E+01 -0.50734281454E+01  0.10418916891E+02  0.51100000000E-03 0.  1.
         12    1    4    4    0    0  0.55147660754E+01  0.13385707496E+02 -0.26479867991E+02  0.30179019515E+02  0.00000000000E+00 0. -1.
</event>
<event>
 8    1  0.1164123E-009  0.9118800E+02  0.7816164E-02  0.1184000E+00
        -11   -1    0    0    0    0  0.00000000000E+00  0.00000000000E+00  0.45593999997E+02  0.45594000000E+02  0.51100000000E-03 0. -1.
         11   -1    0    0    0    0 -0.00000000000E+00 -0.00000000000E+00 -0.45593999997E+02  0.45594000000E+02  0.51100000000E-03 0.  1.
         23    2    1    2    0    0 -0.17763568394E-14 -0.35527136788E-14  0.00000000000E+00  0.91188000000E+02  0.91188000000E+02 0.  0.
    9900012    2    3    3    0    0 -0.11833392533E+02 -0.22261469144E+02 -0.35327353690E+02  0.47787261458E+02  0.19999956290E+02 0.  0.
         12    1    3    3    0    0  0.11833392533E+02  0.22261469144E+02  0.35327353690E+02  0.43400738542E+02  0.00000000000E+00 0. -1.
         11    1    4    4    0    0  0.26711314446E+01 -0.29404066426E+01 -0.15596718708E+01  0.42677290242E+01  0.51100000000E-03 0. -1.
        -11    1    4    4    0    0 -0.97571601435E+00 -0.11453966735E+02 -0.11144074924E+02  0.16010489745E+02  0.51100000000E-03 0.  1.
         12    1    4    4    0    0 -0.13528807963E+02 -0.78670957671E+01 -0.22623606895E+02  0.27509042689E+02  0.00000000000E+00 0. -1.
</event>
<event>
 8    1  0.1164123E-009  0.9118800E+02  0.7816164E-02  0.1184000E+00
        -11   -1    0    0    0    0  0.00000000000E+00  0.00000000000E+00  0.45593999997E+02  0.45594000000E+02  0.51100000000E-03 0. -1.
         11   -1    0    0    0    0 -0.00000000000E+00 -0.00000000000E+00 -0.45593999997E+02  0.45594000000E+02  0.51100000000E-03 0.  1.
         23    2    1    2    0    0 -0.88817841970E-15  0.00000000000E+00 -0.69388939039E-16  0.91188000000E+02  0.91188000000E+02 0.  0.
    9900012    2    3    3    0    0 -0.41583545565E+01  0.43200930229E+02  0.10293814141E+00  0.47787275565E+02  0.20000020610E+02 0.  0.
         12    1    3    3    0    0  0.41583545565E+01 -0.43200930229E+02 -0.10293814141E+00  0.43400724435E+02  0.00000000000E+00 0. -1.
         11    1    4    4    0    0 -0.36588263551E+01  0.63337484259E+01 -0.33869383687E+01  0.80606904911E+01  0.51100000000E-03 0.  1.
        -11    1    4    4    0    0 -0.46386723318E+01  0.12530473183E+02  0.64980021763E+01  0.14857794983E+02  0.51100000000E-03 0. -1.
        -12    1    4    4    0    0  0.41391441304E+01  0.24336708620E+02 -0.30081256662E+01  0.24868790091E+02  0.00000000000E+00 0.  1.
</event>
<event>
 8    1  0.1164123E-009  0.9118800E+02  0.7816164E-02  0.1184000E+00
        -11   -1    0    0    0    0  0.00000000000E+00  0.00000000000E+00  0.45593999997E+02  0.45594000000E+02  0.51100000000E-03 0. -1.
         11   -1    0    0    0    0 -0.00000000000E+00 -0.00000000000E+00 -0.45593999997E+02  0.45594000000E+02  0.51100000000E-03 0.  1.
         23    2    1    2    0    0  0.00000000000E+00  0.00000000000E+00  0.00000000000E+00  0.91188000000E+02  0.91188000000E+02 0.  0.
    9900012    2    3    3    0    0 -0.63044025772E+01  0.82981309458E+01 -0.42130978379E+02  0.47787264889E+02  0.19999971934E+02 0.  0.
         12    1    3    3    0    0  0.63044025772E+01 -0.82981309458E+01  0.42130978379E+02  0.43400735111E+02  0.00000000000E+00 0. -1.
         11    1    4    4    0    0  0.36947827566E+01  0.37441076927E+01 -0.78725451933E+01  0.94681957159E+01  0.51100000000E-03 0. -1.
        -11    1    4    4    0    0 -0.73498343910E+01  0.88943693599E+01 -0.18930400814E+02  0.22169572552E+02  0.51100000000E-03 0.  1.
         12    1    4    4    0    0 -0.26493509428E+01 -0.43403461067E+01 -0.15328032371E+02  0.16149496621E+02  0.00000000000E+00 0. -1.
</event>
<event>
 8    1  0.1164123E-009  0.9118800E+02  0.7816164E-02  0.1184000E+00
        -11   -1    0    0    0    0  0.00000000000E+00  0.00000000000E+00  0.45593999997E+02  0.45594000000E+02  0.51100000000E-03 0. -1.
         11   -1    0    0    0    0 -0.00000000000E+00 -0.00000000000E+00 -0.45593999997E+02  0.45594000000E+02  0.51100000000E-03 0.  1.
         23    2    1    2    0    0  0.44408920985E-15  0.00000000000E+00 -0.35527136788E-14  0.91188000000E+02  0.91188000000E+02 0.  0.
    9900012    2    3    3    0    0  0.35843570392E+01 -0.30203220551E+02 -0.30960319205E+02  0.47787268297E+02  0.19999987475E+02 0.  0.
         12    1    3    3    0    0 -0.35843570392E+01  0.30203220551E+02  0.30960319205E+02  0.43400731703E+02  0.00000000000E+00 0. -1.
         11    1    4    4    0    0 -0.46519070915E+00 -0.34163754003E+01 -0.52172910106E+01  0.62536508555E+01  0.51100000000E-03 0. -1.
        -11    1    4    4    0    0  0.36081490845E+01 -0.26880777085E+02 -0.28146971314E+02  0.39087682343E+02  0.51100000000E-03 0.  1.
         12    1    4    4    0    0  0.44139866386E+00  0.93931934024E-01  0.24039431194E+01  0.24459350993E+01  0.00000000000E+00 0. -1.
</event>
<event>
 8    1  0.1164123E-009  0.9118800E+02  0.7816164E-02  0.1184000E+00
        -11   -1    0    0    0    0  0.00000000000E+00  0.00000000000E+00  0.45593999997E+02  0.45594000000E+02  0.51100000000E-03 0. -1.
         11   -1    0    0    0    0 -0.00000000000E+00 -0.00000000000E+00 -0.45593999997E+02  0.45594000000E+02  0.51100000000E-03 0.  1.
         23    2    1    2    0    0  0.00000000000E+00  0.00000000000E+00  0.00000000000E+00  0.91188000000E+02  0.91188000000E+02 0.  0.
    9900012    2    3    3    0    0 -0.29386298151E+02 -0.25966850395E+02  0.18595447193E+02  0.47787280020E+02  0.20000040923E+02 0.  0.
        -12    1    3    3    0    0  0.29386298151E+02  0.25966850395E+02 -0.18595447193E+02  0.43400719980E+02  0.00000000000E+00 0.  1.
         11    1    4    4    0    0 -0.68199748631E+01 -0.12729929095E+02  0.51742515806E+01  0.15340665943E+02  0.51100000000E-03 0. -1.
        -11    1    4    4    0    0 -0.25727326480E+01 -0.38469373785E+01 -0.24601803202E+01  0.52412181734E+01  0.51100000000E-03 0.  1.
         12    1    4    4    0    0 -0.19993590640E+02 -0.93899839211E+01  0.15881375933E+02  0.27205395903E+02  0.00000000000E+00 0. -1.
</event>
<event>
 8    1  0.1164123E-009  0.9118800E+02  0.7816164E-02  0.1184000E+00
        -11   -1    0    0    0    0  0.00000000000E+00  0.00000000000E+00  0.45593999997E+02  0.45594000000E+02  0.51100000000E-03 0. -1.
         11   -1    0    0    0    0 -0.00000000000E+00 -0.00000000000E+00 -0.45593999997E+02  0.45594000000E+02  0.51100000000E-03 0.  1.
         23    2    1    2    0    0  0.00000000000E+00  0.00000000000E+00  0.00000000000E+00  0.91188000000E+02  0.91188000000E+02 0.  0.
    9900012    2    3    3    0    0 -0.34479961827E+02 -0.14848952098E+02 -0.21777608606E+02  0.47787269792E+02  0.19999994291E+02 0.  0.
         12    1    3    3    0    0  0.34479961827E+02  0.14848952098E+02  0.21777608606E+02  0.43400730208E+02  0.00000000000E+00 0. -1.
         11    1    4    4    0    0 -0.11145170739E+02 -0.12730700290E+02 -0.38956828367E+01  0.17362658370E+02  0.51100000000E-03 0.  1.
        -11    1    4    4    0    0 -0.49471441615E+01  0.11271389863E+01 -0.83631045579E+00  0.51423820442E+01  0.51100000000E-03 0. -1.
        -12    1    4    4    0    0 -0.18387646926E+02 -0.32453907943E+01 -0.17045615313E+02  0.25282229378E+02  0.00000000000E+00 0.  1.
</event>
<event>
 8    1  0.1164123E-009  0.9118800E+02  0.7816164E-02  0.1184000E+00
        -11   -1    0    0    0    0  0.00000000000E+00  0.00000000000E+00  0.45593999997E+02  0.45594000000E+02  0.51100000000E-03 0. -1.
         11   -1    0    0    0    0 -0.00000000000E+00 -0.00000000000E+00 -0.45593999997E+02  0.45594000000E+02  0.51100000000E-03 0.  1.
         23    2    1    2    0    0  0.17763568394E-14  0.00000000000E+00  0.00000000000E+00  0.91188000000E+02  0.91188000000E+02 0.  0.
    9900012    2    3    3    0    0  0.12053161061E+02  0.82117170036E+01  0.40876795631E+02  0.47787269490E+02  0.19999992913E+02 0.  0.
        -12    1    3    3    0    0 -0.12053161061E+02 -0.82117170036E+01 -0.40876795631E+02  0.43400730510E+02  0.00000000000E+00 0.  1.
         11    1    4    4    0    0  0.26172288212E+01  0.30552280660E+01  0.18569720919E+02  0.19000495797E+02  0.51100000000E-03 0. -1.
        -11    1    4    4    0    0 -0.38224488615E+01  0.13951466818E+01  0.29547559533E+01  0.50287307113E+01  0.51100000000E-03 0.  1.
         12    1    4    4    0    0  0.13258381101E+02  0.37613422558E+01  0.19352318759E+02  0.23758042982E+02  0.00000000000E+00 0. -1.
</event>
<event>
 8    1  0.1164123E-009  0.9118800E+02  0.7816164E-02  0.1184000E+00
        -11   -1    0    0    0    0  0.00000000000E+00  0.00000000000E+00  0.45593999997E+02  0.45594000000E+02  0.51100000000E-03 0. -1.
         11   -1    0    0    0    0 -0.00000000000E+00 -0.00000000000E+00 -0.45593999997E+02  0.45594000000E+02  0.51100000000E-03 0.  1.
         23    2    1    2    0    0  0.00000000000E+00 -0.17763568394E-14  0.00000000000E+00  0.91188000000E+02  0.91188000000E+02 0.  0.
    9900012    2    3    3    0    0 -0.21347506653E+02 -0.15152194595E+02 -0.34616732192E+02  0.47787272022E+02  0.20000004457E+02 0.  0.
         12    1    3    3    0    0  0.21347506653E+02  0.15152194595E+02  0.34616732192E+02  0.43400727978E+02  0.00000000000E+00 0. -1.
         11    1    4    4    0    0 -0.93355937027E+01 -0.36233177271E+01 -0.14706718102E+02  0.17792394407E+02  0.51100000000E-03 0. -1.
        -11    1    4    4    0    0 -0.34530751388E+01  0.11850557064E+01 -0.12402242682E+02  0.12928407046E+02  0.51100000000E-03 0.  1.
         12    1    4    4    0    0 -0.85588378115E+01 -0.12713932574E+02 -0.75077714087E+01  0.17066470570E+02  0.00000000000E+00 0. -1.
</event>
<event>
 8    1  0.1164123E-009  0.9118800E+02  0.7816164E-02  0.1184000E+00
        -11   -1    0    0    0    0  0.00000000000E+00  0.00000000000E+00  0.45593999997E+02  0.45594000000E+02  0.51100000000E-03 0. -1.
         11   -1    0    0    0    0 -0.00000000000E+00 -0.00000000000E+00 -0.45593999997E+02  0.45594000000E+02  0.51100000000E-03 0.  1.
         23    2    1    2    0    0 -0.17763568394E-14  0.35527136788E-14  0.00000000000E+00  0.91188000000E+02  0.91188000000E+02 0.  0.
    9900012    2    3    3    0    0  0.13741118684E+02  0.12084795263E+02 -0.39354321713E+02  0.47787271242E+02  0.20000000900E+02 0.  0.
         12    1    3    3    0    0 -0.13741118684E+02 -0.12084795263E+02  0.39354321713E+02  0.43400728758E+02  0.00000000000E+00 0. -1.
         11    1    4    4    0    0  0.27045088307E+01  0.69966977156E+01 -0.29666186418E+02  0.30599849081E+02  0.51100000000E-03 0. -1.
        -11    1    4    4    0    0  0.56460888240E+01  0.23891604765E+01 -0.93097854311E+01  0.11147130206E+02  0.51100000000E-03 0.  1.
         12    1    4    4    0    0  0.53905210294E+01  0.26989370709E+01 -0.37834986392E+00  0.60402919549E+01  0.00000000000E+00 0. -1.
</event>
<event>
 8    1  0.1164123E-009  0.9118800E+02  0.7816164E-02  0.1184000E+00
        -11   -1    0    0    0    0  0.00000000000E+00  0.00000000000E+00  0.45593999997E+02  0.45594000000E+02  0.51100000000E-03 0. -1.
         11   -1    0    0    0    0 -0.00000000000E+00 -0.00000000000E+00 -0.45593999997E+02  0.45594000000E+02  0.51100000000E-03 0.  1.
         23    2    1    2    0    0  0.00000000000E+00  0.00000000000E+00  0.00000000000E+00  0.91188000000E+02  0.91188000000E+02 0.  0.
    9900012    2    3    3    0    0 -0.33212194132E+02 -0.19456981411E+02  0.20049920939E+02  0.47787270809E+02  0.19999998924E+02 0.  0.
        -12    1    3    3    0    0  0.33212194132E+02  0.19456981411E+02 -0.20049920939E+02  0.43400729191E+02  0.00000000000E+00 0.  1.
         11    1    4    4    0    0 -0.14835478713E+02 -0.89582232290E+01 -0.24213894901E+00  0.17332046145E+02  0.51100000000E-03 0. -1.
        -11    1    4    4    0    0 -0.61561615668E+01 -0.77906803126E+01  0.67043250728E+01  0.11980859732E+02  0.51100000000E-03 0.  1.
        -12    1    4    4    0    0 -0.12220553852E+02 -0.27080778695E+01  0.13587734815E+02  0.18474364931E+02  0.00000000000E+00 0.  1.
</event>
<event>
 8    1  0.1164123E-009  0.9118800E+02  0.7816164E-02  0.1184000E+00
        -11   -1    0    0    0    0  0.00000000000E+00  0.00000000000E+00  0.45593999997E+02  0.45594000000E+02  0.51100000000E-03 0.  1.
         11   -1    0    0    0    0 -0.00000000000E+00 -0.00000000000E+00 -0.45593999997E+02  0.45594000000E+02  0.51100000000E-03 0. -1.
         23    2    1    2    0    0 -0.71054273576E-14  0.44408920985E-15  0.00000000000E+00  0.91188000000E+02  0.91188000000E+02 0.  0.
    9900012    2    3    3    0    0 -0.42969498188E+02  0.35269044400E+01  0.49806198158E+01  0.47787269554E+02  0.19999993205E+02 0.  0.
         12    1    3    3    0    0  0.42969498188E+02 -0.35269044400E+01 -0.49806198158E+01  0.43400730446E+02  0.00000000000E+00 0. -1.
         11    1    4    4    0    0 -0.12257494888E+02 -0.24020497824E+00  0.71004657118E+00  0.12280392737E+02  0.51100000000E-03 0. -1.
        -11    1    4    4    0    0 -0.26840653155E+02 -0.30568112698E+01  0.54920292024E+01  0.27566776052E+02  0.51100000000E-03 0.  1.
         12    1    4    4    0    0 -0.38713501455E+01  0.68239206880E+01 -0.12214559578E+01  0.79401007652E+01  0.00000000000E+00 0. -1.
</event>
<event>
 8    1  0.1164123E-009  0.9118800E+02  0.7816164E-02  0.1184000E+00
        -11   -1    0    0    0    0  0.00000000000E+00  0.00000000000E+00  0.45593999997E+02  0.45594000000E+02  0.51100000000E-03 0. -1.
         11   -1    0    0    0    0 -0.00000000000E+00 -0.00000000000E+00 -0.45593999997E+02  0.45594000000E+02  0.51100000000E-03 0.  1.
         23    2    1    2    0    0  0.00000000000E+00 -0.35527136788E-14 -0.17763568394E-14  0.91188000000E+02  0.91188000000E+02 0.  0.
    9900012    2    3    3    0    0 -0.38244302104E+02 -0.16048670036E+02 -0.12784240039E+02  0.47787271357E+02  0.20000001426E+02 0.  0.
         12    1    3    3    0    0  0.38244302104E+02  0.16048670036E+02  0.12784240039E+02  0.43400728643E+02  0.00000000000E+00 0. -1.
         11    1    4    4    0    0 -0.14907450880E+02 -0.17867580069E+01 -0.46739428086E+01  0.15724831877E+02  0.51100000000E-03 0. -1.
        -11    1    4    4    0    0 -0.24839662659E+02 -0.12858462900E+02 -0.95459666195E+01  0.29554600118E+02  0.51100000000E-03 0.  1.
         12    1    4    4    0    0  0.15028114358E+01 -0.14034491292E+01  0.14356693893E+01  0.25078393619E+01  0.00000000000E+00 0. -1.
</event>
<event>
 8    1  0.1164123E-009  0.9118800E+02  0.7816164E-02  0.1184000E+00
        -11   -1    0    0    0    0  0.00000000000E+00  0.00000000000E+00  0.45593999997E+02  0.45594000000E+02  0.51100000000E-03 0. -1.
         11   -1    0    0    0    0 -0.00000000000E+00 -0.00000000000E+00 -0.45593999997E+02  0.45594000000E+02  0.51100000000E-03 0.  1.
         23    2    1    2    0    0  0.88817841970E-15  0.00000000000E+00  0.00000000000E+00  0.91188000000E+02  0.91188000000E+02 0.  0.
    9900012    2    3    3    0    0  0.43579905048E+01  0.22894282357E+02  0.36612605825E+02  0.47787272458E+02  0.20000006445E+02 0.  0.
        -12    1    3    3    0    0 -0.43579905048E+01 -0.22894282357E+02 -0.36612605825E+02  0.43400727542E+02  0.00000000000E+00 0.  1.
         11    1    4    4    0    0 -0.58327077457E+01  0.72215626362E+01  0.19068026733E+02  0.21207571533E+02  0.51100000000E-03 0. -1.
        -11    1    4    4    0    0  0.11985157260E+01  0.78429149149E+01  0.56678328602E+01  0.97504914697E+01  0.51100000000E-03 0.  1.
         12    1    4    4    0    0  0.89921825245E+01  0.78298048062E+01  0.11876746231E+02  0.16829209456E+02  0.00000000000E+00 0. -1.
</event>
<event>
 8    1  0.1164123E-009  0.9118800E+02  0.7816164E-02  0.1184000E+00
        -11   -1    0    0    0    0  0.00000000000E+00  0.00000000000E+00  0.45593999997E+02  0.45594000000E+02  0.51100000000E-03 0. -1.
         11   -1    0    0    0    0 -0.00000000000E+00 -0.00000000000E+00 -0.45593999997E+02  0.45594000000E+02  0.51100000000E-03 0.  1.
         23    2    1    2    0    0 -0.35527136788E-14  0.00000000000E+00  0.35527136788E-14  0.91188000000E+02  0.91188000000E+02 0.  0.
    9900012    2    3    3    0    0 -0.31302753976E+02 -0.20364891926E+02  0.22114070690E+02  0.47787270143E+02  0.19999995890E+02 0.  0.
        -12    1    3    3    0    0  0.31302753976E+02  0.20364891926E+02 -0.22114070690E+02  0.43400729857E+02  0.00000000000E+00 0.  1.
         11    1    4    4    0    0 -0.41852319070E+01  0.45979780166E+00  0.33393233737E+01  0.53738869535E+01  0.51100000000E-03 0. -1.
        -11    1    4    4    0    0 -0.20337808798E+02 -0.11691950272E+02  0.40482202518E+01  0.23805802976E+02  0.51100000000E-03 0.  1.
        -12    1    4    4    0    0 -0.67797132705E+01 -0.91327394559E+01  0.14726527065E+02  0.18607580213E+02  0.00000000000E+00 0.  1.
</event>
<event>
 8    1  0.1164123E-009  0.9118800E+02  0.7816164E-02  0.1184000E+00
        -11   -1    0    0    0    0  0.00000000000E+00  0.00000000000E+00  0.45593999997E+02  0.45594000000E+02  0.51100000000E-03 0. -1.
         11   -1    0    0    0    0 -0.00000000000E+00 -0.00000000000E+00 -0.45593999997E+02  0.45594000000E+02  0.51100000000E-03 0.  1.
         23    2    1    2    0    0  0.13322676296E-14  0.00000000000E+00  0.71054273576E-14  0.91188000000E+02  0.91188000000E+02 0.  0.
    9900012    2    3    3    0    0 -0.30188755705E+01 -0.16924959963E+02 -0.39850413707E+02  0.47787270143E+02  0.19999995891E+02 0.  0.
         12    1    3    3    0    0  0.30188755705E+01  0.16924959963E+02  0.39850413707E+02  0.43400729857E+02  0.00000000000E+00 0. -1.
         11    1    4    4    0    0 -0.19144216960E+01 -0.21231943828E+01 -0.39199856079E+00  0.28855897058E+01  0.51100000000E-03 0. -1.
        -11    1    4    4    0    0  0.51259405479E+01 -0.57622826941E+01 -0.62539227827E+01  0.99292859149E+01  0.51100000000E-03 0.  1.
        -12    1    4    4    0    0 -0.62303944224E+01 -0.90394828859E+01 -0.33204492364E+02  0.34972394523E+02  0.00000000000E+00 0.  1.
</event>
<event>
 8    1  0.1164123E-009  0.9118800E+02  0.7816164E-02  0.1184000E+00
        -11   -1    0    0    0    0  0.00000000000E+00  0.00000000000E+00  0.45593999997E+02  0.45594000000E+02  0.51100000000E-03 0. -1.
         11   -1    0    0    0    0 -0.00000000000E+00 -0.00000000000E+00 -0.45593999997E+02  0.45594000000E+02  0.51100000000E-03 0.  1.
         23    2    1    2    0    0 -0.17763568394E-14 -0.17763568394E-14 -0.71054273576E-14  0.91188000000E+02  0.91188000000E+02 0.  0.
    9900012    2    3    3    0    0  0.67922746334E+01  0.90530691467E+01  0.41899042733E+02  0.47787276070E+02  0.20000022914E+02 0.  0.
        -12    1    3    3    0    0 -0.67922746334E+01 -0.90530691467E+01 -0.41899042733E+02  0.43400723930E+02  0.00000000000E+00 0.  1.
         11    1    4    4    0    0  0.67180571715E+01 -0.96867760752E+00  0.95708996245E+01  0.11733403102E+02  0.51100000000E-03 0. -1.
        -11    1    4    4    0    0 -0.37327074379E+00  0.33492636467E+01  0.35477443183E+00  0.33886226083E+01  0.51100000000E-03 0.  1.
         12    1    4    4    0    0  0.44748820573E+00  0.66724831075E+01  0.31973368677E+02  0.32665250360E+02  0.00000000000E+00 0. -1.
</event>
<event>
 8    1  0.1164123E-009  0.9118800E+02  0.7816164E-02  0.1184000E+00
        -11   -1    0    0    0    0  0.00000000000E+00  0.00000000000E+00  0.45593999997E+02  0.45594000000E+02  0.51100000000E-03 0.  1.
         11   -1    0    0    0    0 -0.00000000000E+00 -0.00000000000E+00 -0.45593999997E+02  0.45594000000E+02  0.51100000000E-03 0. -1.
         23    2    1    2    0    0  0.00000000000E+00  0.22204460493E-14  0.35527136788E-14  0.91188000000E+02  0.91188000000E+02 0.  0.
    9900012    2    3    3    0    0  0.33477657306E+02  0.12735041740E+01 -0.27590724830E+02  0.47787269036E+02  0.19999990844E+02 0.  0.
         12    1    3    3    0    0 -0.33477657306E+02 -0.12735041740E+01  0.27590724830E+02  0.43400730964E+02  0.00000000000E+00 0. -1.
         11    1    4    4    0    0  0.57365221148E+01 -0.40154578771E+01 -0.44898305755E+01  0.83180626828E+01  0.51100000000E-03 0. -1.
        -11    1    4    4    0    0  0.10601985490E+02 -0.52599968993E+01 -0.95398972290E+01  0.15201292811E+02  0.51100000000E-03 0.  1.
        -12    1    4    4    0    0  0.17139149701E+02  0.10548958950E+02 -0.13560997025E+02  0.24267913543E+02  0.00000000000E+00 0.  1.
</event>
<event>
 8    1  0.1164123E-009  0.9118800E+02  0.7816164E-02  0.1184000E+00
        -11   -1    0    0    0    0  0.00000000000E+00  0.00000000000E+00  0.45593999997E+02  0.45594000000E+02  0.51100000000E-03 0. -1.
         11   -1    0    0    0    0 -0.00000000000E+00 -0.00000000000E+00 -0.45593999997E+02  0.45594000000E+02  0.51100000000E-03 0.  1.
         23    2    1    2    0    0  0.00000000000E+00  0.88817841970E-15 -0.35527136788E-14  0.91188000000E+02  0.91188000000E+02 0.  0.
    9900012    2    3    3    0    0  0.34804950658E+02  0.42827278152E+01  0.25571405132E+02  0.47787272953E+02  0.20000008701E+02 0.  0.
        -12    1    3    3    0    0 -0.34804950658E+02 -0.42827278152E+01 -0.25571405132E+02  0.43400727047E+02  0.00000000000E+00 0.  1.
         11    1    4    4    0    0  0.66900003160E+01  0.15719911410E+01  0.17065846742E+01  0.70809386303E+01  0.51100000000E-03 0. -1.
        -11    1    4    4    0    0  0.29599859187E+01  0.52095506906E+01  0.72888035271E-01  0.59921822372E+01  0.51100000000E-03 0.  1.
         12    1    4    4    0    0  0.25154964423E+02 -0.24988140163E+01  0.23791932422E+02  0.34714152085E+02  0.00000000000E+00 0. -1.
</event>
<event>
 8    1  0.1164123E-009  0.9118800E+02  0.7816164E-02  0.1184000E+00
        -11   -1    0    0    0    0  0.00000000000E+00  0.00000000000E+00  0.45593999997E+02  0.45594000000E+02  0.51100000000E-03 0. -1.
         11   -1    0    0    0    0 -0.00000000000E+00 -0.00000000000E+00 -0.45593999997E+02  0.45594000000E+02  0.51100000000E-03 0.  1.
         23    2    1    2    0    0  0.00000000000E+00  0.00000000000E+00  0.00000000000E+00  0.91188000000E+02  0.91188000000E+02 0.  0.
    9900012    2    3    3    0    0  0.21385804598E+02  0.17605682144E+02  0.33411227449E+02  0.47787276484E+02  0.20000024803E+02 0.  0.
        -12    1    3    3    0    0 -0.21385804598E+02 -0.17605682144E+02 -0.33411227449E+02  0.43400723516E+02  0.00000000000E+00 0.  1.
         11    1    4    4    0    0  0.12065307852E+02  0.15749602308E+01  0.13571014565E+02  0.18227029102E+02  0.51100000000E-03 0. -1.
        -11    1    4    4    0    0 -0.26844317028E-01 -0.17369026469E+01  0.24250205081E+01  0.29829978458E+01  0.51100000000E-03 0.  1.
         12    1    4    4    0    0  0.93473410626E+01  0.17767624560E+02  0.17415192376E+02  0.26577249537E+02  0.00000000000E+00 0. -1.
</event>
<event>
 8    1  0.1164123E-009  0.9118800E+02  0.7816164E-02  0.1184000E+00
        -11   -1    0    0    0    0  0.00000000000E+00  0.00000000000E+00  0.45593999997E+02  0.45594000000E+02  0.51100000000E-03 0. -1.
         11   -1    0    0    0    0 -0.00000000000E+00 -0.00000000000E+00 -0.45593999997E+02  0.45594000000E+02  0.51100000000E-03 0.  1.
         23    2    1    2    0    0  0.35527136788E-14  0.22204460493E-15  0.35527136788E-14  0.91188000000E+02  0.91188000000E+02 0.  0.
    9900012    2    3    3    0    0  0.29750226228E+02  0.18094486639E+01  0.31547962850E+02  0.47787262390E+02  0.19999960541E+02 0.  0.
        -12    1    3    3    0    0 -0.29750226228E+02 -0.18094486639E+01 -0.31547962850E+02  0.43400737610E+02  0.00000000000E+00 0.  1.
         11    1    4    4    0    0  0.10192011348E+02  0.81734408366E+00  0.13551728260E+02  0.16976291874E+02  0.51100000000E-03 0. -1.
        -11    1    4    4    0    0  0.13451574599E+02 -0.46397400954E+00  0.20099760743E+02  0.24190091220E+02  0.51100000000E-03 0.  1.
        -12    1    4    4    0    0  0.61066402811E+01  0.14560785898E+01 -0.21035261526E+01  0.66208792964E+01  0.00000000000E+00 0.  1.
</event>
<event>
 8    1  0.1164123E-009  0.9118800E+02  0.7816164E-02  0.1184000E+00
        -11   -1    0    0    0    0  0.00000000000E+00  0.00000000000E+00  0.45593999997E+02  0.45594000000E+02  0.51100000000E-03 0. -1.
         11   -1    0    0    0    0 -0.00000000000E+00 -0.00000000000E+00 -0.45593999997E+02  0.45594000000E+02  0.51100000000E-03 0.  1.
         23    2    1    2    0    0  0.35527136788E-14  0.35527136788E-14  0.00000000000E+00  0.91188000000E+02  0.91188000000E+02 0.  0.
    9900012    2    3    3    0    0 -0.29674545239E+02 -0.26474670676E+02 -0.17382069351E+02  0.47787272385E+02  0.20000006114E+02 0.  0.
         12    1    3    3    0    0  0.29674545239E+02  0.26474670676E+02  0.17382069351E+02  0.43400727615E+02  0.00000000000E+00 0. -1.
         11    1    4    4    0    0 -0.16165508737E+02 -0.10626876148E+02 -0.10368557912E+02  0.21949058359E+02  0.51100000000E-03 0.  1.
        -11    1    4    4    0    0 -0.14698971961E+02 -0.15797857088E+02 -0.31646967170E+01  0.21809341367E+02  0.51100000000E-03 0. -1.
         12    1    4    4    0    0  0.11899354595E+01 -0.49937440328E-01 -0.38488147216E+01  0.40288726596E+01  0.00000000000E+00 0. -1.
</event>
<event>
 8    1  0.1164123E-009  0.9118800E+02  0.7816164E-02  0.1184000E+00
        -11   -1    0    0    0    0  0.00000000000E+00  0.00000000000E+00  0.45593999997E+02  0.45594000000E+02  0.51100000000E-03 0. -1.
         11   -1    0    0    0    0 -0.00000000000E+00 -0.00000000000E+00 -0.45593999997E+02  0.45594000000E+02  0.51100000000E-03 0.  1.
         23    2    1    2    0    0  0.00000000000E+00  0.00000000000E+00  0.00000000000E+00  0.91188000000E+02  0.91188000000E+02 0.  0.
    9900012    2    3    3    0    0  0.33860005899E+02  0.21092111330E+02  0.17095207143E+02  0.47787271123E+02  0.20000000357E+02 0.  0.
        -12    1    3    3    0    0 -0.33860005899E+02 -0.21092111330E+02 -0.17095207143E+02  0.43400728877E+02  0.00000000000E+00 0.  1.
         11    1    4    4    0    0  0.19059107653E+02  0.42781612412E+01  0.50246382893E+01  0.20169264695E+02  0.51100000000E-03 0. -1.
        -11    1    4    4    0    0  0.11185212355E+02  0.46830259338E+01  0.49771584263E+01  0.13107700545E+02  0.51100000000E-03 0.  1.
        -12    1    4    4    0    0  0.36156858908E+01  0.12130924155E+02  0.70934104276E+01  0.14510305883E+02  0.00000000000E+00 0.  1.
</event>
<event>
 8    1  0.1164123E-009  0.9118800E+02  0.7816164E-02  0.1184000E+00
        -11   -1    0    0    0    0  0.00000000000E+00  0.00000000000E+00  0.45593999997E+02  0.45594000000E+02  0.51100000000E-03 0. -1.
         11   -1    0    0    0    0 -0.00000000000E+00 -0.00000000000E+00 -0.45593999997E+02  0.45594000000E+02  0.51100000000E-03 0.  1.
         23    2    1    2    0    0 -0.17763568394E-14  0.00000000000E+00  0.00000000000E+00  0.91188000000E+02  0.91188000000E+02 0.  0.
    9900012    2    3    3    0    0  0.10728652971E+02  0.89844209645E+01  0.41082835852E+02  0.47787271708E+02  0.20000003027E+02 0.  0.
        -12    1    3    3    0    0 -0.10728652971E+02 -0.89844209645E+01 -0.41082835852E+02  0.43400728292E+02  0.00000000000E+00 0.  1.
         11    1    4    4    0    0  0.38694879774E+01  0.36991069130E+01  0.92067967967E+01  0.10649950079E+02  0.51100000000E-03 0. -1.
        -11    1    4    4    0    0  0.19292901627E+01  0.40192430695E+00  0.29840945111E+02  0.29905947721E+02  0.51100000000E-03 0.  1.
        -12    1    4    4    0    0  0.49298748313E+01  0.48833897445E+01  0.20350939433E+01  0.72313739087E+01  0.00000000000E+00 0.  1.
</event>
<event>
 8    1  0.1164123E-009  0.9118800E+02  0.7816164E-02  0.1184000E+00
        -11   -1    0    0    0    0  0.00000000000E+00  0.00000000000E+00  0.45593999997E+02  0.45594000000E+02  0.51100000000E-03 0.  1.
         11   -1    0    0    0    0 -0.00000000000E+00 -0.00000000000E+00 -0.45593999997E+02  0.45594000000E+02  0.51100000000E-03 0. -1.
         23    2    1    2    0    0  0.00000000000E+00 -0.71054273576E-14 -0.88817841970E-15  0.91188000000E+02  0.91188000000E+02 0.  0.
    9900012    2    3    3    0    0  0.13324327152E+02 -0.41161159619E+02 -0.34415881444E+01  0.47787270926E+02  0.19999999460E+02 0.  0.
        -12    1    3    3    0    0 -0.13324327152E+02  0.41161159619E+02  0.34415881444E+01  0.43400729074E+02  0.00000000000E+00 0.  1.
         11    1    4    4    0    0  0.27732961504E+01 -0.61236845466E+01  0.54593636946E+01  0.86599847676E+01  0.51100000000E-03 0. -1.
        -11    1    4    4    0    0  0.56590679600E+00  0.68441139655E+00  0.25263656890E+00  0.92330653553E+00  0.51100000000E-03 0.  1.
         12    1    4    4    0    0  0.99851242058E+01 -0.35721886469E+02 -0.91535884079E+01  0.38203979623E+02  0.00000000000E+00 0. -1.
</event>
<event>
 8    1  0.1164123E-009  0.9118800E+02  0.7816164E-02  0.1184000E+00
        -11   -1    0    0    0    0  0.00000000000E+00  0.00000000000E+00  0.45593999997E+02  0.45594000000E+02  0.51100000000E-03 0.  1.
         11   -1    0    0    0    0 -0.00000000000E+00 -0.00000000000E+00 -0.45593999997E+02  0.45594000000E+02  0.51100000000E-03 0. -1.
         23    2    1    2    0    0 -0.35527136788E-14  0.00000000000E+00  0.00000000000E+00  0.91188000000E+02  0.91188000000E+02 0.  0.
    9900012    2    3    3    0    0  0.17999427050E+02 -0.37883088190E+02  0.11158649818E+02  0.47787271772E+02  0.20000003319E+02 0.  0.
        -12    1    3    3    0    0 -0.17999427050E+02  0.37883088190E+02 -0.11158649818E+02  0.43400728228E+02  0.00000000000E+00 0.  1.
         11    1    4    4    0    0  0.16241864633E+01 -0.57526325771E+01  0.11209627700E+01  0.60817202359E+01  0.51100000000E-03 0. -1.
        -11    1    4    4    0    0  0.15049284665E+02 -0.31039930812E+02  0.14122442973E+02  0.37274678664E+02  0.51100000000E-03 0.  1.
         12    1    4    4    0    0  0.13259559216E+01 -0.10905248008E+01 -0.40847559247E+01  0.44308728725E+01  0.00000000000E+00 0. -1.
</event>
<event>
 8    1  0.1164123E-009  0.9118800E+02  0.7816164E-02  0.1184000E+00
        -11   -1    0    0    0    0  0.00000000000E+00  0.00000000000E+00  0.45593999997E+02  0.45594000000E+02  0.51100000000E-03 0. -1.
         11   -1    0    0    0    0 -0.00000000000E+00 -0.00000000000E+00 -0.45593999997E+02  0.45594000000E+02  0.51100000000E-03 0.  1.
         23    2    1    2    0    0  0.00000000000E+00  0.00000000000E+00  0.00000000000E+00  0.91188000000E+02  0.91188000000E+02 0.  0.
    9900012    2    3    3    0    0  0.10968336048E+02  0.93289671142E+01 -0.40942512653E+02  0.47787269989E+02  0.19999995189E+02 0.  0.
         12    1    3    3    0    0 -0.10968336048E+02 -0.93289671142E+01  0.40942512653E+02  0.43400730011E+02  0.00000000000E+00 0. -1.
         11    1    4    4    0    0  0.85156540057E+01 -0.12258478172E+01 -0.61673840282E+01  0.10585636118E+02  0.51100000000E-03 0. -1.
        -11    1    4    4    0    0  0.96992539572E+00 -0.11001128549E+01 -0.38144681177E+01  0.40867066018E+01  0.51100000000E-03 0.  1.
        -12    1    4    4    0    0  0.14827566469E+01  0.11654927786E+02 -0.30960660508E+02  0.33114927269E+02  0.00000000000E+00 0.  1.
</event>
<event>
 8    1  0.1164123E-009  0.9118800E+02  0.7816164E-02  0.1184000E+00
        -11   -1    0    0    0    0  0.00000000000E+00  0.00000000000E+00  0.45593999997E+02  0.45594000000E+02  0.51100000000E-03 0. -1.
         11   -1    0    0    0    0 -0.00000000000E+00 -0.00000000000E+00 -0.45593999997E+02  0.45594000000E+02  0.51100000000E-03 0.  1.
         23    2    1    2    0    0  0.00000000000E+00  0.00000000000E+00  0.00000000000E+00  0.91188000000E+02  0.91188000000E+02 0.  0.
    9900012    2    3    3    0    0 -0.15135988251E+01 -0.47502367483E+01  0.43113426056E+02  0.47787271471E+02  0.20000001944E+02 0.  0.
        -12    1    3    3    0    0  0.15135988251E+01  0.47502367483E+01 -0.43113426056E+02  0.43400728529E+02  0.00000000000E+00 0.  1.
         11    1    4    4    0    0  0.51968629688E+01 -0.92806744117E+00  0.16323873561E+02  0.17156268306E+02  0.51100000000E-03 0. -1.
        -11    1    4    4    0    0 -0.37905991365E+01  0.20921485253E+01  0.16382359844E+01  0.46292056194E+01  0.51100000000E-03 0.  1.
         12    1    4    4    0    0 -0.29198626575E+01 -0.59143178324E+01  0.25151316510E+02  0.26001797545E+02  0.00000000000E+00 0. -1.
</event>
<event>
 8    1  0.1164123E-009  0.9118800E+02  0.7816164E-02  0.1184000E+00
        -11   -1    0    0    0    0  0.00000000000E+00  0.00000000000E+00  0.45593999997E+02  0.45594000000E+02  0.51100000000E-03 0. -1.
         11   -1    0    0    0    0 -0.00000000000E+00 -0.00000000000E+00 -0.45593999997E+02  0.45594000000E+02  0.51100000000E-03 0.  1.
         23    2    1    2    0    0  0.00000000000E+00  0.17763568394E-14  0.00000000000E+00  0.91188000000E+02  0.91188000000E+02 0.  0.
    9900012    2    3    3    0    0 -0.29625447136E+02  0.98500777292E+01  0.30148503948E+02  0.47787269135E+02  0.19999991295E+02 0.  0.
        -12    1    3    3    0    0  0.29625447136E+02 -0.98500777292E+01 -0.30148503948E+02  0.43400730865E+02  0.00000000000E+00 0.  1.
         11    1    4    4    0    0 -0.66620765156E+01 -0.10740419476E+01  0.63855295968E+01  0.92904153889E+01  0.51100000000E-03 0. -1.
        -11    1    4    4    0    0  0.77566554635E+00 -0.11155780142E+01  0.67981629270E+01  0.69326178886E+01  0.51100000000E-03 0.  1.
         12    1    4    4    0    0 -0.23739036167E+02  0.12039697691E+02  0.16964811424E+02  0.31564235858E+02  0.00000000000E+00 0. -1.
</event>
<event>
 8    1  0.1164123E-009  0.9118800E+02  0.7816164E-02  0.1184000E+00
        -11   -1    0    0    0    0  0.00000000000E+00  0.00000000000E+00  0.45593999997E+02  0.45594000000E+02  0.51100000000E-03 0. -1.
         11   -1    0    0    0    0 -0.00000000000E+00 -0.00000000000E+00 -0.45593999997E+02  0.45594000000E+02  0.51100000000E-03 0.  1.
         23    2    1    2    0    0  0.35527136788E-14 -0.49960036108E-15  0.71054273576E-14  0.91188000000E+02  0.91188000000E+02 0.  0.
    9900012    2    3    3    0    0 -0.17477830546E+02 -0.50281870386E-01 -0.39725838387E+02  0.47787316544E+02  0.20000207451E+02 0.  0.
         12    1    3    3    0    0  0.17477830546E+02  0.50281870386E-01  0.39725838387E+02  0.43400683456E+02  0.00000000000E+00 0. -1.
         11    1    4    4    0    0 -0.11850920779E+02 -0.31068864550E+01 -0.11090795498E+02  0.16525822575E+02  0.51100000000E-03 0. -1.
        -11    1    4    4    0    0 -0.25344649266E+01 -0.23792325698E+01 -0.22394446903E+01  0.41351387967E+01  0.51100000000E-03 0.  1.
        -12    1    4    4    0    0 -0.30924448406E+01  0.54358371544E+01 -0.26395598199E+02  0.27126355172E+02  0.00000000000E+00 0.  1.
</event>
<event>
 8    1  0.1164123E-009  0.9118800E+02  0.7816164E-02  0.1184000E+00
        -11   -1    0    0    0    0  0.00000000000E+00  0.00000000000E+00  0.45593999997E+02  0.45594000000E+02  0.51100000000E-03 0. -1.
         11   -1    0    0    0    0 -0.00000000000E+00 -0.00000000000E+00 -0.45593999997E+02  0.45594000000E+02  0.51100000000E-03 0.  1.
         23    2    1    2    0    0  0.00000000000E+00  0.00000000000E+00  0.00000000000E+00  0.91188000000E+02  0.91188000000E+02 0.  0.
    9900012    2    3    3    0    0  0.28436869690E+02 -0.32723563994E+02 -0.20336981988E+01  0.47787272741E+02  0.20000007733E+02 0.  0.
         12    1    3    3    0    0 -0.28436869690E+02  0.32723563994E+02  0.20336981988E+01  0.43400727259E+02  0.00000000000E+00 0. -1.
         11    1    4    4    0    0  0.25144242750E+02 -0.16918097204E+02  0.17509141783E+01  0.30356558717E+02  0.51100000000E-03 0. -1.
        -11    1    4    4    0    0  0.99752272470E+00 -0.42007151810E+01  0.13660774080E+01  0.45284906276E+01  0.51100000000E-03 0.  1.
         12    1    4    4    0    0  0.22951042160E+01 -0.11604751610E+02 -0.51506897851E+01  0.12902223396E+02  0.00000000000E+00 0. -1.
</event>
<event>
 8    1  0.1598767E-009  0.9118800E+02  0.7816164E-02  0.1184000E+00
        -11   -1    0    0    0    0  0.00000000000E+00  0.00000000000E+00  0.45593999997E+02  0.45594000000E+02  0.51100000000E-03 0. -1.
         11   -1    0    0    0    0 -0.00000000000E+00 -0.00000000000E+00 -0.45593999997E+02  0.45594000000E+02  0.51100000000E-03 0.  1.
         23    2    1    2    0    0  0.00000000000E+00 -0.88817841970E-15  0.00000000000E+00  0.91188000000E+02  0.91188000000E+02 0.  0.
    9900012    2    3    3    0    0  0.96150340782E+01  0.70429862228E+00 -0.42316414071E+02  0.47787264790E+02  0.19999971486E+02 0.  0.
         12    1    3    3    0    0 -0.96150340782E+01 -0.70429862228E+00  0.42316414071E+02  0.43400735210E+02  0.00000000000E+00 0. -1.
         11    1    4    4    0    0  0.16213619097E+01  0.21600203754E+01 -0.13259774377E+00  0.27040867011E+01  0.51100000000E-03 0. -1.
        -11    1    4    4    0    0  0.29707568117E+01  0.58861717125E+01 -0.23195917873E+02  0.24114788402E+02  0.51100000000E-03 0.  1.
        -12    1    4    4    0    0  0.50229153568E+01 -0.73418934656E+01 -0.18987898455E+02  0.20968389687E+02  0.00000000000E+00 0.  1.
</event>
<event>
 8    1  0.1164123E-009  0.9118800E+02  0.7816164E-02  0.1184000E+00
        -11   -1    0    0    0    0  0.00000000000E+00  0.00000000000E+00  0.45593999997E+02  0.45594000000E+02  0.51100000000E-03 0. -1.
         11   -1    0    0    0    0 -0.00000000000E+00 -0.00000000000E+00 -0.45593999997E+02  0.45594000000E+02  0.51100000000E-03 0.  1.
         23    2    1    2    0    0  0.00000000000E+00  0.00000000000E+00  0.00000000000E+00  0.91188000000E+02  0.91188000000E+02 0.  0.
    9900012    2    3    3    0    0  0.83198457525E+01  0.28704263538E+01  0.42498988072E+02  0.47787272265E+02  0.20000005565E+02 0.  0.
        -12    1    3    3    0    0 -0.83198457525E+01 -0.28704263538E+01 -0.42498988072E+02  0.43400727735E+02  0.00000000000E+00 0.  1.
         11    1    4    4    0    0 -0.18258922807E+01  0.15204001154E+00  0.16456431916E+02  0.16558114339E+02  0.51100000000E-03 0. -1.
        -11    1    4    4    0    0  0.75621565561E+01 -0.49548770129E+01  0.15387777794E+02  0.17847148895E+02  0.51100000000E-03 0.  1.
         12    1    4    4    0    0  0.25835814771E+01  0.76732633551E+01  0.10654778362E+02  0.13382009031E+02  0.00000000000E+00 0. -1.
</event>
<event>
 8    1  0.1164123E-009  0.9118800E+02  0.7816164E-02  0.1184000E+00
        -11   -1    0    0    0    0  0.00000000000E+00  0.00000000000E+00  0.45593999997E+02  0.45594000000E+02  0.51100000000E-03 0. -1.
         11   -1    0    0    0    0 -0.00000000000E+00 -0.00000000000E+00 -0.45593999997E+02  0.45594000000E+02  0.51100000000E-03 0.  1.
         23    2    1    2    0    0  0.00000000000E+00  0.00000000000E+00  0.00000000000E+00  0.91188000000E+02  0.91188000000E+02 0.  0.
    9900012    2    3    3    0    0 -0.29894269186E+02  0.30781766508E+02  0.65144932080E+01  0.47787273033E+02  0.20000009066E+02 0.  0.
        -12    1    3    3    0    0  0.29894269186E+02 -0.30781766508E+02 -0.65144932080E+01  0.43400726967E+02  0.00000000000E+00 0.  1.
         11    1    4    4    0    0 -0.24945317454E+02  0.23880596894E+02  0.36914955582E+01  0.34730086533E+02  0.51100000000E-03 0. -1.
        -11    1    4    4    0    0 -0.37487901555E+01  0.39553735246E+01 -0.31467361373E+01  0.62928813693E+01  0.51100000000E-03 0.  1.
         12    1    4    4    0    0 -0.12001615769E+01  0.29457960891E+01  0.59697337871E+01  0.67643051305E+01  0.00000000000E+00 0. -1.
</event>
<event>
 8    1  0.1164123E-009  0.9118800E+02  0.7816164E-02  0.1184000E+00
        -11   -1    0    0    0    0  0.00000000000E+00  0.00000000000E+00  0.45593999997E+02  0.45594000000E+02  0.51100000000E-03 0. -1.
         11   -1    0    0    0    0 -0.00000000000E+00 -0.00000000000E+00 -0.45593999997E+02  0.45594000000E+02  0.51100000000E-03 0.  1.
         23    2    1    2    0    0  0.00000000000E+00  0.00000000000E+00  0.00000000000E+00  0.91188000000E+02  0.91188000000E+02 0.  0.
    9900012    2    3    3    0    0  0.37850413907E+02  0.22304779779E+01  0.21118581463E+02  0.47787270192E+02  0.19999996112E+02 0.  0.
        -12    1    3    3    0    0 -0.37850413907E+02 -0.22304779779E+01 -0.21118581463E+02  0.43400729808E+02  0.00000000000E+00 0.  1.
         11    1    4    4    0    0  0.33158345543E+02  0.26627574899E+01  0.15040595954E+02  0.36507337392E+02  0.51100000000E-03 0. -1.
        -11    1    4    4    0    0  0.39511503876E+01  0.35750903139E+01  0.42388560325E+01  0.68088736853E+01  0.51100000000E-03 0.  1.
        -12    1    4    4    0    0  0.74091797649E+00 -0.40073698260E+01  0.18391294759E+01  0.44710591138E+01  0.00000000000E+00 0.  1.
</event>
<event>
 8    1  0.1164123E-009  0.9118800E+02  0.7816164E-02  0.1184000E+00
        -11   -1    0    0    0    0  0.00000000000E+00  0.00000000000E+00  0.45593999997E+02  0.45594000000E+02  0.51100000000E-03 0. -1.
         11   -1    0    0    0    0 -0.00000000000E+00 -0.00000000000E+00 -0.45593999997E+02  0.45594000000E+02  0.51100000000E-03 0.  1.
         23    2    1    2    0    0  0.35527136788E-14 -0.35527136788E-14  0.71054273576E-14  0.91188000000E+02  0.91188000000E+02 0.  0.
    9900012    2    3    3    0    0 -0.17080287351E+02  0.20905535315E+02 -0.33983019369E+02  0.47787271570E+02  0.20000002396E+02 0.  0.
         12    1    3    3    0    0  0.17080287351E+02 -0.20905535315E+02  0.33983019369E+02  0.43400728430E+02  0.00000000000E+00 0. -1.
         11    1    4    4    0    0  0.10745273580E+01  0.26796692637E+01 -0.85005245348E+01  0.89774246882E+01  0.51100000000E-03 0. -1.
        -11    1    4    4    0    0 -0.10472625320E+02  0.18367400990E+01 -0.13135334062E+02  0.16899304615E+02  0.51100000000E-03 0.  1.
         12    1    4    4    0    0 -0.76821893896E+01  0.16389125952E+02 -0.12347160773E+02  0.21910542267E+02  0.00000000000E+00 0. -1.
</event>
<event>
 8    1  0.1164123E-009  0.9118800E+02  0.7816164E-02  0.1184000E+00
        -11   -1    0    0    0    0  0.00000000000E+00  0.00000000000E+00  0.45593999997E+02  0.45594000000E+02  0.51100000000E-03 0. -1.
         11   -1    0    0    0    0 -0.00000000000E+00 -0.00000000000E+00 -0.45593999997E+02  0.45594000000E+02  0.51100000000E-03 0.  1.
         23    2    1    2    0    0  0.00000000000E+00  0.00000000000E+00  0.00000000000E+00  0.91188000000E+02  0.91188000000E+02 0.  0.
    9900012    2    3    3    0    0  0.11599475609E+02 -0.18750936228E+02 -0.37382854126E+02  0.47787271591E+02  0.20000002492E+02 0.  0.
         12    1    3    3    0    0 -0.11599475609E+02  0.18750936228E+02  0.37382854126E+02  0.43400728409E+02  0.00000000000E+00 0. -1.
         11    1    4    4    0    0  0.65516177345E+01  0.25235994091E+01 -0.11336959577E+02  0.13334875388E+02  0.51100000000E-03 0. -1.
        -11    1    4    4    0    0  0.41353129674E+01 -0.68317347346E+01 -0.10800203711E+02  0.13431969821E+02  0.51100000000E-03 0.  1.
        -12    1    4    4    0    0  0.91254490732E+00 -0.14442800902E+02 -0.15245690838E+02  0.21020426381E+02  0.00000000000E+00 0.  1.
</event>
<event>
 8    1  0.1164123E-009  0.9118800E+02  0.7816164E-02  0.1184000E+00
        -11   -1    0    0    0    0  0.00000000000E+00  0.00000000000E+00  0.45593999997E+02  0.45594000000E+02  0.51100000000E-03 0. -1.
         11   -1    0    0    0    0 -0.00000000000E+00 -0.00000000000E+00 -0.45593999997E+02  0.45594000000E+02  0.51100000000E-03 0.  1.
         23    2    1    2    0    0  0.88817841970E-15  0.00000000000E+00  0.00000000000E+00  0.91188000000E+02  0.91188000000E+02 0.  0.
    9900012    2    3    3    0    0  0.27035346847E+01  0.22109883724E+02 -0.37248721990E+02  0.47787270191E+02  0.19999996107E+02 0.  0.
         12    1    3    3    0    0 -0.27035346847E+01 -0.22109883724E+02  0.37248721990E+02  0.43400729809E+02  0.00000000000E+00 0. -1.
         11    1    4    4    0    0 -0.54680439268E+01  0.19226292074E+02 -0.30998672161E+02  0.36884515549E+02  0.51100000000E-03 0. -1.
        -11    1    4    4    0    0  0.20567931231E+01  0.16790027999E+01 -0.23868752448E+01  0.35702411751E+01  0.51100000000E-03 0.  1.
         12    1    4    4    0    0  0.61147854884E+01  0.12045888508E+01 -0.38631745842E+01  0.73325134665E+01  0.00000000000E+00 0. -1.
</event>
<event>
 8    1  0.1164123E-009  0.9118800E+02  0.7816164E-02  0.1184000E+00
        -11   -1    0    0    0    0  0.00000000000E+00  0.00000000000E+00  0.45593999997E+02  0.45594000000E+02  0.51100000000E-03 0. -1.
         11   -1    0    0    0    0 -0.00000000000E+00 -0.00000000000E+00 -0.45593999997E+02  0.45594000000E+02  0.51100000000E-03 0.  1.
         23    2    1    2    0    0  0.00000000000E+00  0.00000000000E+00  0.00000000000E+00  0.91188000000E+02  0.91188000000E+02 0.  0.
    9900012    2    3    3    0    0  0.41799260384E+02 -0.66305300524E+01 -0.96167508006E+01  0.47787262755E+02  0.19999962205E+02 0.  0.
         12    1    3    3    0    0 -0.41799260384E+02  0.66305300524E+01  0.96167508006E+01  0.43400737245E+02  0.00000000000E+00 0. -1.
         11    1    4    4    0    0  0.22905157391E+02 -0.73839723967E+01 -0.31981365461E+01  0.24277507308E+02  0.51100000000E-03 0. -1.
        -11    1    4    4    0    0  0.57775675470E+01 -0.54936843931E+01 -0.11466674262E+01  0.80545453887E+01  0.51100000000E-03 0.  1.
         12    1    4    4    0    0  0.13116535446E+02  0.62471267374E+01 -0.52719468283E+01  0.15455210058E+02  0.00000000000E+00 0. -1.
</event>
<event>
 8    1  0.1164123E-009  0.9118800E+02  0.7816164E-02  0.1184000E+00
        -11   -1    0    0    0    0  0.00000000000E+00  0.00000000000E+00  0.45593999997E+02  0.45594000000E+02  0.51100000000E-03 0. -1.
         11   -1    0    0    0    0 -0.00000000000E+00 -0.00000000000E+00 -0.45593999997E+02  0.45594000000E+02  0.51100000000E-03 0.  1.
         23    2    1    2    0    0  0.00000000000E+00  0.00000000000E+00  0.71054273576E-14  0.91188000000E+02  0.91188000000E+02 0.  0.
    9900012    2    3    3    0    0 -0.33770498087E+01  0.22087169332E+02  0.37207201455E+02  0.47787270114E+02  0.19999995758E+02 0.  0.
        -12    1    3    3    0    0  0.33770498087E+01 -0.22087169332E+02 -0.37207201455E+02  0.43400729886E+02  0.00000000000E+00 0.  1.
         11    1    4    4    0    0 -0.35436514552E+01  0.76075455731E+00  0.10381119167E+01  0.37701312636E+01  0.51100000000E-03 0. -1.
        -11    1    4    4    0    0 -0.21036986662E+01  0.40573864566E+01  0.19066612921E+02  0.19606724904E+02  0.51100000000E-03 0.  1.
         12    1    4    4    0    0  0.22703003127E+01  0.17269028318E+02  0.17102476617E+02  0.24410413946E+02  0.00000000000E+00 0. -1.
</event>
<event>
 8    1  0.1164123E-009  0.9118800E+02  0.7816164E-02  0.1184000E+00
        -11   -1    0    0    0    0  0.00000000000E+00  0.00000000000E+00  0.45593999997E+02  0.45594000000E+02  0.51100000000E-03 0. -1.
         11   -1    0    0    0    0 -0.00000000000E+00 -0.00000000000E+00 -0.45593999997E+02  0.45594000000E+02  0.51100000000E-03 0.  1.
         23    2    1    2    0    0  0.00000000000E+00  0.00000000000E+00  0.00000000000E+00  0.91188000000E+02  0.91188000000E+02 0.  0.
    9900012    2    3    3    0    0 -0.38118038865E+02  0.14196195830E+02  0.15136249464E+02  0.47787275227E+02  0.20000019071E+02 0.  0.
        -12    1    3    3    0    0  0.38118038865E+02 -0.14196195830E+02 -0.15136249464E+02  0.43400724773E+02  0.00000000000E+00 0.  1.
         11    1    4    4    0    0 -0.69995965892E+01 -0.28911443149E+01  0.29220106395E+01  0.81173403465E+01  0.51100000000E-03 0. -1.
        -11    1    4    4    0    0 -0.10352136995E+02  0.55414305010E+00 -0.19429568430E+00  0.10368778421E+02  0.51100000000E-03 0.  1.
        -12    1    4    4    0    0 -0.20766305281E+02  0.16533197095E+02  0.12408534508E+02  0.29301156459E+02  0.00000000000E+00 0.  1.
</event>
<event>
 8    1  0.1164123E-009  0.9118800E+02  0.7816164E-02  0.1184000E+00
        -11   -1    0    0    0    0  0.00000000000E+00  0.00000000000E+00  0.45593999997E+02  0.45594000000E+02  0.51100000000E-03 0. -1.
         11   -1    0    0    0    0 -0.00000000000E+00 -0.00000000000E+00 -0.45593999997E+02  0.45594000000E+02  0.51100000000E-03 0.  1.
         23    2    1    2    0    0  0.00000000000E+00  0.00000000000E+00  0.00000000000E+00  0.91188000000E+02  0.91188000000E+02 0.  0.
    9900012    2    3    3    0    0 -0.23111663486E+02 -0.12348785682E+02  0.34597416744E+02  0.47787277169E+02  0.20000027926E+02 0.  0.
        -12    1    3    3    0    0  0.23111663486E+02  0.12348785682E+02 -0.34597416744E+02  0.43400722831E+02  0.00000000000E+00 0.  1.
         11    1    4    4    0    0 -0.24372614763E+00 -0.68659032068E+01  0.56969341201E+01  0.89249699109E+01  0.51100000000E-03 0. -1.
        -11    1    4    4    0    0  0.73698732867E+00 -0.16990654818E+01  0.94591124303E+00  0.20795966375E+01  0.51100000000E-03 0.  1.
         12    1    4    4    0    0 -0.23604924667E+02 -0.37838169938E+01  0.27954571380E+02  0.36782710621E+02  0.00000000000E+00 0. -1.
</event>
<event>
 8    1  0.1164123E-009  0.9118800E+02  0.7816164E-02  0.1184000E+00
        -11   -1    0    0    0    0  0.00000000000E+00  0.00000000000E+00  0.45593999997E+02  0.45594000000E+02  0.51100000000E-03 0. -1.
         11   -1    0    0    0    0 -0.00000000000E+00 -0.00000000000E+00 -0.45593999997E+02  0.45594000000E+02  0.51100000000E-03 0.  1.
         23    2    1    2    0    0  0.17763568394E-14  0.00000000000E+00  0.00000000000E+00  0.91188000000E+02  0.91188000000E+02 0.  0.
    9900012    2    3    3    0    0 -0.10753404237E+02 -0.30311907329E+01  0.41938041072E+02  0.47787272945E+02  0.20000008664E+02 0.  0.
        -12    1    3    3    0    0  0.10753404237E+02  0.30311907329E+01 -0.41938041072E+02  0.43400727055E+02  0.00000000000E+00 0.  1.
         11    1    4    4    0    0  0.14217934259E+00  0.21407956163E+01  0.17460316223E+02  0.17591641870E+02  0.51100000000E-03 0. -1.
        -11    1    4    4    0    0  0.27153254241E+01  0.40026393460E+00  0.22821611919E+01  0.35695186430E+01  0.51100000000E-03 0.  1.
        -12    1    4    4    0    0 -0.13610909003E+02 -0.55722502837E+01  0.22195563658E+02  0.26626112431E+02  0.00000000000E+00 0.  1.
</event>
<event>
 8    1  0.1164123E-009  0.9118800E+02  0.7816164E-02  0.1184000E+00
        -11   -1    0    0    0    0  0.00000000000E+00  0.00000000000E+00  0.45593999997E+02  0.45594000000E+02  0.51100000000E-03 0. -1.
         11   -1    0    0    0    0 -0.00000000000E+00 -0.00000000000E+00 -0.45593999997E+02  0.45594000000E+02  0.51100000000E-03 0.  1.
         23    2    1    2    0    0  0.00000000000E+00 -0.35527136788E-14  0.00000000000E+00  0.91188000000E+02  0.91188000000E+02 0.  0.
    9900012    2    3    3    0    0  0.18183850509E+02  0.17011233491E+02 -0.35546995266E+02  0.47787270091E+02  0.19999995651E+02 0.  0.
         12    1    3    3    0    0 -0.18183850509E+02 -0.17011233491E+02  0.35546995266E+02  0.43400729909E+02  0.00000000000E+00 0. -1.
         11    1    4    4    0    0  0.62114742290E+01  0.71719081038E+01 -0.16601286175E+02  0.19121228540E+02  0.51100000000E-03 0. -1.
        -11    1    4    4    0    0  0.52357641624E+01 -0.14383543507E+01 -0.13303882801E+02  0.14369251457E+02  0.51100000000E-03 0.  1.
         12    1    4    4    0    0  0.67366121177E+01  0.11277679738E+02 -0.56418262906E+01  0.14296790094E+02  0.00000000000E+00 0. -1.
</event>
<event>
 8    1  0.1164123E-009  0.9118800E+02  0.7816164E-02  0.1184000E+00
        -11   -1    0    0    0    0  0.00000000000E+00  0.00000000000E+00  0.45593999997E+02  0.45594000000E+02  0.51100000000E-03 0. -1.
         11   -1    0    0    0    0 -0.00000000000E+00 -0.00000000000E+00 -0.45593999997E+02  0.45594000000E+02  0.51100000000E-03 0.  1.
         23    2    1    2    0    0  0.00000000000E+00  0.00000000000E+00  0.00000000000E+00  0.91188000000E+02  0.91188000000E+02 0.  0.
    9900012    2    3    3    0    0 -0.36179484622E+01  0.42457498326E+02  0.82398061773E+01  0.47787272806E+02  0.20000008030E+02 0.  0.
        -12    1    3    3    0    0  0.36179484622E+01 -0.42457498326E+02 -0.82398061773E+01  0.43400727194E+02  0.00000000000E+00 0.  1.
         11    1    4    4    0    0 -0.34252777315E+01  0.10820538121E+02  0.90206225674E+01  0.14497868965E+02  0.51100000000E-03 0. -1.
        -11    1    4    4    0    0  0.62845231171E+00 -0.25321751753E+00 -0.12088541722E+01  0.13857850086E+01  0.51100000000E-03 0.  1.
         12    1    4    4    0    0 -0.82112304240E+00  0.31890177722E+02  0.42803778206E+00  0.31903618832E+02  0.00000000000E+00 0. -1.
</event>
<event>
 8    1  0.1164123E-009  0.9118800E+02  0.7816164E-02  0.1184000E+00
        -11   -1    0    0    0    0  0.00000000000E+00  0.00000000000E+00  0.45593999997E+02  0.45594000000E+02  0.51100000000E-03 0. -1.
         11   -1    0    0    0    0 -0.00000000000E+00 -0.00000000000E+00 -0.45593999997E+02  0.45594000000E+02  0.51100000000E-03 0.  1.
         23    2    1    2    0    0 -0.88817841970E-15  0.00000000000E+00  0.00000000000E+00  0.91188000000E+02  0.91188000000E+02 0.  0.
    9900012    2    3    3    0    0 -0.63753879385E+01  0.18951363431E+02  0.38520430425E+02  0.47787270659E+02  0.19999998241E+02 0.  0.
        -12    1    3    3    0    0  0.63753879385E+01 -0.18951363431E+02 -0.38520430425E+02  0.43400729341E+02  0.00000000000E+00 0.  1.
         11    1    4    4    0    0  0.53409745577E+01  0.56125224360E+01  0.67384899670E+01  0.10268089628E+02  0.51100000000E-03 0. -1.
        -11    1    4    4    0    0 -0.19249301452E+01  0.78899821419E+01  0.89485431387E+01  0.12084436223E+02  0.51100000000E-03 0.  1.
        -12    1    4    4    0    0 -0.97914323511E+01  0.54488588529E+01  0.22833397319E+02  0.25434744807E+02  0.00000000000E+00 0.  1.
</event>
<event>
 8    1  0.1164123E-009  0.9118800E+02  0.7816164E-02  0.1184000E+00
        -11   -1    0    0    0    0  0.00000000000E+00  0.00000000000E+00  0.45593999997E+02  0.45594000000E+02  0.51100000000E-03 0. -1.
         11   -1    0    0    0    0 -0.00000000000E+00 -0.00000000000E+00 -0.45593999997E+02  0.45594000000E+02  0.51100000000E-03 0.  1.
         23    2    1    2    0    0  0.88817841970E-15 -0.13322676296E-14  0.00000000000E+00  0.91188000000E+02  0.91188000000E+02 0.  0.
    9900012    2    3    3    0    0  0.23553936448E+01 -0.13444047422E+01  0.43315909444E+02  0.47787270579E+02  0.19999997878E+02 0.  0.
        -12    1    3    3    0    0 -0.23553936448E+01  0.13444047422E+01 -0.43315909444E+02  0.43400729421E+02  0.00000000000E+00 0.  1.
         11    1    4    4    0    0  0.53833516425E+01  0.44913657376E+01  0.19417575972E+02  0.20644493164E+02  0.51100000000E-03 0. -1.
        -11    1    4    4    0    0 -0.71739313280E-01 -0.27364195589E+00 -0.12170807112E+01  0.12495247768E+01  0.51100000000E-03 0.  1.
        -12    1    4    4    0    0 -0.29562186844E+01 -0.55621285239E+01  0.25115414183E+02  0.25893252639E+02  0.00000000000E+00 0.  1.
</event>
<event>
 8    1  0.1164123E-009  0.9118800E+02  0.7816164E-02  0.1184000E+00
        -11   -1    0    0    0    0  0.00000000000E+00  0.00000000000E+00  0.45593999997E+02  0.45594000000E+02  0.51100000000E-03 0. -1.
         11   -1    0    0    0    0 -0.00000000000E+00 -0.00000000000E+00 -0.45593999997E+02  0.45594000000E+02  0.51100000000E-03 0.  1.
         23    2    1    2    0    0  0.17763568394E-14  0.00000000000E+00  0.00000000000E+00  0.91188000000E+02  0.91188000000E+02 0.  0.
    9900012    2    3    3    0    0  0.15632319313E+02 -0.11003981002E+02  0.38963651852E+02  0.47787272234E+02  0.20000005424E+02 0.  0.
        -12    1    3    3    0    0 -0.15632319313E+02  0.11003981002E+02 -0.38963651852E+02  0.43400727766E+02  0.00000000000E+00 0.  1.
         11    1    4    4    0    0 -0.19356417327E+01 -0.94154483875E+00  0.47540138220E+00  0.22043643837E+01  0.51100000000E-03 0. -1.
        -11    1    4    4    0    0  0.90318427827E+01 -0.83657897836E+00  0.63447017239E+01  0.11069294859E+02  0.51100000000E-03 0.  1.
         12    1    4    4    0    0  0.85361182626E+01 -0.92258571850E+01  0.32143548746E+02  0.34513612992E+02  0.00000000000E+00 0. -1.
</event>
<event>
 8    1  0.1164123E-009  0.9118800E+02  0.7816164E-02  0.1184000E+00
        -11   -1    0    0    0    0  0.00000000000E+00  0.00000000000E+00  0.45593999997E+02  0.45594000000E+02  0.51100000000E-03 0. -1.
         11   -1    0    0    0    0 -0.00000000000E+00 -0.00000000000E+00 -0.45593999997E+02  0.45594000000E+02  0.51100000000E-03 0.  1.
         23    2    1    2    0    0  0.00000000000E+00  0.00000000000E+00  0.00000000000E+00  0.91188000000E+02  0.91188000000E+02 0.  0.
    9900012    2    3    3    0    0  0.31215786263E+01  0.27185121627E+02  0.33687507381E+02  0.47787271383E+02  0.20000001542E+02 0.  0.
        -12    1    3    3    0    0 -0.31215786263E+01 -0.27185121627E+02 -0.33687507381E+02  0.43400728617E+02  0.00000000000E+00 0.  1.
         11    1    4    4    0    0 -0.18025003983E+01  0.23717460599E+01  0.77606530365E+01  0.83127566350E+01  0.51100000000E-03 0. -1.
        -11    1    4    4    0    0  0.11908542680E+01  0.25797106999E+02  0.21520032579E+02  0.33615780013E+02  0.51100000000E-03 0.  1.
        -12    1    4    4    0    0  0.37332247566E+01 -0.98373143275E+00  0.44068217660E+01  0.58587347348E+01  0.00000000000E+00 0.  1.
</event>
<event>
 8    1  0.1164123E-009  0.9118800E+02  0.7816164E-02  0.1184000E+00
        -11   -1    0    0    0    0  0.00000000000E+00  0.00000000000E+00  0.45593999997E+02  0.45594000000E+02  0.51100000000E-03 0. -1.
         11   -1    0    0    0    0 -0.00000000000E+00 -0.00000000000E+00 -0.45593999997E+02  0.45594000000E+02  0.51100000000E-03 0.  1.
         23    2    1    2    0    0 -0.35527136788E-14  0.00000000000E+00  0.00000000000E+00  0.91188000000E+02  0.91188000000E+02 0.  0.
    9900012    2    3    3    0    0 -0.20771469290E+02 -0.57337014685E+01  0.37673519646E+02  0.47787270150E+02  0.19999995921E+02 0.  0.
        -12    1    3    3    0    0  0.20771469290E+02  0.57337014685E+01 -0.37673519646E+02  0.43400729850E+02  0.00000000000E+00 0.  1.
         11    1    4    4    0    0 -0.20917315825E+01  0.32823063893E+00  0.37210398360E+00  0.21497762677E+01  0.51100000000E-03 0. -1.
        -11    1    4    4    0    0 -0.10429851284E+01  0.48418447941E+01  0.38180543618E+01  0.62537043709E+01  0.51100000000E-03 0.  1.
         12    1    4    4    0    0 -0.17636752579E+02 -0.10903776901E+02  0.33483361301E+02  0.39383789511E+02  0.00000000000E+00 0. -1.
</event>
<event>
 8    1  0.1164123E-009  0.9118800E+02  0.7816164E-02  0.1184000E+00
        -11   -1    0    0    0    0  0.00000000000E+00  0.00000000000E+00  0.45593999997E+02  0.45594000000E+02  0.51100000000E-03 0.  1.
         11   -1    0    0    0    0 -0.00000000000E+00 -0.00000000000E+00 -0.45593999997E+02  0.45594000000E+02  0.51100000000E-03 0. -1.
         23    2    1    2    0    0  0.00000000000E+00  0.35527136788E-14  0.00000000000E+00  0.91188000000E+02  0.91188000000E+02 0.  0.
    9900012    2    3    3    0    0 -0.32530786720E+02  0.28600107256E+02  0.27211758646E+01  0.47787273995E+02  0.20000013453E+02 0.  0.
         12    1    3    3    0    0  0.32530786720E+02 -0.28600107256E+02 -0.27211758646E+01  0.43400726005E+02  0.00000000000E+00 0. -1.
         11    1    4    4    0    0 -0.87189652873E+01  0.15024821209E+01  0.57805373273E+01  0.10568463477E+02  0.51100000000E-03 0. -1.
        -11    1    4    4    0    0  0.25060318956E+00 -0.15843929179E+00 -0.72826722948E+00  0.78630680173E+00  0.51100000000E-03 0.  1.
        -12    1    4    4    0    0 -0.24062424622E+02  0.27256064427E+02 -0.23310942332E+01  0.36432503717E+02  0.00000000000E+00 0.  1.
</event>
<event>
 8    1  0.1164123E-009  0.9118800E+02  0.7816164E-02  0.1184000E+00
        -11   -1    0    0    0    0  0.00000000000E+00  0.00000000000E+00  0.45593999997E+02  0.45594000000E+02  0.51100000000E-03 0. -1.
         11   -1    0    0    0    0 -0.00000000000E+00 -0.00000000000E+00 -0.45593999997E+02  0.45594000000E+02  0.51100000000E-03 0.  1.
         23    2    1    2    0    0  0.00000000000E+00  0.00000000000E+00  0.00000000000E+00  0.91188000000E+02  0.91188000000E+02 0.  0.
    9900012    2    3    3    0    0 -0.35642616511E+02 -0.68150933877E+01 -0.23807271718E+02  0.47787218944E+02  0.19999762453E+02 0.  0.
         12    1    3    3    0    0  0.35642616511E+02  0.68150933877E+01  0.23807271718E+02  0.43400781056E+02  0.00000000000E+00 0. -1.
         11    1    4    4    0    0 -0.11622809420E+01  0.11778705191E+00  0.18591220981E+01  0.21957017134E+01  0.51100000000E-03 0. -1.
        -11    1    4    4    0    0 -0.47940266527E+00  0.18182268248E+00  0.14407682776E+01  0.15292808421E+01  0.51100000000E-03 0.  1.
        -12    1    4    4    0    0 -0.34000932903E+02 -0.71147031221E+01 -0.27107162093E+02  0.44062236389E+02  0.00000000000E+00 0.  1.
</event>
<event>
 8    1  0.1164123E-009  0.9118800E+02  0.7816164E-02  0.1184000E+00
        -11   -1    0    0    0    0  0.00000000000E+00  0.00000000000E+00  0.45593999997E+02  0.45594000000E+02  0.51100000000E-03 0. -1.
         11   -1    0    0    0    0 -0.00000000000E+00 -0.00000000000E+00 -0.45593999997E+02  0.45594000000E+02  0.51100000000E-03 0.  1.
         23    2    1    2    0    0  0.00000000000E+00  0.00000000000E+00  0.00000000000E+00  0.91188000000E+02  0.91188000000E+02 0.  0.
    9900012    2    3    3    0    0 -0.32865855671E+02  0.11743371106E+02  0.25798292555E+02  0.47787272671E+02  0.20000007418E+02 0.  0.
        -12    1    3    3    0    0  0.32865855671E+02 -0.11743371106E+02 -0.25798292555E+02  0.43400727329E+02  0.00000000000E+00 0.  1.
         11    1    4    4    0    0 -0.88595737762E+01  0.18950555261E+01  0.55672887821E+01  0.10633813408E+02  0.51100000000E-03 0. -1.
        -11    1    4    4    0    0 -0.72407244969E+01  0.84706996727E+01  0.16519645009E+02  0.19926854134E+02  0.51100000000E-03 0.  1.
        -12    1    4    4    0    0 -0.16765557398E+02  0.13776159074E+01  0.37113587642E+01  0.17226605130E+02  0.00000000000E+00 0.  1.
</event>
<event>
 8    1  0.1164123E-009  0.9118800E+02  0.7816164E-02  0.1184000E+00
        -11   -1    0    0    0    0  0.00000000000E+00  0.00000000000E+00  0.45593999997E+02  0.45594000000E+02  0.51100000000E-03 0. -1.
         11   -1    0    0    0    0 -0.00000000000E+00 -0.00000000000E+00 -0.45593999997E+02  0.45594000000E+02  0.51100000000E-03 0.  1.
         23    2    1    2    0    0  0.24424906542E-14  0.00000000000E+00  0.71054273576E-14  0.91188000000E+02  0.91188000000E+02 0.  0.
    9900012    2    3    3    0    0 -0.37798838695E+00  0.78498431775E+00 -0.43391933400E+02  0.47787320745E+02  0.20000226604E+02 0.  0.
         12    1    3    3    0    0  0.37798838695E+00 -0.78498431775E+00  0.43391933400E+02  0.43400679255E+02  0.00000000000E+00 0. -1.
         11    1    4    4    0    0 -0.36730064379E+01  0.54512193756E+00 -0.23628856388E+02  0.23918841709E+02  0.51100000000E-03 0. -1.
        -11    1    4    4    0    0 -0.44176949872E+01  0.11905193110E+01 -0.12178527534E+02  0.13009607926E+02  0.51100000000E-03 0.  1.
         12    1    4    4    0    0  0.77127130381E+01 -0.95065693080E+00 -0.75845494784E+01  0.10858871111E+02  0.00000000000E+00 0. -1.
</event>
<event>
 8    1  0.1164123E-009  0.9118800E+02  0.7816164E-02  0.1184000E+00
        -11   -1    0    0    0    0  0.00000000000E+00  0.00000000000E+00  0.45593999997E+02  0.45594000000E+02  0.51100000000E-03 0. -1.
         11   -1    0    0    0    0 -0.00000000000E+00 -0.00000000000E+00 -0.45593999997E+02  0.45594000000E+02  0.51100000000E-03 0.  1.
         23    2    1    2    0    0  0.17763568394E-14  0.00000000000E+00  0.35527136788E-14  0.91188000000E+02  0.91188000000E+02 0.  0.
    9900012    2    3    3    0    0 -0.12430243885E+02 -0.27146037870E+02  0.31499277822E+02  0.47787276061E+02  0.20000022875E+02 0.  0.
        -12    1    3    3    0    0  0.12430243885E+02  0.27146037870E+02 -0.31499277822E+02  0.43400723939E+02  0.00000000000E+00 0.  1.
         11    1    4    4    0    0 -0.11508236087E+02 -0.89883932227E+01  0.15732030925E+02  0.21464564004E+02  0.51100000000E-03 0. -1.
        -11    1    4    4    0    0 -0.12731422226E+00 -0.29768774964E+00  0.58882321826E+01  0.58971268772E+01  0.51100000000E-03 0.  1.
        -12    1    4    4    0    0 -0.79469357616E+00 -0.17859956898E+02  0.98790147139E+01  0.20425585181E+02  0.00000000000E+00 0.  1.
</event>
<event>
 8    1  0.1164123E-009  0.9118800E+02  0.7816164E-02  0.1184000E+00
        -11   -1    0    0    0    0  0.00000000000E+00  0.00000000000E+00  0.45593999997E+02  0.45594000000E+02  0.51100000000E-03 0. -1.
         11   -1    0    0    0    0 -0.00000000000E+00 -0.00000000000E+00 -0.45593999997E+02  0.45594000000E+02  0.51100000000E-03 0.  1.
         23    2    1    2    0    0 -0.36082248300E-15  0.17763568394E-14  0.00000000000E+00  0.91188000000E+02  0.91188000000E+02 0.  0.
    9900012    2    3    3    0    0  0.21865531785E+00 -0.15313286133E+02 -0.40608856490E+02  0.47787265355E+02  0.19999974058E+02 0.  0.
         12    1    3    3    0    0 -0.21865531785E+00  0.15313286133E+02  0.40608856490E+02  0.43400734645E+02  0.00000000000E+00 0. -1.
         11    1    4    4    0    0 -0.80832014963E-01  0.32195001838E+01 -0.92146440037E+01  0.97612181424E+01  0.51100000000E-03 0. -1.
        -11    1    4    4    0    0  0.49186307538E+01 -0.44805144817E+01 -0.10313352858E+02  0.12273271200E+02  0.51100000000E-03 0.  1.
        -12    1    4    4    0    0 -0.46191434210E+01 -0.14052271835E+02 -0.21080859629E+02  0.25752776013E+02  0.00000000000E+00 0.  1.
</event>
<event>
 8    1  0.1164123E-009  0.9118800E+02  0.7816164E-02  0.1184000E+00
        -11   -1    0    0    0    0  0.00000000000E+00  0.00000000000E+00  0.45593999997E+02  0.45594000000E+02  0.51100000000E-03 0. -1.
         11   -1    0    0    0    0 -0.00000000000E+00 -0.00000000000E+00 -0.45593999997E+02  0.45594000000E+02  0.51100000000E-03 0.  1.
         23    2    1    2    0    0  0.17763568394E-14  0.00000000000E+00  0.00000000000E+00  0.91188000000E+02  0.91188000000E+02 0.  0.
    9900012    2    3    3    0    0  0.13314194149E+02  0.17636493781E+02  0.37353833544E+02  0.47787279278E+02  0.20000037540E+02 0.  0.
        -12    1    3    3    0    0 -0.13314194149E+02 -0.17636493781E+02 -0.37353833544E+02  0.43400720722E+02  0.00000000000E+00 0.  1.
         11    1    4    4    0    0 -0.23348992655E+01  0.44217475011E+01  0.28291861440E+01  0.57452502158E+01  0.51100000000E-03 0.  1.
        -11    1    4    4    0    0  0.34704578805E+01 -0.21989051636E+01  0.39419727788E+01  0.56937168413E+01  0.51100000000E-03 0. -1.
         12    1    4    4    0    0  0.12178635534E+02  0.15413651443E+02  0.30582674622E+02  0.36348312221E+02  0.00000000000E+00 0. -1.
</event>
<event>
 8    1  0.1164123E-009  0.9118800E+02  0.7816164E-02  0.1184000E+00
        -11   -1    0    0    0    0  0.00000000000E+00  0.00000000000E+00  0.45593999997E+02  0.45594000000E+02  0.51100000000E-03 0. -1.
         11   -1    0    0    0    0 -0.00000000000E+00 -0.00000000000E+00 -0.45593999997E+02  0.45594000000E+02  0.51100000000E-03 0.  1.
         23    2    1    2    0    0  0.00000000000E+00 -0.71054273576E-14  0.00000000000E+00  0.91188000000E+02  0.91188000000E+02 0.  0.
    9900012    2    3    3    0    0  0.16757600024E+02  0.30606839458E+02  0.25807505007E+02  0.47787273107E+02  0.20000009404E+02 0.  0.
        -12    1    3    3    0    0 -0.16757600024E+02 -0.30606839458E+02 -0.25807505007E+02  0.43400726893E+02  0.00000000000E+00 0.  1.
         11    1    4    4    0    0  0.21606713972E+01  0.90069764864E+01  0.20195461625E+01  0.94801209527E+01  0.51100000000E-03 0. -1.
        -11    1    4    4    0    0 -0.19271549455E+01  0.87848892552E+01  0.56130761895E+01  0.10601642796E+02  0.51100000000E-03 0.  1.
         12    1    4    4    0    0  0.16524083572E+02  0.12814973716E+02  0.18174882656E+02  0.27705509358E+02  0.00000000000E+00 0. -1.
</event>
<event>
 8    1  0.1164123E-009  0.9118800E+02  0.7816164E-02  0.1184000E+00
        -11   -1    0    0    0    0  0.00000000000E+00  0.00000000000E+00  0.45593999997E+02  0.45594000000E+02  0.51100000000E-03 0.  1.
         11   -1    0    0    0    0 -0.00000000000E+00 -0.00000000000E+00 -0.45593999997E+02  0.45594000000E+02  0.51100000000E-03 0. -1.
         23    2    1    2    0    0  0.71054273576E-14  0.00000000000E+00  0.88817841970E-15  0.91188000000E+02  0.91188000000E+02 0.  0.
    9900012    2    3    3    0    0  0.42871699975E+02  0.33818853807E+01  0.58483784200E+01  0.47787270310E+02  0.19999996654E+02 0.  0.
         12    1    3    3    0    0 -0.42871699975E+02 -0.33818853807E+01 -0.58483784200E+01  0.43400729690E+02  0.00000000000E+00 0. -1.
         11    1    4    4    0    0  0.19402586214E+02  0.15231577696E+01 -0.27677087460E+01  0.19658091803E+02  0.51100000000E-03 0. -1.
        -11    1    4    4    0    0  0.82143395600E+01  0.49808533773E+00 -0.31544140482E+01  0.88132736063E+01  0.51100000000E-03 0.  1.
        -12    1    4    4    0    0  0.15254774201E+02  0.13606422733E+01  0.11770501214E+02  0.19315904901E+02  0.00000000000E+00 0.  1.
</event>
<event>
 8    1  0.1164123E-009  0.9118800E+02  0.7816164E-02  0.1184000E+00
        -11   -1    0    0    0    0  0.00000000000E+00  0.00000000000E+00  0.45593999997E+02  0.45594000000E+02  0.51100000000E-03 0. -1.
         11   -1    0    0    0    0 -0.00000000000E+00 -0.00000000000E+00 -0.45593999997E+02  0.45594000000E+02  0.51100000000E-03 0.  1.
         23    2    1    2    0    0  0.00000000000E+00  0.00000000000E+00 -0.71054273576E-14  0.91188000000E+02  0.91188000000E+02 0.  0.
    9900012    2    3    3    0    0 -0.29666880147E+01 -0.41760693142E+01  0.43097359609E+02  0.47787271919E+02  0.20000003989E+02 0.  0.
        -12    1    3    3    0    0  0.29666880147E+01  0.41760693142E+01 -0.43097359609E+02  0.43400728081E+02  0.00000000000E+00 0.  1.
         11    1    4    4    0    0 -0.39748535242E+01 -0.19654072838E+01  0.37681192563E+02  0.37941198710E+02  0.51100000000E-03 0. -1.
        -11    1    4    4    0    0  0.31497736741E+01 -0.36647375154E+01  0.54147592167E+01  0.72574784114E+01  0.51100000000E-03 0.  1.
        -12    1    4    4    0    0 -0.21416081647E+01  0.14540754849E+01  0.14078290852E-02  0.25885947981E+01  0.00000000000E+00 0.  1.
</event>
<event>
 8    1  0.1164123E-009  0.9118800E+02  0.7816164E-02  0.1184000E+00
        -11   -1    0    0    0    0  0.00000000000E+00  0.00000000000E+00  0.45593999997E+02  0.45594000000E+02  0.51100000000E-03 0. -1.
         11   -1    0    0    0    0 -0.00000000000E+00 -0.00000000000E+00 -0.45593999997E+02  0.45594000000E+02  0.51100000000E-03 0.  1.
         23    2    1    2    0    0  0.35527136788E-14  0.88817841970E-15  0.00000000000E+00  0.91188000000E+02  0.91188000000E+02 0.  0.
    9900012    2    3    3    0    0 -0.31734538428E+02 -0.76496644674E+01 -0.28601134491E+02  0.47787272012E+02  0.20000004410E+02 0.  0.
         12    1    3    3    0    0  0.31734538428E+02  0.76496644674E+01  0.28601134491E+02  0.43400727988E+02  0.00000000000E+00 0. -1.
         11    1    4    4    0    0 -0.51158237509E+01 -0.18130651957E+01 -0.61335745260E+01  0.81902133538E+01  0.51100000000E-03 0. -1.
        -11    1    4    4    0    0 -0.29131687087E+02 -0.59193558399E+01 -0.18878593890E+02  0.35214986492E+02  0.51100000000E-03 0.  1.
         12    1    4    4    0    0  0.25129724095E+01  0.82756568175E-01 -0.35889660751E+01  0.43820721660E+01  0.00000000000E+00 0. -1.
</event>
<event>
 8    1  0.1164123E-009  0.9118800E+02  0.7816164E-02  0.1184000E+00
        -11   -1    0    0    0    0  0.00000000000E+00  0.00000000000E+00  0.45593999997E+02  0.45594000000E+02  0.51100000000E-03 0. -1.
         11   -1    0    0    0    0 -0.00000000000E+00 -0.00000000000E+00 -0.45593999997E+02  0.45594000000E+02  0.51100000000E-03 0.  1.
         23    2    1    2    0    0  0.33306690739E-15  0.00000000000E+00  0.00000000000E+00  0.91188000000E+02  0.91188000000E+02 0.  0.
    9900012    2    3    3    0    0  0.85425651714E+00 -0.12835131342E+02  0.41450608621E+02  0.47787270677E+02  0.19999998323E+02 0.  0.
        -12    1    3    3    0    0 -0.85425651714E+00  0.12835131342E+02 -0.41450608621E+02  0.43400729323E+02  0.00000000000E+00 0.  1.
         11    1    4    4    0    0 -0.54312893583E+01 -0.98454628595E+01  0.12416265522E+02  0.16750990800E+02  0.51100000000E-03 0. -1.
        -11    1    4    4    0    0 -0.62620909262E+00  0.12914563218E+01  0.77600465432E+00  0.16316190559E+01  0.51100000000E-03 0.  1.
         12    1    4    4    0    0  0.69117549681E+01 -0.42811248041E+01  0.28258338444E+02  0.29404660821E+02  0.00000000000E+00 0. -1.
</event>
<event>
 8    1  0.1164123E-009  0.9118800E+02  0.7816164E-02  0.1184000E+00
        -11   -1    0    0    0    0  0.00000000000E+00  0.00000000000E+00  0.45593999997E+02  0.45594000000E+02  0.51100000000E-03 0. -1.
         11   -1    0    0    0    0 -0.00000000000E+00 -0.00000000000E+00 -0.45593999997E+02  0.45594000000E+02  0.51100000000E-03 0.  1.
         23    2    1    2    0    0  0.71054273576E-14  0.66613381478E-15  0.00000000000E+00  0.91188000000E+02  0.91188000000E+02 0.  0.
    9900012    2    3    3    0    0  0.39660505044E+02 -0.17098208871E+01 -0.17542627405E+02  0.47787275075E+02  0.20000018375E+02 0.  0.
         12    1    3    3    0    0 -0.39660505044E+02  0.17098208871E+01  0.17542627405E+02  0.43400724925E+02  0.00000000000E+00 0. -1.
         11    1    4    4    0    0  0.57631591541E+01  0.30609419912E+01  0.12525447424E+01  0.66447150354E+01  0.51100000000E-03 0. -1.
        -11    1    4    4    0    0  0.28020910589E+02  0.89381811225E-01 -0.10628604939E+02  0.29969095124E+02  0.51100000000E-03 0.  1.
         12    1    4    4    0    0  0.58764353009E+01 -0.48601446895E+01 -0.81665672085E+01  0.11173464916E+02  0.00000000000E+00 0. -1.
</event>
<event>
 8    1  0.1164123E-009  0.9118800E+02  0.7816164E-02  0.1184000E+00
        -11   -1    0    0    0    0  0.00000000000E+00  0.00000000000E+00  0.45593999997E+02  0.45594000000E+02  0.51100000000E-03 0. -1.
         11   -1    0    0    0    0 -0.00000000000E+00 -0.00000000000E+00 -0.45593999997E+02  0.45594000000E+02  0.51100000000E-03 0.  1.
         23    2    1    2    0    0  0.00000000000E+00  0.00000000000E+00 -0.71054273576E-14  0.91188000000E+02  0.91188000000E+02 0.  0.
    9900012    2    3    3    0    0 -0.12895851067E+02 -0.18206378644E+02  0.37226995018E+02  0.47787258577E+02  0.19999943154E+02 0.  0.
        -12    1    3    3    0    0  0.12895851067E+02  0.18206378644E+02 -0.37226995018E+02  0.43400741423E+02  0.00000000000E+00 0.  1.
         11    1    4    4    0    0  0.34216901081E-01  0.19950846643E+01  0.31293812769E+00  0.20197683399E+01  0.51100000000E-03 0. -1.
        -11    1    4    4    0    0 -0.65850427841E+01 -0.14674935263E+02  0.13882939175E+02  0.21247411933E+02  0.51100000000E-03 0.  1.
         12    1    4    4    0    0 -0.63450251839E+01 -0.55265280445E+01  0.23031117715E+02  0.24520078304E+02  0.00000000000E+00 0. -1.
</event>
<event>
 8    1  0.1164123E-009  0.9118800E+02  0.7816164E-02  0.1184000E+00
        -11   -1    0    0    0    0  0.00000000000E+00  0.00000000000E+00  0.45593999997E+02  0.45594000000E+02  0.51100000000E-03 0. -1.
         11   -1    0    0    0    0 -0.00000000000E+00 -0.00000000000E+00 -0.45593999997E+02  0.45594000000E+02  0.51100000000E-03 0.  1.
         23    2    1    2    0    0 -0.22204460493E-15  0.35527136788E-14  0.00000000000E+00  0.91188000000E+02  0.91188000000E+02 0.  0.
    9900012    2    3    3    0    0 -0.81918741428E+00  0.23481675834E+02 -0.36490588940E+02  0.47787271329E+02  0.20000001297E+02 0.  0.
         12    1    3    3    0    0  0.81918741428E+00 -0.23481675834E+02  0.36490588940E+02  0.43400728671E+02  0.00000000000E+00 0. -1.
         11    1    4    4    0    0  0.29896872902E+01 -0.10845617276E+01 -0.31521742194E+01  0.44778015594E+01  0.51100000000E-03 0. -1.
        -11    1    4    4    0    0 -0.62467180516E+00  0.20541283307E+02 -0.31957139674E+02  0.37994648455E+02  0.51100000000E-03 0.  1.
         12    1    4    4    0    0 -0.31842028993E+01  0.40249542548E+01 -0.13812750459E+01  0.53148213150E+01  0.00000000000E+00 0. -1.
</event>
<event>
 8    1  0.1164123E-009  0.9118800E+02  0.7816164E-02  0.1184000E+00
        -11   -1    0    0    0    0  0.00000000000E+00  0.00000000000E+00  0.45593999997E+02  0.45594000000E+02  0.51100000000E-03 0.  1.
         11   -1    0    0    0    0 -0.00000000000E+00 -0.00000000000E+00 -0.45593999997E+02  0.45594000000E+02  0.51100000000E-03 0. -1.
         23    2    1    2    0    0  0.00000000000E+00  0.00000000000E+00  0.00000000000E+00  0.91188000000E+02  0.91188000000E+02 0.  0.
    9900012    2    3    3    0    0 -0.12260328987E+02 -0.31928383627E+02 -0.26718623791E+02  0.47787283356E+02  0.20000056135E+02 0.  0.
         12    1    3    3    0    0  0.12260328987E+02  0.31928383627E+02  0.26718623791E+02  0.43400716644E+02  0.00000000000E+00 0. -1.
         11    1    4    4    0    0 -0.33986286682E+01 -0.10160962106E+02 -0.19586775833E+02  0.22325716462E+02  0.51100000000E-03 0. -1.
        -11    1    4    4    0    0 -0.52909647613E+01 -0.12145635854E+02 -0.74394849474E+01  0.15193969690E+02  0.51100000000E-03 0.  1.
         12    1    4    4    0    0 -0.35707355579E+01 -0.96217856668E+01  0.30763698910E+00  0.10267597205E+02  0.00000000000E+00 0. -1.
</event>
<event>
 8    1  0.1164123E-009  0.9118800E+02  0.7816164E-02  0.1184000E+00
        -11   -1    0    0    0    0  0.00000000000E+00  0.00000000000E+00  0.45593999997E+02  0.45594000000E+02  0.51100000000E-03 0. -1.
         11   -1    0    0    0    0 -0.00000000000E+00 -0.00000000000E+00 -0.45593999997E+02  0.45594000000E+02  0.51100000000E-03 0.  1.
         23    2    1    2    0    0  0.44408920985E-15  0.00000000000E+00  0.00000000000E+00  0.91188000000E+02  0.91188000000E+02 0.  0.
    9900012    2    3    3    0    0 -0.13977122159E+01 -0.40699962953E+02 -0.15006087872E+02  0.47787271238E+02  0.20000000883E+02 0.  0.
         12    1    3    3    0    0  0.13977122159E+01  0.40699962953E+02  0.15006087872E+02  0.43400728762E+02  0.00000000000E+00 0. -1.
         11    1    4    4    0    0  0.84585344642E+00 -0.13411906276E+02 -0.26496984479E+01  0.13697284407E+02  0.51100000000E-03 0. -1.
        -11    1    4    4    0    0 -0.40474722615E+01 -0.26118988482E+02 -0.56236039954E+01  0.27022370606E+02  0.51100000000E-03 0.  1.
         12    1    4    4    0    0  0.18039065992E+01 -0.11690681955E+01 -0.67327854292E+01  0.70676162247E+01  0.00000000000E+00 0. -1.
</event>
<event>
 8    1  0.1164123E-009  0.9118800E+02  0.7816164E-02  0.1184000E+00
        -11   -1    0    0    0    0  0.00000000000E+00  0.00000000000E+00  0.45593999997E+02  0.45594000000E+02  0.51100000000E-03 0. -1.
         11   -1    0    0    0    0 -0.00000000000E+00 -0.00000000000E+00 -0.45593999997E+02  0.45594000000E+02  0.51100000000E-03 0.  1.
         23    2    1    2    0    0  0.00000000000E+00  0.71054273576E-14  0.35527136788E-14  0.91188000000E+02  0.91188000000E+02 0.  0.
    9900012    2    3    3    0    0 -0.22733727213E+02 -0.32499908587E+02 -0.17622631887E+02  0.47787267681E+02  0.19999984666E+02 0.  0.
         12    1    3    3    0    0  0.22733727213E+02  0.32499908587E+02  0.17622631887E+02  0.43400732319E+02  0.00000000000E+00 0. -1.
         11    1    4    4    0    0 -0.21996973729E+02 -0.23469159745E+02 -0.85085653604E+01  0.33272571243E+02  0.51100000000E-03 0. -1.
        -11    1    4    4    0    0 -0.32551268726E+01 -0.65133988902E+01 -0.40741472858E+01  0.83437936472E+01  0.51100000000E-03 0.  1.
         12    1    4    4    0    0  0.25183733879E+01 -0.25173499520E+01 -0.50399192413E+01  0.61709027914E+01  0.00000000000E+00 0. -1.
</event>
<event>
 8    1  0.1164123E-009  0.9118800E+02  0.7816164E-02  0.1184000E+00
        -11   -1    0    0    0    0  0.00000000000E+00  0.00000000000E+00  0.45593999997E+02  0.45594000000E+02  0.51100000000E-03 0. -1.
         11   -1    0    0    0    0 -0.00000000000E+00 -0.00000000000E+00 -0.45593999997E+02  0.45594000000E+02  0.51100000000E-03 0.  1.
         23    2    1    2    0    0 -0.17763568394E-14 -0.44408920985E-15 -0.71054273576E-14  0.91188000000E+02  0.91188000000E+02 0.  0.
    9900012    2    3    3    0    0 -0.64115663347E+01 -0.35349955816E+01 -0.42778727660E+02  0.47787263637E+02  0.19999966226E+02 0.  0.
         12    1    3    3    0    0  0.64115663347E+01  0.35349955816E+01  0.42778727660E+02  0.43400736363E+02  0.00000000000E+00 0. -1.
         11    1    4    4    0    0 -0.38399880493E+01 -0.22348951141E+00 -0.44462076700E+01  0.58791341783E+01  0.51100000000E-03 0. -1.
        -11    1    4    4    0    0 -0.41493461122E+01 -0.87695721054E+00 -0.38746264496E+02  0.38977674889E+02  0.51100000000E-03 0.  1.
         12    1    4    4    0    0  0.15777678269E+01 -0.24345488597E+01  0.41374450592E+00  0.29304545691E+01  0.00000000000E+00 0. -1.
</event>
<event>
 8    1  0.1164123E-009  0.9118800E+02  0.7816164E-02  0.1184000E+00
        -11   -1    0    0    0    0  0.00000000000E+00  0.00000000000E+00  0.45593999997E+02  0.45594000000E+02  0.51100000000E-03 0. -1.
         11   -1    0    0    0    0 -0.00000000000E+00 -0.00000000000E+00 -0.45593999997E+02  0.45594000000E+02  0.51100000000E-03 0.  1.
         23    2    1    2    0    0  0.00000000000E+00  0.00000000000E+00  0.00000000000E+00  0.91188000000E+02  0.91188000000E+02 0.  0.
    9900012    2    3    3    0    0 -0.94299500899E+01  0.85714890768E+01 -0.41487695604E+02  0.47787271086E+02  0.20000000192E+02 0.  0.
         12    1    3    3    0    0  0.94299500899E+01 -0.85714890768E+01  0.41487695604E+02  0.43400728914E+02  0.00000000000E+00 0. -1.
         11    1    4    4    0    0 -0.60865665567E+01  0.10204791329E+02 -0.26322778971E+02  0.28880317719E+02  0.51100000000E-03 0.  1.
        -11    1    4    4    0    0  0.10587810917E+01  0.29008425830E+01 -0.76505768624E+00  0.31813862727E+01  0.51100000000E-03 0. -1.
        -12    1    4    4    0    0 -0.44021646250E+01 -0.45341448353E+01 -0.14399858946E+02  0.15725567095E+02  0.00000000000E+00 0.  1.
</event>
<event>
 8    1  0.1164123E-009  0.9118800E+02  0.7816164E-02  0.1184000E+00
        -11   -1    0    0    0    0  0.00000000000E+00  0.00000000000E+00  0.45593999997E+02  0.45594000000E+02  0.51100000000E-03 0. -1.
         11   -1    0    0    0    0 -0.00000000000E+00 -0.00000000000E+00 -0.45593999997E+02  0.45594000000E+02  0.51100000000E-03 0.  1.
         23    2    1    2    0    0  0.44408920985E-15  0.00000000000E+00  0.00000000000E+00  0.91188000000E+02  0.91188000000E+02 0.  0.
    9900012    2    3    3    0    0 -0.34324845471E+01  0.38723238955E+02 -0.19296429368E+02  0.47787269917E+02  0.19999994861E+02 0.  0.
         12    1    3    3    0    0  0.34324845471E+01 -0.38723238955E+02  0.19296429368E+02  0.43400730083E+02  0.00000000000E+00 0. -1.
         11    1    4    4    0    0 -0.29627016913E+01  0.35699970702E+01 -0.62978653658E+01  0.78221217595E+01  0.51100000000E-03 0. -1.
        -11    1    4    4    0    0 -0.28426425869E+01  0.24886558262E+02 -0.15061336841E+02  0.29227816660E+02  0.51100000000E-03 0.  1.
        -12    1    4    4    0    0  0.23728597311E+01  0.10266683623E+02  0.20627728385E+01  0.10737331498E+02  0.00000000000E+00 0.  1.
</event>
<event>
 8    1  0.1164123E-009  0.9118800E+02  0.7816164E-02  0.1184000E+00
        -11   -1    0    0    0    0  0.00000000000E+00  0.00000000000E+00  0.45593999997E+02  0.45594000000E+02  0.51100000000E-03 0. -1.
         11   -1    0    0    0    0 -0.00000000000E+00 -0.00000000000E+00 -0.45593999997E+02  0.45594000000E+02  0.51100000000E-03 0.  1.
         23    2    1    2    0    0  0.00000000000E+00  0.00000000000E+00  0.00000000000E+00  0.91188000000E+02  0.91188000000E+02 0.  0.
    9900012    2    3    3    0    0 -0.37847688374E+01 -0.25810322793E+02  0.34686106700E+02  0.47787271483E+02  0.20000001999E+02 0.  0.
        -12    1    3    3    0    0  0.37847688374E+01  0.25810322793E+02 -0.34686106700E+02  0.43400728517E+02  0.00000000000E+00 0.  1.
         11    1    4    4    0    0 -0.34837684542E+01 -0.10679920012E+02  0.15986093868E+02  0.19538488466E+02  0.51100000000E-03 0. -1.
        -11    1    4    4    0    0 -0.60786409251E+01 -0.13405699087E+02  0.15675666245E+02  0.21503235942E+02  0.51100000000E-03 0.  1.
        -12    1    4    4    0    0  0.57776405419E+01 -0.17247036936E+01  0.30243465871E+01  0.67455470750E+01  0.00000000000E+00 0.  1.
</event>
<event>
 8    1  0.1164123E-009  0.9118800E+02  0.7816164E-02  0.1184000E+00
        -11   -1    0    0    0    0  0.00000000000E+00  0.00000000000E+00  0.45593999997E+02  0.45594000000E+02  0.51100000000E-03 0. -1.
         11   -1    0    0    0    0 -0.00000000000E+00 -0.00000000000E+00 -0.45593999997E+02  0.45594000000E+02  0.51100000000E-03 0.  1.
         23    2    1    2    0    0 -0.44408920985E-15  0.00000000000E+00  0.00000000000E+00  0.91188000000E+02  0.91188000000E+02 0.  0.
    9900012    2    3    3    0    0  0.23107789636E+01  0.11050472230E+02  0.41906686282E+02  0.47787274303E+02  0.20000014856E+02 0.  0.
        -12    1    3    3    0    0 -0.23107789636E+01 -0.11050472230E+02 -0.41906686282E+02  0.43400725697E+02  0.00000000000E+00 0.  1.
         11    1    4    4    0    0 -0.42726558186E+01  0.12172244925E+02  0.22388768670E+02  0.25839429117E+02  0.51100000000E-03 0. -1.
        -11    1    4    4    0    0  0.30467318735E+01  0.27501095584E+01  0.12698219699E+02  0.13345053821E+02  0.51100000000E-03 0.  1.
        -12    1    4    4    0    0  0.35367029087E+01 -0.38718822535E+01  0.68196979128E+01  0.86027913650E+01  0.00000000000E+00 0.  1.
</event>
<event>
 8    1  0.1164123E-009  0.9118800E+02  0.7816164E-02  0.1184000E+00
        -11   -1    0    0    0    0  0.00000000000E+00  0.00000000000E+00  0.45593999997E+02  0.45594000000E+02  0.51100000000E-03 0. -1.
         11   -1    0    0    0    0 -0.00000000000E+00 -0.00000000000E+00 -0.45593999997E+02  0.45594000000E+02  0.51100000000E-03 0.  1.
         23    2    1    2    0    0  0.00000000000E+00  0.00000000000E+00  0.00000000000E+00  0.91188000000E+02  0.91188000000E+02 0.  0.
    9900012    2    3    3    0    0 -0.37580020692E+02 -0.10489880613E+02  0.19008624420E+02  0.47787270135E+02  0.19999995853E+02 0.  0.
        -12    1    3    3    0    0  0.37580020692E+02  0.10489880613E+02 -0.19008624420E+02  0.43400729865E+02  0.00000000000E+00 0.  1.
         11    1    4    4    0    0 -0.25230725895E+02 -0.42693110904E+01  0.68744120629E+01  0.26496680695E+02  0.51100000000E-03 0. -1.
        -11    1    4    4    0    0 -0.71547866306E+01 -0.53578133847E+01  0.10256136926E+01  0.89971673155E+01  0.51100000000E-03 0.  1.
        -12    1    4    4    0    0 -0.51945081667E+01 -0.86275613799E+00  0.11108598665E+02  0.12293422125E+02  0.00000000000E+00 0.  1.
</event>
<event>
 8    1  0.1164123E-009  0.9118800E+02  0.7816164E-02  0.1184000E+00
        -11   -1    0    0    0    0  0.00000000000E+00  0.00000000000E+00  0.45593999997E+02  0.45594000000E+02  0.51100000000E-03 0.  1.
         11   -1    0    0    0    0 -0.00000000000E+00 -0.00000000000E+00 -0.45593999997E+02  0.45594000000E+02  0.51100000000E-03 0. -1.
         23    2    1    2    0    0 -0.35527136788E-14  0.00000000000E+00  0.00000000000E+00  0.91188000000E+02  0.91188000000E+02 0.  0.
    9900012    2    3    3    0    0  0.26406020154E+02  0.23882006754E+02 -0.24819244995E+02  0.47787273403E+02  0.20000010755E+02 0.  0.
         12    1    3    3    0    0 -0.26406020154E+02 -0.23882006754E+02  0.24819244995E+02  0.43400726597E+02  0.00000000000E+00 0. -1.
         11    1    4    4    0    0  0.29816898612E+00 -0.11771375798E+01 -0.40875172092E+01  0.42640772534E+01  0.51100000000E-03 0. -1.
        -11    1    4    4    0    0  0.33023609478E+01  0.10779802847E+02 -0.74792849114E+01  0.13529576501E+02  0.51100000000E-03 0.  1.
         12    1    4    4    0    0  0.22805490220E+02  0.14279341486E+02 -0.13252442875E+02  0.29993619649E+02  0.00000000000E+00 0. -1.
</event>
<event>
 8    1  0.1164123E-009  0.9118800E+02  0.7816164E-02  0.1184000E+00
        -11   -1    0    0    0    0  0.00000000000E+00  0.00000000000E+00  0.45593999997E+02  0.45594000000E+02  0.51100000000E-03 0. -1.
         11   -1    0    0    0    0 -0.00000000000E+00 -0.00000000000E+00 -0.45593999997E+02  0.45594000000E+02  0.51100000000E-03 0.  1.
         23    2    1    2    0    0  0.00000000000E+00 -0.35527136788E-14 -0.35527136788E-14  0.91188000000E+02  0.91188000000E+02 0.  0.
    9900012    2    3    3    0    0  0.59015779594E+01 -0.31951651407E+02  0.28773018133E+02  0.47787271636E+02  0.20000002696E+02 0.  0.
        -12    1    3    3    0    0 -0.59015779594E+01  0.31951651407E+02 -0.28773018133E+02  0.43400728364E+02  0.00000000000E+00 0.  1.
         11    1    4    4    0    0  0.19539859858E+01 -0.25720366996E+02  0.20001132519E+02  0.32640475516E+02  0.51100000000E-03 0. -1.
        -11    1    4    4    0    0  0.66416213785E-01 -0.53143075777E+01  0.96924011258E+01  0.11053909534E+02  0.51100000000E-03 0.  1.
         12    1    4    4    0    0  0.38811757598E+01 -0.91697683360E+00 -0.92051551164E+00  0.40928865852E+01  0.00000000000E+00 0. -1.
</event>
<event>
 8    1  0.1164123E-009  0.9118800E+02  0.7816164E-02  0.1184000E+00
        -11   -1    0    0    0    0  0.00000000000E+00  0.00000000000E+00  0.45593999997E+02  0.45594000000E+02  0.51100000000E-03 0. -1.
         11   -1    0    0    0    0 -0.00000000000E+00 -0.00000000000E+00 -0.45593999997E+02  0.45594000000E+02  0.51100000000E-03 0.  1.
         23    2    1    2    0    0  0.35527136788E-14  0.00000000000E+00  0.00000000000E+00  0.91188000000E+02  0.91188000000E+02 0.  0.
    9900012    2    3    3    0    0 -0.18630313142E+02 -0.12803395883E+02  0.37048700125E+02  0.47787289236E+02  0.20000082941E+02 0.  0.
        -12    1    3    3    0    0  0.18630313142E+02  0.12803395883E+02 -0.37048700125E+02  0.43400710764E+02  0.00000000000E+00 0.  1.
         11    1    4    4    0    0 -0.41930618760E+01 -0.24890492570E+01  0.20969673506E+02  0.21529150966E+02  0.51100000000E-03 0. -1.
        -11    1    4    4    0    0 -0.41257377042E-01  0.18221399858E+01  0.22532442911E+01  0.28981039311E+01  0.51100000000E-03 0.  1.
         12    1    4    4    0    0 -0.14395993889E+02 -0.12136486612E+02  0.13825782328E+02  0.23360034339E+02  0.00000000000E+00 0. -1.
</event>
<event>
 8    1  0.1164123E-009  0.9118800E+02  0.7816164E-02  0.1184000E+00
        -11   -1    0    0    0    0  0.00000000000E+00  0.00000000000E+00  0.45593999997E+02  0.45594000000E+02  0.51100000000E-03 0. -1.
         11   -1    0    0    0    0 -0.00000000000E+00 -0.00000000000E+00 -0.45593999997E+02  0.45594000000E+02  0.51100000000E-03 0.  1.
         23    2    1    2    0    0  0.44408920985E-15  0.17763568394E-14  0.00000000000E+00  0.91188000000E+02  0.91188000000E+02 0.  0.
    9900012    2    3    3    0    0  0.14658604930E+01 -0.12793123565E+02  0.41446480249E+02  0.47787268640E+02  0.19999989037E+02 0.  0.
        -12    1    3    3    0    0 -0.14658604930E+01  0.12793123565E+02 -0.41446480249E+02  0.43400731360E+02  0.00000000000E+00 0.  1.
         11    1    4    4    0    0  0.21361188111E+01 -0.50448754265E+01  0.28849634131E+02  0.29365203241E+02  0.51100000000E-03 0. -1.
        -11    1    4    4    0    0  0.20215623738E+01 -0.88340289625E+01  0.12598747483E+02  0.15519510963E+02  0.51100000000E-03 0.  1.
        -12    1    4    4    0    0 -0.26918206919E+01  0.10857808240E+01 -0.19013647437E-02  0.29025544353E+01  0.00000000000E+00 0.  1.
</event>
<event>
 8    1  0.1164123E-009  0.9118800E+02  0.7816164E-02  0.1184000E+00
        -11   -1    0    0    0    0  0.00000000000E+00  0.00000000000E+00  0.45593999997E+02  0.45594000000E+02  0.51100000000E-03 0. -1.
         11   -1    0    0    0    0 -0.00000000000E+00 -0.00000000000E+00 -0.45593999997E+02  0.45594000000E+02  0.51100000000E-03 0.  1.
         23    2    1    2    0    0  0.00000000000E+00  0.00000000000E+00  0.00000000000E+00  0.91188000000E+02  0.91188000000E+02 0.  0.
    9900012    2    3    3    0    0 -0.10106199274E+02 -0.28409380202E+02  0.31215303933E+02  0.47787270204E+02  0.19999996167E+02 0.  0.
        -12    1    3    3    0    0  0.10106199274E+02  0.28409380202E+02 -0.31215303933E+02  0.43400729796E+02  0.00000000000E+00 0.  1.
         11    1    4    4    0    0 -0.93860859037E+01 -0.41167180562E+01  0.98837705997E+01  0.14238500542E+02  0.51100000000E-03 0. -1.
        -11    1    4    4    0    0  0.50382761414E+00 -0.35323191716E+01  0.82282705105E+01  0.89685872271E+01  0.51100000000E-03 0.  1.
        -12    1    4    4    0    0 -0.12239409845E+01 -0.20760342974E+02  0.13103262823E+02  0.24580182435E+02  0.00000000000E+00 0.  1.
</event>
<event>
 8    1  0.1164123E-009  0.9118800E+02  0.7816164E-02  0.1184000E+00
        -11   -1    0    0    0    0  0.00000000000E+00  0.00000000000E+00  0.45593999997E+02  0.45594000000E+02  0.51100000000E-03 0. -1.
         11   -1    0    0    0    0 -0.00000000000E+00 -0.00000000000E+00 -0.45593999997E+02  0.45594000000E+02  0.51100000000E-03 0.  1.
         23    2    1    2    0    0 -0.35527136788E-14  0.17763568394E-14  0.00000000000E+00  0.91188000000E+02  0.91188000000E+02 0.  0.
    9900012    2    3    3    0    0  0.26927055545E+02 -0.95900174328E+01 -0.32658664099E+02  0.47787273100E+02  0.20000009374E+02 0.  0.
         12    1    3    3    0    0 -0.26927055545E+02  0.95900174328E+01  0.32658664099E+02  0.43400726900E+02  0.00000000000E+00 0. -1.
         11    1    4    4    0    0  0.13196173884E+02 -0.10738457587E+02 -0.12791460092E+02  0.21285556795E+02  0.51100000000E-03 0. -1.
        -11    1    4    4    0    0  0.12408247170E+02 -0.32462771647E+01 -0.13175374314E+02  0.18387316330E+02  0.51100000000E-03 0.  1.
         12    1    4    4    0    0  0.13226344906E+01  0.43947173190E+01 -0.66918296937E+01  0.81143999753E+01  0.00000000000E+00 0. -1.
</event>
<event>
 8    1  0.1164123E-009  0.9118800E+02  0.7816164E-02  0.1184000E+00
        -11   -1    0    0    0    0  0.00000000000E+00  0.00000000000E+00  0.45593999997E+02  0.45594000000E+02  0.51100000000E-03 0. -1.
         11   -1    0    0    0    0 -0.00000000000E+00 -0.00000000000E+00 -0.45593999997E+02  0.45594000000E+02  0.51100000000E-03 0.  1.
         23    2    1    2    0    0  0.00000000000E+00  0.00000000000E+00  0.00000000000E+00  0.91188000000E+02  0.91188000000E+02 0.  0.
    9900012    2    3    3    0    0 -0.63034407668E+01  0.28898515904E+01  0.42843189563E+02  0.47787268443E+02  0.19999988140E+02 0.  0.
        -12    1    3    3    0    0  0.63034407668E+01 -0.28898515904E+01 -0.42843189563E+02  0.43400731557E+02  0.00000000000E+00 0.  1.
         11    1    4    4    0    0 -0.24803072944E+01  0.88636345691E+01  0.16181227828E+02  0.18615801791E+02  0.51100000000E-03 0. -1.
        -11    1    4    4    0    0 -0.22408032626E+01  0.47160639275E+00  0.18548597428E+02  0.18689410870E+02  0.51100000000E-03 0.  1.
        -12    1    4    4    0    0 -0.15823302098E+01 -0.64453893714E+01  0.81133643072E+01  0.10482055782E+02  0.00000000000E+00 0.  1.
</event>
<event>
 8    1  0.1164123E-009  0.9118800E+02  0.7816164E-02  0.1184000E+00
        -11   -1    0    0    0    0  0.00000000000E+00  0.00000000000E+00  0.45593999997E+02  0.45594000000E+02  0.51100000000E-03 0.  1.
         11   -1    0    0    0    0 -0.00000000000E+00 -0.00000000000E+00 -0.45593999997E+02  0.45594000000E+02  0.51100000000E-03 0. -1.
         23    2    1    2    0    0  0.88817841970E-15  0.00000000000E+00  0.00000000000E+00  0.91188000000E+02  0.91188000000E+02 0.  0.
    9900012    2    3    3    0    0  0.41150011050E+01  0.40696258075E+02 -0.14508775237E+02  0.47787271731E+02  0.20000003131E+02 0.  0.
         12    1    3    3    0    0 -0.41150011050E+01 -0.40696258075E+02  0.14508775237E+02  0.43400728269E+02  0.00000000000E+00 0. -1.
         11    1    4    4    0    0  0.42979439043E+01  0.86553987822E+01 -0.10392784576E+02  0.14191484115E+02  0.51100000000E-03 0. -1.
        -11    1    4    4    0    0  0.37616826792E+01  0.65979312031E+01 -0.10396201625E+01  0.76657526104E+01  0.51100000000E-03 0.  1.
        -12    1    4    4    0    0 -0.39446254785E+01  0.25442928090E+02 -0.30763704979E+01  0.25930035005E+02  0.00000000000E+00 0.  1.
</event>
<event>
 8    1  0.1164123E-009  0.9118800E+02  0.7816164E-02  0.1184000E+00
        -11   -1    0    0    0    0  0.00000000000E+00  0.00000000000E+00  0.45593999997E+02  0.45594000000E+02  0.51100000000E-03 0. -1.
         11   -1    0    0    0    0 -0.00000000000E+00 -0.00000000000E+00 -0.45593999997E+02  0.45594000000E+02  0.51100000000E-03 0.  1.
         23    2    1    2    0    0  0.00000000000E+00  0.00000000000E+00  0.00000000000E+00  0.91188000000E+02  0.91188000000E+02 0.  0.
    9900012    2    3    3    0    0  0.36117503005E+02  0.44695083789E+01 -0.23646851798E+02  0.47787261200E+02  0.19999955114E+02 0.  0.
         12    1    3    3    0    0 -0.36117503005E+02 -0.44695083789E+01  0.23646851798E+02  0.43400738800E+02  0.00000000000E+00 0. -1.
         11    1    4    4    0    0  0.75644645599E+01  0.35793436051E+01 -0.16292878783E+00  0.83701475956E+01  0.51100000000E-03 0. -1.
        -11    1    4    4    0    0  0.10870691477E+02  0.68356438459E+01 -0.76429606887E+01  0.14943654450E+02  0.51100000000E-03 0.  1.
         12    1    4    4    0    0  0.17682346968E+02 -0.59454790721E+01 -0.15840962321E+02  0.24473459154E+02  0.00000000000E+00 0. -1.
</event>
<event>
 8    1  0.1164123E-009  0.9118800E+02  0.7816164E-02  0.1184000E+00
        -11   -1    0    0    0    0  0.00000000000E+00  0.00000000000E+00  0.45593999997E+02  0.45594000000E+02  0.51100000000E-03 0. -1.
         11   -1    0    0    0    0 -0.00000000000E+00 -0.00000000000E+00 -0.45593999997E+02  0.45594000000E+02  0.51100000000E-03 0.  1.
         23    2    1    2    0    0 -0.35527136788E-14 -0.88817841970E-15  0.35527136788E-14  0.91188000000E+02  0.91188000000E+02 0.  0.
    9900012    2    3    3    0    0  0.30129462250E+02  0.62414958952E+01 -0.30608544631E+02  0.47787265318E+02  0.19999973892E+02 0.  0.
         12    1    3    3    0    0 -0.30129462250E+02 -0.62414958952E+01  0.30608544631E+02  0.43400734682E+02  0.00000000000E+00 0. -1.
         11    1    4    4    0    0  0.83898870626E+01 -0.32325503586E+01 -0.83604058942E+01  0.12277457950E+02  0.51100000000E-03 0. -1.
        -11    1    4    4    0    0  0.93487818817E+00 -0.31757451780E+01 -0.30781207793E+01  0.45204183938E+01  0.51100000000E-03 0.  1.
        -12    1    4    4    0    0  0.20804696999E+02  0.12649791432E+02 -0.19170017958E+02  0.30989388974E+02  0.00000000000E+00 0.  1.
</event>
<event>
 8    1  0.1164123E-009  0.9118800E+02  0.7816164E-02  0.1184000E+00
        -11   -1    0    0    0    0  0.00000000000E+00  0.00000000000E+00  0.45593999997E+02  0.45594000000E+02  0.51100000000E-03 0. -1.
         11   -1    0    0    0    0 -0.00000000000E+00 -0.00000000000E+00 -0.45593999997E+02  0.45594000000E+02  0.51100000000E-03 0.  1.
         23    2    1    2    0    0  0.00000000000E+00  0.00000000000E+00  0.00000000000E+00  0.91188000000E+02  0.91188000000E+02 0.  0.
    9900012    2    3    3    0    0 -0.99605891536E+01  0.38172548845E+02 -0.18090550238E+02  0.47787253123E+02  0.19999918288E+02 0.  0.
         12    1    3    3    0    0  0.99605891536E+01 -0.38172548845E+02  0.18090550238E+02  0.43400746877E+02  0.00000000000E+00 0. -1.
         11    1    4    4    0    0 -0.15627911191E+00  0.12265916129E+01  0.15260597354E+01  0.19641305259E+01  0.51100000000E-03 0. -1.
        -11    1    4    4    0    0 -0.32386179056E+01  0.32808747216E+02 -0.12391765069E+02  0.35220141704E+02  0.51100000000E-03 0.  1.
         12    1    4    4    0    0 -0.65656921361E+01  0.41372100158E+01 -0.72248449035E+01  0.10602980893E+02  0.00000000000E+00 0. -1.
</event>
<event>
 8    1  0.1164123E-009  0.9118800E+02  0.7816164E-02  0.1184000E+00
        -11   -1    0    0    0    0  0.00000000000E+00  0.00000000000E+00  0.45593999997E+02  0.45594000000E+02  0.51100000000E-03 0. -1.
         11   -1    0    0    0    0 -0.00000000000E+00 -0.00000000000E+00 -0.45593999997E+02  0.45594000000E+02  0.51100000000E-03 0.  1.
         23    2    1    2    0    0  0.35527136788E-14  0.35527136788E-14  0.00000000000E+00  0.91188000000E+02  0.91188000000E+02 0.  0.
    9900012    2    3    3    0    0 -0.28704397651E+02 -0.27681178586E+02 -0.17129887382E+02  0.47787272654E+02  0.20000007341E+02 0.  0.
         12    1    3    3    0    0  0.28704397651E+02  0.27681178586E+02  0.17129887382E+02  0.43400727346E+02  0.00000000000E+00 0. -1.
         11    1    4    4    0    0 -0.36206211095E+01  0.95124969488E-02  0.17247062464E+00  0.36247391746E+01  0.51100000000E-03 0. -1.
        -11    1    4    4    0    0 -0.77547890217E+01 -0.11484130352E+02 -0.14847531878E+02  0.20309387136E+02  0.51100000000E-03 0.  1.
         12    1    4    4    0    0 -0.17328987519E+02 -0.16206560731E+02 -0.24548261290E+01  0.23853146344E+02  0.00000000000E+00 0. -1.
</event>
<event>
 8    1  0.1164123E-009  0.9118800E+02  0.7816164E-02  0.1184000E+00
        -11   -1    0    0    0    0  0.00000000000E+00  0.00000000000E+00  0.45593999997E+02  0.45594000000E+02  0.51100000000E-03 0. -1.
         11   -1    0    0    0    0 -0.00000000000E+00 -0.00000000000E+00 -0.45593999997E+02  0.45594000000E+02  0.51100000000E-03 0.  1.
         23    2    1    2    0    0  0.00000000000E+00  0.00000000000E+00 -0.35527136788E-14  0.91188000000E+02  0.91188000000E+02 0.  0.
    9900012    2    3    3    0    0 -0.16950094548E+02 -0.33563157842E+02 -0.21675608426E+02  0.47787271087E+02  0.20000000194E+02 0.  0.
         12    1    3    3    0    0  0.16950094548E+02  0.33563157842E+02  0.21675608426E+02  0.43400728913E+02  0.00000000000E+00 0. -1.
         11    1    4    4    0    0 -0.17852196467E+02 -0.13762977436E+02 -0.97908627921E+01  0.24576034283E+02  0.51100000000E-03 0. -1.
        -11    1    4    4    0    0  0.92829077175E+00 -0.10367415600E+02 -0.50953354365E+01  0.11589110124E+02  0.51100000000E-03 0.  1.
         12    1    4    4    0    0 -0.26188852269E-01 -0.94327648064E+01 -0.67894101977E+01  0.11622126681E+02  0.00000000000E+00 0. -1.
</event>
<event>
 8    1  0.1164123E-009  0.9118800E+02  0.7816164E-02  0.1184000E+00
        -11   -1    0    0    0    0  0.00000000000E+00  0.00000000000E+00  0.45593999997E+02  0.45594000000E+02  0.51100000000E-03 0. -1.
         11   -1    0    0    0    0 -0.00000000000E+00 -0.00000000000E+00 -0.45593999997E+02  0.45594000000E+02  0.51100000000E-03 0.  1.
         23    2    1    2    0    0  0.17763568394E-14  0.00000000000E+00  0.71054273576E-14  0.91188000000E+02  0.91188000000E+02 0.  0.
    9900012    2    3    3    0    0  0.10712705913E+02  0.72263617714E+01  0.41432359584E+02  0.47787276583E+02  0.20000025253E+02 0.  0.
        -12    1    3    3    0    0 -0.10712705913E+02 -0.72263617714E+01 -0.41432359584E+02  0.43400723417E+02  0.00000000000E+00 0.  1.
         11    1    4    4    0    0 -0.44334743098E+00  0.74630193079E+01  0.27374053246E+02  0.28376610184E+02  0.51100000000E-03 0. -1.
        -11    1    4    4    0    0  0.34448623596E+01  0.33670793557E+01  0.42486787282E+01  0.64230499967E+01  0.51100000000E-03 0.  1.
         12    1    4    4    0    0  0.77111909844E+01 -0.36037368921E+01  0.98096276097E+01  0.12987616403E+02  0.00000000000E+00 0. -1.
</event>
<event>
 8    1  0.1164123E-009  0.9118800E+02  0.7816164E-02  0.1184000E+00
        -11   -1    0    0    0    0  0.00000000000E+00  0.00000000000E+00  0.45593999997E+02  0.45594000000E+02  0.51100000000E-03 0. -1.
         11   -1    0    0    0    0 -0.00000000000E+00 -0.00000000000E+00 -0.45593999997E+02  0.45594000000E+02  0.51100000000E-03 0.  1.
         23    2    1    2    0    0  0.71054273576E-14  0.00000000000E+00  0.00000000000E+00  0.91188000000E+02  0.91188000000E+02 0.  0.
    9900012    2    3    3    0    0 -0.37896154026E+02  0.10594750908E+02  0.18309999643E+02  0.47787270470E+02  0.19999997381E+02 0.  0.
        -12    1    3    3    0    0  0.37896154026E+02 -0.10594750908E+02 -0.18309999643E+02  0.43400729530E+02  0.00000000000E+00 0.  1.
         11    1    4    4    0    0 -0.13571029160E+01  0.46681455708E+00 -0.23374199527E+01  0.27428409454E+01  0.51100000000E-03 0. -1.
        -11    1    4    4    0    0  0.18973582741E+00  0.11152587696E+01  0.32024454739E+01  0.33963891240E+01  0.51100000000E-03 0.  1.
         12    1    4    4    0    0 -0.36728786938E+02  0.90126775817E+01  0.17444974121E+02  0.41648040401E+02  0.00000000000E+00 0. -1.
</event>
<event>
 8    1  0.1164123E-009  0.9118800E+02  0.7816164E-02  0.1184000E+00
        -11   -1    0    0    0    0  0.00000000000E+00  0.00000000000E+00  0.45593999997E+02  0.45594000000E+02  0.51100000000E-03 0. -1.
         11   -1    0    0    0    0 -0.00000000000E+00 -0.00000000000E+00 -0.45593999997E+02  0.45594000000E+02  0.51100000000E-03 0.  1.
         23    2    1    2    0    0  0.00000000000E+00  0.00000000000E+00  0.00000000000E+00  0.91188000000E+02  0.91188000000E+02 0.  0.
    9900012    2    3    3    0    0  0.19369572371E+02 -0.27229577672E+02 -0.27694641737E+02  0.47787269419E+02  0.19999992589E+02 0.  0.
         12    1    3    3    0    0 -0.19369572371E+02  0.27229577672E+02  0.27694641737E+02  0.43400730581E+02  0.00000000000E+00 0. -1.
         11    1    4    4    0    0  0.70120046810E+01 -0.87515756602E+01 -0.10181545520E+02  0.15146687942E+02  0.51100000000E-03 0. -1.
        -11    1    4    4    0    0  0.13646835783E+02 -0.77709786635E+01 -0.58573049824E+01  0.16761033924E+02  0.51100000000E-03 0.  1.
         12    1    4    4    0    0 -0.12892680928E+01 -0.10707023348E+02 -0.11655791234E+02  0.15879547553E+02  0.00000000000E+00 0. -1.
</event>
<event>
 8    1  0.1164123E-009  0.9118800E+02  0.7816164E-02  0.1184000E+00
        -11   -1    0    0    0    0  0.00000000000E+00  0.00000000000E+00  0.45593999997E+02  0.45594000000E+02  0.51100000000E-03 0. -1.
         11   -1    0    0    0    0 -0.00000000000E+00 -0.00000000000E+00 -0.45593999997E+02  0.45594000000E+02  0.51100000000E-03 0.  1.
         23    2    1    2    0    0  0.00000000000E+00  0.00000000000E+00  0.00000000000E+00  0.91188000000E+02  0.91188000000E+02 0.  0.
    9900012    2    3    3    0    0 -0.26950915771E+02 -0.15536388505E+02 -0.30263706443E+02  0.47787272398E+02  0.20000006173E+02 0.  0.
         12    1    3    3    0    0  0.26950915771E+02  0.15536388505E+02  0.30263706443E+02  0.43400727602E+02  0.00000000000E+00 0. -1.
         11    1    4    4    0    0 -0.18924168905E+00 -0.56325088587E+01 -0.92896937185E+01  0.10865513246E+02  0.51100000000E-03 0. -1.
        -11    1    4    4    0    0 -0.55842222670E+01 -0.61240825862E+01 -0.92595072094E+01  0.12426841911E+02  0.51100000000E-03 0.  1.
         12    1    4    4    0    0 -0.21177451815E+02 -0.37797970604E+01 -0.11714505515E+02  0.24494917241E+02  0.00000000000E+00 0. -1.
</event>
<event>
 8    1  0.1164123E-009  0.9118800E+02  0.7816164E-02  0.1184000E+00
        -11   -1    0    0    0    0  0.00000000000E+00  0.00000000000E+00  0.45593999997E+02  0.45594000000E+02  0.51100000000E-03 0. -1.
         11   -1    0    0    0    0 -0.00000000000E+00 -0.00000000000E+00 -0.45593999997E+02  0.45594000000E+02  0.51100000000E-03 0.  1.
         23    2    1    2    0    0  0.00000000000E+00  0.00000000000E+00  0.00000000000E+00  0.91188000000E+02  0.91188000000E+02 0.  0.
    9900012    2    3    3    0    0  0.37493624669E+01 -0.27643647143E+02  0.33247460559E+02  0.47787279039E+02  0.20000036453E+02 0.  0.
        -12    1    3    3    0    0 -0.37493624669E+01  0.27643647143E+02 -0.33247460559E+02  0.43400720961E+02  0.00000000000E+00 0.  1.
         11    1    4    4    0    0  0.50390550522E+00 -0.46273274884E+01  0.13985311530E+02  0.14739573239E+02  0.51100000000E-03 0. -1.
        -11    1    4    4    0    0  0.73396835212E+01 -0.67343718347E+01  0.85955516888E+01  0.13156983974E+02  0.51100000000E-03 0.  1.
         12    1    4    4    0    0 -0.40942265596E+01 -0.16281947820E+02  0.10666597341E+02  0.19890721826E+02  0.00000000000E+00 0. -1.
</event>
<event>
 8    1  0.1164123E-009  0.9118800E+02  0.7816164E-02  0.1184000E+00
        -11   -1    0    0    0    0  0.00000000000E+00  0.00000000000E+00  0.45593999997E+02  0.45594000000E+02  0.51100000000E-03 0. -1.
         11   -1    0    0    0    0 -0.00000000000E+00 -0.00000000000E+00 -0.45593999997E+02  0.45594000000E+02  0.51100000000E-03 0.  1.
         23    2    1    2    0    0 -0.17763568394E-14 -0.71054273576E-14  0.35527136788E-14  0.91188000000E+02  0.91188000000E+02 0.  0.
    9900012    2    3    3    0    0  0.11435849673E+02  0.35991488404E+02 -0.21388242448E+02  0.47787276385E+02  0.20000024351E+02 0.  0.
         12    1    3    3    0    0 -0.11435849673E+02 -0.35991488404E+02  0.21388242448E+02  0.43400723615E+02  0.00000000000E+00 0. -1.
         11    1    4    4    0    0  0.10143965347E+02  0.14147874424E+02 -0.10465357427E+02  0.20312215291E+02  0.51100000000E-03 0. -1.
        -11    1    4    4    0    0  0.28182201046E+01  0.20099480313E+02 -0.13211975929E+02  0.24217509815E+02  0.51100000000E-03 0.  1.
         12    1    4    4    0    0 -0.15263357789E+01  0.17441336664E+01  0.22890909077E+01  0.32575512797E+01  0.00000000000E+00 0. -1.
</event>
<event>
 8    1  0.1164123E-009  0.9118800E+02  0.7816164E-02  0.1184000E+00
        -11   -1    0    0    0    0  0.00000000000E+00  0.00000000000E+00  0.45593999997E+02  0.45594000000E+02  0.51100000000E-03 0.  1.
         11   -1    0    0    0    0 -0.00000000000E+00 -0.00000000000E+00 -0.45593999997E+02  0.45594000000E+02  0.51100000000E-03 0. -1.
         23    2    1    2    0    0  0.00000000000E+00  0.00000000000E+00  0.00000000000E+00  0.91188000000E+02  0.91188000000E+02 0.  0.
    9900012    2    3    3    0    0  0.18310976510E+01  0.39015980246E+02  0.18921478607E+02  0.47787285883E+02  0.20000067656E+02 0.  0.
        -12    1    3    3    0    0 -0.18310976510E+01 -0.39015980246E+02 -0.18921478607E+02  0.43400714117E+02  0.00000000000E+00 0.  1.
         11    1    4    4    0    0 -0.10678948975E+01  0.22319363080E+02  0.63859454006E+01  0.23239506594E+02  0.51100000000E-03 0. -1.
        -11    1    4    4    0    0 -0.16150140499E+01  0.12568630940E+01 -0.20042469638E+01  0.28644338658E+01  0.51100000000E-03 0.  1.
        -12    1    4    4    0    0  0.45140065985E+01  0.15439754072E+02  0.14539780170E+02  0.21683345424E+02  0.00000000000E+00 0.  1.
</event>
<event>
 8    1  0.1164123E-009  0.9118800E+02  0.7816164E-02  0.1184000E+00
        -11   -1    0    0    0    0  0.00000000000E+00  0.00000000000E+00  0.45593999997E+02  0.45594000000E+02  0.51100000000E-03 0. -1.
         11   -1    0    0    0    0 -0.00000000000E+00 -0.00000000000E+00 -0.45593999997E+02  0.45594000000E+02  0.51100000000E-03 0.  1.
         23    2    1    2    0    0  0.44408920985E-15  0.00000000000E+00  0.00000000000E+00  0.91188000000E+02  0.91188000000E+02 0.  0.
    9900012    2    3    3    0    0  0.25892801981E+01 -0.17014636090E+02 -0.39842453384E+02  0.47787270687E+02  0.19999998370E+02 0.  0.
         12    1    3    3    0    0 -0.25892801981E+01  0.17014636090E+02  0.39842453384E+02  0.43400729313E+02  0.00000000000E+00 0. -1.
         11    1    4    4    0    0  0.15745803779E+01 -0.47173335374E+01 -0.44584230882E+01  0.66790774635E+01  0.51100000000E-03 0. -1.
        -11    1    4    4    0    0  0.28715739336E+01 -0.95313927584E+01 -0.61845854864E+01  0.11719320913E+02  0.51100000000E-03 0.  1.
        -12    1    4    4    0    0 -0.18568741134E+01 -0.27659097946E+01 -0.29199444810E+02  0.29388872310E+02  0.00000000000E+00 0.  1.
</event>
<event>
 8    1  0.1164123E-009  0.9118800E+02  0.7816164E-02  0.1184000E+00
        -11   -1    0    0    0    0  0.00000000000E+00  0.00000000000E+00  0.45593999997E+02  0.45594000000E+02  0.51100000000E-03 0.  1.
         11   -1    0    0    0    0 -0.00000000000E+00 -0.00000000000E+00 -0.45593999997E+02  0.45594000000E+02  0.51100000000E-03 0. -1.
         23    2    1    2    0    0 -0.35527136788E-14  0.00000000000E+00  0.00000000000E+00  0.91188000000E+02  0.91188000000E+02 0.  0.
    9900012    2    3    3    0    0 -0.20542987711E+02 -0.37794748236E+02  0.57589922342E+01  0.47787270400E+02  0.19999997060E+02 0.  0.
        -12    1    3    3    0    0  0.20542987711E+02  0.37794748236E+02 -0.57589922342E+01  0.43400729600E+02  0.00000000000E+00 0.  1.
         11    1    4    4    0    0 -0.13692385769E+02 -0.13388309821E+02 -0.20809584455E+01  0.19262882864E+02  0.51100000000E-03 0. -1.
        -11    1    4    4    0    0  0.67227157771E+00  0.82202452822E+00  0.23015999573E-01  0.10621691939E+01  0.51100000000E-03 0.  1.
         12    1    4    4    0    0 -0.75228735194E+01 -0.25228462942E+02  0.78169346801E+01  0.27462218341E+02  0.00000000000E+00 0. -1.
</event>
<event>
 8    1  0.1164123E-009  0.9118800E+02  0.7816164E-02  0.1184000E+00
        -11   -1    0    0    0    0  0.00000000000E+00  0.00000000000E+00  0.45593999997E+02  0.45594000000E+02  0.51100000000E-03 0. -1.
         11   -1    0    0    0    0 -0.00000000000E+00 -0.00000000000E+00 -0.45593999997E+02  0.45594000000E+02  0.51100000000E-03 0.  1.
         23    2    1    2    0    0  0.00000000000E+00  0.00000000000E+00  0.00000000000E+00  0.91188000000E+02  0.91188000000E+02 0.  0.
    9900012    2    3    3    0    0 -0.12344276639E+02  0.48700376951E+01  0.41322203614E+02  0.47787274840E+02  0.20000017307E+02 0.  0.
        -12    1    3    3    0    0  0.12344276639E+02 -0.48700376951E+01 -0.41322203614E+02  0.43400725160E+02  0.00000000000E+00 0.  1.
         11    1    4    4    0    0  0.17357634137E+01  0.30113809893E+01  0.22888578377E+02  0.23150989406E+02  0.51100000000E-03 0. -1.
        -11    1    4    4    0    0 -0.41082813537E+01 -0.14675181592E+01  0.10791916174E+02  0.11640319591E+02  0.51100000000E-03 0.  1.
         12    1    4    4    0    0 -0.99717586994E+01  0.33261748650E+01  0.76417090626E+01  0.12995965843E+02  0.00000000000E+00 0. -1.
</event>
<event>
 8    1  0.1164123E-009  0.9118800E+02  0.7816164E-02  0.1184000E+00
        -11   -1    0    0    0    0  0.00000000000E+00  0.00000000000E+00  0.45593999997E+02  0.45594000000E+02  0.51100000000E-03 0. -1.
         11   -1    0    0    0    0 -0.00000000000E+00 -0.00000000000E+00 -0.45593999997E+02  0.45594000000E+02  0.51100000000E-03 0.  1.
         23    2    1    2    0    0 -0.17763568394E-14  0.17763568394E-14  0.00000000000E+00  0.91188000000E+02  0.91188000000E+02 0.  0.
    9900012    2    3    3    0    0  0.13711940904E+02 -0.10561146313E+02 -0.39800354759E+02  0.47787269894E+02  0.19999994754E+02 0.  0.
         12    1    3    3    0    0 -0.13711940904E+02  0.10561146313E+02  0.39800354759E+02  0.43400730106E+02  0.00000000000E+00 0. -1.
         11    1    4    4    0    0  0.72722640232E+01 -0.56606309710E+00 -0.16951260146E+02  0.18454036747E+02  0.51100000000E-03 0. -1.
        -11    1    4    4    0    0  0.74351463348E+01 -0.26378414457E+00 -0.49517258384E+01  0.89370337436E+01  0.51100000000E-03 0.  1.
        -12    1    4    4    0    0 -0.99546945438E+00 -0.97312990711E+01 -0.17897368775E+02  0.20396199404E+02  0.00000000000E+00 0.  1.
</event>
<event>
 8    1  0.1164123E-009  0.9118800E+02  0.7816164E-02  0.1184000E+00
        -11   -1    0    0    0    0  0.00000000000E+00  0.00000000000E+00  0.45593999997E+02  0.45594000000E+02  0.51100000000E-03 0. -1.
         11   -1    0    0    0    0 -0.00000000000E+00 -0.00000000000E+00 -0.45593999997E+02  0.45594000000E+02  0.51100000000E-03 0.  1.
         23    2    1    2    0    0  0.00000000000E+00  0.00000000000E+00 -0.71054273576E-14  0.91188000000E+02  0.91188000000E+02 0.  0.
    9900012    2    3    3    0    0  0.20091401403E+02  0.86666630998E+01  0.37481297649E+02  0.47787272667E+02  0.20000007397E+02 0.  0.
        -12    1    3    3    0    0 -0.20091401403E+02 -0.86666630998E+01 -0.37481297649E+02  0.43400727333E+02  0.00000000000E+00 0.  1.
         11    1    4    4    0    0  0.85167110556E+01 -0.43763169610E+01  0.96629118711E+01  0.13603616557E+02  0.51100000000E-03 0. -1.
        -11    1    4    4    0    0  0.11739037598E+00  0.26940610603E+01  0.41234935512E+00  0.27279621971E+01  0.51100000000E-03 0.  1.
         12    1    4    4    0    0  0.11457299971E+02  0.10348919000E+02  0.27406036423E+02  0.31455693912E+02  0.00000000000E+00 0. -1.
</event>
<event>
 8    1  0.1164123E-009  0.9118800E+02  0.7816164E-02  0.1184000E+00
        -11   -1    0    0    0    0  0.00000000000E+00  0.00000000000E+00  0.45593999997E+02  0.45594000000E+02  0.51100000000E-03 0. -1.
         11   -1    0    0    0    0 -0.00000000000E+00 -0.00000000000E+00 -0.45593999997E+02  0.45594000000E+02  0.51100000000E-03 0.  1.
         23    2    1    2    0    0 -0.35527136788E-14 -0.44408920985E-15  0.00000000000E+00  0.91188000000E+02  0.91188000000E+02 0.  0.
    9900012    2    3    3    0    0  0.23464056510E+02  0.24900997032E+01 -0.36426117210E+02  0.47787256234E+02  0.19999932473E+02 0.  0.
         12    1    3    3    0    0 -0.23464056510E+02 -0.24900997032E+01  0.36426117210E+02  0.43400743766E+02  0.00000000000E+00 0. -1.
         11    1    4    4    0    0  0.15722852636E+02 -0.21802097851E+01 -0.20372981668E+02  0.25826726312E+02  0.51100000000E-03 0. -1.
        -11    1    4    4    0    0  0.10535807034E+02  0.50255338103E+01 -0.10354811481E+02  0.15603888650E+02  0.51100000000E-03 0.  1.
         12    1    4    4    0    0 -0.27946031603E+01 -0.35522432204E+00 -0.56983240615E+01  0.63566412714E+01  0.00000000000E+00 0. -1.
</event>
<event>
 8    1  0.1164123E-009  0.9118800E+02  0.7816164E-02  0.1184000E+00
        -11   -1    0    0    0    0  0.00000000000E+00  0.00000000000E+00  0.45593999997E+02  0.45594000000E+02  0.51100000000E-03 0. -1.
         11   -1    0    0    0    0 -0.00000000000E+00 -0.00000000000E+00 -0.45593999997E+02  0.45594000000E+02  0.51100000000E-03 0.  1.
         23    2    1    2    0    0  0.26645352591E-14 -0.71054273576E-14  0.17763568394E-14  0.91188000000E+02  0.91188000000E+02 0.  0.
    9900012    2    3    3    0    0  0.71360651212E+01 -0.41562808302E+02  0.10258317185E+02  0.47787268084E+02  0.19999986500E+02 0.  0.
        -12    1    3    3    0    0 -0.71360651212E+01  0.41562808302E+02 -0.10258317185E+02  0.43400731916E+02  0.00000000000E+00 0.  1.
         11    1    4    4    0    0 -0.30534709109E+01 -0.46252660066E+01  0.39026394088E+01  0.67784485578E+01  0.51100000000E-03 0. -1.
        -11    1    4    4    0    0  0.13453496872E+01 -0.73866097826E+00  0.32765307382E+01  0.36181818308E+01  0.51100000000E-03 0.  1.
         12    1    4    4    0    0  0.88441863449E+01 -0.36198881318E+02  0.30791470385E+01  0.37390637695E+02  0.00000000000E+00 0. -1.
</event>
<event>
 8    1  0.1164123E-009  0.9118800E+02  0.7816164E-02  0.1184000E+00
        -11   -1    0    0    0    0  0.00000000000E+00  0.00000000000E+00  0.45593999997E+02  0.45594000000E+02  0.51100000000E-03 0. -1.
         11   -1    0    0    0    0 -0.00000000000E+00 -0.00000000000E+00 -0.45593999997E+02  0.45594000000E+02  0.51100000000E-03 0.  1.
         23    2    1    2    0    0  0.00000000000E+00  0.00000000000E+00  0.00000000000E+00  0.91188000000E+02  0.91188000000E+02 0.  0.
    9900012    2    3    3    0    0 -0.22732905958E+02  0.34538384253E+01  0.36809079095E+02  0.47787282069E+02  0.20000050264E+02 0.  0.
        -12    1    3    3    0    0  0.22732905958E+02 -0.34538384253E+01 -0.36809079095E+02  0.43400717931E+02  0.00000000000E+00 0.  1.
         11    1    4    4    0    0  0.48079240966E+00 -0.54106222368E+00 -0.86149263987E+00  0.11252019822E+01  0.51100000000E-03 0. -1.
        -11    1    4    4    0    0 -0.26870376499E+01  0.28956276421E+01  0.23893080424E+00  0.39575142406E+01  0.51100000000E-03 0.  1.
         12    1    4    4    0    0 -0.20526660717E+02  0.10992730068E+01  0.37431640930E+02  0.42704565846E+02  0.00000000000E+00 0. -1.
</event>
<event>
 8    1  0.1164123E-009  0.9118800E+02  0.7816164E-02  0.1184000E+00
        -11   -1    0    0    0    0  0.00000000000E+00  0.00000000000E+00  0.45593999997E+02  0.45594000000E+02  0.51100000000E-03 0. -1.
         11   -1    0    0    0    0 -0.00000000000E+00 -0.00000000000E+00 -0.45593999997E+02  0.45594000000E+02  0.51100000000E-03 0.  1.
         23    2    1    2    0    0  0.00000000000E+00  0.00000000000E+00  0.00000000000E+00  0.91188000000E+02  0.91188000000E+02 0.  0.
    9900012    2    3    3    0    0 -0.91320091533E+01 -0.14667898428E+02  0.39813097159E+02  0.47787267968E+02  0.19999985975E+02 0.  0.
        -12    1    3    3    0    0  0.91320091533E+01  0.14667898428E+02 -0.39813097159E+02  0.43400732032E+02  0.00000000000E+00 0.  1.
         11    1    4    4    0    0  0.20176655008E+01 -0.61374259641E+01  0.90521670097E+01  0.11121182463E+02  0.51100000000E-03 0. -1.
        -11    1    4    4    0    0 -0.56247712636E+01 -0.49853260049E+01  0.29227077050E+01  0.80643504223E+01  0.51100000000E-03 0.  1.
         12    1    4    4    0    0 -0.55249033905E+01 -0.35451464587E+01  0.27838222445E+02  0.28601735083E+02  0.00000000000E+00 0. -1.
</event>
<event>
 8    1  0.1164123E-009  0.9118800E+02  0.7816164E-02  0.1184000E+00
        -11   -1    0    0    0    0  0.00000000000E+00  0.00000000000E+00  0.45593999997E+02  0.45594000000E+02  0.51100000000E-03 0. -1.
         11   -1    0    0    0    0 -0.00000000000E+00 -0.00000000000E+00 -0.45593999997E+02  0.45594000000E+02  0.51100000000E-03 0.  1.
         23    2    1    2    0    0  0.44408920985E-15  0.43021142204E-15 -0.71054273576E-14  0.91188000000E+02  0.91188000000E+02 0.  0.
    9900012    2    3    3    0    0  0.16658402771E+01 -0.10995190402E+00  0.43368608885E+02  0.47787270169E+02  0.19999996008E+02 0.  0.
        -12    1    3    3    0    0 -0.16658402771E+01  0.10995190402E+00 -0.43368608885E+02  0.43400729831E+02  0.00000000000E+00 0.  1.
         11    1    4    4    0    0  0.27202601384E+01 -0.33866244089E+01  0.21386585925E+02  0.21823269643E+02  0.51100000000E-03 0. -1.
        -11    1    4    4    0    0 -0.39551949555E+01 -0.68632219235E+00  0.20419332982E+02  0.20810184165E+02  0.51100000000E-03 0.  1.
        -12    1    4    4    0    0  0.29007750942E+01  0.39629946972E+01  0.15626899780E+01  0.51538163612E+01  0.00000000000E+00 0.  1.
</event>
<event>
 8    1  0.1500087E-009  0.9118800E+02  0.7816164E-02  0.1184000E+00
        -11   -1    0    0    0    0  0.00000000000E+00  0.00000000000E+00  0.45593999997E+02  0.45594000000E+02  0.51100000000E-03 0. -1.
         11   -1    0    0    0    0 -0.00000000000E+00 -0.00000000000E+00 -0.45593999997E+02  0.45594000000E+02  0.51100000000E-03 0.  1.
         23    2    1    2    0    0  0.35527136788E-14  0.00000000000E+00  0.00000000000E+00  0.91188000000E+02  0.91188000000E+02 0.  0.
    9900012    2    3    3    0    0 -0.22162527286E+02  0.62214373965E+01 -0.36793205178E+02  0.47787264451E+02  0.19999969937E+02 0.  0.
         12    1    3    3    0    0  0.22162527286E+02 -0.62214373965E+01  0.36793205178E+02  0.43400735549E+02  0.00000000000E+00 0. -1.
         11    1    4    4    0    0  0.41964002694E+00  0.74526784398E+00 -0.10134875019E+02  0.10170900345E+02  0.51100000000E-03 0. -1.
        -11    1    4    4    0    0 -0.13639774867E+02  0.74663360550E+01 -0.22975142272E+02  0.27742508812E+02  0.51100000000E-03 0.  1.
        -12    1    4    4    0    0 -0.89423924455E+01 -0.19901665024E+01 -0.36831878868E+01  0.98738552940E+01  0.00000000000E+00 0.  1.
</event>
<event>
 8    1  0.1164123E-009  0.9118800E+02  0.7816164E-02  0.1184000E+00
        -11   -1    0    0    0    0  0.00000000000E+00  0.00000000000E+00  0.45593999997E+02  0.45594000000E+02  0.51100000000E-03 0. -1.
         11   -1    0    0    0    0 -0.00000000000E+00 -0.00000000000E+00 -0.45593999997E+02  0.45594000000E+02  0.51100000000E-03 0.  1.
         23    2    1    2    0    0  0.00000000000E+00  0.00000000000E+00  0.00000000000E+00  0.91188000000E+02  0.91188000000E+02 0.  0.
    9900012    2    3    3    0    0  0.26660018450E+01  0.22725008441E+02  0.36879389820E+02  0.47787274569E+02  0.20000016070E+02 0.  0.
        -12    1    3    3    0    0 -0.26660018450E+01 -0.22725008441E+02 -0.36879389820E+02  0.43400725431E+02  0.00000000000E+00 0.  1.
         11    1    4    4    0    0  0.23227788824E+01  0.35590014795E+01  0.86148349574E+01  0.96061009194E+01  0.51100000000E-03 0. -1.
        -11    1    4    4    0    0  0.19253157102E+00  0.14128868195E+02  0.59963325593E+01  0.15349853071E+02  0.51100000000E-03 0.  1.
         12    1    4    4    0    0  0.15069139153E+00  0.50371387665E+01  0.22268222303E+02  0.22831320579E+02  0.00000000000E+00 0. -1.
</event>
<event>
 8    1  0.1164123E-009  0.9118800E+02  0.7816164E-02  0.1184000E+00
        -11   -1    0    0    0    0  0.00000000000E+00  0.00000000000E+00  0.45593999997E+02  0.45594000000E+02  0.51100000000E-03 0. -1.
         11   -1    0    0    0    0 -0.00000000000E+00 -0.00000000000E+00 -0.45593999997E+02  0.45594000000E+02  0.51100000000E-03 0.  1.
         23    2    1    2    0    0  0.00000000000E+00  0.34694469520E-17  0.00000000000E+00  0.91188000000E+02  0.91188000000E+02 0.  0.
    9900012    2    3    3    0    0 -0.20093123554E+02  0.24857262123E-01 -0.38469323823E+02  0.47787272962E+02  0.20000008743E+02 0.  0.
         12    1    3    3    0    0  0.20093123554E+02 -0.24857262123E-01  0.38469323823E+02  0.43400727038E+02  0.00000000000E+00 0. -1.
         11    1    4    4    0    0 -0.14565172771E+02  0.23253415615E+00 -0.17058791241E+02  0.22432135182E+02  0.51100000000E-03 0. -1.
        -11    1    4    4    0    0 -0.14811686730E+01 -0.21615295783E+01 -0.20627976518E+02  0.20793736707E+02  0.51100000000E-03 0.  1.
         12    1    4    4    0    0 -0.40467821094E+01  0.19538526843E+01 -0.78255606455E+00  0.45614010728E+01  0.00000000000E+00 0. -1.
</event>
<event>
 8    1  0.1164123E-009  0.9118800E+02  0.7816164E-02  0.1184000E+00
        -11   -1    0    0    0    0  0.00000000000E+00  0.00000000000E+00  0.45593999997E+02  0.45594000000E+02  0.51100000000E-03 0. -1.
         11   -1    0    0    0    0 -0.00000000000E+00 -0.00000000000E+00 -0.45593999997E+02  0.45594000000E+02  0.51100000000E-03 0.  1.
         23    2    1    2    0    0  0.71054273576E-14 -0.22204460493E-15  0.00000000000E+00  0.91188000000E+02  0.91188000000E+02 0.  0.
    9900012    2    3    3    0    0 -0.38706018534E+02  0.18264400767E+01 -0.19548174477E+02  0.47787275588E+02  0.20000020716E+02 0.  0.
         12    1    3    3    0    0  0.38706018534E+02 -0.18264400767E+01  0.19548174477E+02  0.43400724412E+02  0.00000000000E+00 0. -1.
         11    1    4    4    0    0 -0.46070352344E+01  0.16997111925E+01  0.36035657599E+01  0.60909341021E+01  0.51100000000E-03 0. -1.
        -11    1    4    4    0    0 -0.46285803224E+01 -0.13830334580E+01 -0.13772123183E+01  0.50232709839E+01  0.51100000000E-03 0.  1.
        -12    1    4    4    0    0 -0.29470402977E+02  0.15097623422E+01 -0.21774527918E+02  0.36673070502E+02  0.00000000000E+00 0.  1.
</event>
<event>
 8    1  0.1164123E-009  0.9118800E+02  0.7816164E-02  0.1184000E+00
        -11   -1    0    0    0    0  0.00000000000E+00  0.00000000000E+00  0.45593999997E+02  0.45594000000E+02  0.51100000000E-03 0. -1.
         11   -1    0    0    0    0 -0.00000000000E+00 -0.00000000000E+00 -0.45593999997E+02  0.45594000000E+02  0.51100000000E-03 0.  1.
         23    2    1    2    0    0  0.00000000000E+00 -0.66613381478E-15 -0.71054273576E-14  0.91188000000E+02  0.91188000000E+02 0.  0.
    9900012    2    3    3    0    0  0.83833967625E+01  0.17415322891E+01  0.42547726653E+02  0.47787270521E+02  0.19999997614E+02 0.  0.
        -12    1    3    3    0    0 -0.83833967625E+01 -0.17415322891E+01 -0.42547726653E+02  0.43400729479E+02  0.00000000000E+00 0.  1.
         11    1    4    4    0    0  0.17619769986E+01 -0.64407664367E+01  0.18194624831E+02  0.19381238563E+02  0.51100000000E-03 0. -1.
        -11    1    4    4    0    0  0.30330572811E+00  0.18001011090E+01  0.16118775662E+02  0.16221815172E+02  0.51100000000E-03 0.  1.
         12    1    4    4    0    0  0.63181140358E+01  0.63821976168E+01  0.82343261601E+01  0.12184216786E+02  0.00000000000E+00 0. -1.
</event>
<event>
 8    1  0.1164123E-009  0.9118800E+02  0.7816164E-02  0.1184000E+00
        -11   -1    0    0    0    0  0.00000000000E+00  0.00000000000E+00  0.45593999997E+02  0.45594000000E+02  0.51100000000E-03 0. -1.
         11   -1    0    0    0    0 -0.00000000000E+00 -0.00000000000E+00 -0.45593999997E+02  0.45594000000E+02  0.51100000000E-03 0.  1.
         23    2    1    2    0    0  0.00000000000E+00 -0.88817841970E-15  0.00000000000E+00  0.91188000000E+02  0.91188000000E+02 0.  0.
    9900012    2    3    3    0    0 -0.73381330283E+01 -0.75094777580E+01  0.42111550014E+02  0.47787273081E+02  0.20000009285E+02 0.  0.
        -12    1    3    3    0    0  0.73381330283E+01  0.75094777580E+01 -0.42111550014E+02  0.43400726919E+02  0.00000000000E+00 0.  1.
         11    1    4    4    0    0 -0.26005010196E+01 -0.51131824916E+01  0.14266171937E+02  0.15376309790E+02  0.51100000000E-03 0. -1.
        -11    1    4    4    0    0 -0.63074278796E+01 -0.34072138544E+01  0.34706160905E+01  0.79647930930E+01  0.51100000000E-03 0.  1.
         12    1    4    4    0    0  0.15697958709E+01  0.10109185880E+01  0.24374761986E+02  0.24446170198E+02  0.00000000000E+00 0. -1.
</event>
<event>
 8    1  0.1164123E-009  0.9118800E+02  0.7816164E-02  0.1184000E+00
        -11   -1    0    0    0    0  0.00000000000E+00  0.00000000000E+00  0.45593999997E+02  0.45594000000E+02  0.51100000000E-03 0. -1.
         11   -1    0    0    0    0 -0.00000000000E+00 -0.00000000000E+00 -0.45593999997E+02  0.45594000000E+02  0.51100000000E-03 0.  1.
         23    2    1    2    0    0 -0.17763568394E-14  0.58286708793E-15  0.71054273576E-14  0.91188000000E+02  0.91188000000E+02 0.  0.
    9900012    2    3    3    0    0 -0.11319755096E+02  0.71855937952E-01 -0.41898470832E+02  0.47787264098E+02  0.19999968330E+02 0.  0.
         12    1    3    3    0    0  0.11319755096E+02 -0.71855937952E-01  0.41898470832E+02  0.43400735902E+02  0.00000000000E+00 0. -1.
         11    1    4    4    0    0 -0.47908894646E+01 -0.30587048134E+01 -0.75001978522E+01  0.94106995001E+01  0.51100000000E-03 0. -1.
        -11    1    4    4    0    0 -0.63591633980E+01 -0.11412626235E+01 -0.33356294678E+02  0.33976224546E+02  0.51100000000E-03 0.  1.
         12    1    4    4    0    0 -0.16970223339E+00  0.42718233748E+01 -0.10419783021E+01  0.44003400523E+01  0.00000000000E+00 0. -1.
</event>
<event>
 8    1  0.1164123E-009  0.9118800E+02  0.7816164E-02  0.1184000E+00
        -11   -1    0    0    0    0  0.00000000000E+00  0.00000000000E+00  0.45593999997E+02  0.45594000000E+02  0.51100000000E-03 0. -1.
         11   -1    0    0    0    0 -0.00000000000E+00 -0.00000000000E+00 -0.45593999997E+02  0.45594000000E+02  0.51100000000E-03 0.  1.
         23    2    1    2    0    0  0.00000000000E+00  0.35527136788E-14  0.00000000000E+00  0.91188000000E+02  0.91188000000E+02 0.  0.
    9900012    2    3    3    0    0 -0.55828053793E+01 -0.15089950382E+02  0.40308176661E+02  0.47787269313E+02  0.19999992108E+02 0.  0.
        -12    1    3    3    0    0  0.55828053793E+01  0.15089950382E+02 -0.40308176661E+02  0.43400730687E+02  0.00000000000E+00 0.  1.
         11    1    4    4    0    0  0.24893343136E+01 -0.34174547181E+01  0.90582574181E+01  0.99963898378E+01  0.51100000000E-03 0. -1.
        -11    1    4    4    0    0  0.23169547412E+01 -0.10052444019E+02  0.19220047153E+02  0.21813530729E+02  0.51100000000E-03 0.  1.
         12    1    4    4    0    0 -0.10389094434E+02 -0.16200516445E+01  0.12029872090E+02  0.15977348747E+02  0.00000000000E+00 0. -1.
</event>
<event>
 8    1  0.1173021E-009  0.9118800E+02  0.7816164E-02  0.1184000E+00
        -11   -1    0    0    0    0  0.00000000000E+00  0.00000000000E+00  0.45593999997E+02  0.45594000000E+02  0.51100000000E-03 0. -1.
         11   -1    0    0    0    0 -0.00000000000E+00 -0.00000000000E+00 -0.45593999997E+02  0.45594000000E+02  0.51100000000E-03 0.  1.
         23    2    1    2    0    0  0.35527136788E-14  0.17763568394E-14  0.00000000000E+00  0.91188000000E+02  0.91188000000E+02 0.  0.
    9900012    2    3    3    0    0 -0.16991336351E+02 -0.12089408706E+02 -0.38062639362E+02  0.47787264648E+02  0.19999970835E+02 0.  0.
         12    1    3    3    0    0  0.16991336351E+02  0.12089408706E+02  0.38062639362E+02  0.43400735352E+02  0.00000000000E+00 0. -1.
         11    1    4    4    0    0 -0.51153455024E+01 -0.43599745303E+01 -0.20831085132E+01  0.70367235879E+01  0.51100000000E-03 0. -1.
        -11    1    4    4    0    0 -0.52490237142E+01  0.20644823100E+00 -0.27087683639E+01  0.59103550769E+01  0.51100000000E-03 0.  1.
        -12    1    4    4    0    0 -0.66269671348E+01 -0.79358824071E+01 -0.33270762485E+02  0.34840185983E+02  0.00000000000E+00 0.  1.
</event>
<event>
 8    1  0.1164123E-009  0.9118800E+02  0.7816164E-02  0.1184000E+00
        -11   -1    0    0    0    0  0.00000000000E+00  0.00000000000E+00  0.45593999997E+02  0.45594000000E+02  0.51100000000E-03 0.  1.
         11   -1    0    0    0    0 -0.00000000000E+00 -0.00000000000E+00 -0.45593999997E+02  0.45594000000E+02  0.51100000000E-03 0. -1.
         23    2    1    2    0    0  0.00000000000E+00 -0.88817841970E-15  0.22204460493E-15  0.91188000000E+02  0.91188000000E+02 0.  0.
    9900012    2    3    3    0    0 -0.42676204979E+02 -0.78217210405E+01  0.10888086012E+01  0.47787270794E+02  0.19999998857E+02 0.  0.
        -12    1    3    3    0    0  0.42676204979E+02  0.78217210405E+01 -0.10888086012E+01  0.43400729206E+02  0.00000000000E+00 0.  1.
         11    1    4    4    0    0 -0.36809147542E+01  0.35953174957E+01  0.11987785900E+00  0.51468254570E+01  0.51100000000E-03 0. -1.
        -11    1    4    4    0    0 -0.10545363410E+02  0.25173082999E+01  0.15756264486E+01  0.10955552450E+02  0.51100000000E-03 0.  1.
        -12    1    4    4    0    0 -0.28449926815E+02 -0.13934346836E+02 -0.60669570635E+00  0.31684892887E+02  0.00000000000E+00 0.  1.
</event>
<event>
 8    1  0.1164123E-009  0.9118800E+02  0.7816164E-02  0.1184000E+00
        -11   -1    0    0    0    0  0.00000000000E+00  0.00000000000E+00  0.45593999997E+02  0.45594000000E+02  0.51100000000E-03 0. -1.
         11   -1    0    0    0    0 -0.00000000000E+00 -0.00000000000E+00 -0.45593999997E+02  0.45594000000E+02  0.51100000000E-03 0.  1.
         23    2    1    2    0    0 -0.35527136788E-14  0.00000000000E+00 -0.35527136788E-14  0.91188000000E+02  0.91188000000E+02 0.  0.
    9900012    2    3    3    0    0  0.28867948530E+02 -0.17514917177E+02  0.27267059908E+02  0.47787270374E+02  0.19999996943E+02 0.  0.
        -12    1    3    3    0    0 -0.28867948530E+02  0.17514917177E+02 -0.27267059908E+02  0.43400729626E+02  0.00000000000E+00 0.  1.
         11    1    4    4    0    0  0.43814802812E+01 -0.14630283410E+01  0.37785490820E+01  0.59678517749E+01  0.51100000000E-03 0. -1.
        -11    1    4    4    0    0  0.11805965446E+02  0.18183069663E+01  0.43074321681E+01  0.12698071998E+02  0.51100000000E-03 0.  1.
         12    1    4    4    0    0  0.12680502803E+02 -0.17870195803E+02  0.19181078658E+02  0.29121346601E+02  0.00000000000E+00 0. -1.
</event>
<event>
 8    1  0.1164123E-009  0.9118800E+02  0.7816164E-02  0.1184000E+00
        -11   -1    0    0    0    0  0.00000000000E+00  0.00000000000E+00  0.45593999997E+02  0.45594000000E+02  0.51100000000E-03 0. -1.
         11   -1    0    0    0    0 -0.00000000000E+00 -0.00000000000E+00 -0.45593999997E+02  0.45594000000E+02  0.51100000000E-03 0.  1.
         23    2    1    2    0    0 -0.13322676296E-14 -0.58286708793E-15  0.00000000000E+00  0.91188000000E+02  0.91188000000E+02 0.  0.
    9900012    2    3    3    0    0 -0.24262528122E+01 -0.15182000791E+00 -0.43332580336E+02  0.47787282603E+02  0.20000052699E+02 0.  0.
         12    1    3    3    0    0  0.24262528122E+01  0.15182000791E+00  0.43332580336E+02  0.43400717397E+02  0.00000000000E+00 0. -1.
         11    1    4    4    0    0  0.17216123221E+01  0.65603149762E+00 -0.91822961935E+00  0.20585121347E+01  0.51100000000E-03 0. -1.
        -11    1    4    4    0    0  0.36135368721E+01  0.20143092052E+01 -0.22205659433E+01  0.46953172065E+01  0.51100000000E-03 0.  1.
         12    1    4    4    0    0 -0.77614020064E+01 -0.28221607107E+01 -0.40193784773E+02  0.41033453262E+02  0.00000000000E+00 0. -1.
</event>
<event>
 8    1  0.1164123E-009  0.9118800E+02  0.7816164E-02  0.1184000E+00
        -11   -1    0    0    0    0  0.00000000000E+00  0.00000000000E+00  0.45593999997E+02  0.45594000000E+02  0.51100000000E-03 0. -1.
         11   -1    0    0    0    0 -0.00000000000E+00 -0.00000000000E+00 -0.45593999997E+02  0.45594000000E+02  0.51100000000E-03 0.  1.
         23    2    1    2    0    0  0.00000000000E+00  0.00000000000E+00  0.00000000000E+00  0.91188000000E+02  0.91188000000E+02 0.  0.
    9900012    2    3    3    0    0 -0.23254501385E+02  0.35400898579E+02 -0.94671944721E+01  0.47787271595E+02  0.20000002511E+02 0.  0.
         12    1    3    3    0    0  0.23254501385E+02 -0.35400898579E+02  0.94671944721E+01  0.43400728405E+02  0.00000000000E+00 0. -1.
         11    1    4    4    0    0 -0.10846999047E+02  0.11724444970E+02  0.95730371769E+00  0.16001138361E+02  0.51100000000E-03 0. -1.
        -11    1    4    4    0    0 -0.15468948577E+01  0.45373346373E+01  0.33285775026E+01  0.58360704043E+01  0.51100000000E-03 0.  1.
        -12    1    4    4    0    0 -0.10860607480E+02  0.19139118972E+02 -0.13753075692E+02  0.25950062830E+02  0.00000000000E+00 0.  1.
</event>
<event>
 8    1  0.1164123E-009  0.9118800E+02  0.7816164E-02  0.1184000E+00
        -11   -1    0    0    0    0  0.00000000000E+00  0.00000000000E+00  0.45593999997E+02  0.45594000000E+02  0.51100000000E-03 0. -1.
         11   -1    0    0    0    0 -0.00000000000E+00 -0.00000000000E+00 -0.45593999997E+02  0.45594000000E+02  0.51100000000E-03 0.  1.
         23    2    1    2    0    0  0.88817841970E-15  0.17763568394E-14  0.00000000000E+00  0.91188000000E+02  0.91188000000E+02 0.  0.
    9900012    2    3    3    0    0 -0.44913026442E+01 -0.73645374554E+01  0.42534866848E+02  0.47787272942E+02  0.20000008651E+02 0.  0.
        -12    1    3    3    0    0  0.44913026442E+01  0.73645374554E+01 -0.42534866848E+02  0.43400727058E+02  0.00000000000E+00 0.  1.
         11    1    4    4    0    0  0.96519197982E+00  0.17307741819E+01  0.99723093418E+01  0.10167306856E+02  0.51100000000E-03 0. -1.
        -11    1    4    4    0    0 -0.23189791774E+01  0.43293088074E+01  0.10704394997E+02  0.11777293904E+02  0.51100000000E-03 0.  1.
        -12    1    4    4    0    0 -0.31375154467E+01 -0.13424620445E+02  0.21858162509E+02  0.25842672183E+02  0.00000000000E+00 0.  1.
</event>
<event>
 8    1  0.1164123E-009  0.9118800E+02  0.7816164E-02  0.1184000E+00
        -11   -1    0    0    0    0  0.00000000000E+00  0.00000000000E+00  0.45593999997E+02  0.45594000000E+02  0.51100000000E-03 0. -1.
         11   -1    0    0    0    0 -0.00000000000E+00 -0.00000000000E+00 -0.45593999997E+02  0.45594000000E+02  0.51100000000E-03 0.  1.
         23    2    1    2    0    0  0.00000000000E+00  0.00000000000E+00  0.00000000000E+00  0.91188000000E+02  0.91188000000E+02 0.  0.
    9900012    2    3    3    0    0 -0.52634154227E+01 -0.13398585477E+02  0.40943834216E+02  0.47787271953E+02  0.20000004144E+02 0.  0.
        -12    1    3    3    0    0  0.52634154227E+01  0.13398585477E+02 -0.40943834216E+02  0.43400728047E+02  0.00000000000E+00 0.  1.
         11    1    4    4    0    0  0.12181417692E+00 -0.19876686456E+01  0.21191834228E+02  0.21285194468E+02  0.51100000000E-03 0.  1.
        -11    1    4    4    0    0  0.39488839874E+01 -0.23454444861E+01  0.61856876234E+01  0.77043835716E+01  0.51100000000E-03 0. -1.
        -12    1    4    4    0    0 -0.93341135870E+01 -0.90654723458E+01  0.13566312364E+02  0.18797693913E+02  0.00000000000E+00 0.  1.
</event>
<event>
 8    1  0.1164123E-009  0.9118800E+02  0.7816164E-02  0.1184000E+00
        -11   -1    0    0    0    0  0.00000000000E+00  0.00000000000E+00  0.45593999997E+02  0.45594000000E+02  0.51100000000E-03 0. -1.
         11   -1    0    0    0    0 -0.00000000000E+00 -0.00000000000E+00 -0.45593999997E+02  0.45594000000E+02  0.51100000000E-03 0.  1.
         23    2    1    2    0    0  0.00000000000E+00  0.00000000000E+00 -0.35527136788E-14  0.91188000000E+02  0.91188000000E+02 0.  0.
    9900012    2    3    3    0    0  0.11195451591E+02  0.36458195425E+02 -0.20714366163E+02  0.47787272869E+02  0.20000008319E+02 0.  0.
         12    1    3    3    0    0 -0.11195451591E+02 -0.36458195425E+02  0.20714366163E+02  0.43400727131E+02  0.00000000000E+00 0. -1.
         11    1    4    4    0    0  0.13124157343E+01  0.47032635598E+00 -0.22070723830E+01  0.26105192406E+01  0.51100000000E-03 0. -1.
        -11    1    4    4    0    0 -0.76449360518E+00  0.25014806570E+02 -0.15943324438E+02  0.29673466138E+02  0.51100000000E-03 0.  1.
         12    1    4    4    0    0  0.10647529462E+02  0.10973062499E+02 -0.25639693416E+01  0.15503287491E+02  0.00000000000E+00 0. -1.
</event>
<event>
 8    1  0.1164123E-009  0.9118800E+02  0.7816164E-02  0.1184000E+00
        -11   -1    0    0    0    0  0.00000000000E+00  0.00000000000E+00  0.45593999997E+02  0.45594000000E+02  0.51100000000E-03 0. -1.
         11   -1    0    0    0    0 -0.00000000000E+00 -0.00000000000E+00 -0.45593999997E+02  0.45594000000E+02  0.51100000000E-03 0.  1.
         23    2    1    2    0    0  0.00000000000E+00  0.71054273576E-14 -0.71054273576E-14  0.91188000000E+02  0.91188000000E+02 0.  0.
    9900012    2    3    3    0    0 -0.54647923838E+01  0.33697240737E+02 -0.26800283776E+02  0.47787271901E+02  0.20000003905E+02 0.  0.
         12    1    3    3    0    0  0.54647923838E+01 -0.33697240737E+02  0.26800283776E+02  0.43400728099E+02  0.00000000000E+00 0. -1.
         11    1    4    4    0    0  0.67755509756E+00  0.24119997291E+02 -0.10748797420E+02  0.26415336387E+02  0.51100000000E-03 0. -1.
        -11    1    4    4    0    0 -0.37410113202E+01  0.41153488686E+01 -0.16778714621E+01  0.58091750630E+01  0.51100000000E-03 0.  1.
        -12    1    4    4    0    0 -0.24013361612E+01  0.54618945774E+01 -0.14373614893E+02  0.15562760450E+02  0.00000000000E+00 0.  1.
</event>
<event>
 8    1  0.1164123E-009  0.9118800E+02  0.7816164E-02  0.1184000E+00
        -11   -1    0    0    0    0  0.00000000000E+00  0.00000000000E+00  0.45593999997E+02  0.45594000000E+02  0.51100000000E-03 0. -1.
         11   -1    0    0    0    0 -0.00000000000E+00 -0.00000000000E+00 -0.45593999997E+02  0.45594000000E+02  0.51100000000E-03 0.  1.
         23    2    1    2    0    0  0.35527136788E-14  0.00000000000E+00  0.17763568394E-14  0.91188000000E+02  0.91188000000E+02 0.  0.
    9900012    2    3    3    0    0  0.26743903520E+02 -0.30572937213E+02 -0.15286678552E+02  0.47787269517E+02  0.19999993036E+02 0.  0.
         12    1    3    3    0    0 -0.26743903520E+02  0.30572937213E+02  0.15286678552E+02  0.43400730483E+02  0.00000000000E+00 0. -1.
         11    1    4    4    0    0 -0.38924900968E+00 -0.87054893416E-01 -0.25569654709E+01  0.25878883335E+01  0.51100000000E-03 0. -1.
        -11    1    4    4    0    0  0.85385290559E+01 -0.20624060399E+02 -0.64920704252E+01  0.23246619635E+02  0.51100000000E-03 0.  1.
        -12    1    4    4    0    0  0.18594623473E+02 -0.98618219202E+01 -0.62376426560E+01  0.21952761548E+02  0.00000000000E+00 0.  1.
</event>
<event>
 8    1  0.1164123E-009  0.9118800E+02  0.7816164E-02  0.1184000E+00
        -11   -1    0    0    0    0  0.00000000000E+00  0.00000000000E+00  0.45593999997E+02  0.45594000000E+02  0.51100000000E-03 0. -1.
         11   -1    0    0    0    0 -0.00000000000E+00 -0.00000000000E+00 -0.45593999997E+02  0.45594000000E+02  0.51100000000E-03 0.  1.
         23    2    1    2    0    0  0.00000000000E+00  0.00000000000E+00  0.00000000000E+00  0.91188000000E+02  0.91188000000E+02 0.  0.
    9900012    2    3    3    0    0  0.24130901965E+01 -0.15247149183E+02 -0.40562603166E+02  0.47787270305E+02  0.19999996628E+02 0.  0.
         12    1    3    3    0    0 -0.24130901965E+01  0.15247149183E+02  0.40562603166E+02  0.43400729695E+02  0.00000000000E+00 0. -1.
         11    1    4    4    0    0  0.22564377583E+01 -0.42304085544E+00 -0.11094771349E+02  0.11329802578E+02  0.51100000000E-03 0. -1.
        -11    1    4    4    0    0  0.42175019702E+01 -0.57281698775E+00 -0.15570761285E+02  0.16141996451E+02  0.51100000000E-03 0.  1.
         12    1    4    4    0    0 -0.40608495319E+01 -0.14251291340E+02 -0.13897070532E+02  0.20315471275E+02  0.00000000000E+00 0. -1.
</event>
<event>
 8    1  0.1164123E-009  0.9118800E+02  0.7816164E-02  0.1184000E+00
        -11   -1    0    0    0    0  0.00000000000E+00  0.00000000000E+00  0.45593999997E+02  0.45594000000E+02  0.51100000000E-03 0.  1.
         11   -1    0    0    0    0 -0.00000000000E+00 -0.00000000000E+00 -0.45593999997E+02  0.45594000000E+02  0.51100000000E-03 0. -1.
         23    2    1    2    0    0  0.00000000000E+00  0.35527136788E-14  0.00000000000E+00  0.91188000000E+02  0.91188000000E+02 0.  0.
    9900012    2    3    3    0    0 -0.26475278250E+02 -0.28796054292E+02 -0.18800838322E+02  0.47787255504E+02  0.19999929144E+02 0.  0.
         12    1    3    3    0    0  0.26475278250E+02  0.28796054292E+02  0.18800838322E+02  0.43400744496E+02  0.00000000000E+00 0. -1.
         11    1    4    4    0    0 -0.14967188723E+02 -0.12396591309E+02 -0.12728472099E+02  0.23231578005E+02  0.51100000000E-03 0. -1.
        -11    1    4    4    0    0 -0.31460617640E+01  0.18969143946E+01 -0.80582823302E+00  0.37610302107E+01  0.51100000000E-03 0.  1.
        -12    1    4    4    0    0 -0.83620277628E+01 -0.18296377378E+02 -0.52665379906E+01  0.20794647289E+02  0.00000000000E+00 0.  1.
</event>
<event>
 8    1  0.1164123E-009  0.9118800E+02  0.7816164E-02  0.1184000E+00
        -11   -1    0    0    0    0  0.00000000000E+00  0.00000000000E+00  0.45593999997E+02  0.45594000000E+02  0.51100000000E-03 0. -1.
         11   -1    0    0    0    0 -0.00000000000E+00 -0.00000000000E+00 -0.45593999997E+02  0.45594000000E+02  0.51100000000E-03 0.  1.
         23    2    1    2    0    0  0.00000000000E+00 -0.35527136788E-14  0.00000000000E+00  0.91188000000E+02  0.91188000000E+02 0.  0.
    9900012    2    3    3    0    0  0.24806531888E+02  0.31274917612E+02  0.17033460734E+02  0.47787270968E+02  0.19999999650E+02 0.  0.
        -12    1    3    3    0    0 -0.24806531888E+02 -0.31274917612E+02 -0.17033460734E+02  0.43400729032E+02  0.00000000000E+00 0.  1.
         11    1    4    4    0    0  0.10574494915E+02  0.10648727728E+02  0.60452576314E+01  0.16179013722E+02  0.51100000000E-03 0. -1.
        -11    1    4    4    0    0  0.47410772011E+01  0.15954581140E+02  0.41127713782E+00  0.16649192819E+02  0.51100000000E-03 0.  1.
         12    1    4    4    0    0  0.94909597718E+01  0.46716087440E+01  0.10576925965E+02  0.14959064427E+02  0.00000000000E+00 0. -1.
</event>
<event>
 8    1  0.1164123E-009  0.9118800E+02  0.7816164E-02  0.1184000E+00
        -11   -1    0    0    0    0  0.00000000000E+00  0.00000000000E+00  0.45593999997E+02  0.45594000000E+02  0.51100000000E-03 0.  1.
         11   -1    0    0    0    0 -0.00000000000E+00 -0.00000000000E+00 -0.45593999997E+02  0.45594000000E+02  0.51100000000E-03 0. -1.
         23    2    1    2    0    0 -0.17763568394E-14  0.00000000000E+00 -0.38857805862E-15  0.91188000000E+02  0.91188000000E+02 0.  0.
    9900012    2    3    3    0    0  0.98584833013E+01  0.42265855988E+02 -0.17122819995E+00  0.47787290392E+02  0.20000088212E+02 0.  0.
         12    1    3    3    0    0 -0.98584833013E+01 -0.42265855988E+02  0.17122819995E+00  0.43400709608E+02  0.00000000000E+00 0. -1.
         11    1    4    4    0    0  0.39409448466E+01  0.24228927736E+02 -0.46539314828E+01  0.24984616547E+02  0.51100000000E-03 0. -1.
        -11    1    4    4    0    0 -0.15594769890E+01  0.12885539745E+02  0.79913835342E+00  0.13004142624E+02  0.51100000000E-03 0.  1.
         12    1    4    4    0    0  0.74770154437E+01  0.51513885069E+01  0.36835649294E+01  0.97985312207E+01  0.00000000000E+00 0. -1.
</event>
<event>
 8    1  0.1285810E-009  0.9118800E+02  0.7816164E-02  0.1184000E+00
        -11   -1    0    0    0    0  0.00000000000E+00  0.00000000000E+00  0.45593999997E+02  0.45594000000E+02  0.51100000000E-03 0. -1.
         11   -1    0    0    0    0 -0.00000000000E+00 -0.00000000000E+00 -0.45593999997E+02  0.45594000000E+02  0.51100000000E-03 0.  1.
         23    2    1    2    0    0 -0.17763568394E-14  0.00000000000E+00 -0.71054273576E-14  0.91188000000E+02  0.91188000000E+02 0.  0.
    9900012    2    3    3    0    0 -0.11222766825E+02  0.24385872782E+02 -0.34102803565E+02  0.47787279988E+02  0.20000040779E+02 0.  0.
         12    1    3    3    0    0  0.11222766825E+02 -0.24385872782E+02  0.34102803565E+02  0.43400720012E+02  0.00000000000E+00 0. -1.
         11    1    4    4    0    0 -0.51756913649E+01 -0.11647421572E+01 -0.26361276423E+01  0.59239830017E+01  0.51100000000E-03 0. -1.
        -11    1    4    4    0    0 -0.28258446347E+01  0.90417525250E+01 -0.55871089019E+01  0.10997930386E+02  0.51100000000E-03 0.  1.
        -12    1    4    4    0    0 -0.32212308257E+01  0.16508862414E+02 -0.25879567021E+02  0.30865366601E+02  0.00000000000E+00 0.  1.
</event>
<event>
 8    1  0.1164123E-009  0.9118800E+02  0.7816164E-02  0.1184000E+00
        -11   -1    0    0    0    0  0.00000000000E+00  0.00000000000E+00  0.45593999997E+02  0.45594000000E+02  0.51100000000E-03 0. -1.
         11   -1    0    0    0    0 -0.00000000000E+00 -0.00000000000E+00 -0.45593999997E+02  0.45594000000E+02  0.51100000000E-03 0.  1.
         23    2    1    2    0    0  0.00000000000E+00  0.00000000000E+00  0.35527136788E-14  0.91188000000E+02  0.91188000000E+02 0.  0.
    9900012    2    3    3    0    0 -0.17096323747E+02  0.32824144001E+02  0.22669699781E+02  0.47787262642E+02  0.19999961692E+02 0.  0.
        -12    1    3    3    0    0  0.17096323747E+02 -0.32824144001E+02 -0.22669699781E+02  0.43400737358E+02  0.00000000000E+00 0.  1.
         11    1    4    4    0    0 -0.94260396017E+01  0.14593013213E+02  0.12674500971E+02  0.21504632811E+02  0.51100000000E-03 0. -1.
        -11    1    4    4    0    0 -0.24396566317E+01  0.18880058848E+02  0.78609130461E+01  0.20596176848E+02  0.51100000000E-03 0.  1.
        -12    1    4    4    0    0 -0.52306275132E+01 -0.64892806040E+00  0.21342857638E+01  0.56864529832E+01  0.00000000000E+00 0.  1.
</event>
<event>
 8    1  0.1164123E-009  0.9118800E+02  0.7816164E-02  0.1184000E+00
        -11   -1    0    0    0    0  0.00000000000E+00  0.00000000000E+00  0.45593999997E+02  0.45594000000E+02  0.51100000000E-03 0. -1.
         11   -1    0    0    0    0 -0.00000000000E+00 -0.00000000000E+00 -0.45593999997E+02  0.45594000000E+02  0.51100000000E-03 0.  1.
         23    2    1    2    0    0  0.00000000000E+00  0.00000000000E+00  0.00000000000E+00  0.91188000000E+02  0.91188000000E+02 0.  0.
    9900012    2    3    3    0    0 -0.17099082739E+02 -0.86850906472E+01  0.38933455240E+02  0.47787269971E+02  0.19999995107E+02 0.  0.
        -12    1    3    3    0    0  0.17099082739E+02  0.86850906472E+01 -0.38933455240E+02  0.43400730029E+02  0.00000000000E+00 0.  1.
         11    1    4    4    0    0  0.20694664002E+00  0.28612467096E+01  0.38188100785E+01  0.47762820605E+01  0.51100000000E-03 0. -1.
        -11    1    4    4    0    0 -0.40488983859E+01 -0.56703815410E+01  0.23259647965E+02  0.24280816062E+02  0.51100000000E-03 0.  1.
         12    1    4    4    0    0 -0.13257130993E+02 -0.58759558158E+01  0.11854997197E+02  0.18730171848E+02  0.00000000000E+00 0. -1.
</event>
<event>
 8    1  0.1164123E-009  0.9118800E+02  0.7816164E-02  0.1184000E+00
        -11   -1    0    0    0    0  0.00000000000E+00  0.00000000000E+00  0.45593999997E+02  0.45594000000E+02  0.51100000000E-03 0. -1.
         11   -1    0    0    0    0 -0.00000000000E+00 -0.00000000000E+00 -0.45593999997E+02  0.45594000000E+02  0.51100000000E-03 0.  1.
         23    2    1    2    0    0  0.25535129566E-14  0.00000000000E+00  0.00000000000E+00  0.91188000000E+02  0.91188000000E+02 0.  0.
    9900012    2    3    3    0    0  0.96079220614E+00 -0.26830022963E+02 -0.34100589437E+02  0.47787268971E+02  0.19999990548E+02 0.  0.
         12    1    3    3    0    0 -0.96079220614E+00  0.26830022963E+02  0.34100589437E+02  0.43400731029E+02  0.00000000000E+00 0. -1.
         11    1    4    4    0    0 -0.46423592164E+00 -0.40135060403E+01 -0.19135421225E+01  0.44705021465E+01  0.51100000000E-03 0. -1.
        -11    1    4    4    0    0  0.88520147412E+01 -0.13254711927E+02 -0.23580925469E+02  0.28462354074E+02  0.51100000000E-03 0.  1.
        -12    1    4    4    0    0 -0.74269866134E+01 -0.95618049956E+01 -0.86061218462E+01  0.14854412750E+02  0.00000000000E+00 0.  1.
</event>
<event>
 8    1  0.1164123E-009  0.9118800E+02  0.7816164E-02  0.1184000E+00
        -11   -1    0    0    0    0  0.00000000000E+00  0.00000000000E+00  0.45593999997E+02  0.45594000000E+02  0.51100000000E-03 0. -1.
         11   -1    0    0    0    0 -0.00000000000E+00 -0.00000000000E+00 -0.45593999997E+02  0.45594000000E+02  0.51100000000E-03 0.  1.
         23    2    1    2    0    0  0.00000000000E+00  0.44408920985E-15  0.71054273576E-14  0.91188000000E+02  0.91188000000E+02 0.  0.
    9900012    2    3    3    0    0 -0.12723674219E+02  0.34659791997E+01 -0.41348728018E+02  0.47787283346E+02  0.20000056086E+02 0.  0.
         12    1    3    3    0    0  0.12723674219E+02 -0.34659791997E+01  0.41348728018E+02  0.43400716654E+02  0.00000000000E+00 0. -1.
         11    1    4    4    0    0 -0.15133303115E+01  0.40276596443E+01 -0.82899960324E+01  0.93400345460E+01  0.51100000000E-03 0. -1.
        -11    1    4    4    0    0 -0.12483948142E+01  0.70067022132E+01 -0.12213804744E+02  0.14136102437E+02  0.51100000000E-03 0.  1.
         12    1    4    4    0    0 -0.99619490932E+01 -0.75683826578E+01 -0.20844927241E+02  0.24311146363E+02  0.00000000000E+00 0. -1.
</event>
<event>
 8    1  0.1164123E-009  0.9118800E+02  0.7816164E-02  0.1184000E+00
        -11   -1    0    0    0    0  0.00000000000E+00  0.00000000000E+00  0.45593999997E+02  0.45594000000E+02  0.51100000000E-03 0. -1.
         11   -1    0    0    0    0 -0.00000000000E+00 -0.00000000000E+00 -0.45593999997E+02  0.45594000000E+02  0.51100000000E-03 0.  1.
         23    2    1    2    0    0 -0.35527136788E-14  0.00000000000E+00  0.35527136788E-14  0.91188000000E+02  0.91188000000E+02 0.  0.
    9900012    2    3    3    0    0 -0.28018690681E+02 -0.11664590740E+02  0.31024404139E+02  0.47787270089E+02  0.19999995643E+02 0.  0.
        -12    1    3    3    0    0  0.28018690681E+02  0.11664590740E+02 -0.31024404139E+02  0.43400729911E+02  0.00000000000E+00 0.  1.
         11    1    4    4    0    0 -0.16123075490E+02 -0.12610183073E+02  0.12640205064E+02  0.24057120873E+02  0.51100000000E-03 0. -1.
        -11    1    4    4    0    0 -0.43394111555E+01 -0.10317990263E+01  0.85782775537E+00  0.45421324426E+01  0.51100000000E-03 0.  1.
        -12    1    4    4    0    0 -0.75562040357E+01  0.19773913601E+01  0.17526371321E+02  0.19188016773E+02  0.00000000000E+00 0.  1.
</event>
<event>
 8    1  0.1164123E-009  0.9118800E+02  0.7816164E-02  0.1184000E+00
        -11   -1    0    0    0    0  0.00000000000E+00  0.00000000000E+00  0.45593999997E+02  0.45594000000E+02  0.51100000000E-03 0.  1.
         11   -1    0    0    0    0 -0.00000000000E+00 -0.00000000000E+00 -0.45593999997E+02  0.45594000000E+02  0.51100000000E-03 0. -1.
         23    2    1    2    0    0 -0.35527136788E-14  0.00000000000E+00  0.17763568394E-14  0.91188000000E+02  0.91188000000E+02 0.  0.
    9900012    2    3    3    0    0 -0.28412517010E+02  0.32185293605E+02  0.63606387456E+01  0.47787286037E+02  0.20000068356E+02 0.  0.
        -12    1    3    3    0    0  0.28412517010E+02 -0.32185293605E+02 -0.63606387456E+01  0.43400713963E+02  0.00000000000E+00 0.  1.
         11    1    4    4    0    0 -0.18365284372E+02  0.14606642014E+02  0.86765326389E+01  0.25018390834E+02  0.51100000000E-03 0. -1.
        -11    1    4    4    0    0 -0.78906306628E+01  0.39010482783E+01 -0.10455625878E+01  0.88641655734E+01  0.51100000000E-03 0.  1.
        -12    1    4    4    0    0 -0.21566019745E+01  0.13677603313E+02 -0.12703313055E+01  0.13904729630E+02  0.00000000000E+00 0.  1.
</event>
<event>
 8    1  0.1164123E-009  0.9118800E+02  0.7816164E-02  0.1184000E+00
        -11   -1    0    0    0    0  0.00000000000E+00  0.00000000000E+00  0.45593999997E+02  0.45594000000E+02  0.51100000000E-03 0. -1.
         11   -1    0    0    0    0 -0.00000000000E+00 -0.00000000000E+00 -0.45593999997E+02  0.45594000000E+02  0.51100000000E-03 0.  1.
         23    2    1    2    0    0 -0.35527136788E-14  0.00000000000E+00 -0.71054273576E-14  0.91188000000E+02  0.91188000000E+02 0.  0.
    9900012    2    3    3    0    0  0.16458574384E+02 -0.39281794252E+01  0.39966330282E+02  0.47787276267E+02  0.20000023811E+02 0.  0.
        -12    1    3    3    0    0 -0.16458574384E+02  0.39281794252E+01 -0.39966330282E+02  0.43400723733E+02  0.00000000000E+00 0.  1.
         11    1    4    4    0    0  0.80289353906E+01 -0.22649425994E+00  0.65098825629E+01  0.10338939714E+02  0.51100000000E-03 0. -1.
        -11    1    4    4    0    0  0.79432195464E+00 -0.67929212192E+00 -0.13380964271E+01  0.16979067890E+01  0.51100000000E-03 0.  1.
        -12    1    4    4    0    0  0.76353170383E+01 -0.30223930433E+01  0.34794544146E+02  0.35750429764E+02  0.00000000000E+00 0.  1.
</event>
<event>
 8    1  0.1164123E-009  0.9118800E+02  0.7816164E-02  0.1184000E+00
        -11   -1    0    0    0    0  0.00000000000E+00  0.00000000000E+00  0.45593999997E+02  0.45594000000E+02  0.51100000000E-03 0. -1.
         11   -1    0    0    0    0 -0.00000000000E+00 -0.00000000000E+00 -0.45593999997E+02  0.45594000000E+02  0.51100000000E-03 0.  1.
         23    2    1    2    0    0  0.11102230246E-15  0.00000000000E+00  0.00000000000E+00  0.91188000000E+02  0.91188000000E+02 0.  0.
    9900012    2    3    3    0    0 -0.94359327790E+00  0.25684824967E+02 -0.34971743460E+02  0.47787269102E+02  0.19999991143E+02 0.  0.
         12    1    3    3    0    0  0.94359327790E+00 -0.25684824967E+02  0.34971743460E+02  0.43400730898E+02  0.00000000000E+00 0. -1.
         11    1    4    4    0    0 -0.22233785746E+01 -0.17142245748E+00 -0.33829811710E+01  0.40518341291E+01  0.51100000000E-03 0.  1.
        -11    1    4    4    0    0 -0.10576046097E+01  0.55404264197E+00 -0.10908362837E+02  0.10973507680E+02  0.51100000000E-03 0. -1.
         12    1    4    4    0    0  0.23373899065E+01  0.25302204783E+02 -0.20680399452E+02  0.32761927293E+02  0.00000000000E+00 0. -1.
</event>
<event>
 8    1  0.1164123E-009  0.9118800E+02  0.7816164E-02  0.1184000E+00
        -11   -1    0    0    0    0  0.00000000000E+00  0.00000000000E+00  0.45593999997E+02  0.45594000000E+02  0.51100000000E-03 0. -1.
         11   -1    0    0    0    0 -0.00000000000E+00 -0.00000000000E+00 -0.45593999997E+02  0.45594000000E+02  0.51100000000E-03 0.  1.
         23    2    1    2    0    0  0.00000000000E+00  0.00000000000E+00  0.00000000000E+00  0.91188000000E+02  0.91188000000E+02 0.  0.
    9900012    2    3    3    0    0 -0.18526137160E+02  0.88092723643E+01  0.38246599353E+02  0.47787269594E+02  0.19999993388E+02 0.  0.
        -12    1    3    3    0    0  0.18526137160E+02 -0.88092723643E+01 -0.38246599353E+02  0.43400730406E+02  0.00000000000E+00 0.  1.
         11    1    4    4    0    0 -0.13416664359E+02  0.11432573233E+01  0.98794415562E+01  0.16700816913E+02  0.51100000000E-03 0. -1.
        -11    1    4    4    0    0  0.33266784481E+00 -0.56924052807E+00 -0.33127909456E+00  0.73786772078E+00  0.51100000000E-03 0.  1.
        -12    1    4    4    0    0 -0.54421406462E+01  0.82352555691E+01  0.28698436892E+02  0.30348584961E+02  0.00000000000E+00 0.  1.
</event>
<event>
 8    1  0.1164874E-009  0.9118800E+02  0.7816164E-02  0.1184000E+00
        -11   -1    0    0    0    0  0.00000000000E+00  0.00000000000E+00  0.45593999997E+02  0.45594000000E+02  0.51100000000E-03 0. -1.
         11   -1    0    0    0    0 -0.00000000000E+00 -0.00000000000E+00 -0.45593999997E+02  0.45594000000E+02  0.51100000000E-03 0.  1.
         23    2    1    2    0    0  0.35527136788E-14  0.00000000000E+00  0.00000000000E+00  0.91188000000E+02  0.91188000000E+02 0.  0.
    9900012    2    3    3    0    0  0.17239744827E+02 -0.18009541779E+02 -0.35525636965E+02  0.47787270990E+02  0.19999999753E+02 0.  0.
         12    1    3    3    0    0 -0.17239744827E+02  0.18009541779E+02  0.35525636965E+02  0.43400729010E+02  0.00000000000E+00 0. -1.
         11    1    4    4    0    0  0.23138464302E+01 -0.69647717804E+01 -0.24257483232E+01  0.77295657345E+01  0.51100000000E-03 0.  1.
        -11    1    4    4    0    0 -0.12912309014E+01 -0.50694439598E+01 -0.66336207363E+01  0.84481633291E+01  0.51100000000E-03 0. -1.
        -12    1    4    4    0    0  0.16217129298E+02 -0.59753260386E+01 -0.26466267906E+02  0.31609541927E+02  0.00000000000E+00 0.  1.
</event>
<event>
 8    1  0.1164123E-009  0.9118800E+02  0.7816164E-02  0.1184000E+00
        -11   -1    0    0    0    0  0.00000000000E+00  0.00000000000E+00  0.45593999997E+02  0.45594000000E+02  0.51100000000E-03 0. -1.
         11   -1    0    0    0    0 -0.00000000000E+00 -0.00000000000E+00 -0.45593999997E+02  0.45594000000E+02  0.51100000000E-03 0.  1.
         23    2    1    2    0    0  0.00000000000E+00  0.00000000000E+00  0.35527136788E-14  0.91188000000E+02  0.91188000000E+02 0.  0.
    9900012    2    3    3    0    0  0.23236246734E+02 -0.20246644548E+02 -0.30557708447E+02  0.47787270476E+02  0.19999997407E+02 0.  0.
         12    1    3    3    0    0 -0.23236246734E+02  0.20246644548E+02  0.30557708447E+02  0.43400729524E+02  0.00000000000E+00 0. -1.
         11    1    4    4    0    0  0.65333613264E+01 -0.29053177289E+01 -0.12927584947E+01  0.72661479557E+01  0.51100000000E-03 0. -1.
        -11    1    4    4    0    0  0.13653119626E+02 -0.16935159625E+02 -0.16264036884E+02  0.27161115645E+02  0.51100000000E-03 0.  1.
         12    1    4    4    0    0  0.30497657812E+01 -0.40616719444E+00 -0.13000913068E+02  0.13360006875E+02  0.00000000000E+00 0. -1.
</event>
<event>
 8    1  0.1164123E-009  0.9118800E+02  0.7816164E-02  0.1184000E+00
        -11   -1    0    0    0    0  0.00000000000E+00  0.00000000000E+00  0.45593999997E+02  0.45594000000E+02  0.51100000000E-03 0. -1.
         11   -1    0    0    0    0 -0.00000000000E+00 -0.00000000000E+00 -0.45593999997E+02  0.45594000000E+02  0.51100000000E-03 0.  1.
         23    2    1    2    0    0 -0.44408920985E-15  0.00000000000E+00  0.00000000000E+00  0.91188000000E+02  0.91188000000E+02 0.  0.
    9900012    2    3    3    0    0  0.16291385149E+01  0.41004814070E+02  0.14127070042E+02  0.47787274463E+02  0.20000015584E+02 0.  0.
        -12    1    3    3    0    0 -0.16291385149E+01 -0.41004814070E+02 -0.14127070042E+02  0.43400725537E+02  0.00000000000E+00 0.  1.
         11    1    4    4    0    0 -0.22489602975E+01  0.18913425379E+02  0.85258760734E+01  0.20867823199E+02  0.51100000000E-03 0. -1.
        -11    1    4    4    0    0 -0.26675980011E+01  0.72965245473E+00  0.35259613254E+01  0.44811689691E+01  0.51100000000E-03 0.  1.
         12    1    4    4    0    0  0.65456968136E+01  0.21361736236E+02  0.20752326434E+01  0.22438282294E+02  0.00000000000E+00 0. -1.
</event>
<event>
 8    1  0.1164123E-009  0.9118800E+02  0.7816164E-02  0.1184000E+00
        -11   -1    0    0    0    0  0.00000000000E+00  0.00000000000E+00  0.45593999997E+02  0.45594000000E+02  0.51100000000E-03 0. -1.
         11   -1    0    0    0    0 -0.00000000000E+00 -0.00000000000E+00 -0.45593999997E+02  0.45594000000E+02  0.51100000000E-03 0.  1.
         23    2    1    2    0    0  0.00000000000E+00  0.35527136788E-14  0.00000000000E+00  0.91188000000E+02  0.91188000000E+02 0.  0.
    9900012    2    3    3    0    0 -0.36121532599E+02  0.15026932146E+02  0.18789601785E+02  0.47787274865E+02  0.20000017421E+02 0.  0.
        -12    1    3    3    0    0  0.36121532599E+02 -0.15026932146E+02 -0.18789601785E+02  0.43400725135E+02  0.00000000000E+00 0.  1.
         11    1    4    4    0    0 -0.16551760554E+02  0.10762601795E+02  0.93400897431E+01  0.21841054267E+02  0.51100000000E-03 0. -1.
        -11    1    4    4    0    0 -0.12137696286E+02  0.50574398720E+01 -0.90000954683E+00  0.13179961557E+02  0.51100000000E-03 0.  1.
        -12    1    4    4    0    0 -0.74320757590E+01 -0.79310952145E+00  0.10349521589E+02  0.12766259042E+02  0.00000000000E+00 0.  1.
</event>
<event>
 8    1  0.1164123E-009  0.9118800E+02  0.7816164E-02  0.1184000E+00
        -11   -1    0    0    0    0  0.00000000000E+00  0.00000000000E+00  0.45593999997E+02  0.45594000000E+02  0.51100000000E-03 0. -1.
         11   -1    0    0    0    0 -0.00000000000E+00 -0.00000000000E+00 -0.45593999997E+02  0.45594000000E+02  0.51100000000E-03 0.  1.
         23    2    1    2    0    0  0.00000000000E+00  0.00000000000E+00  0.00000000000E+00  0.91188000000E+02  0.91188000000E+02 0.  0.
    9900012    2    3    3    0    0 -0.31880662096E+02  0.23153716124E+02 -0.18197616817E+02  0.47787257566E+02  0.19999938545E+02 0.  0.
         12    1    3    3    0    0  0.31880662096E+02 -0.23153716124E+02  0.18197616817E+02  0.43400742434E+02  0.00000000000E+00 0. -1.
         11    1    4    4    0    0 -0.13539958248E+02  0.46657442117E+01 -0.12884501772E+02  0.19264216168E+02  0.51100000000E-03 0. -1.
        -11    1    4    4    0    0 -0.11182955108E+02  0.41299936380E+01 -0.31845332208E+01  0.12339229494E+02  0.51100000000E-03 0.  1.
         12    1    4    4    0    0 -0.71577487399E+01  0.14357978275E+02 -0.21285818240E+01  0.16183811904E+02  0.00000000000E+00 0. -1.
</event>
<event>
 8    1  0.1164123E-009  0.9118800E+02  0.7816164E-02  0.1184000E+00
        -11   -1    0    0    0    0  0.00000000000E+00  0.00000000000E+00  0.45593999997E+02  0.45594000000E+02  0.51100000000E-03 0. -1.
         11   -1    0    0    0    0 -0.00000000000E+00 -0.00000000000E+00 -0.45593999997E+02  0.45594000000E+02  0.51100000000E-03 0.  1.
         23    2    1    2    0    0  0.00000000000E+00  0.00000000000E+00  0.00000000000E+00  0.91188000000E+02  0.91188000000E+02 0.  0.
    9900012    2    3    3    0    0  0.23033006177E+02 -0.61433189440E+01 -0.36267943755E+02  0.47787268608E+02  0.19999988889E+02 0.  0.
         12    1    3    3    0    0 -0.23033006177E+02  0.61433189440E+01  0.36267943755E+02  0.43400731392E+02  0.00000000000E+00 0. -1.
         11    1    4    4    0    0  0.59643056726E+00  0.25847362893E+01 -0.10042472270E+02  0.10386907175E+02  0.51100000000E-03 0. -1.
        -11    1    4    4    0    0  0.24317008386E+01 -0.29373804939E+01 -0.10886700407E+02  0.11535233814E+02  0.51100000000E-03 0.  1.
         12    1    4    4    0    0  0.20004874771E+02 -0.57906747394E+01 -0.15338771078E+02  0.25865127619E+02  0.00000000000E+00 0. -1.
</event>
<event>
 8    1  0.1164123E-009  0.9118800E+02  0.7816164E-02  0.1184000E+00
        -11   -1    0    0    0    0  0.00000000000E+00  0.00000000000E+00  0.45593999997E+02  0.45594000000E+02  0.51100000000E-03 0. -1.
         11   -1    0    0    0    0 -0.00000000000E+00 -0.00000000000E+00 -0.45593999997E+02  0.45594000000E+02  0.51100000000E-03 0.  1.
         23    2    1    2    0    0  0.00000000000E+00  0.35527136788E-14  0.35527136788E-14  0.91188000000E+02  0.91188000000E+02 0.  0.
    9900012    2    3    3    0    0 -0.16722569381E+02  0.25474058698E+02  0.30903904390E+02  0.47787270746E+02  0.19999998638E+02 0.  0.
        -12    1    3    3    0    0  0.16722569381E+02 -0.25474058698E+02 -0.30903904390E+02  0.43400729254E+02  0.00000000000E+00 0.  1.
         11    1    4    4    0    0 -0.91272641213E+01  0.88396974378E+01  0.75286900334E+01  0.14769169747E+02  0.51100000000E-03 0. -1.
        -11    1    4    4    0    0 -0.45308794995E+01 -0.16181898617E+01  0.48803843570E+01  0.68531422866E+01  0.51100000000E-03 0.  1.
        -12    1    4    4    0    0 -0.30644257607E+01  0.18252551122E+02  0.18494829999E+02  0.26164958712E+02  0.00000000000E+00 0.  1.
</event>
<event>
 8    1  0.1164123E-009  0.9118800E+02  0.7816164E-02  0.1184000E+00
        -11   -1    0    0    0    0  0.00000000000E+00  0.00000000000E+00  0.45593999997E+02  0.45594000000E+02  0.51100000000E-03 0. -1.
         11   -1    0    0    0    0 -0.00000000000E+00 -0.00000000000E+00 -0.45593999997E+02  0.45594000000E+02  0.51100000000E-03 0.  1.
         23    2    1    2    0    0  0.17763568394E-14  0.35527136788E-14 -0.35527136788E-14  0.91188000000E+02  0.91188000000E+02 0.  0.
    9900012    2    3    3    0    0 -0.13269035561E+02 -0.30524369932E+02  0.27853524198E+02  0.47787271035E+02  0.19999999957E+02 0.  0.
        -12    1    3    3    0    0  0.13269035561E+02  0.30524369932E+02 -0.27853524198E+02  0.43400728965E+02  0.00000000000E+00 0.  1.
         11    1    4    4    0    0  0.17141611233E+01 -0.52971304797E+01  0.21890289177E+01  0.59824566475E+01  0.51100000000E-03 0. -1.
        -11    1    4    4    0    0 -0.17789221148E+02 -0.20842804515E+02  0.18984197458E+02  0.33335846209E+02  0.51100000000E-03 0.  1.
        -12    1    4    4    0    0  0.28060244637E+01 -0.43844349371E+01  0.66802978231E+01  0.84689681788E+01  0.00000000000E+00 0.  1.
</event>
<event>
 8    1  0.1164123E-009  0.9118800E+02  0.7816164E-02  0.1184000E+00
        -11   -1    0    0    0    0  0.00000000000E+00  0.00000000000E+00  0.45593999997E+02  0.45594000000E+02  0.51100000000E-03 0. -1.
         11   -1    0    0    0    0 -0.00000000000E+00 -0.00000000000E+00 -0.45593999997E+02  0.45594000000E+02  0.51100000000E-03 0.  1.
         23    2    1    2    0    0  0.00000000000E+00 -0.17763568394E-14  0.00000000000E+00  0.91188000000E+02  0.91188000000E+02 0.  0.
    9900012    2    3    3    0    0  0.23004400579E+02 -0.15371640706E+02  0.33438513004E+02  0.47787263418E+02  0.19999965226E+02 0.  0.
        -12    1    3    3    0    0 -0.23004400579E+02  0.15371640706E+02 -0.33438513004E+02  0.43400736582E+02  0.00000000000E+00 0.  1.
         11    1    4    4    0    0  0.19505279186E+00  0.13655599714E+01  0.31586315146E+01  0.34467017471E+01  0.51100000000E-03 0. -1.
        -11    1    4    4    0    0  0.33580274185E+01 -0.89940455748E+01  0.32174393115E+01  0.10125271351E+02  0.51100000000E-03 0.  1.
         12    1    4    4    0    0  0.19451320368E+02 -0.77431551021E+01  0.27062442178E+02  0.34215290320E+02  0.00000000000E+00 0. -1.
</event>
<event>
 8    1  0.1164123E-009  0.9118800E+02  0.7816164E-02  0.1184000E+00
        -11   -1    0    0    0    0  0.00000000000E+00  0.00000000000E+00  0.45593999997E+02  0.45594000000E+02  0.51100000000E-03 0. -1.
         11   -1    0    0    0    0 -0.00000000000E+00 -0.00000000000E+00 -0.45593999997E+02  0.45594000000E+02  0.51100000000E-03 0.  1.
         23    2    1    2    0    0 -0.35527136788E-14  0.00000000000E+00  0.00000000000E+00  0.91188000000E+02  0.91188000000E+02 0.  0.
    9900012    2    3    3    0    0  0.20197718440E+02  0.21897098207E+02  0.31562514640E+02  0.47787273388E+02  0.20000010684E+02 0.  0.
        -12    1    3    3    0    0 -0.20197718440E+02 -0.21897098207E+02 -0.31562514640E+02  0.43400726612E+02  0.00000000000E+00 0.  1.
         11    1    4    4    0    0  0.16431726773E+01  0.48837210901E+01  0.56384869712E+01  0.76382775361E+01  0.51100000000E-03 0. -1.
        -11    1    4    4    0    0  0.16280408088E+02  0.38738004364E+01  0.10484260179E+02  0.19747853784E+02  0.51100000000E-03 0.  1.
         12    1    4    4    0    0  0.22741376751E+01  0.13139576680E+02  0.15439767490E+02  0.20401142067E+02  0.00000000000E+00 0. -1.
</event>
<event>
 8    1  0.1164123E-009  0.9118800E+02  0.7816164E-02  0.1184000E+00
        -11   -1    0    0    0    0  0.00000000000E+00  0.00000000000E+00  0.45593999997E+02  0.45594000000E+02  0.51100000000E-03 0.  1.
         11   -1    0    0    0    0 -0.00000000000E+00 -0.00000000000E+00 -0.45593999997E+02  0.45594000000E+02  0.51100000000E-03 0. -1.
         23    2    1    2    0    0  0.71054273576E-14  0.00000000000E+00  0.00000000000E+00  0.91188000000E+02  0.91188000000E+02 0.  0.
    9900012    2    3    3    0    0  0.39628245691E+02  0.17136941376E+02  0.44216352717E+01  0.47787268731E+02  0.19999989451E+02 0.  0.
        -12    1    3    3    0    0 -0.39628245691E+02 -0.17136941376E+02 -0.44216352717E+01  0.43400731269E+02  0.00000000000E+00 0.  1.
         11    1    4    4    0    0  0.88756751262E+01  0.20221526000E+01  0.64797505994E+00  0.91261482578E+01  0.51100000000E-03 0. -1.
        -11    1    4    4    0    0 -0.64703451099E+00  0.14148539818E+00 -0.31269300584E+01  0.31963046832E+01  0.51100000000E-03 0.  1.
        -12    1    4    4    0    0  0.31399605075E+02  0.14973303377E+02  0.69005902702E+01  0.35464815790E+02  0.00000000000E+00 0.  1.
</event>
<event>
 8    1  0.1164123E-009  0.9118800E+02  0.7816164E-02  0.1184000E+00
        -11   -1    0    0    0    0  0.00000000000E+00  0.00000000000E+00  0.45593999997E+02  0.45594000000E+02  0.51100000000E-03 0. -1.
         11   -1    0    0    0    0 -0.00000000000E+00 -0.00000000000E+00 -0.45593999997E+02  0.45594000000E+02  0.51100000000E-03 0.  1.
         23    2    1    2    0    0  0.00000000000E+00  0.00000000000E+00  0.00000000000E+00  0.91188000000E+02  0.91188000000E+02 0.  0.
    9900012    2    3    3    0    0 -0.32544615864E+02  0.14138468077E+02 -0.24991503121E+02  0.47787268099E+02  0.19999986572E+02 0.  0.
         12    1    3    3    0    0  0.32544615864E+02 -0.14138468077E+02  0.24991503121E+02  0.43400731901E+02  0.00000000000E+00 0. -1.
         11    1    4    4    0    0  0.19998744639E+01  0.15411697772E+01  0.26630963153E+00  0.25388231987E+01  0.51100000000E-03 0. -1.
        -11    1    4    4    0    0  0.25272200725E+00  0.43514089307E+00 -0.10052940612E+01  0.11242030156E+01  0.51100000000E-03 0.  1.
        -12    1    4    4    0    0 -0.34797212335E+02  0.12162157407E+02 -0.24252518691E+02  0.44124241885E+02  0.00000000000E+00 0.  1.
</event>
<event>
 8    1  0.1164123E-009  0.9118800E+02  0.7816164E-02  0.1184000E+00
        -11   -1    0    0    0    0  0.00000000000E+00  0.00000000000E+00  0.45593999997E+02  0.45594000000E+02  0.51100000000E-03 0. -1.
         11   -1    0    0    0    0 -0.00000000000E+00 -0.00000000000E+00 -0.45593999997E+02  0.45594000000E+02  0.51100000000E-03 0.  1.
         23    2    1    2    0    0  0.00000000000E+00 -0.22204460493E-15  0.71054273576E-14  0.91188000000E+02  0.91188000000E+02 0.  0.
    9900012    2    3    3    0    0  0.27380232113E+02 -0.16639504996E+01  0.33632977822E+02  0.47787273750E+02  0.20000012336E+02 0.  0.
        -12    1    3    3    0    0 -0.27380232113E+02  0.16639504996E+01 -0.33632977822E+02  0.43400726250E+02  0.00000000000E+00 0.  1.
         11    1    4    4    0    0  0.50471971798E+01  0.16264446061E+01  0.14460396481E+02  0.15402031946E+02  0.51100000000E-03 0. -1.
        -11    1    4    4    0    0  0.22936136387E+00  0.12729478742E+01 -0.13573959311E+01  0.18749738399E+01  0.51100000000E-03 0.  1.
         12    1    4    4    0    0  0.22103673570E+02 -0.45633429798E+01  0.20529977272E+02  0.30510267964E+02  0.00000000000E+00 0. -1.
</event>
<event>
 8    1  0.1164123E-009  0.9118800E+02  0.7816164E-02  0.1184000E+00
        -11   -1    0    0    0    0  0.00000000000E+00  0.00000000000E+00  0.45593999997E+02  0.45594000000E+02  0.51100000000E-03 0. -1.
         11   -1    0    0    0    0 -0.00000000000E+00 -0.00000000000E+00 -0.45593999997E+02  0.45594000000E+02  0.51100000000E-03 0.  1.
         23    2    1    2    0    0  0.00000000000E+00  0.00000000000E+00  0.00000000000E+00  0.91188000000E+02  0.91188000000E+02 0.  0.
    9900012    2    3    3    0    0 -0.70516323839E+01  0.22322861111E+02  0.36545693172E+02  0.47787270319E+02  0.19999996692E+02 0.  0.
        -12    1    3    3    0    0  0.70516323839E+01 -0.22322861111E+02 -0.36545693172E+02  0.43400729681E+02  0.00000000000E+00 0.  1.
         11    1    4    4    0    0 -0.40163191036E+00 -0.20056914597E+01  0.42546490014E+01  0.47208203534E+01  0.51100000000E-03 0. -1.
        -11    1    4    4    0    0  0.61498507651E+00 -0.64595517183E-01 -0.99079276877E+00  0.11679254244E+01  0.51100000000E-03 0.  1.
        -12    1    4    4    0    0 -0.72649855500E+01  0.24393148088E+02  0.33281836939E+02  0.41898524541E+02  0.00000000000E+00 0.  1.
</event>
<event>
 8    1  0.1164123E-009  0.9118800E+02  0.7816164E-02  0.1184000E+00
        -11   -1    0    0    0    0  0.00000000000E+00  0.00000000000E+00  0.45593999997E+02  0.45594000000E+02  0.51100000000E-03 0. -1.
         11   -1    0    0    0    0 -0.00000000000E+00 -0.00000000000E+00 -0.45593999997E+02  0.45594000000E+02  0.51100000000E-03 0.  1.
         23    2    1    2    0    0 -0.26645352591E-14  0.00000000000E+00  0.00000000000E+00  0.91188000000E+02  0.91188000000E+02 0.  0.
    9900012    2    3    3    0    0 -0.58034645327E+01  0.33928721388E+02  0.26434535724E+02  0.47787274032E+02  0.20000013621E+02 0.  0.
        -12    1    3    3    0    0  0.58034645327E+01 -0.33928721388E+02 -0.26434535724E+02  0.43400725968E+02  0.00000000000E+00 0.  1.
         11    1    4    4    0    0 -0.48016183120E+01  0.74079469473E+01  0.65837922210E+01  0.11012698882E+02  0.51100000000E-03 0. -1.
        -11    1    4    4    0    0 -0.40865212488E+01  0.18965459608E+02  0.53330127994E+01  0.20120371265E+02  0.51100000000E-03 0.  1.
         12    1    4    4    0    0  0.30846750281E+01  0.75553148323E+01  0.14517730704E+02  0.16654203885E+02  0.00000000000E+00 0. -1.
</event>
<event>
 8    1  0.1164123E-009  0.9118800E+02  0.7816164E-02  0.1184000E+00
        -11   -1    0    0    0    0  0.00000000000E+00  0.00000000000E+00  0.45593999997E+02  0.45594000000E+02  0.51100000000E-03 0. -1.
         11   -1    0    0    0    0 -0.00000000000E+00 -0.00000000000E+00 -0.45593999997E+02  0.45594000000E+02  0.51100000000E-03 0.  1.
         23    2    1    2    0    0  0.00000000000E+00  0.00000000000E+00 -0.71054273576E-14  0.91188000000E+02  0.91188000000E+02 0.  0.
    9900012    2    3    3    0    0  0.17462463903E+02  0.13688171939E+02 -0.37300397460E+02  0.47787270199E+02  0.19999996146E+02 0.  0.
         12    1    3    3    0    0 -0.17462463903E+02 -0.13688171939E+02  0.37300397460E+02  0.43400729801E+02  0.00000000000E+00 0. -1.
         11    1    4    4    0    0  0.98196729904E+00 -0.34854143120E+01 -0.10466078756E+02  0.11074799208E+02  0.51100000000E-03 0. -1.
        -11    1    4    4    0    0  0.10698127467E+01  0.26426197058E+01 -0.75399026553E+01  0.80608976259E+01  0.51100000000E-03 0.  1.
        -12    1    4    4    0    0  0.15410683857E+02  0.14530966545E+02 -0.19294416048E+02  0.28651573366E+02  0.00000000000E+00 0.  1.
</event>
<event>
 8    1  0.1164123E-009  0.9118800E+02  0.7816164E-02  0.1184000E+00
        -11   -1    0    0    0    0  0.00000000000E+00  0.00000000000E+00  0.45593999997E+02  0.45594000000E+02  0.51100000000E-03 0. -1.
         11   -1    0    0    0    0 -0.00000000000E+00 -0.00000000000E+00 -0.45593999997E+02  0.45594000000E+02  0.51100000000E-03 0.  1.
         23    2    1    2    0    0  0.00000000000E+00  0.35527136788E-14  0.00000000000E+00  0.91188000000E+02  0.91188000000E+02 0.  0.
    9900012    2    3    3    0    0  0.10024615589E+02 -0.28388246289E+02 -0.31260801505E+02  0.47787272405E+02  0.20000006203E+02 0.  0.
         12    1    3    3    0    0 -0.10024615589E+02  0.28388246289E+02  0.31260801505E+02  0.43400727595E+02  0.00000000000E+00 0. -1.
         11    1    4    4    0    0  0.67594069661E+01 -0.19403342842E+02 -0.99607997954E+01  0.22834115459E+02  0.51100000000E-03 0. -1.
        -11    1    4    4    0    0  0.74339355542E+00 -0.57362398831E+01 -0.36709607364E+01  0.68507689323E+01  0.51100000000E-03 0.  1.
        -12    1    4    4    0    0  0.25218150673E+01 -0.32486635643E+01 -0.17629040973E+02  0.18102388014E+02  0.00000000000E+00 0.  1.
</event>
<event>
 8    1  0.1164123E-009  0.9118800E+02  0.7816164E-02  0.1184000E+00
        -11   -1    0    0    0    0  0.00000000000E+00  0.00000000000E+00  0.45593999997E+02  0.45594000000E+02  0.51100000000E-03 0.  1.
         11   -1    0    0    0    0 -0.00000000000E+00 -0.00000000000E+00 -0.45593999997E+02  0.45594000000E+02  0.51100000000E-03 0. -1.
         23    2    1    2    0    0 -0.17763568394E-14  0.00000000000E+00  0.00000000000E+00  0.91188000000E+02  0.91188000000E+02 0.  0.
    9900012    2    3    3    0    0 -0.97919861326E+01  0.33175209686E+02  0.26213460580E+02  0.47787273673E+02  0.20000011986E+02 0.  0.
        -12    1    3    3    0    0  0.97919861326E+01 -0.33175209686E+02 -0.26213460580E+02  0.43400726327E+02  0.00000000000E+00 0.  1.
         11    1    4    4    0    0 -0.10042003706E+02  0.29332265176E+02  0.16314937612E+02  0.35034280474E+02  0.51100000000E-03 0. -1.
        -11    1    4    4    0    0 -0.25715367098E+01  0.77134616032E+00  0.89441791350E+00  0.28297985112E+01  0.51100000000E-03 0.  1.
        -12    1    4    4    0    0  0.28215542828E+01  0.30715983494E+01  0.90041050543E+01  0.99231946882E+01  0.00000000000E+00 0.  1.
</event>
<event>
 8    1  0.1810713E-009  0.9118800E+02  0.7816164E-02  0.1184000E+00
        -11   -1    0    0    0    0  0.00000000000E+00  0.00000000000E+00  0.45593999997E+02  0.45594000000E+02  0.51100000000E-03 0. -1.
         11   -1    0    0    0    0 -0.00000000000E+00 -0.00000000000E+00 -0.45593999997E+02  0.45594000000E+02  0.51100000000E-03 0.  1.
         23    2    1    2    0    0 -0.22204460493E-15  0.00000000000E+00 -0.71054273576E-14  0.91188000000E+02  0.91188000000E+02 0.  0.
    9900012    2    3    3    0    0 -0.75599791123E+00 -0.10128844221E+02 -0.42195485013E+02  0.47787262984E+02  0.19999963248E+02 0.  0.
         12    1    3    3    0    0  0.75599791123E+00  0.10128844221E+02  0.42195485013E+02  0.43400737016E+02  0.00000000000E+00 0. -1.
         11    1    4    4    0    0 -0.26860338271E+01 -0.21303072369E+01 -0.15015620354E+00  0.34315497651E+01  0.51100000000E-03 0. -1.
        -11    1    4    4    0    0  0.40799185343E+01 -0.52970283905E+01 -0.94392533881E+01  0.11567357079E+02  0.51100000000E-03 0.  1.
        -12    1    4    4    0    0 -0.21498826184E+01 -0.27015085933E+01 -0.32606075421E+02  0.32788356139E+02  0.00000000000E+00 0.  1.
</event>
<event>
 8    1  0.1164123E-009  0.9118800E+02  0.7816164E-02  0.1184000E+00
        -11   -1    0    0    0    0  0.00000000000E+00  0.00000000000E+00  0.45593999997E+02  0.45594000000E+02  0.51100000000E-03 0. -1.
         11   -1    0    0    0    0 -0.00000000000E+00 -0.00000000000E+00 -0.45593999997E+02  0.45594000000E+02  0.51100000000E-03 0.  1.
         23    2    1    2    0    0  0.00000000000E+00  0.00000000000E+00  0.00000000000E+00  0.91188000000E+02  0.91188000000E+02 0.  0.
    9900012    2    3    3    0    0  0.25334221342E+02  0.26406692458E+02 -0.23334246546E+02  0.47787271441E+02  0.20000001809E+02 0.  0.
         12    1    3    3    0    0 -0.25334221342E+02 -0.26406692458E+02  0.23334246546E+02  0.43400728559E+02  0.00000000000E+00 0. -1.
         11    1    4    4    0    0  0.22459938480E+01  0.18842450974E+01  0.20447849425E+01  0.35743550012E+01  0.51100000000E-03 0. -1.
        -11    1    4    4    0    0  0.66346734034E+01  0.58654363288E+01 -0.25795692310E+00  0.88593891738E+01  0.51100000000E-03 0.  1.
         12    1    4    4    0    0  0.16453554091E+02  0.18657011031E+02 -0.25121074565E+02  0.35353527266E+02  0.00000000000E+00 0. -1.
</event>
<event>
 8    1  0.1164123E-009  0.9118800E+02  0.7816164E-02  0.1184000E+00
        -11   -1    0    0    0    0  0.00000000000E+00  0.00000000000E+00  0.45593999997E+02  0.45594000000E+02  0.51100000000E-03 0. -1.
         11   -1    0    0    0    0 -0.00000000000E+00 -0.00000000000E+00 -0.45593999997E+02  0.45594000000E+02  0.51100000000E-03 0.  1.
         23    2    1    2    0    0  0.00000000000E+00  0.00000000000E+00  0.00000000000E+00  0.91188000000E+02  0.91188000000E+02 0.  0.
    9900012    2    3    3    0    0 -0.27517362875E+02 -0.16975156260E+02 -0.28952757942E+02  0.47787269798E+02  0.19999994315E+02 0.  0.
         12    1    3    3    0    0  0.27517362875E+02  0.16975156260E+02  0.28952757942E+02  0.43400730202E+02  0.00000000000E+00 0. -1.
         11    1    4    4    0    0 -0.11404251893E+02 -0.16951085445E+02 -0.12609496587E+02  0.24008241573E+02  0.51100000000E-03 0. -1.
        -11    1    4    4    0    0 -0.73057074418E+01 -0.24246048176E+01 -0.10188097522E+02  0.12769079886E+02  0.51100000000E-03 0.  1.
        -12    1    4    4    0    0 -0.88074035404E+01  0.24005340017E+01 -0.61551638327E+01  0.11009948339E+02  0.00000000000E+00 0.  1.
</event>
<event>
 8    1  0.1164123E-009  0.9118800E+02  0.7816164E-02  0.1184000E+00
        -11   -1    0    0    0    0  0.00000000000E+00  0.00000000000E+00  0.45593999997E+02  0.45594000000E+02  0.51100000000E-03 0. -1.
         11   -1    0    0    0    0 -0.00000000000E+00 -0.00000000000E+00 -0.45593999997E+02  0.45594000000E+02  0.51100000000E-03 0.  1.
         23    2    1    2    0    0  0.00000000000E+00 -0.71054273576E-14 -0.17763568394E-14  0.91188000000E+02  0.91188000000E+02 0.  0.
    9900012    2    3    3    0    0 -0.13306934924E+02  0.39410909228E+02 -0.12382595688E+02  0.47787274669E+02  0.20000016525E+02 0.  0.
         12    1    3    3    0    0  0.13306934924E+02 -0.39410909228E+02  0.12382595688E+02  0.43400725331E+02  0.00000000000E+00 0. -1.
         11    1    4    4    0    0 -0.40071105914E+01  0.95941373883E+01  0.32397639207E+00  0.10402373214E+02  0.51100000000E-03 0. -1.
        -11    1    4    4    0    0  0.16646475535E+01  0.21059116142E+02 -0.78187950049E+01  0.22525340835E+02  0.51100000000E-03 0.  1.
         12    1    4    4    0    0 -0.10964471886E+02  0.87576556984E+01 -0.48877770756E+01  0.14859560620E+02  0.00000000000E+00 0. -1.
</event>
<event>
 8    1  0.1287171E-009  0.9118800E+02  0.7816164E-02  0.1184000E+00
        -11   -1    0    0    0    0  0.00000000000E+00  0.00000000000E+00  0.45593999997E+02  0.45594000000E+02  0.51100000000E-03 0. -1.
         11   -1    0    0    0    0 -0.00000000000E+00 -0.00000000000E+00 -0.45593999997E+02  0.45594000000E+02  0.51100000000E-03 0.  1.
         23    2    1    2    0    0 -0.11102230246E-14 -0.17763568394E-14 -0.71054273576E-14  0.91188000000E+02  0.91188000000E+02 0.  0.
    9900012    2    3    3    0    0  0.68501066309E+00 -0.14598665486E+02 -0.40866041351E+02  0.47787267181E+02  0.19999982383E+02 0.  0.
         12    1    3    3    0    0 -0.68501066309E+00  0.14598665486E+02  0.40866041351E+02  0.43400732819E+02  0.00000000000E+00 0. -1.
         11    1    4    4    0    0  0.58755763215E+01 -0.24016898144E+01 -0.47178358165E+01  0.79087600878E+01  0.51100000000E-03 0. -1.
        -11    1    4    4    0    0  0.66373270063E+00 -0.25542685339E+01 -0.20040330793E+02  0.20213354185E+02  0.51100000000E-03 0.  1.
        -12    1    4    4    0    0 -0.58542983590E+01 -0.96427071378E+01 -0.16107874741E+02  0.19665152908E+02  0.00000000000E+00 0.  1.
</event>
<event>
 8    1  0.1164123E-009  0.9118800E+02  0.7816164E-02  0.1184000E+00
        -11   -1    0    0    0    0  0.00000000000E+00  0.00000000000E+00  0.45593999997E+02  0.45594000000E+02  0.51100000000E-03 0. -1.
         11   -1    0    0    0    0 -0.00000000000E+00 -0.00000000000E+00 -0.45593999997E+02  0.45594000000E+02  0.51100000000E-03 0.  1.
         23    2    1    2    0    0  0.00000000000E+00 -0.35527136788E-14  0.00000000000E+00  0.91188000000E+02  0.91188000000E+02 0.  0.
    9900012    2    3    3    0    0 -0.43356448484E+01 -0.23135991382E+02 -0.36463000197E+02  0.47787282300E+02  0.20000051318E+02 0.  0.
         12    1    3    3    0    0  0.43356448484E+01  0.23135991382E+02  0.36463000197E+02  0.43400717700E+02  0.00000000000E+00 0. -1.
         11    1    4    4    0    0 -0.28158915774E+01 -0.12409584651E+02 -0.17596770287E+02  0.21715739945E+02  0.51100000000E-03 0.  1.
        -11    1    4    4    0    0 -0.39783362205E+01 -0.12617717227E+02 -0.97290153619E+01  0.16422170602E+02  0.51100000000E-03 0. -1.
         12    1    4    4    0    0  0.24585829495E+01  0.18913104960E+01 -0.91372145486E+01  0.96493717525E+01  0.00000000000E+00 0. -1.
</event>
<event>
 8    1  0.1164123E-009  0.9118800E+02  0.7816164E-02  0.1184000E+00
        -11   -1    0    0    0    0  0.00000000000E+00  0.00000000000E+00  0.45593999997E+02  0.45594000000E+02  0.51100000000E-03 0. -1.
         11   -1    0    0    0    0 -0.00000000000E+00 -0.00000000000E+00 -0.45593999997E+02  0.45594000000E+02  0.51100000000E-03 0.  1.
         23    2    1    2    0    0  0.00000000000E+00  0.00000000000E+00 -0.71054273576E-14  0.91188000000E+02  0.91188000000E+02 0.  0.
    9900012    2    3    3    0    0  0.23046810222E+01  0.22198169284E+02 -0.37223008951E+02  0.47787278006E+02  0.20000031742E+02 0.  0.
         12    1    3    3    0    0 -0.23046810222E+01 -0.22198169284E+02  0.37223008951E+02  0.43400721994E+02  0.00000000000E+00 0. -1.
         11    1    4    4    0    0 -0.90560560796E-01  0.12102845083E+02 -0.22138193867E+02  0.25230669596E+02  0.51100000000E-03 0. -1.
        -11    1    4    4    0    0 -0.46237077921E+01  0.23568832536E+01 -0.92077059469E+01  0.10569551622E+02  0.51100000000E-03 0.  1.
         12    1    4    4    0    0  0.70189493751E+01  0.77384409480E+01 -0.58771091372E+01  0.11987056788E+02  0.00000000000E+00 0. -1.
</event>
<event>
 8    1  0.1164123E-009  0.9118800E+02  0.7816164E-02  0.1184000E+00
        -11   -1    0    0    0    0  0.00000000000E+00  0.00000000000E+00  0.45593999997E+02  0.45594000000E+02  0.51100000000E-03 0. -1.
         11   -1    0    0    0    0 -0.00000000000E+00 -0.00000000000E+00 -0.45593999997E+02  0.45594000000E+02  0.51100000000E-03 0.  1.
         23    2    1    2    0    0  0.71054273576E-14  0.00000000000E+00  0.00000000000E+00  0.91188000000E+02  0.91188000000E+02 0.  0.
    9900012    2    3    3    0    0 -0.41159418935E+02 -0.12939803518E+02 -0.46997104213E+01  0.47787267745E+02  0.19999984958E+02 0.  0.
         12    1    3    3    0    0  0.41159418935E+02  0.12939803518E+02  0.46997104213E+01  0.43400732255E+02  0.00000000000E+00 0. -1.
         11    1    4    4    0    0 -0.15540887414E+02 -0.18392770928E+01  0.42409729445E+01  0.16213820451E+02  0.51100000000E-03 0. -1.
        -11    1    4    4    0    0 -0.14839030778E+02 -0.39679874728E+01  0.81117310401E+00  0.15381799670E+02  0.51100000000E-03 0.  1.
         12    1    4    4    0    0 -0.10779500743E+02 -0.71325389528E+01 -0.97518564699E+01  0.16191647625E+02  0.00000000000E+00 0. -1.
</event>
<event>
 8    1  0.1164123E-009  0.9118800E+02  0.7816164E-02  0.1184000E+00
        -11   -1    0    0    0    0  0.00000000000E+00  0.00000000000E+00  0.45593999997E+02  0.45594000000E+02  0.51100000000E-03 0. -1.
         11   -1    0    0    0    0 -0.00000000000E+00 -0.00000000000E+00 -0.45593999997E+02  0.45594000000E+02  0.51100000000E-03 0.  1.
         23    2    1    2    0    0  0.71054273576E-14 -0.88817841970E-15  0.00000000000E+00  0.91188000000E+02  0.91188000000E+02 0.  0.
    9900012    2    3    3    0    0 -0.32082647346E+02  0.55960794837E+01  0.28688167118E+02  0.47787270756E+02  0.19999998686E+02 0.  0.
        -12    1    3    3    0    0  0.32082647346E+02 -0.55960794837E+01 -0.28688167118E+02  0.43400729244E+02  0.00000000000E+00 0.  1.
         11    1    4    4    0    0 -0.13206317491E+02  0.17631077634E+01  0.16448964377E+02  0.21167989985E+02  0.51100000000E-03 0. -1.
        -11    1    4    4    0    0 -0.95442429469E+01 -0.48931575472E+01  0.70170291812E+01  0.12816952173E+02  0.51100000000E-03 0.  1.
        -12    1    4    4    0    0 -0.93320869081E+01  0.87261292674E+01  0.52221735594E+01  0.13802328598E+02  0.00000000000E+00 0.  1.
</event>
<event>
 8    1  0.1164123E-009  0.9118800E+02  0.7816164E-02  0.1184000E+00
        -11   -1    0    0    0    0  0.00000000000E+00  0.00000000000E+00  0.45593999997E+02  0.45594000000E+02  0.51100000000E-03 0.  1.
         11   -1    0    0    0    0 -0.00000000000E+00 -0.00000000000E+00 -0.45593999997E+02  0.45594000000E+02  0.51100000000E-03 0. -1.
         23    2    1    2    0    0  0.00000000000E+00  0.00000000000E+00 -0.35527136788E-14  0.91188000000E+02  0.91188000000E+02 0.  0.
    9900012    2    3    3    0    0 -0.19773493005E+02 -0.32316351389E+02  0.21172757991E+02  0.47787271047E+02  0.20000000012E+02 0.  0.
        -12    1    3    3    0    0  0.19773493005E+02  0.32316351389E+02 -0.21172757991E+02  0.43400728953E+02  0.00000000000E+00 0.  1.
         11    1    4    4    0    0 -0.15773180281E+01 -0.35708701776E+01  0.40878499915E+01  0.56523945192E+01  0.51100000000E-03 0.  1.
        -11    1    4    4    0    0 -0.72151449118E+01 -0.24780477678E+02  0.16097879240E+02  0.30418285724E+02  0.51100000000E-03 0. -1.
         12    1    4    4    0    0 -0.10981030065E+02 -0.39650035330E+01  0.98702875915E+00  0.11716590804E+02  0.00000000000E+00 0. -1.
</event>
<event>
 8    1  0.1164123E-009  0.9118800E+02  0.7816164E-02  0.1184000E+00
        -11   -1    0    0    0    0  0.00000000000E+00  0.00000000000E+00  0.45593999997E+02  0.45594000000E+02  0.51100000000E-03 0. -1.
         11   -1    0    0    0    0 -0.00000000000E+00 -0.00000000000E+00 -0.45593999997E+02  0.45594000000E+02  0.51100000000E-03 0.  1.
         23    2    1    2    0    0  0.00000000000E+00  0.00000000000E+00  0.35527136788E-14  0.91188000000E+02  0.91188000000E+02 0.  0.
    9900012    2    3    3    0    0  0.38147628501E+02  0.10357870795E+02  0.17919155805E+02  0.47787271982E+02  0.20000004276E+02 0.  0.
        -12    1    3    3    0    0 -0.38147628501E+02 -0.10357870795E+02 -0.17919155805E+02  0.43400728018E+02  0.00000000000E+00 0.  1.
         11    1    4    4    0    0  0.18205280739E+02  0.73518091460E+01  0.21742601417E+01  0.19753702234E+02  0.51100000000E-03 0. -1.
        -11    1    4    4    0    0  0.13138457503E+02 -0.28978342409E+01  0.59053150369E+01  0.14693170345E+02  0.51100000000E-03 0.  1.
        -12    1    4    4    0    0  0.68038902592E+01  0.59038958896E+01  0.98395806267E+01  0.13340399403E+02  0.00000000000E+00 0.  1.
</event>
<event>
 8    1  0.1164123E-009  0.9118800E+02  0.7816164E-02  0.1184000E+00
        -11   -1    0    0    0    0  0.00000000000E+00  0.00000000000E+00  0.45593999997E+02  0.45594000000E+02  0.51100000000E-03 0. -1.
         11   -1    0    0    0    0 -0.00000000000E+00 -0.00000000000E+00 -0.45593999997E+02  0.45594000000E+02  0.51100000000E-03 0.  1.
         23    2    1    2    0    0  0.17763568394E-14  0.00000000000E+00 -0.71054273576E-14  0.91188000000E+02  0.91188000000E+02 0.  0.
    9900012    2    3    3    0    0  0.13568923838E+02  0.73695857001E+01 -0.40561036243E+02  0.47787260967E+02  0.19999954054E+02 0.  0.
         12    1    3    3    0    0 -0.13568923838E+02 -0.73695857001E+01  0.40561036243E+02  0.43400739033E+02  0.00000000000E+00 0. -1.
         11    1    4    4    0    0  0.75662905445E+01  0.21611283822E+01 -0.25215208958E+02  0.26414503432E+02  0.51100000000E-03 0. -1.
        -11    1    4    4    0    0  0.88307643655E+01  0.42496404485E+01 -0.15548904924E+02  0.18379616096E+02  0.51100000000E-03 0.  1.
        -12    1    4    4    0    0 -0.28281310720E+01  0.95881686934E+00  0.20307763987E+00  0.29931414396E+01  0.00000000000E+00 0.  1.
</event>
<event>
 8    1  0.1164123E-009  0.9118800E+02  0.7816164E-02  0.1184000E+00
        -11   -1    0    0    0    0  0.00000000000E+00  0.00000000000E+00  0.45593999997E+02  0.45594000000E+02  0.51100000000E-03 0.  1.
         11   -1    0    0    0    0 -0.00000000000E+00 -0.00000000000E+00 -0.45593999997E+02  0.45594000000E+02  0.51100000000E-03 0. -1.
         23    2    1    2    0    0  0.00000000000E+00  0.11102230246E-14  0.00000000000E+00  0.91188000000E+02  0.91188000000E+02 0.  0.
    9900012    2    3    3    0    0 -0.36920347993E+02 -0.10273362042E+01  0.22791568526E+02  0.47787272916E+02  0.20000008532E+02 0.  0.
        -12    1    3    3    0    0  0.36920347993E+02  0.10273362042E+01 -0.22791568526E+02  0.43400727084E+02  0.00000000000E+00 0.  1.
         11    1    4    4    0    0 -0.10549045802E+02  0.60732749764E+01  0.11801262615E+01  0.12229461743E+02  0.51100000000E-03 0. -1.
        -11    1    4    4    0    0 -0.20458098235E+01 -0.25885553436E+01  0.40210656062E+01  0.52014349435E+01  0.51100000000E-03 0.  1.
         12    1    4    4    0    0 -0.24325492367E+02 -0.45120558370E+01  0.17590376658E+02  0.30356376229E+02  0.00000000000E+00 0. -1.
</event>
<event>
 8    1  0.1494385E-009  0.9118800E+02  0.7816164E-02  0.1184000E+00
        -11   -1    0    0    0    0  0.00000000000E+00  0.00000000000E+00  0.45593999997E+02  0.45594000000E+02  0.51100000000E-03 0. -1.
         11   -1    0    0    0    0 -0.00000000000E+00 -0.00000000000E+00 -0.45593999997E+02  0.45594000000E+02  0.51100000000E-03 0.  1.
         23    2    1    2    0    0  0.00000000000E+00  0.00000000000E+00  0.00000000000E+00  0.91188000000E+02  0.91188000000E+02 0.  0.
    9900012    2    3    3    0    0 -0.63186204871E+01 -0.23280641892E+01 -0.42875168942E+02  0.47787251625E+02  0.19999911457E+02 0.  0.
         12    1    3    3    0    0  0.63186204871E+01  0.23280641892E+01  0.42875168942E+02  0.43400748375E+02  0.00000000000E+00 0. -1.
         11    1    4    4    0    0 -0.18534689755E+00 -0.78043895118E+00  0.95448359107E+00  0.12467869167E+01  0.51100000000E-03 0. -1.
        -11    1    4    4    0    0  0.43123481214E+01 -0.15781599153E+01 -0.20025891342E+02  0.20545638451E+02  0.51100000000E-03 0.  1.
        -12    1    4    4    0    0 -0.10445621711E+02  0.30534677263E-01 -0.23803761191E+02  0.25994826257E+02  0.00000000000E+00 0.  1.
</event>
<event>
 8    1  0.1164123E-009  0.9118800E+02  0.7816164E-02  0.1184000E+00
        -11   -1    0    0    0    0  0.00000000000E+00  0.00000000000E+00  0.45593999997E+02  0.45594000000E+02  0.51100000000E-03 0. -1.
         11   -1    0    0    0    0 -0.00000000000E+00 -0.00000000000E+00 -0.45593999997E+02  0.45594000000E+02  0.51100000000E-03 0.  1.
         23    2    1    2    0    0  0.00000000000E+00  0.35527136788E-14 -0.35527136788E-14  0.91188000000E+02  0.91188000000E+02 0.  0.
    9900012    2    3    3    0    0  0.31474199247E+02 -0.14385797444E+02  0.26192574011E+02  0.47787224434E+02  0.19999787485E+02 0.  0.
         12    1    3    3    0    0 -0.31474199247E+02  0.14385797444E+02 -0.26192574011E+02  0.43400775566E+02  0.00000000000E+00 0. -1.
         11    1    4    4    0    0  0.93890375550E+01 -0.86873870285E+01  0.47447403915E+01  0.13643213743E+02  0.51100000000E-03 0. -1.
        -11    1    4    4    0    0  0.21016513406E+02 -0.53869152897E+01  0.12322597037E+02  0.24951134044E+02  0.51100000000E-03 0.  1.
        -12    1    4    4    0    0  0.10686482863E+01 -0.31149512610E+00  0.91252365819E+01  0.91928766471E+01  0.00000000000E+00 0.  1.
</event>
<event>
 8    1  0.1164123E-009  0.9118800E+02  0.7816164E-02  0.1184000E+00
        -11   -1    0    0    0    0  0.00000000000E+00  0.00000000000E+00  0.45593999997E+02  0.45594000000E+02  0.51100000000E-03 0. -1.
         11   -1    0    0    0    0 -0.00000000000E+00 -0.00000000000E+00 -0.45593999997E+02  0.45594000000E+02  0.51100000000E-03 0.  1.
         23    2    1    2    0    0 -0.71054273576E-14  0.13322676296E-14  0.00000000000E+00  0.91188000000E+02  0.91188000000E+02 0.  0.
    9900012    2    3    3    0    0 -0.38887485284E+02 -0.33726301600E+01 -0.18973987707E+02  0.47787270105E+02  0.19999995719E+02 0.  0.
         12    1    3    3    0    0  0.38887485284E+02  0.33726301600E+01  0.18973987707E+02  0.43400729895E+02  0.00000000000E+00 0. -1.
         11    1    4    4    0    0 -0.20861612603E+02  0.38981684003E+01 -0.60019013476E+01  0.22055054236E+02  0.51100000000E-03 0. -1.
        -11    1    4    4    0    0 -0.43684130235E+01  0.28378210812E+01 -0.35415620268E+01  0.62991207865E+01  0.51100000000E-03 0.  1.
        -12    1    4    4    0    0 -0.13657459657E+02 -0.10108619642E+02 -0.94305243323E+01  0.19433095083E+02  0.00000000000E+00 0.  1.
</event>
<event>
 8    1  0.1164123E-009  0.9118800E+02  0.7816164E-02  0.1184000E+00
        -11   -1    0    0    0    0  0.00000000000E+00  0.00000000000E+00  0.45593999997E+02  0.45594000000E+02  0.51100000000E-03 0. -1.
         11   -1    0    0    0    0 -0.00000000000E+00 -0.00000000000E+00 -0.45593999997E+02  0.45594000000E+02  0.51100000000E-03 0.  1.
         23    2    1    2    0    0  0.35527136788E-14 -0.35527136788E-14 -0.35527136788E-14  0.91188000000E+02  0.91188000000E+02 0.  0.
    9900012    2    3    3    0    0 -0.16472484539E+02  0.29666561090E+02  0.27058760275E+02  0.47787261510E+02  0.19999956531E+02 0.  0.
        -12    1    3    3    0    0  0.16472484539E+02 -0.29666561090E+02 -0.27058760275E+02  0.43400738490E+02  0.00000000000E+00 0.  1.
         11    1    4    4    0    0 -0.26657771145E+01  0.12679576616E+02  0.99248910925E+01  0.16321197697E+02  0.51100000000E-03 0. -1.
        -11    1    4    4    0    0  0.31415957872E+01  0.25847519668E+01  0.17838945762E+01  0.44421669194E+01  0.51100000000E-03 0.  1.
        -12    1    4    4    0    0 -0.16948303211E+02  0.14402232507E+02  0.15349974607E+02  0.27023896894E+02  0.00000000000E+00 0.  1.
</event>
<event>
 8    1  0.1164123E-009  0.9118800E+02  0.7816164E-02  0.1184000E+00
        -11   -1    0    0    0    0  0.00000000000E+00  0.00000000000E+00  0.45593999997E+02  0.45594000000E+02  0.51100000000E-03 0. -1.
         11   -1    0    0    0    0 -0.00000000000E+00 -0.00000000000E+00 -0.45593999997E+02  0.45594000000E+02  0.51100000000E-03 0.  1.
         23    2    1    2    0    0  0.88817841970E-15  0.00000000000E+00  0.00000000000E+00  0.91188000000E+02  0.91188000000E+02 0.  0.
    9900012    2    3    3    0    0  0.72669364579E+01  0.34350509505E+02  0.25511909902E+02  0.47787269412E+02  0.19999992559E+02 0.  0.
        -12    1    3    3    0    0 -0.72669364579E+01 -0.34350509505E+02 -0.25511909902E+02  0.43400730588E+02  0.00000000000E+00 0.  1.
         11    1    4    4    0    0  0.72036745808E+00  0.14977251815E+02  0.69260409170E+01  0.16516871503E+02  0.51100000000E-03 0. -1.
        -11    1    4    4    0    0 -0.60071728581E+00  0.11745815877E+02  0.24013071156E+01  0.12003804730E+02  0.51100000000E-03 0.  1.
        -12    1    4    4    0    0  0.71472862856E+01  0.76274418131E+01  0.16184561869E+02  0.19266593180E+02  0.00000000000E+00 0.  1.
</event>
<event>
 8    1  0.1164123E-009  0.9118800E+02  0.7816164E-02  0.1184000E+00
        -11   -1    0    0    0    0  0.00000000000E+00  0.00000000000E+00  0.45593999997E+02  0.45594000000E+02  0.51100000000E-03 0. -1.
         11   -1    0    0    0    0 -0.00000000000E+00 -0.00000000000E+00 -0.45593999997E+02  0.45594000000E+02  0.51100000000E-03 0.  1.
         23    2    1    2    0    0 -0.17763568394E-14  0.88817841970E-15  0.00000000000E+00  0.91188000000E+02  0.91188000000E+02 0.  0.
    9900012    2    3    3    0    0 -0.90674637558E+01  0.69268482310E+01 -0.41873896940E+02  0.47787269933E+02  0.19999994935E+02 0.  0.
         12    1    3    3    0    0  0.90674637558E+01 -0.69268482310E+01  0.41873896940E+02  0.43400730067E+02  0.00000000000E+00 0. -1.
         11    1    4    4    0    0 -0.99772032062E+00  0.13329648102E+01 -0.14949883064E+01  0.22376843657E+01  0.51100000000E-03 0. -1.
        -11    1    4    4    0    0  0.56413070327E+01  0.18442858113E+01 -0.64594994634E+01  0.87721644290E+01  0.51100000000E-03 0.  1.
        -12    1    4    4    0    0 -0.13711050468E+02  0.37495976095E+01 -0.33919409170E+02  0.36777421139E+02  0.00000000000E+00 0.  1.
</event>
<event>
 8    1  0.1164123E-009  0.9118800E+02  0.7816164E-02  0.1184000E+00
        -11   -1    0    0    0    0  0.00000000000E+00  0.00000000000E+00  0.45593999997E+02  0.45594000000E+02  0.51100000000E-03 0.  1.
         11   -1    0    0    0    0 -0.00000000000E+00 -0.00000000000E+00 -0.45593999997E+02  0.45594000000E+02  0.51100000000E-03 0. -1.
         23    2    1    2    0    0  0.00000000000E+00 -0.88817841970E-15 -0.17763568394E-14  0.91188000000E+02  0.91188000000E+02 0.  0.
    9900012    2    3    3    0    0 -0.40080335656E+02  0.53648289611E+01  0.15760983253E+02  0.47787270868E+02  0.19999999197E+02 0.  0.
        -12    1    3    3    0    0  0.40080335656E+02 -0.53648289611E+01 -0.15760983253E+02  0.43400729132E+02  0.00000000000E+00 0.  1.
         11    1    4    4    0    0 -0.79170437874E+01  0.39605794595E+01  0.25988758604E+01  0.92260461729E+01  0.51100000000E-03 0. -1.
        -11    1    4    4    0    0 -0.90052151215E+01  0.79155683310E+01  0.24962032471E+01  0.12246679236E+02  0.51100000000E-03 0.  1.
         12    1    4    4    0    0 -0.23158076747E+02 -0.65113188294E+01  0.10665904145E+02  0.26314545460E+02  0.00000000000E+00 0. -1.
</event>
<event>
 8    1  0.1164123E-009  0.9118800E+02  0.7816164E-02  0.1184000E+00
        -11   -1    0    0    0    0  0.00000000000E+00  0.00000000000E+00  0.45593999997E+02  0.45594000000E+02  0.51100000000E-03 0. -1.
         11   -1    0    0    0    0 -0.00000000000E+00 -0.00000000000E+00 -0.45593999997E+02  0.45594000000E+02  0.51100000000E-03 0.  1.
         23    2    1    2    0    0  0.88817841970E-15  0.35527136788E-14  0.00000000000E+00  0.91188000000E+02  0.91188000000E+02 0.  0.
    9900012    2    3    3    0    0 -0.28565124119E+01 -0.29774988222E+02  0.31447011126E+02  0.47787261579E+02  0.19999956841E+02 0.  0.
        -12    1    3    3    0    0  0.28565124119E+01  0.29774988222E+02 -0.31447011126E+02  0.43400738421E+02  0.00000000000E+00 0.  1.
         11    1    4    4    0    0 -0.36776687458E+01 -0.17252678436E+02  0.12583297452E+02  0.21668399471E+02  0.51100000000E-03 0.  1.
        -11    1    4    4    0    0  0.20322297095E+01 -0.84492598421E+01  0.22589675993E+01  0.89790246880E+01  0.51100000000E-03 0. -1.
         12    1    4    4    0    0 -0.12110733757E+01 -0.40730499440E+01  0.16604746075E+02  0.17139837420E+02  0.00000000000E+00 0. -1.
</event>
<event>
 8    1  0.1164123E-009  0.9118800E+02  0.7816164E-02  0.1184000E+00
        -11   -1    0    0    0    0  0.00000000000E+00  0.00000000000E+00  0.45593999997E+02  0.45594000000E+02  0.51100000000E-03 0. -1.
         11   -1    0    0    0    0 -0.00000000000E+00 -0.00000000000E+00 -0.45593999997E+02  0.45594000000E+02  0.51100000000E-03 0.  1.
         23    2    1    2    0    0 -0.35527136788E-14  0.35527136788E-14  0.00000000000E+00  0.91188000000E+02  0.91188000000E+02 0.  0.
    9900012    2    3    3    0    0 -0.21368467235E+02 -0.29751193884E+02  0.23278272943E+02  0.47787275113E+02  0.20000018552E+02 0.  0.
        -12    1    3    3    0    0  0.21368467235E+02  0.29751193884E+02 -0.23278272943E+02  0.43400724887E+02  0.00000000000E+00 0.  1.
         11    1    4    4    0    0 -0.12122826295E+02 -0.23827667561E+02  0.15767713316E+02  0.31037742222E+02  0.51100000000E-03 0. -1.
        -11    1    4    4    0    0 -0.10098389974E+02 -0.77651523459E+01  0.73656624097E+01  0.14714892253E+02  0.51100000000E-03 0.  1.
        -12    1    4    4    0    0  0.85274903350E+00  0.18416260234E+01  0.14489721753E+00  0.20346406385E+01  0.00000000000E+00 0.  1.
</event>
<event>
 8    1  0.1164123E-009  0.9118800E+02  0.7816164E-02  0.1184000E+00
        -11   -1    0    0    0    0  0.00000000000E+00  0.00000000000E+00  0.45593999997E+02  0.45594000000E+02  0.51100000000E-03 0.  1.
         11   -1    0    0    0    0 -0.00000000000E+00 -0.00000000000E+00 -0.45593999997E+02  0.45594000000E+02  0.51100000000E-03 0. -1.
         23    2    1    2    0    0 -0.35527136788E-14  0.71054273576E-14  0.17763568394E-14  0.91188000000E+02  0.91188000000E+02 0.  0.
    9900012    2    3    3    0    0 -0.27083665739E+02  0.32675795959E+02  0.90769324639E+01  0.47787270808E+02  0.19999998922E+02 0.  0.
         12    1    3    3    0    0  0.27083665739E+02 -0.32675795959E+02 -0.90769324639E+01  0.43400729192E+02  0.00000000000E+00 0. -1.
         11    1    4    4    0    0 -0.10885763519E+02  0.19819418302E+02 -0.22882420080E+01  0.22727631662E+02  0.51100000000E-03 0. -1.
        -11    1    4    4    0    0 -0.78423059333E+00  0.21905743346E+01 -0.10749463958E+01  0.25630340525E+01  0.51100000000E-03 0.  1.
        -12    1    4    4    0    0 -0.15413671626E+02  0.10665803323E+02  0.12440120868E+02  0.22496605093E+02  0.00000000000E+00 0.  1.
</event>
<event>
 8    1  0.1164123E-009  0.9118800E+02  0.7816164E-02  0.1184000E+00
        -11   -1    0    0    0    0  0.00000000000E+00  0.00000000000E+00  0.45593999997E+02  0.45594000000E+02  0.51100000000E-03 0. -1.
         11   -1    0    0    0    0 -0.00000000000E+00 -0.00000000000E+00 -0.45593999997E+02  0.45594000000E+02  0.51100000000E-03 0.  1.
         23    2    1    2    0    0 -0.17763568394E-14  0.00000000000E+00  0.00000000000E+00  0.91188000000E+02  0.91188000000E+02 0.  0.
    9900012    2    3    3    0    0  0.15754536929E+02 -0.26989695097E+02 -0.30116021270E+02  0.47787264840E+02  0.19999971711E+02 0.  0.
         12    1    3    3    0    0 -0.15754536929E+02  0.26989695097E+02  0.30116021270E+02  0.43400735160E+02  0.00000000000E+00 0. -1.
         11    1    4    4    0    0  0.73602996277E+01 -0.13839126534E+02 -0.61460068995E+01  0.16836532746E+02  0.51100000000E-03 0. -1.
        -11    1    4    4    0    0  0.62658833995E+00 -0.93807184225E+01 -0.63981069646E+01  0.11372170596E+02  0.51100000000E-03 0.  1.
        -12    1    4    4    0    0  0.77676489618E+01 -0.37698501413E+01 -0.17571907406E+02  0.19578561499E+02  0.00000000000E+00 0.  1.
</event>
<event>
 8    1  0.1164123E-009  0.9118800E+02  0.7816164E-02  0.1184000E+00
        -11   -1    0    0    0    0  0.00000000000E+00  0.00000000000E+00  0.45593999997E+02  0.45594000000E+02  0.51100000000E-03 0. -1.
         11   -1    0    0    0    0 -0.00000000000E+00 -0.00000000000E+00 -0.45593999997E+02  0.45594000000E+02  0.51100000000E-03 0.  1.
         23    2    1    2    0    0 -0.17763568394E-14  0.00000000000E+00 -0.71054273576E-14  0.91188000000E+02  0.91188000000E+02 0.  0.
    9900012    2    3    3    0    0 -0.89738637986E+01  0.12299386113E+02 -0.40642566759E+02  0.47787270018E+02  0.19999995318E+02 0.  0.
         12    1    3    3    0    0  0.89738637986E+01 -0.12299386113E+02  0.40642566759E+02  0.43400729982E+02  0.00000000000E+00 0. -1.
         11    1    4    4    0    0 -0.51774184280E+01 -0.42884575198E+01 -0.17807179250E+02  0.19033973904E+02  0.51100000000E-03 0. -1.
        -11    1    4    4    0    0 -0.21325689114E+01  0.88637040377E+01 -0.89402853538E+01  0.12768782318E+02  0.51100000000E-03 0.  1.
         12    1    4    4    0    0 -0.16638764593E+01  0.77241395954E+01 -0.13895102155E+02  0.15984513795E+02  0.00000000000E+00 0. -1.
</event>
<event>
 8    1  0.1164123E-009  0.9118800E+02  0.7816164E-02  0.1184000E+00
        -11   -1    0    0    0    0  0.00000000000E+00  0.00000000000E+00  0.45593999997E+02  0.45594000000E+02  0.51100000000E-03 0. -1.
         11   -1    0    0    0    0 -0.00000000000E+00 -0.00000000000E+00 -0.45593999997E+02  0.45594000000E+02  0.51100000000E-03 0.  1.
         23    2    1    2    0    0  0.00000000000E+00  0.00000000000E+00  0.00000000000E+00  0.91188000000E+02  0.91188000000E+02 0.  0.
    9900012    2    3    3    0    0 -0.84505644871E+01 -0.32593095814E+02 -0.27384325115E+02  0.47787271931E+02  0.20000004042E+02 0.  0.
         12    1    3    3    0    0  0.84505644871E+01  0.32593095814E+02  0.27384325115E+02  0.43400728069E+02  0.00000000000E+00 0. -1.
         11    1    4    4    0    0  0.77499166061E+00 -0.74054850148E+01 -0.72378287645E+01  0.10384025513E+02  0.51100000000E-03 0. -1.
        -11    1    4    4    0    0 -0.10252982728E+02 -0.26496940774E+02 -0.21186055348E+02  0.35440943366E+02  0.51100000000E-03 0.  1.
         12    1    4    4    0    0  0.10274265802E+01  0.13093299743E+01  0.10395589967E+01  0.19623030518E+01  0.00000000000E+00 0. -1.
</event>
<event>
 8    1  0.1164123E-009  0.9118800E+02  0.7816164E-02  0.1184000E+00
        -11   -1    0    0    0    0  0.00000000000E+00  0.00000000000E+00  0.45593999997E+02  0.45594000000E+02  0.51100000000E-03 0.  1.
         11   -1    0    0    0    0 -0.00000000000E+00 -0.00000000000E+00 -0.45593999997E+02  0.45594000000E+02  0.51100000000E-03 0. -1.
         23    2    1    2    0    0 -0.35527136788E-14  0.35527136788E-14 -0.17763568394E-14  0.91188000000E+02  0.91188000000E+02 0.  0.
    9900012    2    3    3    0    0  0.25275518138E+02 -0.31642019363E+02  0.15606218556E+02  0.47787271157E+02  0.20000000512E+02 0.  0.
        -12    1    3    3    0    0 -0.25275518138E+02  0.31642019363E+02 -0.15606218556E+02  0.43400728843E+02  0.00000000000E+00 0.  1.
         11    1    4    4    0    0  0.41689638838E+00  0.46680508710E+00  0.26254465820E+00  0.67870431460E+00  0.51100000000E-03 0.  1.
        -11    1    4    4    0    0 -0.11052999010E+01 -0.77761099813E+01 -0.10606432152E+01  0.79255623525E+01  0.51100000000E-03 0. -1.
        -12    1    4    4    0    0  0.25963921650E+02 -0.24332714469E+02  0.16404317113E+02  0.39183004490E+02  0.00000000000E+00 0.  1.
</event>
<event>
 8    1  0.1164123E-009  0.9118800E+02  0.7816164E-02  0.1184000E+00
        -11   -1    0    0    0    0  0.00000000000E+00  0.00000000000E+00  0.45593999997E+02  0.45594000000E+02  0.51100000000E-03 0. -1.
         11   -1    0    0    0    0 -0.00000000000E+00 -0.00000000000E+00 -0.45593999997E+02  0.45594000000E+02  0.51100000000E-03 0.  1.
         23    2    1    2    0    0  0.00000000000E+00  0.88817841970E-15  0.71054273576E-14  0.91188000000E+02  0.91188000000E+02 0.  0.
    9900012    2    3    3    0    0 -0.23570508078E+01  0.60913535694E+01  0.42906444246E+02  0.47787271497E+02  0.20000002061E+02 0.  0.
        -12    1    3    3    0    0  0.23570508078E+01 -0.60913535694E+01 -0.42906444246E+02  0.43400728503E+02  0.00000000000E+00 0.  1.
         11    1    4    4    0    0 -0.36033286746E-01 -0.20027778119E+01  0.13269427260E+01  0.24027473069E+01  0.51100000000E-03 0. -1.
        -11    1    4    4    0    0  0.47294310217E+01  0.74585044170E+00  0.34053597314E+01  0.58753966532E+01  0.51100000000E-03 0.  1.
         12    1    4    4    0    0 -0.70504485428E+01  0.73482809396E+01  0.38174141788E+02  0.39509127536E+02  0.00000000000E+00 0. -1.
</event>
<event>
 8    1  0.1164123E-009  0.9118800E+02  0.7816164E-02  0.1184000E+00
        -11   -1    0    0    0    0  0.00000000000E+00  0.00000000000E+00  0.45593999997E+02  0.45594000000E+02  0.51100000000E-03 0. -1.
         11   -1    0    0    0    0 -0.00000000000E+00 -0.00000000000E+00 -0.45593999997E+02  0.45594000000E+02  0.51100000000E-03 0.  1.
         23    2    1    2    0    0  0.35527136788E-14 -0.71054273576E-14  0.00000000000E+00  0.91188000000E+02  0.91188000000E+02 0.  0.
    9900012    2    3    3    0    0  0.16070502344E+02 -0.40138002697E+02 -0.37819280459E+01  0.47787270907E+02  0.19999999373E+02 0.  0.
        -12    1    3    3    0    0 -0.16070502344E+02  0.40138002697E+02  0.37819280459E+01  0.43400729093E+02  0.00000000000E+00 0.  1.
         11    1    4    4    0    0 -0.74647543289E+00 -0.25832837734E+01  0.12599868899E+01  0.29695366389E+01  0.51100000000E-03 0. -1.
        -11    1    4    4    0    0  0.19436049382E+02 -0.30360452314E+02 -0.78428672630E+00  0.36057345801E+02  0.51100000000E-03 0.  1.
         12    1    4    4    0    0 -0.26190716050E+01 -0.71942666096E+01 -0.42576282095E+01  0.87603884670E+01  0.00000000000E+00 0. -1.
</event>
<event>
 8    1  0.1164123E-009  0.9118800E+02  0.7816164E-02  0.1184000E+00
        -11   -1    0    0    0    0  0.00000000000E+00  0.00000000000E+00  0.45593999997E+02  0.45594000000E+02  0.51100000000E-03 0. -1.
         11   -1    0    0    0    0 -0.00000000000E+00 -0.00000000000E+00 -0.45593999997E+02  0.45594000000E+02  0.51100000000E-03 0.  1.
         23    2    1    2    0    0  0.00000000000E+00  0.00000000000E+00  0.00000000000E+00  0.91188000000E+02  0.91188000000E+02 0.  0.
    9900012    2    3    3    0    0 -0.89239737380E+01  0.10228218737E+02  0.41223413241E+02  0.47787267690E+02  0.19999984705E+02 0.  0.
        -12    1    3    3    0    0  0.89239737380E+01 -0.10228218737E+02 -0.41223413241E+02  0.43400732310E+02  0.00000000000E+00 0.  1.
         11    1    4    4    0    0 -0.48662500630E+01 -0.74761760528E-01  0.40405682186E+01  0.63255174323E+01  0.51100000000E-03 0. -1.
        -11    1    4    4    0    0 -0.15749127561E+01 -0.33477248110E+01  0.37671533867E+01  0.52800621682E+01  0.51100000000E-03 0.  1.
        -12    1    4    4    0    0 -0.24828109189E+01  0.13650705308E+02  0.33415691636E+02  0.36181688089E+02  0.00000000000E+00 0.  1.
</event>
<event>
 8    1  0.1164123E-009  0.9118800E+02  0.7816164E-02  0.1184000E+00
        -11   -1    0    0    0    0  0.00000000000E+00  0.00000000000E+00  0.45593999997E+02  0.45594000000E+02  0.51100000000E-03 0. -1.
         11   -1    0    0    0    0 -0.00000000000E+00 -0.00000000000E+00 -0.45593999997E+02  0.45594000000E+02  0.51100000000E-03 0.  1.
         23    2    1    2    0    0  0.00000000000E+00  0.00000000000E+00 -0.13114509478E-14  0.91188000000E+02  0.91188000000E+02 0.  0.
    9900012    2    3    3    0    0 -0.42372938267E+02  0.93891006166E+01  0.46594092622E-01  0.47787270988E+02  0.19999999741E+02 0.  0.
         12    1    3    3    0    0  0.42372938267E+02 -0.93891006166E+01 -0.46594092622E-01  0.43400729012E+02  0.00000000000E+00 0. -1.
         11    1    4    4    0    0 -0.20026728940E+02 -0.38739688320E+00  0.27131214990E+01  0.20213386083E+02  0.51100000000E-03 0. -1.
        -11    1    4    4    0    0 -0.62544235273E+01  0.28007230124E+01  0.49490569484E+01  0.84531075936E+01  0.51100000000E-03 0.  1.
        -12    1    4    4    0    0 -0.16091785800E+02  0.69757744874E+01 -0.76155843548E+01  0.19120777311E+02  0.00000000000E+00 0.  1.
</event>
<event>
 8    1  0.1164123E-009  0.9118800E+02  0.7816164E-02  0.1184000E+00
        -11   -1    0    0    0    0  0.00000000000E+00  0.00000000000E+00  0.45593999997E+02  0.45594000000E+02  0.51100000000E-03 0. -1.
         11   -1    0    0    0    0 -0.00000000000E+00 -0.00000000000E+00 -0.45593999997E+02  0.45594000000E+02  0.51100000000E-03 0.  1.
         23    2    1    2    0    0 -0.17763568394E-14  0.00000000000E+00  0.00000000000E+00  0.91188000000E+02  0.91188000000E+02 0.  0.
    9900012    2    3    3    0    0  0.13005781636E+02  0.10575823633E+02 -0.40032796413E+02  0.47787272009E+02  0.20000004400E+02 0.  0.
         12    1    3    3    0    0 -0.13005781636E+02 -0.10575823633E+02  0.40032796413E+02  0.43400727991E+02  0.00000000000E+00 0. -1.
         11    1    4    4    0    0 -0.76506225535E-01  0.35567716087E+01 -0.74251928859E+00  0.36342554442E+01  0.51100000000E-03 0. -1.
        -11    1    4    4    0    0  0.52093430435E+01  0.79220471365E+01 -0.32035638947E+02  0.33409253939E+02  0.51100000000E-03 0.  1.
         12    1    4    4    0    0  0.78729448179E+01 -0.90299511260E+00 -0.72546381778E+01  0.10743762626E+02  0.00000000000E+00 0. -1.
</event>
<event>
 8    1  0.1164123E-009  0.9118800E+02  0.7816164E-02  0.1184000E+00
        -11   -1    0    0    0    0  0.00000000000E+00  0.00000000000E+00  0.45593999997E+02  0.45594000000E+02  0.51100000000E-03 0. -1.
         11   -1    0    0    0    0 -0.00000000000E+00 -0.00000000000E+00 -0.45593999997E+02  0.45594000000E+02  0.51100000000E-03 0.  1.
         23    2    1    2    0    0 -0.71054273576E-14  0.00000000000E+00  0.00000000000E+00  0.91188000000E+02  0.91188000000E+02 0.  0.
    9900012    2    3    3    0    0  0.30230262746E+02 -0.56511064079E+01 -0.30623835972E+02  0.47787272829E+02  0.20000008137E+02 0.  0.
         12    1    3    3    0    0 -0.30230262746E+02  0.56511064079E+01  0.30623835972E+02  0.43400727171E+02  0.00000000000E+00 0. -1.
         11    1    4    4    0    0  0.53579518785E+01 -0.10092492593E+01 -0.16953322930E+01  0.57096746181E+01  0.51100000000E-03 0. -1.
        -11    1    4    4    0    0  0.18087399365E+02 -0.54762107851E+01 -0.88510046792E+01  0.20868233860E+02  0.51100000000E-03 0.  1.
         12    1    4    4    0    0  0.67849115029E+01  0.83435363650E+00 -0.20077499000E+02  0.21209364351E+02  0.00000000000E+00 0. -1.
</event>
<event>
 8    1 -0.1164123E-009  0.9118800E+02  0.7816164E-02  0.1184000E+00
        -11   -1    0    0    0    0  0.00000000000E+00  0.00000000000E+00  0.45593999997E+02  0.45594000000E+02  0.51100000000E-03 0. -1.
         11   -1    0    0    0    0 -0.00000000000E+00 -0.00000000000E+00 -0.45593999997E+02  0.45594000000E+02  0.51100000000E-03 0.  1.
         23    2    1    2    0    0  0.00000000000E+00  0.00000000000E+00  0.00000000000E+00  0.91188000000E+02  0.91188000000E+02 0.  0.
    9900012    2    3    3    0    0 -0.23479580103E+02 -0.28964760967E+02  0.22212049681E+02  0.47787271772E+02  0.20000003319E+02 0.  0.
        -12    1    3    3    0    0  0.23479580103E+02  0.28964760967E+02 -0.22212049681E+02  0.43400728228E+02  0.00000000000E+00 0.  1.
         11    1    4    4    0    0 -0.70741294366E+01 -0.90561599167E+01  0.89617448439E+01  0.14572927319E+02  0.51100000000E-03 0. -1.
        -11    1    4    4    0    0  0.61989033862E+00 -0.97998190498E+01  0.81673225999E+01  0.12772074074E+02  0.51100000000E-03 0.  1.
        -12    1    4    4    0    0 -0.17025341005E+02 -0.10108782000E+02  0.50829822372E+01  0.20442270380E+02  0.00000000000E+00 0.  1.
</event>
<event>
 8    1 -0.1164123E-009  0.9118800E+02  0.7816164E-02  0.1184000E+00
        -11   -1    0    0    0    0  0.00000000000E+00  0.00000000000E+00  0.45593999997E+02  0.45594000000E+02  0.51100000000E-03 0. -1.
         11   -1    0    0    0    0 -0.00000000000E+00 -0.00000000000E+00 -0.45593999997E+02  0.45594000000E+02  0.51100000000E-03 0.  1.
         23    2    1    2    0    0  0.11102230246E-15  0.00000000000E+00 -0.35527136788E-14  0.91188000000E+02  0.91188000000E+02 0.  0.
    9900012    2    3    3    0    0  0.91617889122E+00  0.33096881985E+02  0.28060300432E+02  0.47787269117E+02  0.19999991210E+02 0.  0.
        -12    1    3    3    0    0 -0.91617889122E+00 -0.33096881985E+02 -0.28060300432E+02  0.43400730883E+02  0.00000000000E+00 0.  1.
         11    1    4    4    0    0 -0.31744782256E+01  0.76693620205E+01  0.84849340854E+01  0.11869731779E+02  0.51100000000E-03 0. -1.
        -11    1    4    4    0    0  0.28374408897E+01  0.26307790606E+02  0.13603478966E+02  0.29752404232E+02  0.51100000000E-03 0.  1.
        -12    1    4    4    0    0  0.12532162271E+01 -0.88027064171E+00  0.59718873810E+01  0.61651331052E+01  0.00000000000E+00 0.  1.
</event>
<event>
 8    1  0.1164123E-009  0.9118800E+02  0.7816164E-02  0.1184000E+00
        -11   -1    0    0    0    0  0.00000000000E+00  0.00000000000E+00  0.45593999997E+02  0.45594000000E+02  0.51100000000E-03 0. -1.
         11   -1    0    0    0    0 -0.00000000000E+00 -0.00000000000E+00 -0.45593999997E+02  0.45594000000E+02  0.51100000000E-03 0.  1.
         23    2    1    2    0    0  0.44408920985E-15 -0.22204460493E-15  0.00000000000E+00  0.91188000000E+02  0.91188000000E+02 0.  0.
    9900012    2    3    3    0    0 -0.30375578021E+01  0.57594869474E+00 -0.43290447544E+02  0.47787293521E+02  0.20000102481E+02 0.  0.
         12    1    3    3    0    0  0.30375578021E+01 -0.57594869474E+00  0.43290447544E+02  0.43400706479E+02  0.00000000000E+00 0. -1.
         11    1    4    4    0    0 -0.34613830462E+01  0.11637430962E+01 -0.13025177639E+02  0.13527406380E+02  0.51100000000E-03 0. -1.
        -11    1    4    4    0    0 -0.19848985799E+01 -0.66681908785E+01 -0.61909614901E+01  0.93130336839E+01  0.51100000000E-03 0.  1.
         12    1    4    4    0    0  0.24087238240E+01  0.60803964770E+01 -0.24074308415E+02  0.24946853457E+02  0.00000000000E+00 0. -1.
</event>
<event>
 8    1  0.1164123E-009  0.9118800E+02  0.7816164E-02  0.1184000E+00
        -11   -1    0    0    0    0  0.00000000000E+00  0.00000000000E+00  0.45593999997E+02  0.45594000000E+02  0.51100000000E-03 0. -1.
         11   -1    0    0    0    0 -0.00000000000E+00 -0.00000000000E+00 -0.45593999997E+02  0.45594000000E+02  0.51100000000E-03 0.  1.
         23    2    1    2    0    0  0.00000000000E+00  0.00000000000E+00  0.00000000000E+00  0.91188000000E+02  0.91188000000E+02 0.  0.
    9900012    2    3    3    0    0 -0.16479063066E+02  0.44983254365E+01  0.39897730419E+02  0.47787270238E+02  0.19999996324E+02 0.  0.
        -12    1    3    3    0    0  0.16479063066E+02 -0.44983254365E+01 -0.39897730419E+02  0.43400729762E+02  0.00000000000E+00 0.  1.
         11    1    4    4    0    0  0.21176615520E+01 -0.21581747200E+01  0.63711607289E+01  0.70522264474E+01  0.51100000000E-03 0. -1.
        -11    1    4    4    0    0 -0.62736678466E+01  0.54301547661E+01  0.51288112628E+01  0.97544961051E+01  0.51100000000E-03 0.  1.
         12    1    4    4    0    0 -0.12323056771E+02  0.12263453903E+01  0.28397758427E+02  0.30980547686E+02  0.00000000000E+00 0. -1.
</event>
<event>
 8    1  0.1164123E-009  0.9118800E+02  0.7816164E-02  0.1184000E+00
        -11   -1    0    0    0    0  0.00000000000E+00  0.00000000000E+00  0.45593999997E+02  0.45594000000E+02  0.51100000000E-03 0. -1.
         11   -1    0    0    0    0 -0.00000000000E+00 -0.00000000000E+00 -0.45593999997E+02  0.45594000000E+02  0.51100000000E-03 0.  1.
         23    2    1    2    0    0  0.00000000000E+00  0.00000000000E+00  0.00000000000E+00  0.91188000000E+02  0.91188000000E+02 0.  0.
    9900012    2    3    3    0    0 -0.40383676656E+02  0.15787234633E+02 -0.18834437890E+01  0.47787245650E+02  0.19999884218E+02 0.  0.
        -12    1    3    3    0    0  0.40383676656E+02 -0.15787234633E+02  0.18834437890E+01  0.43400754350E+02  0.00000000000E+00 0.  1.
         11    1    4    4    0    0  0.10686587882E+01 -0.32250883435E+00  0.10721876921E+01  0.15477823691E+01  0.51100000000E-03 0.  1.
        -11    1    4    4    0    0 -0.12281541893E+02 -0.10066076521E+01 -0.88647278337E+00  0.12354568568E+02  0.51100000000E-03 0. -1.
         12    1    4    4    0    0 -0.29170793551E+02  0.17116351119E+02 -0.20691586977E+01  0.33884894714E+02  0.00000000000E+00 0. -1.
</event>
<event>
 8    1  0.1164123E-009  0.9118800E+02  0.7816164E-02  0.1184000E+00
        -11   -1    0    0    0    0  0.00000000000E+00  0.00000000000E+00  0.45593999997E+02  0.45594000000E+02  0.51100000000E-03 0.  1.
         11   -1    0    0    0    0 -0.00000000000E+00 -0.00000000000E+00 -0.45593999997E+02  0.45594000000E+02  0.51100000000E-03 0. -1.
         23    2    1    2    0    0  0.00000000000E+00 -0.71054273576E-14  0.00000000000E+00  0.91188000000E+02  0.91188000000E+02 0.  0.
    9900012    2    3    3    0    0  0.11727096986E+02  0.36635829867E+02 -0.20097626083E+02  0.47787269500E+02  0.19999992960E+02 0.  0.
         12    1    3    3    0    0 -0.11727096986E+02 -0.36635829867E+02  0.20097626083E+02  0.43400730500E+02  0.00000000000E+00 0. -1.
         11    1    4    4    0    0  0.60850164230E+01  0.21415466178E+02 -0.79257572416E+01  0.23631911573E+02  0.51100000000E-03 0. -1.
        -11    1    4    4    0    0 -0.23964912570E+01  0.93173930664E+01 -0.18394860963E+01  0.97949320191E+01  0.51100000000E-03 0.  1.
         12    1    4    4    0    0  0.80385718204E+01  0.59029706224E+01 -0.10332382745E+02  0.14360425908E+02  0.00000000000E+00 0. -1.
</event>
<event>
 8    1  0.1164123E-009  0.9118800E+02  0.7816164E-02  0.1184000E+00
        -11   -1    0    0    0    0  0.00000000000E+00  0.00000000000E+00  0.45593999997E+02  0.45594000000E+02  0.51100000000E-03 0. -1.
         11   -1    0    0    0    0 -0.00000000000E+00 -0.00000000000E+00 -0.45593999997E+02  0.45594000000E+02  0.51100000000E-03 0.  1.
         23    2    1    2    0    0  0.00000000000E+00  0.00000000000E+00  0.71054273576E-14  0.91188000000E+02  0.91188000000E+02 0.  0.
    9900012    2    3    3    0    0 -0.44491823708E+01  0.30411746137E+02  0.30642350066E+02  0.47787272535E+02  0.20000006797E+02 0.  0.
        -12    1    3    3    0    0  0.44491823708E+01 -0.30411746137E+02 -0.30642350066E+02  0.43400727465E+02  0.00000000000E+00 0.  1.
         11    1    4    4    0    0  0.23081874340E+01  0.64646274583E+01  0.61009704862E+01  0.91837344549E+01  0.51100000000E-03 0. -1.
        -11    1    4    4    0    0 -0.36892932708E+01 -0.15422656207E+00  0.90880617709E+01  0.98095635827E+01  0.51100000000E-03 0.  1.
         12    1    4    4    0    0 -0.30680765340E+01  0.24101345241E+02  0.15453317809E+02  0.28793974498E+02  0.00000000000E+00 0. -1.
</event>
<event>
 8    1  0.1164123E-009  0.9118800E+02  0.7816164E-02  0.1184000E+00
        -11   -1    0    0    0    0  0.00000000000E+00  0.00000000000E+00  0.45593999997E+02  0.45594000000E+02  0.51100000000E-03 0. -1.
         11   -1    0    0    0    0 -0.00000000000E+00 -0.00000000000E+00 -0.45593999997E+02  0.45594000000E+02  0.51100000000E-03 0.  1.
         23    2    1    2    0    0  0.00000000000E+00  0.00000000000E+00  0.00000000000E+00  0.91188000000E+02  0.91188000000E+02 0.  0.
    9900012    2    3    3    0    0 -0.85354385160E+01  0.40635667126E+02 -0.12629903592E+02  0.47787244036E+02  0.19999876859E+02 0.  0.
         12    1    3    3    0    0  0.85354385160E+01 -0.40635667126E+02  0.12629903592E+02  0.43400755964E+02  0.00000000000E+00 0. -1.
         11    1    4    4    0    0 -0.15950206150E+01  0.13241746533E+02 -0.44379103922E+01  0.14056421697E+02  0.51100000000E-03 0. -1.
        -11    1    4    4    0    0 -0.65495635474E+01  0.66483141834E+01 -0.90008052650E+01  0.12965776484E+02  0.51100000000E-03 0.  1.
         12    1    4    4    0    0 -0.39085435362E+00  0.20745606410E+02  0.80881206530E+00  0.20765045856E+02  0.00000000000E+00 0. -1.
</event>
<event>
 8    1  0.1164123E-009  0.9118800E+02  0.7816164E-02  0.1184000E+00
        -11   -1    0    0    0    0  0.00000000000E+00  0.00000000000E+00  0.45593999997E+02  0.45594000000E+02  0.51100000000E-03 0. -1.
         11   -1    0    0    0    0 -0.00000000000E+00 -0.00000000000E+00 -0.45593999997E+02  0.45594000000E+02  0.51100000000E-03 0.  1.
         23    2    1    2    0    0  0.00000000000E+00  0.00000000000E+00 -0.71054273576E-14  0.91188000000E+02  0.91188000000E+02 0.  0.
    9900012    2    3    3    0    0  0.11118008616E+02 -0.21145072799E+02  0.36233946854E+02  0.47787272772E+02  0.20000007876E+02 0.  0.
        -12    1    3    3    0    0 -0.11118008616E+02  0.21145072799E+02 -0.36233946854E+02  0.43400727228E+02  0.00000000000E+00 0.  1.
         11    1    4    4    0    0  0.87474112393E+01 -0.66361554355E+01  0.10247550161E+02  0.15018922961E+02  0.51100000000E-03 0. -1.
        -11    1    4    4    0    0  0.39360040241E+01 -0.31226118052E+00  0.11405321596E+01  0.41097990937E+01  0.51100000000E-03 0.  1.
        -12    1    4    4    0    0 -0.15654066469E+01 -0.14196656183E+02  0.24845864534E+02  0.28658550717E+02  0.00000000000E+00 0.  1.
</event>
<event>
 8    1  0.1164123E-009  0.9118800E+02  0.7816164E-02  0.1184000E+00
        -11   -1    0    0    0    0  0.00000000000E+00  0.00000000000E+00  0.45593999997E+02  0.45594000000E+02  0.51100000000E-03 0. -1.
         11   -1    0    0    0    0 -0.00000000000E+00 -0.00000000000E+00 -0.45593999997E+02  0.45594000000E+02  0.51100000000E-03 0.  1.
         23    2    1    2    0    0 -0.44408920985E-15  0.00000000000E+00  0.35527136788E-14  0.91188000000E+02  0.91188000000E+02 0.  0.
    9900012    2    3    3    0    0  0.30169982633E+01  0.32535491204E+02 -0.28565045683E+02  0.47787282249E+02  0.20000051088E+02 0.  0.
         12    1    3    3    0    0 -0.30169982633E+01 -0.32535491204E+02  0.28565045683E+02  0.43400717751E+02  0.00000000000E+00 0. -1.
         11    1    4    4    0    0  0.78621499890E+00  0.30636707289E+01  0.16015360220E+01  0.35452969199E+01  0.51100000000E-03 0. -1.
        -11    1    4    4    0    0 -0.90356073874E+00  0.47171361445E+01  0.35833627185E+00  0.48162434073E+01  0.51100000000E-03 0.  1.
         12    1    4    4    0    0  0.31343440031E+01  0.24754684330E+02 -0.30524917977E+02  0.39425741922E+02  0.00000000000E+00 0. -1.
</event>
<event>
 8    1  0.1164123E-009  0.9118800E+02  0.7816164E-02  0.1184000E+00
        -11   -1    0    0    0    0  0.00000000000E+00  0.00000000000E+00  0.45593999997E+02  0.45594000000E+02  0.51100000000E-03 0.  1.
         11   -1    0    0    0    0 -0.00000000000E+00 -0.00000000000E+00 -0.45593999997E+02  0.45594000000E+02  0.51100000000E-03 0. -1.
         23    2    1    2    0    0  0.00000000000E+00  0.00000000000E+00  0.00000000000E+00  0.91188000000E+02  0.91188000000E+02 0.  0.
    9900012    2    3    3    0    0 -0.18672762045E+02  0.34157288470E+02 -0.19189341674E+02  0.47787271528E+02  0.20000002203E+02 0.  0.
         12    1    3    3    0    0  0.18672762045E+02 -0.34157288470E+02  0.19189341674E+02  0.43400728472E+02  0.00000000000E+00 0. -1.
         11    1    4    4    0    0 -0.55631188625E+01  0.17963514991E+01  0.14358287258E+01  0.60196988777E+01  0.51100000000E-03 0. -1.
        -11    1    4    4    0    0  0.11318919696E+01  0.44581299346E+01 -0.73077976681E+00  0.46572675759E+01  0.51100000000E-03 0.  1.
        -12    1    4    4    0    0 -0.14241535152E+02  0.27902807037E+02 -0.19894390633E+02  0.37110305074E+02  0.00000000000E+00 0.  1.
</event>
<event>
 8    1  0.1164123E-009  0.9118800E+02  0.7816164E-02  0.1184000E+00
        -11   -1    0    0    0    0  0.00000000000E+00  0.00000000000E+00  0.45593999997E+02  0.45594000000E+02  0.51100000000E-03 0.  1.
         11   -1    0    0    0    0 -0.00000000000E+00 -0.00000000000E+00 -0.45593999997E+02  0.45594000000E+02  0.51100000000E-03 0. -1.
         23    2    1    2    0    0  0.00000000000E+00 -0.71054273576E-14  0.00000000000E+00  0.91188000000E+02  0.91188000000E+02 0.  0.
    9900012    2    3    3    0    0  0.27273824321E+02  0.32720005018E+02  0.83165034704E+01  0.47787257478E+02  0.19999938145E+02 0.  0.
        -12    1    3    3    0    0 -0.27273824321E+02 -0.32720005018E+02 -0.83165034704E+01  0.43400742522E+02  0.00000000000E+00 0.  1.
         11    1    4    4    0    0  0.14812382683E+02  0.21908189485E+02  0.69239930238E+01  0.27337101656E+02  0.51100000000E-03 0. -1.
        -11    1    4    4    0    0  0.49080086104E+01  0.72768242449E+01  0.62719680529E+01  0.10787877601E+02  0.51100000000E-03 0.  1.
        -12    1    4    4    0    0  0.75534330267E+01  0.35349912884E+01 -0.48794576064E+01  0.96622782215E+01  0.00000000000E+00 0.  1.
</event>
<event>
 8    1  0.1248081E-009  0.9118800E+02  0.7816164E-02  0.1184000E+00
        -11   -1    0    0    0    0  0.00000000000E+00  0.00000000000E+00  0.45593999997E+02  0.45594000000E+02  0.51100000000E-03 0. -1.
         11   -1    0    0    0    0 -0.00000000000E+00 -0.00000000000E+00 -0.45593999997E+02  0.45594000000E+02  0.51100000000E-03 0.  1.
         23    2    1    2    0    0  0.00000000000E+00  0.00000000000E+00  0.00000000000E+00  0.91188000000E+02  0.91188000000E+02 0.  0.
    9900012    2    3    3    0    0  0.29994200352E+01  0.11667037776E+02 -0.41695406598E+02  0.47787271638E+02  0.20000002706E+02 0.  0.
         12    1    3    3    0    0 -0.29994200352E+01 -0.11667037776E+02  0.41695406598E+02  0.43400728362E+02  0.00000000000E+00 0. -1.
         11    1    4    4    0    0  0.77584101184E+00  0.60081516416E+01 -0.30876543897E+01  0.67995165501E+01  0.51100000000E-03 0.  1.
        -11    1    4    4    0    0 -0.38642612402E+01  0.16790489653E+01 -0.47142949424E+01  0.63226811896E+01  0.51100000000E-03 0. -1.
        -12    1    4    4    0    0  0.60878402635E+01  0.39798371691E+01 -0.33893457266E+02  0.34665073898E+02  0.00000000000E+00 0.  1.
</event>
<event>
 8    1  0.1164123E-009  0.9118800E+02  0.7816164E-02  0.1184000E+00
        -11   -1    0    0    0    0  0.00000000000E+00  0.00000000000E+00  0.45593999997E+02  0.45594000000E+02  0.51100000000E-03 0.  1.
         11   -1    0    0    0    0 -0.00000000000E+00 -0.00000000000E+00 -0.45593999997E+02  0.45594000000E+02  0.51100000000E-03 0. -1.
         23    2    1    2    0    0  0.00000000000E+00  0.00000000000E+00  0.22204460493E-15  0.91188000000E+02  0.91188000000E+02 0.  0.
    9900012    2    3    3    0    0 -0.97075109516E+00  0.43346155969E+02 -0.19472343651E+01  0.47787270552E+02  0.19999997755E+02 0.  0.
         12    1    3    3    0    0  0.97075109516E+00 -0.43346155969E+02  0.19472343651E+01  0.43400729448E+02  0.00000000000E+00 0. -1.
         11    1    4    4    0    0 -0.95226139862E+01  0.17768384163E+02  0.38895014196E+00  0.20163009085E+02  0.51100000000E-03 0. -1.
        -11    1    4    4    0    0  0.11325948449E+01  0.32199524580E+01 -0.22116961805E+01  0.40672429446E+01  0.51100000000E-03 0.  1.
         12    1    4    4    0    0  0.74192680462E+01  0.22357819348E+02 -0.12448832654E+00  0.23557018523E+02  0.00000000000E+00 0. -1.
</event>
<event>
 8    1  0.1164123E-009  0.9118800E+02  0.7816164E-02  0.1184000E+00
        -11   -1    0    0    0    0  0.00000000000E+00  0.00000000000E+00  0.45593999997E+02  0.45594000000E+02  0.51100000000E-03 0.  1.
         11   -1    0    0    0    0 -0.00000000000E+00 -0.00000000000E+00 -0.45593999997E+02  0.45594000000E+02  0.51100000000E-03 0. -1.
         23    2    1    2    0    0  0.00000000000E+00 -0.71054273576E-14 -0.11102230246E-15  0.91188000000E+02  0.91188000000E+02 0.  0.
    9900012    2    3    3    0    0  0.13452027914E+02 -0.41258430207E+02 -0.63840476935E+00  0.47787277900E+02  0.20000031256E+02 0.  0.
        -12    1    3    3    0    0 -0.13452027914E+02  0.41258430207E+02  0.63840476935E+00  0.43400722100E+02  0.00000000000E+00 0.  1.
         11    1    4    4    0    0 -0.43659501058E+01 -0.51209030454E+01 -0.23398759269E+00  0.67334923168E+01  0.51100000000E-03 0. -1.
        -11    1    4    4    0    0  0.34233978549E+00 -0.35368488755E+01  0.18304233109E+01  0.39971172431E+01  0.51100000000E-03 0.  1.
         12    1    4    4    0    0  0.17475638235E+02 -0.32600678286E+02 -0.22348404875E+01  0.37056668340E+02  0.00000000000E+00 0. -1.
</event>
<event>
 8    1  0.1164123E-009  0.9118800E+02  0.7816164E-02  0.1184000E+00
        -11   -1    0    0    0    0  0.00000000000E+00  0.00000000000E+00  0.45593999997E+02  0.45594000000E+02  0.51100000000E-03 0. -1.
         11   -1    0    0    0    0 -0.00000000000E+00 -0.00000000000E+00 -0.45593999997E+02  0.45594000000E+02  0.51100000000E-03 0.  1.
         23    2    1    2    0    0  0.00000000000E+00  0.00000000000E+00  0.00000000000E+00  0.91188000000E+02  0.91188000000E+02 0.  0.
    9900012    2    3    3    0    0  0.94656594927E+01 -0.27298548851E+02 -0.32385399192E+02  0.47787267750E+02  0.19999984981E+02 0.  0.
         12    1    3    3    0    0 -0.94656594927E+01  0.27298548851E+02  0.32385399192E+02  0.43400732250E+02  0.00000000000E+00 0. -1.
         11    1    4    4    0    0 -0.30126330470E+01 -0.21161681596E+01  0.10737939254E-01  0.36816084963E+01  0.51100000000E-03 0. -1.
        -11    1    4    4    0    0 -0.22410308227E+00 -0.97191361260E+01 -0.13035609514E+02  0.16261578794E+02  0.51100000000E-03 0.  1.
         12    1    4    4    0    0  0.12702395622E+02 -0.15463244565E+02 -0.19360527617E+02  0.27844080460E+02  0.00000000000E+00 0. -1.
</event>
<event>
 8    1  0.1164123E-009  0.9118800E+02  0.7816164E-02  0.1184000E+00
        -11   -1    0    0    0    0  0.00000000000E+00  0.00000000000E+00  0.45593999997E+02  0.45594000000E+02  0.51100000000E-03 0. -1.
         11   -1    0    0    0    0 -0.00000000000E+00 -0.00000000000E+00 -0.45593999997E+02  0.45594000000E+02  0.51100000000E-03 0.  1.
         23    2    1    2    0    0  0.00000000000E+00  0.00000000000E+00  0.35527136788E-14  0.91188000000E+02  0.91188000000E+02 0.  0.
    9900012    2    3    3    0    0 -0.16218658802E+02  0.34150410627E+02  0.21314970601E+02  0.47787269464E+02  0.19999992794E+02 0.  0.
        -12    1    3    3    0    0  0.16218658802E+02 -0.34150410627E+02 -0.21314970601E+02  0.43400730536E+02  0.00000000000E+00 0.  1.
         11    1    4    4    0    0 -0.14163120183E+02  0.16813628759E+02  0.15261435517E+02  0.26761978620E+02  0.51100000000E-03 0.  1.
        -11    1    4    4    0    0 -0.56576484848E+01  0.62707637435E+01  0.32912982969E+01  0.90644420150E+01  0.51100000000E-03 0. -1.
        -12    1    4    4    0    0  0.36021098663E+01  0.11066018125E+02  0.27622367871E+01  0.11960848829E+02  0.00000000000E+00 0.  1.
</event>
<event>
 8    1  0.1164123E-009  0.9118800E+02  0.7816164E-02  0.1184000E+00
        -11   -1    0    0    0    0  0.00000000000E+00  0.00000000000E+00  0.45593999997E+02  0.45594000000E+02  0.51100000000E-03 0. -1.
         11   -1    0    0    0    0 -0.00000000000E+00 -0.00000000000E+00 -0.45593999997E+02  0.45594000000E+02  0.51100000000E-03 0.  1.
         23    2    1    2    0    0  0.00000000000E+00  0.00000000000E+00  0.00000000000E+00  0.91188000000E+02  0.91188000000E+02 0.  0.
    9900012    2    3    3    0    0  0.20181927864E+02 -0.27933701708E+02 -0.26382248808E+02  0.47787251670E+02  0.19999911663E+02 0.  0.
         12    1    3    3    0    0 -0.20181927864E+02  0.27933701708E+02  0.26382248808E+02  0.43400748330E+02  0.00000000000E+00 0. -1.
         11    1    4    4    0    0 -0.98847273224E+00 -0.57645660315E+01 -0.41771570208E+01  0.71872067531E+01  0.51100000000E-03 0. -1.
        -11    1    4    4    0    0  0.73881359414E+01 -0.15636137683E+02 -0.17583970972E+02  0.24663118005E+02  0.51100000000E-03 0.  1.
        -12    1    4    4    0    0  0.13782264655E+02 -0.65329979941E+01 -0.46211208156E+01  0.15936926912E+02  0.00000000000E+00 0.  1.
</event>
<event>
 8    1  0.1164123E-009  0.9118800E+02  0.7816164E-02  0.1184000E+00
        -11   -1    0    0    0    0  0.00000000000E+00  0.00000000000E+00  0.45593999997E+02  0.45594000000E+02  0.51100000000E-03 0. -1.
         11   -1    0    0    0    0 -0.00000000000E+00 -0.00000000000E+00 -0.45593999997E+02  0.45594000000E+02  0.51100000000E-03 0.  1.
         23    2    1    2    0    0  0.00000000000E+00  0.00000000000E+00  0.00000000000E+00  0.91188000000E+02  0.91188000000E+02 0.  0.
    9900012    2    3    3    0    0  0.61097991420E+01  0.20394068284E+02  0.37820317455E+02  0.47787261767E+02  0.19999957702E+02 0.  0.
        -12    1    3    3    0    0 -0.61097991420E+01 -0.20394068284E+02 -0.37820317455E+02  0.43400738233E+02  0.00000000000E+00 0.  1.
         11    1    4    4    0    0  0.11463526672E+01 -0.14354734323E+00  0.11911586664E+01  0.16593943193E+01  0.51100000000E-03 0. -1.
        -11    1    4    4    0    0 -0.18987671833E+01  0.72347729324E+01  0.10818992371E+01  0.75576294180E+01  0.51100000000E-03 0.  1.
         12    1    4    4    0    0  0.68622136581E+01  0.13302842695E+02  0.35547259552E+02  0.38570238030E+02  0.00000000000E+00 0. -1.
</event>
<event>
 8    1  0.1164123E-009  0.9118800E+02  0.7816164E-02  0.1184000E+00
        -11   -1    0    0    0    0  0.00000000000E+00  0.00000000000E+00  0.45593999997E+02  0.45594000000E+02  0.51100000000E-03 0. -1.
         11   -1    0    0    0    0 -0.00000000000E+00 -0.00000000000E+00 -0.45593999997E+02  0.45594000000E+02  0.51100000000E-03 0.  1.
         23    2    1    2    0    0  0.00000000000E+00  0.35527136788E-14  0.00000000000E+00  0.91188000000E+02  0.91188000000E+02 0.  0.
    9900012    2    3    3    0    0 -0.33260514267E+02  0.20680063747E+02  0.18700161366E+02  0.47787275570E+02  0.20000020636E+02 0.  0.
        -12    1    3    3    0    0  0.33260514267E+02 -0.20680063747E+02 -0.18700161366E+02  0.43400724430E+02  0.00000000000E+00 0.  1.
         11    1    4    4    0    0 -0.77002709334E+01  0.93237894682E+01  0.14672471237E+02  0.19013380419E+02  0.51100000000E-03 0. -1.
        -11    1    4    4    0    0 -0.10274682199E+02  0.70477211545E+01  0.32365219050E+01  0.12873016044E+02  0.51100000000E-03 0.  1.
         12    1    4    4    0    0 -0.15285561135E+02  0.43085531246E+01  0.79116822352E+00  0.15900879107E+02  0.00000000000E+00 0. -1.
</event>
<event>
 8    1  0.1164123E-009  0.9118800E+02  0.7816164E-02  0.1184000E+00
        -11   -1    0    0    0    0  0.00000000000E+00  0.00000000000E+00  0.45593999997E+02  0.45594000000E+02  0.51100000000E-03 0. -1.
         11   -1    0    0    0    0 -0.00000000000E+00 -0.00000000000E+00 -0.45593999997E+02  0.45594000000E+02  0.51100000000E-03 0.  1.
         23    2    1    2    0    0  0.00000000000E+00 -0.71054273576E-14  0.00000000000E+00  0.91188000000E+02  0.91188000000E+02 0.  0.
    9900012    2    3    3    0    0 -0.18157979556E+02 -0.37627041556E+02  0.11752301569E+02  0.47787273393E+02  0.20000010709E+02 0.  0.
        -12    1    3    3    0    0  0.18157979556E+02  0.37627041556E+02 -0.11752301569E+02  0.43400726607E+02  0.00000000000E+00 0.  1.
         11    1    4    4    0    0  0.34840007341E+00 -0.68531622797E+01 -0.10086634115E+01  0.69357492733E+01  0.51100000000E-03 0. -1.
        -11    1    4    4    0    0 -0.11853656551E+02 -0.28730321589E+02  0.70996829709E+01  0.31880182728E+02  0.51100000000E-03 0.  1.
        -12    1    4    4    0    0 -0.66527230788E+01 -0.20435576882E+01  0.56612820092E+01  0.89713413922E+01  0.00000000000E+00 0.  1.
</event>
<event>
 8    1  0.1164123E-009  0.9118800E+02  0.7816164E-02  0.1184000E+00
        -11   -1    0    0    0    0  0.00000000000E+00  0.00000000000E+00  0.45593999997E+02  0.45594000000E+02  0.51100000000E-03 0. -1.
         11   -1    0    0    0    0 -0.00000000000E+00 -0.00000000000E+00 -0.45593999997E+02  0.45594000000E+02  0.51100000000E-03 0.  1.
         23    2    1    2    0    0 -0.17763568394E-14  0.00000000000E+00  0.00000000000E+00  0.91188000000E+02  0.91188000000E+02 0.  0.
    9900012    2    3    3    0    0  0.13414607784E+02  0.22057471279E+02 -0.34887520933E+02  0.47787275835E+02  0.20000021840E+02 0.  0.
         12    1    3    3    0    0 -0.13414607784E+02 -0.22057471279E+02  0.34887520933E+02  0.43400724165E+02  0.00000000000E+00 0. -1.
         11    1    4    4    0    0  0.10932169223E+01  0.34991926171E+01 -0.14083448014E+01  0.39272009818E+01  0.51100000000E-03 0. -1.
        -11    1    4    4    0    0  0.51806692425E+01  0.17253205093E+02 -0.31580087705E+02  0.36356764976E+02  0.51100000000E-03 0.  1.
        -12    1    4    4    0    0  0.71407216189E+01  0.13050735688E+01 -0.18990884271E+01  0.75033098771E+01  0.00000000000E+00 0.  1.
</event>
<event>
 8    1  0.1164123E-009  0.9118800E+02  0.7816164E-02  0.1184000E+00
        -11   -1    0    0    0    0  0.00000000000E+00  0.00000000000E+00  0.45593999997E+02  0.45594000000E+02  0.51100000000E-03 0. -1.
         11   -1    0    0    0    0 -0.00000000000E+00 -0.00000000000E+00 -0.45593999997E+02  0.45594000000E+02  0.51100000000E-03 0.  1.
         23    2    1    2    0    0  0.00000000000E+00  0.00000000000E+00  0.00000000000E+00  0.91188000000E+02  0.91188000000E+02 0.  0.
    9900012    2    3    3    0    0  0.34181309098E+02  0.20179546552E+02 -0.17551286099E+02  0.47787266890E+02  0.19999981060E+02 0.  0.
         12    1    3    3    0    0 -0.34181309098E+02 -0.20179546552E+02  0.17551286099E+02  0.43400733110E+02  0.00000000000E+00 0. -1.
         11    1    4    4    0    0  0.30492983695E+01 -0.19049311609E+01  0.20356605216E+00  0.36011696256E+01  0.51100000000E-03 0. -1.
        -11    1    4    4    0    0  0.51253989372E+01  0.10449168952E+02 -0.26397681005E+01  0.11934120074E+02  0.51100000000E-03 0.  1.
        -12    1    4    4    0    0  0.26006611792E+02  0.11635308761E+02 -0.15115084051E+02  0.32251977191E+02  0.00000000000E+00 0.  1.
</event>
<event>
 8    1  0.1164123E-009  0.9118800E+02  0.7816164E-02  0.1184000E+00
        -11   -1    0    0    0    0  0.00000000000E+00  0.00000000000E+00  0.45593999997E+02  0.45594000000E+02  0.51100000000E-03 0. -1.
         11   -1    0    0    0    0 -0.00000000000E+00 -0.00000000000E+00 -0.45593999997E+02  0.45594000000E+02  0.51100000000E-03 0.  1.
         23    2    1    2    0    0 -0.17763568394E-14  0.00000000000E+00  0.71054273576E-14  0.91188000000E+02  0.91188000000E+02 0.  0.
    9900012    2    3    3    0    0  0.82672821118E+01  0.14083791646E+02 -0.40210973063E+02  0.47787268493E+02  0.19999988366E+02 0.  0.
         12    1    3    3    0    0 -0.82672821118E+01 -0.14083791646E+02  0.40210973063E+02  0.43400731507E+02  0.00000000000E+00 0. -1.
         11    1    4    4    0    0  0.49549492872E+00  0.60957772952E+01 -0.11122597720E+02  0.12693155493E+02  0.51100000000E-03 0. -1.
        -11    1    4    4    0    0  0.79896591406E+01  0.66352065094E+01 -0.31027616297E+02  0.32719620902E+02  0.51100000000E-03 0.  1.
         12    1    4    4    0    0 -0.21787195749E+00  0.13528078418E+01  0.19392409540E+01  0.23744920982E+01  0.00000000000E+00 0. -1.
</event>
<event>
 8    1  0.1164123E-009  0.9118800E+02  0.7816164E-02  0.1184000E+00
        -11   -1    0    0    0    0  0.00000000000E+00  0.00000000000E+00  0.45593999997E+02  0.45594000000E+02  0.51100000000E-03 0. -1.
         11   -1    0    0    0    0 -0.00000000000E+00 -0.00000000000E+00 -0.45593999997E+02  0.45594000000E+02  0.51100000000E-03 0.  1.
         23    2    1    2    0    0  0.35527136788E-14  0.17763568394E-14  0.00000000000E+00  0.91188000000E+02  0.91188000000E+02 0.  0.
    9900012    2    3    3    0    0 -0.19156730496E+02 -0.15608421887E+02  0.35679401549E+02  0.47787275905E+02  0.20000022161E+02 0.  0.
        -12    1    3    3    0    0  0.19156730496E+02  0.15608421887E+02 -0.35679401549E+02  0.43400724095E+02  0.00000000000E+00 0.  1.
         11    1    4    4    0    0 -0.82667172495E+01 -0.56932899480E+01  0.22915453430E+02  0.25017397360E+02  0.51100000000E-03 0. -1.
        -11    1    4    4    0    0 -0.12388909617E+02 -0.51073078866E+01  0.11290488398E+02  0.17522693967E+02  0.51100000000E-03 0.  1.
        -12    1    4    4    0    0  0.14988963700E+01 -0.48078240523E+01  0.14734597209E+01  0.52471845780E+01  0.00000000000E+00 0.  1.
</event>
<event>
 8    1  0.1164123E-009  0.9118800E+02  0.7816164E-02  0.1184000E+00
        -11   -1    0    0    0    0  0.00000000000E+00  0.00000000000E+00  0.45593999997E+02  0.45594000000E+02  0.51100000000E-03 0. -1.
         11   -1    0    0    0    0 -0.00000000000E+00 -0.00000000000E+00 -0.45593999997E+02  0.45594000000E+02  0.51100000000E-03 0.  1.
         23    2    1    2    0    0  0.71054273576E-14 -0.26645352591E-14  0.00000000000E+00  0.91188000000E+02  0.91188000000E+02 0.  0.
    9900012    2    3    3    0    0 -0.42717507839E+02  0.56985535213E+01  0.51345505096E+01  0.47787278840E+02  0.20000035545E+02 0.  0.
        -12    1    3    3    0    0  0.42717507839E+02 -0.56985535213E+01 -0.51345505096E+01  0.43400721160E+02  0.00000000000E+00 0.  1.
         11    1    4    4    0    0 -0.11919679572E+02  0.36703400374E+01  0.70881653353E+00  0.12492100633E+02  0.51100000000E-03 0. -1.
        -11    1    4    4    0    0 -0.56652328931E+01  0.70910699845E+01 -0.86539359742E+00  0.91174033363E+01  0.51100000000E-03 0.  1.
         12    1    4    4    0    0 -0.25132595375E+02 -0.50628565007E+01  0.52911275735E+01  0.26177774871E+02  0.00000000000E+00 0. -1.
</event>
<event>
 8    1  0.1164123E-009  0.9118800E+02  0.7816164E-02  0.1184000E+00
        -11   -1    0    0    0    0  0.00000000000E+00  0.00000000000E+00  0.45593999997E+02  0.45594000000E+02  0.51100000000E-03 0. -1.
         11   -1    0    0    0    0 -0.00000000000E+00 -0.00000000000E+00 -0.45593999997E+02  0.45594000000E+02  0.51100000000E-03 0.  1.
         23    2    1    2    0    0  0.00000000000E+00 -0.44408920985E-15  0.00000000000E+00  0.91188000000E+02  0.91188000000E+02 0.  0.
    9900012    2    3    3    0    0 -0.12528259817E+02  0.20224960141E+01 -0.41503915026E+02  0.47787277118E+02  0.20000027694E+02 0.  0.
         12    1    3    3    0    0  0.12528259817E+02 -0.20224960141E+01  0.41503915026E+02  0.43400722882E+02  0.00000000000E+00 0. -1.
         11    1    4    4    0    0 -0.71774555100E+01  0.12360841275E+01 -0.51860977142E+01  0.89408825812E+01  0.51100000000E-03 0. -1.
        -11    1    4    4    0    0 -0.10194163405E+01 -0.55012905135E+01 -0.10179435146E+02  0.11615692280E+02  0.51100000000E-03 0.  1.
         12    1    4    4    0    0 -0.43313879667E+01  0.62877024000E+01 -0.26138382166E+02  0.27230702257E+02  0.00000000000E+00 0. -1.
</event>
<event>
 8    1  0.1164123E-009  0.9118800E+02  0.7816164E-02  0.1184000E+00
        -11   -1    0    0    0    0  0.00000000000E+00  0.00000000000E+00  0.45593999997E+02  0.45594000000E+02  0.51100000000E-03 0. -1.
         11   -1    0    0    0    0 -0.00000000000E+00 -0.00000000000E+00 -0.45593999997E+02  0.45594000000E+02  0.51100000000E-03 0.  1.
         23    2    1    2    0    0  0.00000000000E+00  0.00000000000E+00  0.00000000000E+00  0.91188000000E+02  0.91188000000E+02 0.  0.
    9900012    2    3    3    0    0  0.21665974061E+02 -0.15748305979E+02  0.34149664965E+02  0.47787272005E+02  0.20000004381E+02 0.  0.
        -12    1    3    3    0    0 -0.21665974061E+02  0.15748305979E+02 -0.34149664965E+02  0.43400727995E+02  0.00000000000E+00 0.  1.
         11    1    4    4    0    0  0.56606569452E+01  0.21786136389E+01  0.12491099319E+02  0.13885854561E+02  0.51100000000E-03 0.  1.
        -11    1    4    4    0    0 -0.72933533533E+00 -0.39252515648E+01  0.52753226671E+01  0.66157810863E+01  0.51100000000E-03 0. -1.
        -12    1    4    4    0    0  0.16734652451E+02 -0.14001668053E+02  0.16383242979E+02  0.27285636358E+02  0.00000000000E+00 0.  1.
</event>
<event>
 8    1  0.1164123E-009  0.9118800E+02  0.7816164E-02  0.1184000E+00
        -11   -1    0    0    0    0  0.00000000000E+00  0.00000000000E+00  0.45593999997E+02  0.45594000000E+02  0.51100000000E-03 0. -1.
         11   -1    0    0    0    0 -0.00000000000E+00 -0.00000000000E+00 -0.45593999997E+02  0.45594000000E+02  0.51100000000E-03 0.  1.
         23    2    1    2    0    0  0.00000000000E+00 -0.17763568394E-14  0.00000000000E+00  0.91188000000E+02  0.91188000000E+02 0.  0.
    9900012    2    3    3    0    0  0.32669050448E+02  0.13740771682E+02  0.25050900666E+02  0.47787270885E+02  0.19999999273E+02 0.  0.
        -12    1    3    3    0    0 -0.32669050448E+02 -0.13740771682E+02 -0.25050900666E+02  0.43400729115E+02  0.00000000000E+00 0.  1.
         11    1    4    4    0    0  0.24835276634E+02  0.53589330453E+00  0.13036411682E+02  0.28053986827E+02  0.51100000000E-03 0. -1.
        -11    1    4    4    0    0  0.98833087428E+00  0.21111843121E+01  0.33480207395E+01  0.40796005012E+01  0.51100000000E-03 0.  1.
         12    1    4    4    0    0  0.68454429397E+01  0.11093694066E+02  0.86664682441E+01  0.15653683556E+02  0.00000000000E+00 0. -1.
</event>
<event>
 8    1  0.1164123E-009  0.9118800E+02  0.7816164E-02  0.1184000E+00
        -11   -1    0    0    0    0  0.00000000000E+00  0.00000000000E+00  0.45593999997E+02  0.45594000000E+02  0.51100000000E-03 0. -1.
         11   -1    0    0    0    0 -0.00000000000E+00 -0.00000000000E+00 -0.45593999997E+02  0.45594000000E+02  0.51100000000E-03 0.  1.
         23    2    1    2    0    0 -0.88817841970E-15  0.17763568394E-14  0.00000000000E+00  0.91188000000E+02  0.91188000000E+02 0.  0.
    9900012    2    3    3    0    0 -0.62979065523E+01  0.70027895771E+01 -0.42366500807E+02  0.47787273285E+02  0.20000010214E+02 0.  0.
         12    1    3    3    0    0  0.62979065523E+01 -0.70027895771E+01  0.42366500807E+02  0.43400726715E+02  0.00000000000E+00 0. -1.
         11    1    4    4    0    0 -0.10331320387E+00  0.13396620731E+01  0.16815557631E+00  0.13541213561E+01  0.51100000000E-03 0. -1.
        -11    1    4    4    0    0 -0.86697334442E+01  0.10237300743E+02 -0.30048905156E+02  0.32907496195E+02  0.51100000000E-03 0.  1.
        -12    1    4    4    0    0  0.24751400959E+01 -0.45741732388E+01 -0.12485751227E+02  0.13525655734E+02  0.00000000000E+00 0.  1.
</event>
<event>
 8    1  0.1164123E-009  0.9118800E+02  0.7816164E-02  0.1184000E+00
        -11   -1    0    0    0    0  0.00000000000E+00  0.00000000000E+00  0.45593999997E+02  0.45594000000E+02  0.51100000000E-03 0. -1.
         11   -1    0    0    0    0 -0.00000000000E+00 -0.00000000000E+00 -0.45593999997E+02  0.45594000000E+02  0.51100000000E-03 0.  1.
         23    2    1    2    0    0  0.00000000000E+00 -0.88817841970E-15  0.00000000000E+00  0.91188000000E+02  0.91188000000E+02 0.  0.
    9900012    2    3    3    0    0 -0.20487956308E+02 -0.61559286701E+01  0.37762039602E+02  0.47787269057E+02  0.19999990939E+02 0.  0.
        -12    1    3    3    0    0  0.20487956308E+02  0.61559286701E+01 -0.37762039602E+02  0.43400730943E+02  0.00000000000E+00 0.  1.
         11    1    4    4    0    0 -0.42338178584E+00 -0.23675374490E+01  0.58023353332E+01  0.62810493781E+01  0.51100000000E-03 0. -1.
        -11    1    4    4    0    0  0.37221064526E+00  0.29966394161E+01  0.11182866626E+02  0.11583388744E+02  0.51100000000E-03 0.  1.
         12    1    4    4    0    0 -0.20436785168E+02 -0.67850306371E+01  0.20776837643E+02  0.29922830935E+02  0.00000000000E+00 0. -1.
</event>
<event>
 8    1  0.1164123E-009  0.9118800E+02  0.7816164E-02  0.1184000E+00
        -11   -1    0    0    0    0  0.00000000000E+00  0.00000000000E+00  0.45593999997E+02  0.45594000000E+02  0.51100000000E-03 0. -1.
         11   -1    0    0    0    0 -0.00000000000E+00 -0.00000000000E+00 -0.45593999997E+02  0.45594000000E+02  0.51100000000E-03 0.  1.
         23    2    1    2    0    0  0.35527136788E-14  0.00000000000E+00  0.00000000000E+00  0.91188000000E+02  0.91188000000E+02 0.  0.
    9900012    2    3    3    0    0  0.23917761517E+02  0.20058019950E+02  0.30153601893E+02  0.47787272041E+02  0.20000004542E+02 0.  0.
        -12    1    3    3    0    0 -0.23917761517E+02 -0.20058019950E+02 -0.30153601893E+02  0.43400727959E+02  0.00000000000E+00 0.  1.
         11    1    4    4    0    0 -0.70497258615E+00  0.26729536524E+01 -0.16063815756E+00  0.27690201252E+01  0.51100000000E-03 0. -1.
        -11    1    4    4    0    0  0.16016209663E+02  0.11022606737E+02  0.95580119015E+01  0.21665004570E+02  0.51100000000E-03 0.  1.
         12    1    4    4    0    0  0.86065244406E+01  0.63624595600E+01  0.20756228149E+02  0.23353247345E+02  0.00000000000E+00 0. -1.
</event>
<event>
 8    1  0.1164123E-009  0.9118800E+02  0.7816164E-02  0.1184000E+00
        -11   -1    0    0    0    0  0.00000000000E+00  0.00000000000E+00  0.45593999997E+02  0.45594000000E+02  0.51100000000E-03 0. -1.
         11   -1    0    0    0    0 -0.00000000000E+00 -0.00000000000E+00 -0.45593999997E+02  0.45594000000E+02  0.51100000000E-03 0.  1.
         23    2    1    2    0    0  0.00000000000E+00  0.00000000000E+00  0.00000000000E+00  0.91188000000E+02  0.91188000000E+02 0.  0.
    9900012    2    3    3    0    0 -0.18570339600E+02  0.11360418236E+02  0.37546060325E+02  0.47787271189E+02  0.20000000661E+02 0.  0.
        -12    1    3    3    0    0  0.18570339600E+02 -0.11360418236E+02 -0.37546060325E+02  0.43400728811E+02  0.00000000000E+00 0.  1.
         11    1    4    4    0    0 -0.91565157430E+01  0.29491363067E+01  0.24221604098E+02  0.26061951018E+02  0.51100000000E-03 0. -1.
        -11    1    4    4    0    0 -0.90188626675E+01  0.58595835904E+00  0.90926302409E+01  0.12820263491E+02  0.51100000000E-03 0.  1.
        -12    1    4    4    0    0 -0.39496118955E+00  0.78253235698E+01  0.42318259863E+01  0.89050566810E+01  0.00000000000E+00 0.  1.
</event>
<event>
 8    1  0.1164123E-009  0.9118800E+02  0.7816164E-02  0.1184000E+00
        -11   -1    0    0    0    0  0.00000000000E+00  0.00000000000E+00  0.45593999997E+02  0.45594000000E+02  0.51100000000E-03 0. -1.
         11   -1    0    0    0    0 -0.00000000000E+00 -0.00000000000E+00 -0.45593999997E+02  0.45594000000E+02  0.51100000000E-03 0.  1.
         23    2    1    2    0    0  0.00000000000E+00  0.00000000000E+00  0.71054273576E-14  0.91188000000E+02  0.91188000000E+02 0.  0.
    9900012    2    3    3    0    0  0.31480886011E+01 -0.15514285843E+02 -0.40410642096E+02  0.47787268190E+02  0.19999986986E+02 0.  0.
         12    1    3    3    0    0 -0.31480886011E+01  0.15514285843E+02  0.40410642096E+02  0.43400731810E+02  0.00000000000E+00 0. -1.
         11    1    4    4    0    0 -0.35469000073E+01  0.22374389370E+01 -0.38668450434E+01  0.57043074522E+01  0.51100000000E-03 0. -1.
        -11    1    4    4    0    0  0.71935168705E+00 -0.44133177787E+01 -0.17583474070E+02  0.18143136479E+02  0.51100000000E-03 0.  1.
        -12    1    4    4    0    0  0.59756369214E+01 -0.13338407001E+02 -0.18960322982E+02  0.23939824258E+02  0.00000000000E+00 0.  1.
</event>
<event>
 8    1  0.1164123E-009  0.9118800E+02  0.7816164E-02  0.1184000E+00
        -11   -1    0    0    0    0  0.00000000000E+00  0.00000000000E+00  0.45593999997E+02  0.45594000000E+02  0.51100000000E-03 0. -1.
         11   -1    0    0    0    0 -0.00000000000E+00 -0.00000000000E+00 -0.45593999997E+02  0.45594000000E+02  0.51100000000E-03 0.  1.
         23    2    1    2    0    0  0.17763568394E-14  0.00000000000E+00  0.00000000000E+00  0.91188000000E+02  0.91188000000E+02 0.  0.
    9900012    2    3    3    0    0  0.15799703619E+02  0.31658799378E+02  0.25133903988E+02  0.47787270257E+02  0.19999996410E+02 0.  0.
        -12    1    3    3    0    0 -0.15799703619E+02 -0.31658799378E+02 -0.25133903988E+02  0.43400729743E+02  0.00000000000E+00 0.  1.
         11    1    4    4    0    0  0.13529373242E+02  0.21571524713E+02  0.22911979130E+02  0.34253954613E+02  0.51100000000E-03 0. -1.
        -11    1    4    4    0    0  0.22095623663E+01  0.63581545205E+01  0.54029770918E+01  0.86313646936E+01  0.51100000000E-03 0.  1.
        -12    1    4    4    0    0  0.60768011287E-01  0.37291201449E+01 -0.31810522333E+01  0.49019509501E+01  0.00000000000E+00 0.  1.
</event>
<event>
 8    1  0.1164123E-009  0.9118800E+02  0.7816164E-02  0.1184000E+00
        -11   -1    0    0    0    0  0.00000000000E+00  0.00000000000E+00  0.45593999997E+02  0.45594000000E+02  0.51100000000E-03 0. -1.
         11   -1    0    0    0    0 -0.00000000000E+00 -0.00000000000E+00 -0.45593999997E+02  0.45594000000E+02  0.51100000000E-03 0.  1.
         23    2    1    2    0    0 -0.71054273576E-14  0.00000000000E+00  0.00000000000E+00  0.91188000000E+02  0.91188000000E+02 0.  0.
    9900012    2    3    3    0    0 -0.37860270592E+02  0.10774011560E+02  0.18279604444E+02  0.47787270132E+02  0.19999995842E+02 0.  0.
        -12    1    3    3    0    0  0.37860270592E+02 -0.10774011560E+02 -0.18279604444E+02  0.43400729868E+02  0.00000000000E+00 0.  1.
         11    1    4    4    0    0 -0.13043847756E+02  0.15160955276E+00 -0.85921901789E+00  0.13072995346E+02  0.51100000000E-03 0. -1.
        -11    1    4    4    0    0  0.66696735880E+00  0.19064133504E+01  0.15655386125E+01  0.25554194819E+01  0.51100000000E-03 0.  1.
         12    1    4    4    0    0 -0.25483390195E+02  0.87159886564E+01  0.17573284849E+02  0.32158855304E+02  0.00000000000E+00 0. -1.
</event>
<event>
 8    1  0.1164123E-009  0.9118800E+02  0.7816164E-02  0.1184000E+00
        -11   -1    0    0    0    0  0.00000000000E+00  0.00000000000E+00  0.45593999997E+02  0.45594000000E+02  0.51100000000E-03 0.  1.
         11   -1    0    0    0    0 -0.00000000000E+00 -0.00000000000E+00 -0.45593999997E+02  0.45594000000E+02  0.51100000000E-03 0. -1.
         23    2    1    2    0    0  0.00000000000E+00  0.00000000000E+00  0.35527136788E-14  0.91188000000E+02  0.91188000000E+02 0.  0.
    9900012    2    3    3    0    0 -0.30838963497E+02  0.10590995018E+02  0.28642835983E+02  0.47787275372E+02  0.20000019731E+02 0.  0.
        -12    1    3    3    0    0  0.30838963497E+02 -0.10590995018E+02 -0.28642835983E+02  0.43400724628E+02  0.00000000000E+00 0.  1.
         11    1    4    4    0    0 -0.53879965315E+01  0.64096636564E+00  0.36807131067E+01  0.65565992511E+01  0.51100000000E-03 0. -1.
        -11    1    4    4    0    0 -0.19240519009E+02  0.35857508505E+01  0.25704354324E+02  0.32307414201E+02  0.51100000000E-03 0.  1.
         12    1    4    4    0    0 -0.62104479568E+01  0.63642778022E+01 -0.74223144718E+00  0.89232619198E+01  0.00000000000E+00 0. -1.
</event>
<event>
 8    1  0.1164123E-009  0.9118800E+02  0.7816164E-02  0.1184000E+00
        -11   -1    0    0    0    0  0.00000000000E+00  0.00000000000E+00  0.45593999997E+02  0.45594000000E+02  0.51100000000E-03 0. -1.
         11   -1    0    0    0    0 -0.00000000000E+00 -0.00000000000E+00 -0.45593999997E+02  0.45594000000E+02  0.51100000000E-03 0.  1.
         23    2    1    2    0    0  0.35527136788E-14  0.00000000000E+00  0.00000000000E+00  0.91188000000E+02  0.91188000000E+02 0.  0.
    9900012    2    3    3    0    0 -0.26116499727E+02 -0.12266615675E+02  0.32420400276E+02  0.47787265304E+02  0.19999973827E+02 0.  0.
        -12    1    3    3    0    0  0.26116499727E+02  0.12266615675E+02 -0.32420400276E+02  0.43400734696E+02  0.00000000000E+00 0.  1.
         11    1    4    4    0    0 -0.14188013380E+01  0.17516540918E+01  0.84371664663E+01  0.87331018278E+01  0.51100000000E-03 0. -1.
        -11    1    4    4    0    0  0.63180938910E+00 -0.27389325865E+01  0.82943125648E+00  0.29306810280E+01  0.51100000000E-03 0.  1.
         12    1    4    4    0    0 -0.25329507778E+02 -0.11279337180E+02  0.23153802553E+02  0.36123482448E+02  0.00000000000E+00 0. -1.
</event>
<event>
 8    1  0.1164123E-009  0.9118800E+02  0.7816164E-02  0.1184000E+00
        -11   -1    0    0    0    0  0.00000000000E+00  0.00000000000E+00  0.45593999997E+02  0.45594000000E+02  0.51100000000E-03 0. -1.
         11   -1    0    0    0    0 -0.00000000000E+00 -0.00000000000E+00 -0.45593999997E+02  0.45594000000E+02  0.51100000000E-03 0.  1.
         23    2    1    2    0    0  0.00000000000E+00  0.00000000000E+00  0.00000000000E+00  0.91188000000E+02  0.91188000000E+02 0.  0.
    9900012    2    3    3    0    0  0.25053663413E+02  0.15509966482E+02 -0.31865001308E+02  0.47787269372E+02  0.19999992373E+02 0.  0.
         12    1    3    3    0    0 -0.25053663413E+02 -0.15509966482E+02  0.31865001308E+02  0.43400730628E+02  0.00000000000E+00 0. -1.
         11    1    4    4    0    0  0.17118585008E+02  0.74544145051E+01 -0.13380325120E+02  0.22970575719E+02  0.51100000000E-03 0.  1.
        -11    1    4    4    0    0  0.32725473560E+01 -0.63011547644E+00  0.55288250761E+00  0.33782082587E+01  0.51100000000E-03 0. -1.
        -12    1    4    4    0    0  0.46625310493E+01  0.86856674534E+01 -0.19037558696E+02  0.21438485394E+02  0.00000000000E+00 0.  1.
</event>
<event>
 8    1  0.1164123E-009  0.9118800E+02  0.7816164E-02  0.1184000E+00
        -11   -1    0    0    0    0  0.00000000000E+00  0.00000000000E+00  0.45593999997E+02  0.45594000000E+02  0.51100000000E-03 0. -1.
         11   -1    0    0    0    0 -0.00000000000E+00 -0.00000000000E+00 -0.45593999997E+02  0.45594000000E+02  0.51100000000E-03 0.  1.
         23    2    1    2    0    0  0.00000000000E+00  0.00000000000E+00 -0.35527136788E-14  0.91188000000E+02  0.91188000000E+02 0.  0.
    9900012    2    3    3    0    0  0.24224201569E+02 -0.32422639121E+02 -0.15671117616E+02  0.47787269631E+02  0.19999993555E+02 0.  0.
        -12    1    3    3    0    0 -0.24224201569E+02  0.32422639121E+02  0.15671117616E+02  0.43400730369E+02  0.00000000000E+00 0.  1.
         11    1    4    4    0    0  0.19109947470E+02 -0.13229423916E+02 -0.70455168549E+01  0.24286767127E+02  0.51100000000E-03 0. -1.
        -11    1    4    4    0    0  0.63420819829E+01 -0.10910838995E+02 -0.83318911272E+01  0.15122460827E+02  0.51100000000E-03 0.  1.
        -12    1    4    4    0    0 -0.12278278839E+01 -0.82823762101E+01 -0.29370963416E+00  0.83780416773E+01  0.00000000000E+00 0.  1.
</event>
<event>
 8    1  0.1164123E-009  0.9118800E+02  0.7816164E-02  0.1184000E+00
        -11   -1    0    0    0    0  0.00000000000E+00  0.00000000000E+00  0.45593999997E+02  0.45594000000E+02  0.51100000000E-03 0.  1.
         11   -1    0    0    0    0 -0.00000000000E+00 -0.00000000000E+00 -0.45593999997E+02  0.45594000000E+02  0.51100000000E-03 0. -1.
         23    2    1    2    0    0  0.00000000000E+00  0.44408920985E-15  0.00000000000E+00  0.91188000000E+02  0.91188000000E+02 0.  0.
    9900012    2    3    3    0    0  0.32835300708E+02  0.38093448982E+01  0.28123919781E+02  0.47787274834E+02  0.20000017277E+02 0.  0.
        -12    1    3    3    0    0 -0.32835300708E+02 -0.38093448982E+01 -0.28123919781E+02  0.43400725166E+02  0.00000000000E+00 0.  1.
         11    1    4    4    0    0  0.61983689689E+01 -0.17146474557E+01  0.47302922152E+01  0.79834490337E+01  0.51100000000E-03 0. -1.
        -11    1    4    4    0    0  0.46733015470E+01  0.63099600601E+01  0.20475179758E+00  0.78547607773E+01  0.51100000000E-03 0.  1.
        -12    1    4    4    0    0  0.21963630192E+02 -0.78596770612E+00  0.23188875768E+02  0.31949065023E+02  0.00000000000E+00 0.  1.
</event>
<event>
 8    1  0.1164123E-009  0.9118800E+02  0.7816164E-02  0.1184000E+00
        -11   -1    0    0    0    0  0.00000000000E+00  0.00000000000E+00  0.45593999997E+02  0.45594000000E+02  0.51100000000E-03 0.  1.
         11   -1    0    0    0    0 -0.00000000000E+00 -0.00000000000E+00 -0.45593999997E+02  0.45594000000E+02  0.51100000000E-03 0. -1.
         23    2    1    2    0    0  0.35527136788E-14  0.57245874707E-16  0.00000000000E+00  0.91188000000E+02  0.91188000000E+02 0.  0.
    9900012    2    3    3    0    0  0.31616110661E+02  0.97516450744E-02 -0.29732885576E+02  0.47787273818E+02  0.20000012646E+02 0.  0.
         12    1    3    3    0    0 -0.31616110661E+02 -0.97516450744E-02  0.29732885576E+02  0.43400726182E+02  0.00000000000E+00 0. -1.
         11    1    4    4    0    0  0.25790285492E+02  0.35987756403E+01 -0.14503934791E+02  0.29806947790E+02  0.51100000000E-03 0. -1.
        -11    1    4    4    0    0  0.56304276134E+01 -0.25758743173E+01 -0.57641496071E+01  0.84594482422E+01  0.51100000000E-03 0.  1.
         12    1    4    4    0    0  0.19539755561E+00 -0.10131496779E+01 -0.94648011778E+01  0.95208777857E+01  0.00000000000E+00 0. -1.
</event>
<event>
 8    1  0.1164123E-009  0.9118800E+02  0.7816164E-02  0.1184000E+00
        -11   -1    0    0    0    0  0.00000000000E+00  0.00000000000E+00  0.45593999997E+02  0.45594000000E+02  0.51100000000E-03 0. -1.
         11   -1    0    0    0    0 -0.00000000000E+00 -0.00000000000E+00 -0.45593999997E+02  0.45594000000E+02  0.51100000000E-03 0.  1.
         23    2    1    2    0    0 -0.35527136788E-14 -0.17763568394E-14 -0.71054273576E-14  0.91188000000E+02  0.91188000000E+02 0.  0.
    9900012    2    3    3    0    0 -0.21659780484E+02  0.35243362351E+01 -0.37444053990E+02  0.47787260194E+02  0.19999950527E+02 0.  0.
         12    1    3    3    0    0  0.21659780484E+02 -0.35243362351E+01  0.37444053990E+02  0.43400739806E+02  0.00000000000E+00 0. -1.
         11    1    4    4    0    0  0.85782403092E+00  0.21749679343E+01 -0.27889956111E+01  0.36393466945E+01  0.51100000000E-03 0. -1.
        -11    1    4    4    0    0 -0.12452498930E+02  0.81535704390E+01 -0.22375315572E+02  0.26873782535E+02  0.51100000000E-03 0.  1.
         12    1    4    4    0    0 -0.10065105585E+02 -0.68042021382E+01 -0.12279742807E+02  0.17274130965E+02  0.00000000000E+00 0. -1.
</event>
<event>
 8    1  0.1164123E-009  0.9118800E+02  0.7816164E-02  0.1184000E+00
        -11   -1    0    0    0    0  0.00000000000E+00  0.00000000000E+00  0.45593999997E+02  0.45594000000E+02  0.51100000000E-03 0. -1.
         11   -1    0    0    0    0 -0.00000000000E+00 -0.00000000000E+00 -0.45593999997E+02  0.45594000000E+02  0.51100000000E-03 0.  1.
         23    2    1    2    0    0 -0.35527136788E-14  0.00000000000E+00 -0.71054273576E-14  0.91188000000E+02  0.91188000000E+02 0.  0.
    9900012    2    3    3    0    0 -0.20155153392E+02 -0.19440870835E+02 -0.33157884180E+02  0.47787274771E+02  0.20000016992E+02 0.  0.
         12    1    3    3    0    0  0.20155153392E+02  0.19440870835E+02  0.33157884180E+02  0.43400725229E+02  0.00000000000E+00 0. -1.
         11    1    4    4    0    0  0.21238540416E+01  0.36240180327E+00 -0.32011251027E+00  0.21782018587E+01  0.51100000000E-03 0. -1.
        -11    1    4    4    0    0 -0.38238050014E+01 -0.10104332599E+02 -0.11246623373E+02  0.15595049199E+02  0.51100000000E-03 0.  1.
        -12    1    4    4    0    0 -0.18455202432E+02 -0.96989400396E+01 -0.21591148297E+02  0.30014023714E+02  0.00000000000E+00 0.  1.
</event>
<event>
 8    1  0.1164123E-009  0.9118800E+02  0.7816164E-02  0.1184000E+00
        -11   -1    0    0    0    0  0.00000000000E+00  0.00000000000E+00  0.45593999997E+02  0.45594000000E+02  0.51100000000E-03 0. -1.
         11   -1    0    0    0    0 -0.00000000000E+00 -0.00000000000E+00 -0.45593999997E+02  0.45594000000E+02  0.51100000000E-03 0.  1.
         23    2    1    2    0    0  0.00000000000E+00  0.00000000000E+00  0.71054273576E-14  0.91188000000E+02  0.91188000000E+02 0.  0.
    9900012    2    3    3    0    0 -0.19415119108E+02 -0.18894902681E+01  0.38769897218E+02  0.47787286253E+02  0.20000069343E+02 0.  0.
        -12    1    3    3    0    0  0.19415119108E+02  0.18894902681E+01 -0.38769897218E+02  0.43400713747E+02  0.00000000000E+00 0.  1.
         11    1    4    4    0    0 -0.56648271790E+01 -0.15005857807E+00  0.18245261255E+02  0.19105034495E+02  0.51100000000E-03 0. -1.
        -11    1    4    4    0    0  0.25341806155E+01 -0.28289061520E+00  0.70457093053E+01  0.74929378997E+01  0.51100000000E-03 0.  1.
         12    1    4    4    0    0 -0.16284472545E+02 -0.14565410748E+01  0.13478926658E+02  0.21189313859E+02  0.00000000000E+00 0. -1.
</event>
<event>
 8    1  0.1164123E-009  0.9118800E+02  0.7816164E-02  0.1184000E+00
        -11   -1    0    0    0    0  0.00000000000E+00  0.00000000000E+00  0.45593999997E+02  0.45594000000E+02  0.51100000000E-03 0.  1.
         11   -1    0    0    0    0 -0.00000000000E+00 -0.00000000000E+00 -0.45593999997E+02  0.45594000000E+02  0.51100000000E-03 0. -1.
         23    2    1    2    0    0  0.22204460493E-15  0.00000000000E+00  0.17763568394E-14  0.91188000000E+02  0.91188000000E+02 0.  0.
    9900012    2    3    3    0    0  0.40759653906E+00  0.41854711733E+02 -0.11473451861E+02  0.47787272739E+02  0.20000007726E+02 0.  0.
        -12    1    3    3    0    0 -0.40759653906E+00 -0.41854711733E+02  0.11473451861E+02  0.43400727261E+02  0.00000000000E+00 0.  1.
         11    1    4    4    0    0  0.20904115902E+01  0.14237932677E+01  0.20772800067E+01  0.32729345201E+01  0.51100000000E-03 0. -1.
        -11    1    4    4    0    0 -0.26939511872E+01  0.31245593296E+02 -0.46871831121E+01  0.31709843254E+02  0.51100000000E-03 0.  1.
         12    1    4    4    0    0  0.10111361360E+01  0.91853251691E+01 -0.88635487559E+01  0.12804494965E+02  0.00000000000E+00 0. -1.
</event>
<event>
 8    1  0.1164123E-009  0.9118800E+02  0.7816164E-02  0.1184000E+00
        -11   -1    0    0    0    0  0.00000000000E+00  0.00000000000E+00  0.45593999997E+02  0.45594000000E+02  0.51100000000E-03 0. -1.
         11   -1    0    0    0    0 -0.00000000000E+00 -0.00000000000E+00 -0.45593999997E+02  0.45594000000E+02  0.51100000000E-03 0.  1.
         23    2    1    2    0    0 -0.44408920985E-15 -0.35527136788E-14  0.00000000000E+00  0.91188000000E+02  0.91188000000E+02 0.  0.
    9900012    2    3    3    0    0 -0.47143155006E+00 -0.24544943115E+02  0.35790317929E+02  0.47787270309E+02  0.19999996647E+02 0.  0.
        -12    1    3    3    0    0  0.47143155006E+00  0.24544943115E+02 -0.35790317929E+02  0.43400729691E+02  0.00000000000E+00 0.  1.
         11    1    4    4    0    0 -0.33209037630E+01 -0.63119018290E+01  0.36772196223E+01  0.80243660756E+01  0.51100000000E-03 0. -1.
        -11    1    4    4    0    0  0.49721667549E+01 -0.10055727111E+02  0.68953247941E+01  0.13167596373E+02  0.51100000000E-03 0.  1.
        -12    1    4    4    0    0 -0.21226945420E+01 -0.81773141755E+01  0.25217773513E+02  0.26595307860E+02  0.00000000000E+00 0.  1.
</event>
<event>
 8    1  0.1164123E-009  0.9118800E+02  0.7816164E-02  0.1184000E+00
        -11   -1    0    0    0    0  0.00000000000E+00  0.00000000000E+00  0.45593999997E+02  0.45594000000E+02  0.51100000000E-03 0. -1.
         11   -1    0    0    0    0 -0.00000000000E+00 -0.00000000000E+00 -0.45593999997E+02  0.45594000000E+02  0.51100000000E-03 0.  1.
         23    2    1    2    0    0  0.00000000000E+00 -0.71054273576E-14  0.00000000000E+00  0.91188000000E+02  0.91188000000E+02 0.  0.
    9900012    2    3    3    0    0 -0.12642025804E+02 -0.40056670289E+02  0.10920876971E+02  0.47787271839E+02  0.20000003625E+02 0.  0.
        -12    1    3    3    0    0  0.12642025804E+02  0.40056670289E+02 -0.10920876971E+02  0.43400728161E+02  0.00000000000E+00 0.  1.
         11    1    4    4    0    0 -0.10370879295E+02 -0.11182999293E+02  0.44807647527E+01  0.15896284584E+02  0.51100000000E-03 0. -1.
        -11    1    4    4    0    0 -0.46465988427E+01 -0.17929838281E+02 -0.82773930074E+00  0.18540634676E+02  0.51100000000E-03 0.  1.
         12    1    4    4    0    0  0.23754523342E+01 -0.10943832715E+02  0.72678515190E+01  0.13350352579E+02  0.00000000000E+00 0. -1.
</event>
<event>
 8    1  0.1164123E-009  0.9118800E+02  0.7816164E-02  0.1184000E+00
        -11   -1    0    0    0    0  0.00000000000E+00  0.00000000000E+00  0.45593999997E+02  0.45594000000E+02  0.51100000000E-03 0.  1.
         11   -1    0    0    0    0 -0.00000000000E+00 -0.00000000000E+00 -0.45593999997E+02  0.45594000000E+02  0.51100000000E-03 0. -1.
         23    2    1    2    0    0  0.00000000000E+00  0.00000000000E+00  0.00000000000E+00  0.91188000000E+02  0.91188000000E+02 0.  0.
    9900012    2    3    3    0    0  0.25921665194E+02 -0.34337893255E+02  0.57096528673E+01  0.47787265265E+02  0.19999973649E+02 0.  0.
        -12    1    3    3    0    0 -0.25921665194E+02  0.34337893255E+02 -0.57096528673E+01  0.43400734735E+02  0.00000000000E+00 0.  1.
         11    1    4    4    0    0  0.51131822041E+01 -0.12301518790E+01  0.30964366598E+01  0.61029358630E+01  0.51100000000E-03 0. -1.
        -11    1    4    4    0    0  0.15471160748E+02 -0.11319712662E+02  0.11985652984E+01  0.19207531562E+02  0.51100000000E-03 0.  1.
         12    1    4    4    0    0  0.53373222418E+01 -0.21788028714E+02  0.14146509091E+01  0.22476797840E+02  0.00000000000E+00 0. -1.
</event>
<event>
 8    1  0.1164123E-009  0.9118800E+02  0.7816164E-02  0.1184000E+00
        -11   -1    0    0    0    0  0.00000000000E+00  0.00000000000E+00  0.45593999997E+02  0.45594000000E+02  0.51100000000E-03 0. -1.
         11   -1    0    0    0    0 -0.00000000000E+00 -0.00000000000E+00 -0.45593999997E+02  0.45594000000E+02  0.51100000000E-03 0.  1.
         23    2    1    2    0    0  0.00000000000E+00  0.00000000000E+00  0.00000000000E+00  0.91188000000E+02  0.91188000000E+02 0.  0.
    9900012    2    3    3    0    0  0.25767781004E+01 -0.24314627604E+02  0.35857810195E+02  0.47787268982E+02  0.19999990598E+02 0.  0.
        -12    1    3    3    0    0 -0.25767781004E+01  0.24314627604E+02 -0.35857810195E+02  0.43400731018E+02  0.00000000000E+00 0.  1.
         11    1    4    4    0    0  0.44201549408E+01 -0.82665096989E+01  0.11368723142E+02  0.14735020137E+02  0.51100000000E-03 0. -1.
        -11    1    4    4    0    0  0.50441433835E+01 -0.46372751359E+00  0.43904909723E+01  0.67033452036E+01  0.51100000000E-03 0.  1.
         12    1    4    4    0    0 -0.68875202239E+01 -0.15584390391E+02  0.20098596081E+02  0.26348903642E+02  0.00000000000E+00 0. -1.
</event>
<event>
 8    1  0.1164123E-009  0.9118800E+02  0.7816164E-02  0.1184000E+00
        -11   -1    0    0    0    0  0.00000000000E+00  0.00000000000E+00  0.45593999997E+02  0.45594000000E+02  0.51100000000E-03 0. -1.
         11   -1    0    0    0    0 -0.00000000000E+00 -0.00000000000E+00 -0.45593999997E+02  0.45594000000E+02  0.51100000000E-03 0.  1.
         23    2    1    2    0    0 -0.17763568394E-14  0.00000000000E+00 -0.35527136788E-14  0.91188000000E+02  0.91188000000E+02 0.  0.
    9900012    2    3    3    0    0 -0.10483437993E+02 -0.32614739886E+02 -0.26645817955E+02  0.47787270231E+02  0.19999996293E+02 0.  0.
         12    1    3    3    0    0  0.10483437993E+02  0.32614739886E+02  0.26645817955E+02  0.43400729769E+02  0.00000000000E+00 0. -1.
         11    1    4    4    0    0 -0.16062559999E+01 -0.72350994310E+01 -0.55318508531E+01  0.92481401501E+01  0.51100000000E-03 0. -1.
        -11    1    4    4    0    0  0.61073478510E+00  0.21903260763E+01  0.39392463711E+00  0.23077482920E+01  0.51100000000E-03 0.  1.
        -12    1    4    4    0    0 -0.94879167783E+01 -0.27569966531E+02 -0.21507891739E+02  0.36231381789E+02  0.00000000000E+00 0.  1.
</event>
<event>
 8    1  0.1164123E-009  0.9118800E+02  0.7816164E-02  0.1184000E+00
        -11   -1    0    0    0    0  0.00000000000E+00  0.00000000000E+00  0.45593999997E+02  0.45594000000E+02  0.51100000000E-03 0. -1.
         11   -1    0    0    0    0 -0.00000000000E+00 -0.00000000000E+00 -0.45593999997E+02  0.45594000000E+02  0.51100000000E-03 0.  1.
         23    2    1    2    0    0  0.35527136788E-14  0.00000000000E+00  0.00000000000E+00  0.91188000000E+02  0.91188000000E+02 0.  0.
    9900012    2    3    3    0    0  0.29619487608E+02  0.20793054319E+02  0.23957419852E+02  0.47787272817E+02  0.20000008080E+02 0.  0.
        -12    1    3    3    0    0 -0.29619487608E+02 -0.20793054319E+02 -0.23957419852E+02  0.43400727183E+02  0.00000000000E+00 0.  1.
         11    1    4    4    0    0  0.19194106188E+02  0.91794321108E+01  0.11447463961E+02  0.24160300445E+02  0.51100000000E-03 0. -1.
        -11    1    4    4    0    0  0.44653692673E+01  0.19474038109E+01 -0.19444463387E+01  0.52452622548E+01  0.51100000000E-03 0.  1.
         12    1    4    4    0    0  0.59600121531E+01  0.96662183971E+01  0.14454402230E+02  0.18381710116E+02  0.00000000000E+00 0. -1.
</event>
<event>
 8    1  0.1164123E-009  0.9118800E+02  0.7816164E-02  0.1184000E+00
        -11   -1    0    0    0    0  0.00000000000E+00  0.00000000000E+00  0.45593999997E+02  0.45594000000E+02  0.51100000000E-03 0. -1.
         11   -1    0    0    0    0 -0.00000000000E+00 -0.00000000000E+00 -0.45593999997E+02  0.45594000000E+02  0.51100000000E-03 0.  1.
         23    2    1    2    0    0  0.00000000000E+00  0.00000000000E+00  0.00000000000E+00  0.91188000000E+02  0.91188000000E+02 0.  0.
    9900012    2    3    3    0    0  0.40596436392E+01 -0.91441848932E+01  0.42231816876E+02  0.47787272120E+02  0.20000004906E+02 0.  0.
        -12    1    3    3    0    0 -0.40596436392E+01  0.91441848932E+01 -0.42231816876E+02  0.43400727880E+02  0.00000000000E+00 0.  1.
         11    1    4    4    0    0  0.23118054236E+01 -0.46103346432E+01  0.23551484354E+02  0.24109584098E+02  0.51100000000E-03 0. -1.
        -11    1    4    4    0    0  0.27562544010E+01  0.39730687476E+01  0.11587464626E+02  0.12555936855E+02  0.51100000000E-03 0.  1.
        -12    1    4    4    0    0 -0.10084161854E+01 -0.85069189975E+01  0.70928678961E+01  0.11121751167E+02  0.00000000000E+00 0.  1.
</event>
<event>
 8    1  0.2252921E-009  0.9118800E+02  0.7816164E-02  0.1184000E+00
        -11   -1    0    0    0    0  0.00000000000E+00  0.00000000000E+00  0.45593999997E+02  0.45594000000E+02  0.51100000000E-03 0. -1.
         11   -1    0    0    0    0 -0.00000000000E+00 -0.00000000000E+00 -0.45593999997E+02  0.45594000000E+02  0.51100000000E-03 0.  1.
         23    2    1    2    0    0  0.00000000000E+00  0.00000000000E+00  0.00000000000E+00  0.91188000000E+02  0.91188000000E+02 0.  0.
    9900012    2    3    3    0    0 -0.97706362046E+01  0.11555642165E+02 -0.40677093817E+02  0.47787260846E+02  0.19999953501E+02 0.  0.
         12    1    3    3    0    0  0.97706362046E+01 -0.11555642165E+02  0.40677093817E+02  0.43400739154E+02  0.00000000000E+00 0. -1.
         11    1    4    4    0    0 -0.29975064586E+01  0.14784971888E+01  0.13057424931E+00  0.33448540779E+01  0.51100000000E-03 0. -1.
        -11    1    4    4    0    0  0.38112038918E+01  0.22601497331E+01 -0.95295958298E+01  0.10509364817E+02  0.51100000000E-03 0.  1.
        -12    1    4    4    0    0 -0.10584333638E+02  0.78169952429E+01 -0.31278072237E+02  0.33933041951E+02  0.00000000000E+00 0.  1.
</event>
<event>
 8    1  0.1164123E-009  0.9118800E+02  0.7816164E-02  0.1184000E+00
        -11   -1    0    0    0    0  0.00000000000E+00  0.00000000000E+00  0.45593999997E+02  0.45594000000E+02  0.51100000000E-03 0. -1.
         11   -1    0    0    0    0 -0.00000000000E+00 -0.00000000000E+00 -0.45593999997E+02  0.45594000000E+02  0.51100000000E-03 0.  1.
         23    2    1    2    0    0  0.00000000000E+00  0.40592529338E-15 -0.88817841970E-15  0.91188000000E+02  0.91188000000E+02 0.  0.
    9900012    2    3    3    0    0 -0.43212257414E+02 -0.40535054836E-02  0.40401647875E+01  0.47787284121E+02  0.20000059623E+02 0.  0.
        -12    1    3    3    0    0  0.43212257414E+02  0.40535054836E-02 -0.40401647875E+01  0.43400715879E+02  0.00000000000E+00 0.  1.
         11    1    4    4    0    0 -0.14988329951E+02 -0.26886284768E+01  0.10511845436E+02  0.18503449747E+02  0.51100000000E-03 0. -1.
        -11    1    4    4    0    0 -0.35358361029E+01 -0.16175336419E+00 -0.18929712710E+01  0.40139309400E+01  0.51100000000E-03 0.  1.
        -12    1    4    4    0    0 -0.24688091360E+02  0.28463283355E+01 -0.45787093779E+01  0.25269903434E+02  0.00000000000E+00 0.  1.
</event>
<event>
 8    1  0.1164123E-009  0.9118800E+02  0.7816164E-02  0.1184000E+00
        -11   -1    0    0    0    0  0.00000000000E+00  0.00000000000E+00  0.45593999997E+02  0.45594000000E+02  0.51100000000E-03 0. -1.
         11   -1    0    0    0    0 -0.00000000000E+00 -0.00000000000E+00 -0.45593999997E+02  0.45594000000E+02  0.51100000000E-03 0.  1.
         23    2    1    2    0    0  0.00000000000E+00  0.00000000000E+00  0.00000000000E+00  0.91188000000E+02  0.91188000000E+02 0.  0.
    9900012    2    3    3    0    0 -0.11101667123E+02  0.17654656023E+02  0.38061665252E+02  0.47787259753E+02  0.19999948518E+02 0.  0.
        -12    1    3    3    0    0  0.11101667123E+02 -0.17654656023E+02 -0.38061665252E+02  0.43400740247E+02  0.00000000000E+00 0.  1.
         11    1    4    4    0    0 -0.12345202414E+02  0.17803098705E+02  0.38621234650E+02  0.44282661531E+02  0.51100000000E-03 0. -1.
        -11    1    4    4    0    0 -0.10967503887E+01 -0.43957653816E-01 -0.68173689080E-02  0.10976522345E+01  0.51100000000E-03 0.  1.
         12    1    4    4    0    0  0.23402856795E+01 -0.10448502798E+00 -0.55275202830E+00  0.24069459876E+01  0.00000000000E+00 0. -1.
</event>
<event>
 8    1  0.1164123E-009  0.9118800E+02  0.7816164E-02  0.1184000E+00
        -11   -1    0    0    0    0  0.00000000000E+00  0.00000000000E+00  0.45593999997E+02  0.45594000000E+02  0.51100000000E-03 0. -1.
         11   -1    0    0    0    0 -0.00000000000E+00 -0.00000000000E+00 -0.45593999997E+02  0.45594000000E+02  0.51100000000E-03 0.  1.
         23    2    1    2    0    0 -0.88817841970E-15  0.88817841970E-15  0.00000000000E+00  0.91188000000E+02  0.91188000000E+02 0.  0.
    9900012    2    3    3    0    0 -0.50542113998E+01  0.50737862970E+01 -0.42805781522E+02  0.47787270836E+02  0.19999999051E+02 0.  0.
         12    1    3    3    0    0  0.50542113998E+01 -0.50737862970E+01  0.42805781522E+02  0.43400729164E+02  0.00000000000E+00 0. -1.
         11    1    4    4    0    0 -0.71517030461E+01  0.37810959356E+01 -0.11927954424E+02  0.14412482088E+02  0.51100000000E-03 0. -1.
        -11    1    4    4    0    0 -0.30526137985E+01 -0.26252193720E+01 -0.22132400677E+02  0.22495630414E+02  0.51100000000E-03 0.  1.
         12    1    4    4    0    0  0.51501054448E+01  0.39179097334E+01 -0.87454264207E+01  0.10879158334E+02  0.00000000000E+00 0. -1.
</event>
<event>
 8    1  0.1164123E-009  0.9118800E+02  0.7816164E-02  0.1184000E+00
        -11   -1    0    0    0    0  0.00000000000E+00  0.00000000000E+00  0.45593999997E+02  0.45594000000E+02  0.51100000000E-03 0. -1.
         11   -1    0    0    0    0 -0.00000000000E+00 -0.00000000000E+00 -0.45593999997E+02  0.45594000000E+02  0.51100000000E-03 0.  1.
         23    2    1    2    0    0  0.00000000000E+00  0.00000000000E+00  0.00000000000E+00  0.91188000000E+02  0.91188000000E+02 0.  0.
    9900012    2    3    3    0    0 -0.40268300008E+02  0.15498891391E+02 -0.46767155888E+01  0.47787270875E+02  0.19999999227E+02 0.  0.
         12    1    3    3    0    0  0.40268300008E+02 -0.15498891391E+02  0.46767155888E+01  0.43400729125E+02  0.00000000000E+00 0. -1.
         11    1    4    4    0    0 -0.82314763892E+01  0.89122012290E+01 -0.51988957808E+00  0.12143097617E+02  0.51100000000E-03 0. -1.
        -11    1    4    4    0    0 -0.14103077126E+02  0.97513292878E+01 -0.11267163394E+01  0.17182976962E+02  0.51100000000E-03 0.  1.
         12    1    4    4    0    0 -0.17933746493E+02 -0.31646391259E+01 -0.30301096713E+01  0.18461196296E+02  0.00000000000E+00 0. -1.
</event>
<event>
 8    1  0.1164123E-009  0.9118800E+02  0.7816164E-02  0.1184000E+00
        -11   -1    0    0    0    0  0.00000000000E+00  0.00000000000E+00  0.45593999997E+02  0.45594000000E+02  0.51100000000E-03 0. -1.
         11   -1    0    0    0    0 -0.00000000000E+00 -0.00000000000E+00 -0.45593999997E+02  0.45594000000E+02  0.51100000000E-03 0.  1.
         23    2    1    2    0    0  0.00000000000E+00  0.35527136788E-14  0.35527136788E-14  0.91188000000E+02  0.91188000000E+02 0.  0.
    9900012    2    3    3    0    0  0.13347170456E+02  0.27175835948E+02 -0.31095823403E+02  0.47787271299E+02  0.20000001162E+02 0.  0.
         12    1    3    3    0    0 -0.13347170456E+02 -0.27175835948E+02  0.31095823403E+02  0.43400728701E+02  0.00000000000E+00 0. -1.
         11    1    4    4    0    0  0.59979737367E+01  0.79947857654E+01 -0.34518515373E+01  0.10573909763E+02  0.51100000000E-03 0. -1.
        -11    1    4    4    0    0 -0.46477288563E-01  0.62233793840E+01 -0.50540929294E+00  0.62440411522E+01  0.51100000000E-03 0.  1.
        -12    1    4    4    0    0  0.73956740080E+01  0.12957670799E+02 -0.27138562572E+02  0.30969320384E+02  0.00000000000E+00 0.  1.
</event>
<event>
 8    1  0.1578773E-009  0.9118800E+02  0.7816164E-02  0.1184000E+00
        -11   -1    0    0    0    0  0.00000000000E+00  0.00000000000E+00  0.45593999997E+02  0.45594000000E+02  0.51100000000E-03 0. -1.
         11   -1    0    0    0    0 -0.00000000000E+00 -0.00000000000E+00 -0.45593999997E+02  0.45594000000E+02  0.51100000000E-03 0.  1.
         23    2    1    2    0    0  0.17763568394E-14 -0.88817841970E-15  0.00000000000E+00  0.91188000000E+02  0.91188000000E+02 0.  0.
    9900012    2    3    3    0    0 -0.15829329903E+02  0.70557947784E+01 -0.39790334475E+02  0.47787278315E+02  0.20000033149E+02 0.  0.
         12    1    3    3    0    0  0.15829329903E+02 -0.70557947784E+01  0.39790334475E+02  0.43400721685E+02  0.00000000000E+00 0. -1.
         11    1    4    4    0    0  0.32361756485E+01 -0.20703281857E+01 -0.45527273137E+01  0.59570477486E+01  0.51100000000E-03 0. -1.
        -11    1    4    4    0    0 -0.12375338395E+02  0.29437969311E+01 -0.15209505517E+02  0.19827859166E+02  0.51100000000E-03 0.  1.
        -12    1    4    4    0    0 -0.66901671562E+01  0.61823260330E+01 -0.20028101645E+02  0.22002371401E+02  0.00000000000E+00 0.  1.
</event>
<event>
 8    1  0.1164123E-009  0.9118800E+02  0.7816164E-02  0.1184000E+00
        -11   -1    0    0    0    0  0.00000000000E+00  0.00000000000E+00  0.45593999997E+02  0.45594000000E+02  0.51100000000E-03 0. -1.
         11   -1    0    0    0    0 -0.00000000000E+00 -0.00000000000E+00 -0.45593999997E+02  0.45594000000E+02  0.51100000000E-03 0.  1.
         23    2    1    2    0    0  0.35527136788E-14  0.17763568394E-14  0.00000000000E+00  0.91188000000E+02  0.91188000000E+02 0.  0.
    9900012    2    3    3    0    0  0.22600613877E+02  0.14746122457E+02  0.33990996956E+02  0.47787265569E+02  0.19999975034E+02 0.  0.
        -12    1    3    3    0    0 -0.22600613877E+02 -0.14746122457E+02 -0.33990996956E+02  0.43400734431E+02  0.00000000000E+00 0.  1.
         11    1    4    4    0    0  0.11344289909E+02  0.13618466558E+02  0.10936899051E+02  0.20827177102E+02  0.51100000000E-03 0. -1.
        -11    1    4    4    0    0  0.36509831406E+00 -0.13846758805E+01  0.10748512052E+00  0.14360283372E+01  0.51100000000E-03 0.  1.
        -12    1    4    4    0    0  0.10891225653E+02  0.25123317794E+01  0.22946612785E+02  0.25524060129E+02  0.00000000000E+00 0.  1.
</event>
<event>
 8    1  0.1164123E-009  0.9118800E+02  0.7816164E-02  0.1184000E+00
        -11   -1    0    0    0    0  0.00000000000E+00  0.00000000000E+00  0.45593999997E+02  0.45594000000E+02  0.51100000000E-03 0. -1.
         11   -1    0    0    0    0 -0.00000000000E+00 -0.00000000000E+00 -0.45593999997E+02  0.45594000000E+02  0.51100000000E-03 0.  1.
         23    2    1    2    0    0  0.00000000000E+00  0.00000000000E+00  0.00000000000E+00  0.91188000000E+02  0.91188000000E+02 0.  0.
    9900012    2    3    3    0    0 -0.10971962151E+02 -0.40755968270E+02 -0.10108924127E+02  0.47787271319E+02  0.20000001250E+02 0.  0.
         12    1    3    3    0    0  0.10971962151E+02  0.40755968270E+02  0.10108924127E+02  0.43400728681E+02  0.00000000000E+00 0. -1.
         11    1    4    4    0    0 -0.52007475474E+01 -0.64236837611E+01 -0.47685787385E+01  0.95420559399E+01  0.51100000000E-03 0. -1.
        -11    1    4    4    0    0 -0.29710925774E+01 -0.22823286693E+02 -0.10533882488E+02  0.25311904059E+02  0.51100000000E-03 0.  1.
         12    1    4    4    0    0 -0.28001220265E+01 -0.11508997816E+02  0.51935370993E+01  0.12933311320E+02  0.00000000000E+00 0. -1.
</event>
<event>
 8    1  0.1164123E-009  0.9118800E+02  0.7816164E-02  0.1184000E+00
        -11   -1    0    0    0    0  0.00000000000E+00  0.00000000000E+00  0.45593999997E+02  0.45594000000E+02  0.51100000000E-03 0. -1.
         11   -1    0    0    0    0 -0.00000000000E+00 -0.00000000000E+00 -0.45593999997E+02  0.45594000000E+02  0.51100000000E-03 0.  1.
         23    2    1    2    0    0  0.00000000000E+00  0.00000000000E+00  0.00000000000E+00  0.91188000000E+02  0.91188000000E+02 0.  0.
    9900012    2    3    3    0    0  0.35513886254E+02 -0.54715638000E+01  0.24340276219E+02  0.47787272199E+02  0.20000005262E+02 0.  0.
        -12    1    3    3    0    0 -0.35513886254E+02  0.54715638000E+01 -0.24340276219E+02  0.43400727801E+02  0.00000000000E+00 0.  1.
         11    1    4    4    0    0  0.13450575040E+02 -0.62320019789E+01  0.11778458990E+02  0.18933777066E+02  0.51100000000E-03 0. -1.
        -11    1    4    4    0    0  0.19282934735E+02 -0.46245289027E+01  0.10590294739E+02  0.22480484481E+02  0.51100000000E-03 0.  1.
        -12    1    4    4    0    0  0.27803764795E+01  0.53849670815E+01  0.19715224898E+01  0.63730106516E+01  0.00000000000E+00 0.  1.
</event>
<event>
 8    1  0.1164123E-009  0.9118800E+02  0.7816164E-02  0.1184000E+00
        -11   -1    0    0    0    0  0.00000000000E+00  0.00000000000E+00  0.45593999997E+02  0.45594000000E+02  0.51100000000E-03 0. -1.
         11   -1    0    0    0    0 -0.00000000000E+00 -0.00000000000E+00 -0.45593999997E+02  0.45594000000E+02  0.51100000000E-03 0.  1.
         23    2    1    2    0    0  0.00000000000E+00  0.35527136788E-14  0.17763568394E-14  0.91188000000E+02  0.91188000000E+02 0.  0.
    9900012    2    3    3    0    0  0.25744638113E+02  0.31815428395E+02 -0.14443506013E+02  0.47787277178E+02  0.20000027965E+02 0.  0.
         12    1    3    3    0    0 -0.25744638113E+02 -0.31815428395E+02  0.14443506013E+02  0.43400722822E+02  0.00000000000E+00 0. -1.
         11    1    4    4    0    0  0.10949211922E+02  0.29975747299E+01 -0.57136535494E+01  0.12708915497E+02  0.51100000000E-03 0. -1.
        -11    1    4    4    0    0  0.72995201450E+01  0.11614810575E+02 -0.88274374883E+01  0.16312892813E+02  0.51100000000E-03 0.  1.
        -12    1    4    4    0    0  0.74959060466E+01  0.17203043090E+02  0.97585024339E-01  0.18765468868E+02  0.00000000000E+00 0.  1.
</event>
<event>
 8    1  0.1164123E-009  0.9118800E+02  0.7816164E-02  0.1184000E+00
        -11   -1    0    0    0    0  0.00000000000E+00  0.00000000000E+00  0.45593999997E+02  0.45594000000E+02  0.51100000000E-03 0. -1.
         11   -1    0    0    0    0 -0.00000000000E+00 -0.00000000000E+00 -0.45593999997E+02  0.45594000000E+02  0.51100000000E-03 0.  1.
         23    2    1    2    0    0  0.00000000000E+00  0.00000000000E+00  0.35527136788E-14  0.91188000000E+02  0.91188000000E+02 0.  0.
    9900012    2    3    3    0    0  0.11980725702E+02  0.32444013314E+02  0.26219676576E+02  0.47787271573E+02  0.20000002409E+02 0.  0.
        -12    1    3    3    0    0 -0.11980725702E+02 -0.32444013314E+02 -0.26219676576E+02  0.43400728427E+02  0.00000000000E+00 0.  1.
         11    1    4    4    0    0 -0.21495855456E+00  0.89701516566E+01  0.40066565784E+00  0.89816680607E+01  0.51100000000E-03 0. -1.
        -11    1    4    4    0    0  0.32769242124E+00 -0.17092516626E+00  0.53313403120E+01  0.53441358065E+01  0.51100000000E-03 0.  1.
         12    1    4    4    0    0  0.11867991836E+02  0.23644786823E+02  0.20487670606E+02  0.33461467706E+02  0.00000000000E+00 0. -1.
</event>
<event>
 8    1  0.1738315E-009  0.9118800E+02  0.7816164E-02  0.1184000E+00
        -11   -1    0    0    0    0  0.00000000000E+00  0.00000000000E+00  0.45593999997E+02  0.45594000000E+02  0.51100000000E-03 0. -1.
         11   -1    0    0    0    0 -0.00000000000E+00 -0.00000000000E+00 -0.45593999997E+02  0.45594000000E+02  0.51100000000E-03 0.  1.
         23    2    1    2    0    0 -0.71054273576E-14  0.17763568394E-14 -0.35527136788E-14  0.91188000000E+02  0.91188000000E+02 0.  0.
    9900012    2    3    3    0    0 -0.37441726551E+02 -0.14176930696E+02 -0.16755712143E+02  0.47787284102E+02  0.20000059533E+02 0.  0.
         12    1    3    3    0    0  0.37441726551E+02  0.14176930696E+02  0.16755712143E+02  0.43400715898E+02  0.00000000000E+00 0. -1.
         11    1    4    4    0    0 -0.19808976081E+00 -0.29712745827E+01  0.11129323102E+01  0.31790455780E+01  0.51100000000E-03 0. -1.
        -11    1    4    4    0    0 -0.98954209521E+01 -0.90375435370E+01 -0.67689270682E+01  0.15013824393E+02  0.51100000000E-03 0.  1.
        -12    1    4    4    0    0 -0.27348215838E+02 -0.21681125759E+01 -0.11099717386E+02  0.29594414130E+02  0.00000000000E+00 0.  1.
</event>
<event>
 8    1  0.1164123E-009  0.9118800E+02  0.7816164E-02  0.1184000E+00
        -11   -1    0    0    0    0  0.00000000000E+00  0.00000000000E+00  0.45593999997E+02  0.45594000000E+02  0.51100000000E-03 0. -1.
         11   -1    0    0    0    0 -0.00000000000E+00 -0.00000000000E+00 -0.45593999997E+02  0.45594000000E+02  0.51100000000E-03 0.  1.
         23    2    1    2    0    0  0.66613381478E-15  0.00000000000E+00  0.35527136788E-14  0.91188000000E+02  0.91188000000E+02 0.  0.
    9900012    2    3    3    0    0  0.86674016995E+00 -0.29671775249E+02 -0.31661614389E+02  0.47787270621E+02  0.19999998068E+02 0.  0.
         12    1    3    3    0    0 -0.86674016995E+00  0.29671775249E+02  0.31661614389E+02  0.43400729379E+02  0.00000000000E+00 0. -1.
         11    1    4    4    0    0  0.45433279400E+01  0.23631685529E-01 -0.31270285155E+01  0.55154958820E+01  0.51100000000E-03 0.  1.
        -11    1    4    4    0    0  0.92247585618E+00 -0.20410319187E+01 -0.56679172689E+01  0.60944285562E+01  0.51100000000E-03 0. -1.
        -12    1    4    4    0    0 -0.45990636262E+01 -0.27654375016E+02 -0.22866668604E+02  0.36177346183E+02  0.00000000000E+00 0.  1.
</event>
<event>
 8    1  0.1164123E-009  0.9118800E+02  0.7816164E-02  0.1184000E+00
        -11   -1    0    0    0    0  0.00000000000E+00  0.00000000000E+00  0.45593999997E+02  0.45594000000E+02  0.51100000000E-03 0. -1.
         11   -1    0    0    0    0 -0.00000000000E+00 -0.00000000000E+00 -0.45593999997E+02  0.45594000000E+02  0.51100000000E-03 0.  1.
         23    2    1    2    0    0  0.00000000000E+00  0.00000000000E+00  0.71054273576E-14  0.91188000000E+02  0.91188000000E+02 0.  0.
    9900012    2    3    3    0    0 -0.20450880683E+02  0.17885448686E+02  0.33845169731E+02  0.47787270633E+02  0.19999998126E+02 0.  0.
        -12    1    3    3    0    0  0.20450880683E+02 -0.17885448686E+02 -0.33845169731E+02  0.43400729367E+02  0.00000000000E+00 0.  1.
         11    1    4    4    0    0 -0.18774480962E+02  0.10693427010E+02  0.31406956238E+02  0.38121220036E+02  0.51100000000E-03 0. -1.
        -11    1    4    4    0    0 -0.16206064417E+01  0.11524460959E+01  0.30009835532E+01  0.36000555261E+01  0.51100000000E-03 0.  1.
        -12    1    4    4    0    0 -0.55793279476E-01  0.60395755793E+01 -0.56277006001E+00  0.60659950716E+01  0.00000000000E+00 0.  1.
</event>
<event>
 8    1  0.1164123E-009  0.9118800E+02  0.7816164E-02  0.1184000E+00
        -11   -1    0    0    0    0  0.00000000000E+00  0.00000000000E+00  0.45593999997E+02  0.45594000000E+02  0.51100000000E-03 0. -1.
         11   -1    0    0    0    0 -0.00000000000E+00 -0.00000000000E+00 -0.45593999997E+02  0.45594000000E+02  0.51100000000E-03 0.  1.
         23    2    1    2    0    0 -0.35527136788E-14  0.35527136788E-14  0.00000000000E+00  0.91188000000E+02  0.91188000000E+02 0.  0.
    9900012    2    3    3    0    0  0.30764889215E+02 -0.29700928924E+02 -0.74161756047E+01  0.47787271343E+02  0.20000001361E+02 0.  0.
         12    1    3    3    0    0 -0.30764889215E+02  0.29700928924E+02  0.74161756047E+01  0.43400728657E+02  0.00000000000E+00 0. -1.
         11    1    4    4    0    0  0.58086467897E+01 -0.81687439290E+01 -0.78837434192E+01  0.12752339608E+02  0.51100000000E-03 0. -1.
        -11    1    4    4    0    0  0.16865234827E+02 -0.99868716107E+01 -0.44582688522E+01  0.20100992805E+02  0.51100000000E-03 0.  1.
         12    1    4    4    0    0  0.80910075988E+01 -0.11545313384E+02  0.49258366667E+01  0.14933938930E+02  0.00000000000E+00 0. -1.
</event>
<event>
 8    1  0.1164123E-009  0.9118800E+02  0.7816164E-02  0.1184000E+00
        -11   -1    0    0    0    0  0.00000000000E+00  0.00000000000E+00  0.45593999997E+02  0.45594000000E+02  0.51100000000E-03 0. -1.
         11   -1    0    0    0    0 -0.00000000000E+00 -0.00000000000E+00 -0.45593999997E+02  0.45594000000E+02  0.51100000000E-03 0.  1.
         23    2    1    2    0    0  0.00000000000E+00  0.00000000000E+00  0.00000000000E+00  0.91188000000E+02  0.91188000000E+02 0.  0.
    9900012    2    3    3    0    0 -0.37631261427E+02 -0.19878322026E+02 -0.85066110399E+01  0.47787286244E+02  0.20000069301E+02 0.  0.
         12    1    3    3    0    0  0.37631261427E+02  0.19878322026E+02  0.85066110399E+01  0.43400713756E+02  0.00000000000E+00 0. -1.
         11    1    4    4    0    0 -0.21204171300E+02 -0.11002862882E+02  0.35049352329E+01  0.24144656621E+02  0.51100000000E-03 0. -1.
        -11    1    4    4    0    0 -0.90693248318E+01 -0.39281950338E+01 -0.16750425002E+01  0.10024427004E+02  0.51100000000E-03 0.  1.
        -12    1    4    4    0    0 -0.73577652949E+01 -0.49472641104E+01 -0.10336503773E+02  0.13618202618E+02  0.00000000000E+00 0.  1.
</event>
<event>
 8    1  0.1164123E-009  0.9118800E+02  0.7816164E-02  0.1184000E+00
        -11   -1    0    0    0    0  0.00000000000E+00  0.00000000000E+00  0.45593999997E+02  0.45594000000E+02  0.51100000000E-03 0. -1.
         11   -1    0    0    0    0 -0.00000000000E+00 -0.00000000000E+00 -0.45593999997E+02  0.45594000000E+02  0.51100000000E-03 0.  1.
         23    2    1    2    0    0  0.00000000000E+00  0.00000000000E+00  0.00000000000E+00  0.91188000000E+02  0.91188000000E+02 0.  0.
    9900012    2    3    3    0    0  0.53554406193E+01  0.63015441043E+01  0.42605550799E+02  0.47787272342E+02  0.20000005916E+02 0.  0.
        -12    1    3    3    0    0 -0.53554406193E+01 -0.63015441043E+01 -0.42605550799E+02  0.43400727658E+02  0.00000000000E+00 0.  1.
         11    1    4    4    0    0  0.81906566943E+00  0.55840801585E+01  0.39647231943E+01  0.68972349573E+01  0.51100000000E-03 0.  1.
        -11    1    4    4    0    0  0.43967393067E+01  0.75003456575E+00  0.32985253796E+01  0.55474443054E+01  0.51100000000E-03 0. -1.
        -12    1    4    4    0    0  0.13963564317E+00 -0.32570619963E-01  0.35342302226E+02  0.35342593079E+02  0.00000000000E+00 0.  1.
</event>
<event>
 8    1  0.1164123E-009  0.9118800E+02  0.7816164E-02  0.1184000E+00
        -11   -1    0    0    0    0  0.00000000000E+00  0.00000000000E+00  0.45593999997E+02  0.45594000000E+02  0.51100000000E-03 0. -1.
         11   -1    0    0    0    0 -0.00000000000E+00 -0.00000000000E+00 -0.45593999997E+02  0.45594000000E+02  0.51100000000E-03 0.  1.
         23    2    1    2    0    0  0.00000000000E+00  0.35527136788E-14  0.00000000000E+00  0.91188000000E+02  0.91188000000E+02 0.  0.
    9900012    2    3    3    0    0  0.15223841591E+02 -0.25783268177E+02  0.31417834530E+02  0.47787278840E+02  0.20000035543E+02 0.  0.
        -12    1    3    3    0    0 -0.15223841591E+02  0.25783268177E+02 -0.31417834530E+02  0.43400721160E+02  0.00000000000E+00 0.  1.
         11    1    4    4    0    0  0.83382410774E+00 -0.12602490793E+02  0.78881564331E+01  0.14890972064E+02  0.51100000000E-03 0. -1.
        -11    1    4    4    0    0  0.10379008481E+02 -0.13644193005E+02  0.12689712419E+02  0.21328774492E+02  0.51100000000E-03 0.  1.
        -12    1    4    4    0    0  0.40110090020E+01  0.46341562074E+00  0.10839965677E+02  0.11567532284E+02  0.00000000000E+00 0.  1.
</event>
<event>
 8    1  0.1164123E-009  0.9118800E+02  0.7816164E-02  0.1184000E+00
        -11   -1    0    0    0    0  0.00000000000E+00  0.00000000000E+00  0.45593999997E+02  0.45594000000E+02  0.51100000000E-03 0. -1.
         11   -1    0    0    0    0 -0.00000000000E+00 -0.00000000000E+00 -0.45593999997E+02  0.45594000000E+02  0.51100000000E-03 0.  1.
         23    2    1    2    0    0  0.44408920985E-15  0.00000000000E+00  0.00000000000E+00  0.91188000000E+02  0.91188000000E+02 0.  0.
    9900012    2    3    3    0    0 -0.99378716356E+00 -0.10269283555E+02  0.42156580246E+02  0.47787273558E+02  0.20000011461E+02 0.  0.
        -12    1    3    3    0    0  0.99378716356E+00  0.10269283555E+02 -0.42156580246E+02  0.43400726442E+02  0.00000000000E+00 0.  1.
         11    1    4    4    0    0  0.16828071011E+01  0.46105628744E+01  0.15947861824E+02  0.16686024895E+02  0.51100000000E-03 0. -1.
        -11    1    4    4    0    0  0.11951684626E+01 -0.27012109038E+01  0.15688727626E+01  0.33445971367E+01  0.51100000000E-03 0.  1.
         12    1    4    4    0    0 -0.38717627272E+01 -0.12178635526E+02  0.24639845659E+02  0.27756651527E+02  0.00000000000E+00 0. -1.
</event>
<event>
 8    1  0.1164123E-009  0.9118800E+02  0.7816164E-02  0.1184000E+00
        -11   -1    0    0    0    0  0.00000000000E+00  0.00000000000E+00  0.45593999997E+02  0.45594000000E+02  0.51100000000E-03 0. -1.
         11   -1    0    0    0    0 -0.00000000000E+00 -0.00000000000E+00 -0.45593999997E+02  0.45594000000E+02  0.51100000000E-03 0.  1.
         23    2    1    2    0    0  0.44408920985E-15  0.00000000000E+00 -0.17763568394E-14  0.91188000000E+02  0.91188000000E+02 0.  0.
    9900012    2    3    3    0    0 -0.16660618206E+01  0.40663879350E+02  0.15076351046E+02  0.47787271819E+02  0.20000003530E+02 0.  0.
        -12    1    3    3    0    0  0.16660618206E+01 -0.40663879350E+02 -0.15076351046E+02  0.43400728181E+02  0.00000000000E+00 0.  1.
         11    1    4    4    0    0 -0.15045691941E+01  0.88562902607E+01 -0.42755127299E+01  0.99487494192E+01  0.51100000000E-03 0. -1.
        -11    1    4    4    0    0  0.30109790772E+00  0.20200679048E+01  0.36009615953E+01  0.41398380357E+01  0.51100000000E-03 0.  1.
         12    1    4    4    0    0 -0.46259053420E+00  0.29787521185E+02  0.15750902180E+02  0.33698684364E+02  0.00000000000E+00 0. -1.
</event>
<event>
 8    1  0.1164123E-009  0.9118800E+02  0.7816164E-02  0.1184000E+00
        -11   -1    0    0    0    0  0.00000000000E+00  0.00000000000E+00  0.45593999997E+02  0.45594000000E+02  0.51100000000E-03 0.  1.
         11   -1    0    0    0    0 -0.00000000000E+00 -0.00000000000E+00 -0.45593999997E+02  0.45594000000E+02  0.51100000000E-03 0. -1.
         23    2    1    2    0    0  0.00000000000E+00  0.00000000000E+00  0.88817841970E-15  0.91188000000E+02  0.91188000000E+02 0.  0.
    9900012    2    3    3    0    0  0.38723806144E+02  0.19272865797E+02  0.35562482864E+01  0.47787269359E+02  0.19999992316E+02 0.  0.
        -12    1    3    3    0    0 -0.38723806144E+02 -0.19272865797E+02 -0.35562482864E+01  0.43400730641E+02  0.00000000000E+00 0.  1.
         11    1    4    4    0    0  0.16604593290E+02  0.50577890467E+01  0.57299249734E+01  0.18279107988E+02  0.51100000000E-03 0. -1.
        -11    1    4    4    0    0  0.36424275062E+01  0.22120781054E+01  0.47798593049E+01  0.64037194596E+01  0.51100000000E-03 0.  1.
         12    1    4    4    0    0  0.18476785347E+02  0.12002998645E+02 -0.69535359919E+01  0.23104441911E+02  0.00000000000E+00 0. -1.
</event>
<event>
 8    1  0.1164123E-009  0.9118800E+02  0.7816164E-02  0.1184000E+00
        -11   -1    0    0    0    0  0.00000000000E+00  0.00000000000E+00  0.45593999997E+02  0.45594000000E+02  0.51100000000E-03 0. -1.
         11   -1    0    0    0    0 -0.00000000000E+00 -0.00000000000E+00 -0.45593999997E+02  0.45594000000E+02  0.51100000000E-03 0.  1.
         23    2    1    2    0    0  0.00000000000E+00  0.00000000000E+00  0.00000000000E+00  0.91188000000E+02  0.91188000000E+02 0.  0.
    9900012    2    3    3    0    0  0.40249079677E+01  0.10085809819E+02 -0.42020233281E+02  0.47787269028E+02  0.19999990808E+02 0.  0.
         12    1    3    3    0    0 -0.40249079677E+01 -0.10085809819E+02  0.42020233281E+02  0.43400730972E+02  0.00000000000E+00 0. -1.
         11    1    4    4    0    0  0.79270961357E+01  0.68271024385E+01 -0.10803368972E+02  0.15038648951E+02  0.51100000000E-03 0. -1.
        -11    1    4    4    0    0  0.59929278283E+00 -0.11222531846E+01 -0.45370930386E+00  0.13507244143E+01  0.51100000000E-03 0.  1.
        -12    1    4    4    0    0 -0.45014809509E+01  0.43809605653E+01 -0.30763155005E+02  0.31397895663E+02  0.00000000000E+00 0.  1.
</event>
<event>
 8    1  0.1164123E-009  0.9118800E+02  0.7816164E-02  0.1184000E+00
        -11   -1    0    0    0    0  0.00000000000E+00  0.00000000000E+00  0.45593999997E+02  0.45594000000E+02  0.51100000000E-03 0. -1.
         11   -1    0    0    0    0 -0.00000000000E+00 -0.00000000000E+00 -0.45593999997E+02  0.45594000000E+02  0.51100000000E-03 0.  1.
         23    2    1    2    0    0  0.00000000000E+00  0.00000000000E+00  0.00000000000E+00  0.91188000000E+02  0.91188000000E+02 0.  0.
    9900012    2    3    3    0    0 -0.14852945950E+02  0.11268199520E+02 -0.39192359858E+02  0.47787269649E+02  0.19999993636E+02 0.  0.
         12    1    3    3    0    0  0.14852945950E+02 -0.11268199520E+02  0.39192359858E+02  0.43400730351E+02  0.00000000000E+00 0. -1.
         11    1    4    4    0    0 -0.11669502522E+02  0.88669703564E+01 -0.14230834493E+02  0.20428340683E+02  0.51100000000E-03 0. -1.
        -11    1    4    4    0    0 -0.55010927858E+01  0.51923979351E+01 -0.17322250953E+02  0.18901941607E+02  0.51100000000E-03 0.  1.
         12    1    4    4    0    0  0.23176493584E+01 -0.27911687713E+01 -0.76392744113E+01  0.84569873590E+01  0.00000000000E+00 0. -1.
</event>
<event>
 8    1  0.1164123E-009  0.9118800E+02  0.7816164E-02  0.1184000E+00
        -11   -1    0    0    0    0  0.00000000000E+00  0.00000000000E+00  0.45593999997E+02  0.45594000000E+02  0.51100000000E-03 0. -1.
         11   -1    0    0    0    0 -0.00000000000E+00 -0.00000000000E+00 -0.45593999997E+02  0.45594000000E+02  0.51100000000E-03 0.  1.
         23    2    1    2    0    0  0.00000000000E+00  0.00000000000E+00  0.00000000000E+00  0.91188000000E+02  0.91188000000E+02 0.  0.
    9900012    2    3    3    0    0  0.14840738767E+01 -0.17051617434E+02  0.39883118045E+02  0.47787271465E+02  0.20000001919E+02 0.  0.
        -12    1    3    3    0    0 -0.14840738767E+01  0.17051617434E+02 -0.39883118045E+02  0.43400728535E+02  0.00000000000E+00 0.  1.
         11    1    4    4    0    0 -0.21694363699E+01 -0.12787820654E+02  0.23336483445E+02  0.26698806548E+02  0.51100000000E-03 0. -1.
        -11    1    4    4    0    0  0.41193504562E+01 -0.73489404564E+01  0.67145004252E+01  0.10773137437E+02  0.51100000000E-03 0.  1.
         12    1    4    4    0    0 -0.46584020965E+00  0.30851436767E+01  0.98321341740E+01  0.10315327480E+02  0.00000000000E+00 0. -1.
</event>
<event>
 8    1  0.1164123E-009  0.9118800E+02  0.7816164E-02  0.1184000E+00
        -11   -1    0    0    0    0  0.00000000000E+00  0.00000000000E+00  0.45593999997E+02  0.45594000000E+02  0.51100000000E-03 0. -1.
         11   -1    0    0    0    0 -0.00000000000E+00 -0.00000000000E+00 -0.45593999997E+02  0.45594000000E+02  0.51100000000E-03 0.  1.
         23    2    1    2    0    0  0.44408920985E-15  0.00000000000E+00 -0.17763568394E-14  0.91188000000E+02  0.91188000000E+02 0.  0.
    9900012    2    3    3    0    0  0.31075382815E+01  0.42451310172E+02 -0.84766038649E+01  0.47787270253E+02  0.19999996392E+02 0.  0.
         12    1    3    3    0    0 -0.31075382815E+01 -0.42451310172E+02  0.84766038649E+01  0.43400729747E+02  0.00000000000E+00 0. -1.
         11    1    4    4    0    0 -0.13191190104E+01  0.96620282927E+00 -0.26308738142E+01  0.30975990958E+01  0.51100000000E-03 0. -1.
        -11    1    4    4    0    0  0.30581458186E+01  0.11303078577E+01  0.15986009210E+01  0.36311674248E+01  0.51100000000E-03 0.  1.
        -12    1    4    4    0    0  0.13685114733E+01  0.40354799485E+02 -0.74443309717E+01  0.41058503732E+02  0.00000000000E+00 0.  1.
</event>
<event>
 8    1  0.1164123E-009  0.9118800E+02  0.7816164E-02  0.1184000E+00
        -11   -1    0    0    0    0  0.00000000000E+00  0.00000000000E+00  0.45593999997E+02  0.45594000000E+02  0.51100000000E-03 0. -1.
         11   -1    0    0    0    0 -0.00000000000E+00 -0.00000000000E+00 -0.45593999997E+02  0.45594000000E+02  0.51100000000E-03 0.  1.
         23    2    1    2    0    0  0.00000000000E+00 -0.35527136788E-14  0.00000000000E+00  0.91188000000E+02  0.91188000000E+02 0.  0.
    9900012    2    3    3    0    0  0.20768076321E+02  0.19776130168E+02 -0.32576302004E+02  0.47787265320E+02  0.19999973900E+02 0.  0.
         12    1    3    3    0    0 -0.20768076321E+02 -0.19776130168E+02  0.32576302004E+02  0.43400734680E+02  0.00000000000E+00 0. -1.
         11    1    4    4    0    0  0.16821083823E+02  0.16227023140E+02 -0.23369718567E+02  0.33051609449E+02  0.51100000000E-03 0. -1.
        -11    1    4    4    0    0  0.11988258812E+01  0.68788802324E+01 -0.43015201431E+01  0.82011738518E+01  0.51100000000E-03 0.  1.
         12    1    4    4    0    0  0.27481666165E+01 -0.33297732044E+01 -0.49050632942E+01  0.65344820197E+01  0.00000000000E+00 0. -1.
</event>
<event>
 8    1  0.1164123E-009  0.9118800E+02  0.7816164E-02  0.1184000E+00
        -11   -1    0    0    0    0  0.00000000000E+00  0.00000000000E+00  0.45593999997E+02  0.45594000000E+02  0.51100000000E-03 0. -1.
         11   -1    0    0    0    0 -0.00000000000E+00 -0.00000000000E+00 -0.45593999997E+02  0.45594000000E+02  0.51100000000E-03 0.  1.
         23    2    1    2    0    0  0.17763568394E-14  0.00000000000E+00 -0.35527136788E-14  0.91188000000E+02  0.91188000000E+02 0.  0.
    9900012    2    3    3    0    0  0.14889624433E+02  0.36291172614E+02 -0.18570752705E+02  0.47787274413E+02  0.20000015359E+02 0.  0.
         12    1    3    3    0    0 -0.14889624433E+02 -0.36291172614E+02  0.18570752705E+02  0.43400725587E+02  0.00000000000E+00 0. -1.
         11    1    4    4    0    0  0.14440651185E+02  0.20267423361E+02 -0.16063190051E+02  0.29619705117E+02  0.51100000000E-03 0. -1.
        -11    1    4    4    0    0  0.39004820941E+01  0.50525043573E+01 -0.18582320467E+01  0.66479009805E+01  0.51100000000E-03 0.  1.
        -12    1    4    4    0    0 -0.34515088457E+01  0.10971244895E+02 -0.64933060703E+00  0.11519668316E+02  0.00000000000E+00 0.  1.
</event>
<event>
 8    1  0.1166563E-009  0.9118800E+02  0.7816164E-02  0.1184000E+00
        -11   -1    0    0    0    0  0.00000000000E+00  0.00000000000E+00  0.45593999997E+02  0.45594000000E+02  0.51100000000E-03 0.  1.
         11   -1    0    0    0    0 -0.00000000000E+00 -0.00000000000E+00 -0.45593999997E+02  0.45594000000E+02  0.51100000000E-03 0. -1.
         23    2    1    2    0    0 -0.35527136788E-14  0.00000000000E+00  0.00000000000E+00  0.91188000000E+02  0.91188000000E+02 0.  0.
    9900012    2    3    3    0    0  0.29871709004E+02  0.20526460054E+02 -0.23874022833E+02  0.47787268124E+02  0.19999986686E+02 0.  0.
         12    1    3    3    0    0 -0.29871709004E+02 -0.20526460054E+02  0.23874022833E+02  0.43400731876E+02  0.00000000000E+00 0. -1.
         11    1    4    4    0    0 -0.12054403698E+01  0.27621543589E+01 -0.56245970100E+01  0.63811186303E+01  0.51100000000E-03 0. -1.
        -11    1    4    4    0    0  0.14617820537E+01  0.29352606987E+01  0.54584067634E+00  0.33242299028E+01  0.51100000000E-03 0.  1.
        -12    1    4    4    0    0  0.29615367320E+02  0.14829044996E+02 -0.18795266499E+02  0.38081919591E+02  0.00000000000E+00 0.  1.
</event>
<event>
 8    1  0.1164123E-009  0.9118800E+02  0.7816164E-02  0.1184000E+00
        -11   -1    0    0    0    0  0.00000000000E+00  0.00000000000E+00  0.45593999997E+02  0.45594000000E+02  0.51100000000E-03 0. -1.
         11   -1    0    0    0    0 -0.00000000000E+00 -0.00000000000E+00 -0.45593999997E+02  0.45594000000E+02  0.51100000000E-03 0.  1.
         23    2    1    2    0    0  0.00000000000E+00 -0.35527136788E-14  0.35527136788E-14  0.91188000000E+02  0.91188000000E+02 0.  0.
    9900012    2    3    3    0    0 -0.23468514497E+02  0.27449282374E+02 -0.24070500615E+02  0.47787271027E+02  0.19999999921E+02 0.  0.
         12    1    3    3    0    0  0.23468514497E+02 -0.27449282374E+02  0.24070500615E+02  0.43400728973E+02  0.00000000000E+00 0. -1.
         11    1    4    4    0    0 -0.19530577434E+02  0.24551895121E+02 -0.16558412893E+02  0.35474216647E+02  0.51100000000E-03 0. -1.
        -11    1    4    4    0    0 -0.26529070332E+01  0.55039355337E+01 -0.26744200993E+01  0.66696135732E+01  0.51100000000E-03 0.  1.
        -12    1    4    4    0    0 -0.12850300295E+01 -0.26065482803E+01 -0.48376676225E+01  0.56434408068E+01  0.00000000000E+00 0.  1.
</event>
<event>
 8    1  0.1164123E-009  0.9118800E+02  0.7816164E-02  0.1184000E+00
        -11   -1    0    0    0    0  0.00000000000E+00  0.00000000000E+00  0.45593999997E+02  0.45594000000E+02  0.51100000000E-03 0. -1.
         11   -1    0    0    0    0 -0.00000000000E+00 -0.00000000000E+00 -0.45593999997E+02  0.45594000000E+02  0.51100000000E-03 0.  1.
         23    2    1    2    0    0  0.00000000000E+00  0.00000000000E+00  0.00000000000E+00  0.91188000000E+02  0.91188000000E+02 0.  0.
    9900012    2    3    3    0    0  0.95533578694E+01 -0.24157377784E+02 -0.34767479714E+02  0.47787271969E+02  0.20000004214E+02 0.  0.
         12    1    3    3    0    0 -0.95533578694E+01  0.24157377784E+02  0.34767479714E+02  0.43400728031E+02  0.00000000000E+00 0. -1.
         11    1    4    4    0    0  0.32996166531E+00 -0.53490320502E+01 -0.42250191253E+01  0.68243538482E+01  0.51100000000E-03 0. -1.
        -11    1    4    4    0    0  0.52934180896E+01  0.22956868331E+01 -0.53962762670E+01  0.79000158808E+01  0.51100000000E-03 0.  1.
        -12    1    4    4    0    0  0.39299781145E+01 -0.21104032567E+02 -0.25146184322E+02  0.33062902240E+02  0.00000000000E+00 0.  1.
</event>
<event>
 8    1  0.1374048E-009  0.9118800E+02  0.7816164E-02  0.1184000E+00
        -11   -1    0    0    0    0  0.00000000000E+00  0.00000000000E+00  0.45593999997E+02  0.45594000000E+02  0.51100000000E-03 0. -1.
         11   -1    0    0    0    0 -0.00000000000E+00 -0.00000000000E+00 -0.45593999997E+02  0.45594000000E+02  0.51100000000E-03 0.  1.
         23    2    1    2    0    0  0.88817841970E-15 -0.35527136788E-14  0.00000000000E+00  0.91188000000E+02  0.91188000000E+02 0.  0.
    9900012    2    3    3    0    0 -0.75969065778E+01 -0.31263227039E+02 -0.29129387187E+02  0.47787267836E+02  0.19999985373E+02 0.  0.
         12    1    3    3    0    0  0.75969065778E+01  0.31263227039E+02  0.29129387187E+02  0.43400732164E+02  0.00000000000E+00 0. -1.
         11    1    4    4    0    0 -0.47247667065E+01 -0.15890652572E+00 -0.66794804402E+01  0.81831614261E+01  0.51100000000E-03 0. -1.
        -11    1    4    4    0    0 -0.21994078077E+01 -0.34169004812E+01 -0.18357976254E+00  0.40677150089E+01  0.51100000000E-03 0.  1.
        -12    1    4    4    0    0 -0.67273206357E+00 -0.27687420032E+02 -0.22266326984E+02  0.35536391401E+02  0.00000000000E+00 0.  1.
</event>
<event>
 8    1  0.1164123E-009  0.9118800E+02  0.7816164E-02  0.1184000E+00
        -11   -1    0    0    0    0  0.00000000000E+00  0.00000000000E+00  0.45593999997E+02  0.45594000000E+02  0.51100000000E-03 0.  1.
         11   -1    0    0    0    0 -0.00000000000E+00 -0.00000000000E+00 -0.45593999997E+02  0.45594000000E+02  0.51100000000E-03 0. -1.
         23    2    1    2    0    0  0.71054273576E-14  0.00000000000E+00 -0.17763568394E-14  0.91188000000E+02  0.91188000000E+02 0.  0.
    9900012    2    3    3    0    0  0.38105759205E+02  0.16972387606E+02  0.11979661862E+02  0.47787272771E+02  0.20000007873E+02 0.  0.
        -12    1    3    3    0    0 -0.38105759205E+02 -0.16972387606E+02 -0.11979661862E+02  0.43400727229E+02  0.00000000000E+00 0.  1.
         11    1    4    4    0    0  0.20922147034E+02  0.15269911861E+02  0.64226877004E+01  0.26686276666E+02  0.51100000000E-03 0. -1.
        -11    1    4    4    0    0  0.14351668927E+02  0.57026526402E+01  0.39088589031E+01  0.15930154623E+02  0.51100000000E-03 0.  1.
        -12    1    4    4    0    0  0.28319432442E+01 -0.40001768949E+01  0.16481152589E+01  0.51708414823E+01  0.00000000000E+00 0.  1.
</event>
<event>
 8    1  0.1164123E-009  0.9118800E+02  0.7816164E-02  0.1184000E+00
        -11   -1    0    0    0    0  0.00000000000E+00  0.00000000000E+00  0.45593999997E+02  0.45594000000E+02  0.51100000000E-03 0. -1.
         11   -1    0    0    0    0 -0.00000000000E+00 -0.00000000000E+00 -0.45593999997E+02  0.45594000000E+02  0.51100000000E-03 0.  1.
         23    2    1    2    0    0  0.00000000000E+00  0.35527136788E-14 -0.71054273576E-14  0.91188000000E+02  0.91188000000E+02 0.  0.
    9900012    2    3    3    0    0  0.88882508312E+01 -0.22392409474E+02  0.36099896169E+02  0.47787268344E+02  0.19999987685E+02 0.  0.
        -12    1    3    3    0    0 -0.88882508312E+01  0.22392409474E+02 -0.36099896169E+02  0.43400731656E+02  0.00000000000E+00 0.  1.
         11    1    4    4    0    0  0.10785984116E+02 -0.89372871226E+01  0.18598872454E+02  0.23283698402E+02  0.51100000000E-03 0. -1.
        -11    1    4    4    0    0 -0.70329415298E+00 -0.54336286512E+01  0.15073108844E+02  0.16038003413E+02  0.51100000000E-03 0.  1.
         12    1    4    4    0    0 -0.11944391319E+01 -0.80214937003E+01  0.24279148708E+01  0.84655665282E+01  0.00000000000E+00 0. -1.
</event>
<event>
 8    1  0.1164123E-009  0.9118800E+02  0.7816164E-02  0.1184000E+00
        -11   -1    0    0    0    0  0.00000000000E+00  0.00000000000E+00  0.45593999997E+02  0.45594000000E+02  0.51100000000E-03 0. -1.
         11   -1    0    0    0    0 -0.00000000000E+00 -0.00000000000E+00 -0.45593999997E+02  0.45594000000E+02  0.51100000000E-03 0.  1.
         23    2    1    2    0    0  0.17763568394E-14  0.00000000000E+00 -0.35527136788E-14  0.91188000000E+02  0.91188000000E+02 0.  0.
    9900012    2    3    3    0    0 -0.15466668340E+02  0.26294205131E+02  0.30871024083E+02  0.47787272115E+02  0.20000004880E+02 0.  0.
        -12    1    3    3    0    0  0.15466668340E+02 -0.26294205131E+02 -0.30871024083E+02  0.43400727885E+02  0.00000000000E+00 0.  1.
         11    1    4    4    0    0 -0.61851007089E+01  0.19529744712E+02  0.20479665371E+02  0.28966931030E+02  0.51100000000E-03 0. -1.
        -11    1    4    4    0    0  0.23007274142E+01  0.43944301748E+00  0.25814638552E+01  0.34857442099E+01  0.51100000000E-03 0.  1.
         12    1    4    4    0    0 -0.11582295046E+02  0.63250174013E+01  0.78098948566E+01  0.15334596875E+02  0.00000000000E+00 0. -1.
</event>
<event>
 8    1  0.1164123E-009  0.9118800E+02  0.7816164E-02  0.1184000E+00
        -11   -1    0    0    0    0  0.00000000000E+00  0.00000000000E+00  0.45593999997E+02  0.45594000000E+02  0.51100000000E-03 0. -1.
         11   -1    0    0    0    0 -0.00000000000E+00 -0.00000000000E+00 -0.45593999997E+02  0.45594000000E+02  0.51100000000E-03 0.  1.
         23    2    1    2    0    0  0.35527136788E-14  0.00000000000E+00  0.00000000000E+00  0.91188000000E+02  0.91188000000E+02 0.  0.
    9900012    2    3    3    0    0 -0.20760615075E+02 -0.25621928580E+02  0.28215899734E+02  0.47787270049E+02  0.19999995463E+02 0.  0.
        -12    1    3    3    0    0  0.20760615075E+02  0.25621928580E+02 -0.28215899734E+02  0.43400729951E+02  0.00000000000E+00 0.  1.
         11    1    4    4    0    0 -0.40857728346E+01 -0.13285829976E+02  0.88000677573E+01  0.16451383242E+02  0.51100000000E-03 0. -1.
        -11    1    4    4    0    0 -0.74815154613E+01 -0.12132812909E+02  0.16237909913E+02  0.21606664279E+02  0.51100000000E-03 0.  1.
        -12    1    4    4    0    0 -0.91933267794E+01 -0.20328569558E+00  0.31779220636E+01  0.97292225275E+01  0.00000000000E+00 0.  1.
</event>
<event>
 8    1  0.1164123E-009  0.9118800E+02  0.7816164E-02  0.1184000E+00
        -11   -1    0    0    0    0  0.00000000000E+00  0.00000000000E+00  0.45593999997E+02  0.45594000000E+02  0.51100000000E-03 0. -1.
         11   -1    0    0    0    0 -0.00000000000E+00 -0.00000000000E+00 -0.45593999997E+02  0.45594000000E+02  0.51100000000E-03 0.  1.
         23    2    1    2    0    0  0.00000000000E+00 -0.17763568394E-14  0.00000000000E+00  0.91188000000E+02  0.91188000000E+02 0.  0.
    9900012    2    3    3    0    0  0.32184187936E+02  0.14327477007E+02  0.25348070211E+02  0.47787271735E+02  0.20000003148E+02 0.  0.
        -12    1    3    3    0    0 -0.32184187936E+02 -0.14327477007E+02 -0.25348070211E+02  0.43400728265E+02  0.00000000000E+00 0.  1.
         11    1    4    4    0    0  0.64335548407E+01 -0.15023701713E+01  0.50614314840E+01  0.83226097438E+01  0.51100000000E-03 0. -1.
        -11    1    4    4    0    0  0.19805483813E+01  0.12475714307E+01 -0.25201801407E+01  0.34395224331E+01  0.51100000000E-03 0.  1.
         12    1    4    4    0    0  0.23770084714E+02  0.14582275747E+02  0.22806818868E+02  0.36025139558E+02  0.00000000000E+00 0. -1.
</event>
<event>
 8    1  0.1666483E-009  0.9118800E+02  0.7816164E-02  0.1184000E+00
        -11   -1    0    0    0    0  0.00000000000E+00  0.00000000000E+00  0.45593999997E+02  0.45594000000E+02  0.51100000000E-03 0. -1.
         11   -1    0    0    0    0 -0.00000000000E+00 -0.00000000000E+00 -0.45593999997E+02  0.45594000000E+02  0.51100000000E-03 0.  1.
         23    2    1    2    0    0  0.00000000000E+00  0.00000000000E+00  0.00000000000E+00  0.91188000000E+02  0.91188000000E+02 0.  0.
    9900012    2    3    3    0    0  0.19544922858E+02 -0.22073789602E+02 -0.31849128735E+02  0.47787271918E+02  0.20000003981E+02 0.  0.
         12    1    3    3    0    0 -0.19544922858E+02  0.22073789602E+02  0.31849128735E+02  0.43400728082E+02  0.00000000000E+00 0. -1.
         11    1    4    4    0    0  0.11397691012E+01 -0.10051033845E+02 -0.34446657185E+01  0.10685882141E+02  0.51100000000E-03 0. -1.
        -11    1    4    4    0    0  0.46015949226E+00  0.23159329845E-01  0.70702431775E+00  0.84389973331E+00  0.51100000000E-03 0.  1.
        -12    1    4    4    0    0  0.17944994264E+02 -0.12045915087E+02 -0.29111487334E+02  0.36257490043E+02  0.00000000000E+00 0.  1.
</event>
<event>
 8    1  0.1164123E-009  0.9118800E+02  0.7816164E-02  0.1184000E+00
        -11   -1    0    0    0    0  0.00000000000E+00  0.00000000000E+00  0.45593999997E+02  0.45594000000E+02  0.51100000000E-03 0. -1.
         11   -1    0    0    0    0 -0.00000000000E+00 -0.00000000000E+00 -0.45593999997E+02  0.45594000000E+02  0.51100000000E-03 0.  1.
         23    2    1    2    0    0  0.44408920985E-15  0.35527136788E-14  0.00000000000E+00  0.91188000000E+02  0.91188000000E+02 0.  0.
    9900012    2    3    3    0    0 -0.38493957324E+01 -0.27208142195E+02  0.33593488483E+02  0.47787270540E+02  0.19999997699E+02 0.  0.
        -12    1    3    3    0    0  0.38493957324E+01  0.27208142195E+02 -0.33593488483E+02  0.43400729460E+02  0.00000000000E+00 0.  1.
         11    1    4    4    0    0  0.41092978839E+01 -0.39340000960E+01  0.20763082422E+01  0.60558849091E+01  0.51100000000E-03 0. -1.
        -11    1    4    4    0    0 -0.23492416924E+01 -0.25426855629E+01  0.12744929141E+02  0.13206718194E+02  0.51100000000E-03 0.  1.
         12    1    4    4    0    0 -0.56094519239E+01 -0.20731456536E+02  0.18772251100E+02  0.28524667437E+02  0.00000000000E+00 0. -1.
</event>
<event>
 8    1  0.1164123E-009  0.9118800E+02  0.7816164E-02  0.1184000E+00
        -11   -1    0    0    0    0  0.00000000000E+00  0.00000000000E+00  0.45593999997E+02  0.45594000000E+02  0.51100000000E-03 0. -1.
         11   -1    0    0    0    0 -0.00000000000E+00 -0.00000000000E+00 -0.45593999997E+02  0.45594000000E+02  0.51100000000E-03 0.  1.
         23    2    1    2    0    0  0.35527136788E-14  0.00000000000E+00  0.00000000000E+00  0.91188000000E+02  0.91188000000E+02 0.  0.
    9900012    2    3    3    0    0  0.29843442280E+02 -0.23232619660E+02 -0.21289411421E+02  0.47787254591E+02  0.19999924982E+02 0.  0.
         12    1    3    3    0    0 -0.29843442280E+02  0.23232619660E+02  0.21289411421E+02  0.43400745409E+02  0.00000000000E+00 0. -1.
         11    1    4    4    0    0  0.12298069994E+02 -0.16261336962E+02 -0.77998822941E+01  0.21829149535E+02  0.51100000000E-03 0. -1.
        -11    1    4    4    0    0  0.12707724610E+02 -0.90078075435E+01 -0.57443774578E+01  0.16601949709E+02  0.51100000000E-03 0.  1.
        -12    1    4    4    0    0  0.48376476765E+01  0.20365248457E+01 -0.77451516691E+01  0.93561553464E+01  0.00000000000E+00 0.  1.
</event>
<event>
 8    1  0.1164123E-009  0.9118800E+02  0.7816164E-02  0.1184000E+00
        -11   -1    0    0    0    0  0.00000000000E+00  0.00000000000E+00  0.45593999997E+02  0.45594000000E+02  0.51100000000E-03 0. -1.
         11   -1    0    0    0    0 -0.00000000000E+00 -0.00000000000E+00 -0.45593999997E+02  0.45594000000E+02  0.51100000000E-03 0.  1.
         23    2    1    2    0    0  0.35527136788E-14  0.00000000000E+00  0.00000000000E+00  0.91188000000E+02  0.91188000000E+02 0.  0.
    9900012    2    3    3    0    0 -0.24865953826E+02 -0.23466623196E+02  0.26732469981E+02  0.47787274025E+02  0.20000013591E+02 0.  0.
        -12    1    3    3    0    0  0.24865953826E+02  0.23466623196E+02 -0.26732469981E+02  0.43400725975E+02  0.00000000000E+00 0.  1.
         11    1    4    4    0    0 -0.80523103581E+01 -0.12400540656E+02  0.10468569335E+02  0.18116402922E+02  0.51100000000E-03 0. -1.
        -11    1    4    4    0    0  0.17607257065E+01 -0.48515610595E+01  0.25207526153E+01  0.57438657484E+01  0.51100000000E-03 0.  1.
        -12    1    4    4    0    0 -0.18574369174E+02 -0.62145214803E+01  0.13743148030E+02  0.23927005354E+02  0.00000000000E+00 0.  1.
</event>
<event>
 8    1  0.1164123E-009  0.9118800E+02  0.7816164E-02  0.1184000E+00
        -11   -1    0    0    0    0  0.00000000000E+00  0.00000000000E+00  0.45593999997E+02  0.45594000000E+02  0.51100000000E-03 0. -1.
         11   -1    0    0    0    0 -0.00000000000E+00 -0.00000000000E+00 -0.45593999997E+02  0.45594000000E+02  0.51100000000E-03 0.  1.
         23    2    1    2    0    0  0.00000000000E+00  0.00000000000E+00  0.00000000000E+00  0.91188000000E+02  0.91188000000E+02 0.  0.
    9900012    2    3    3    0    0 -0.31314423115E+02 -0.10897273875E+02 -0.28004975831E+02  0.47787281754E+02  0.20000048829E+02 0.  0.
         12    1    3    3    0    0  0.31314423115E+02  0.10897273875E+02  0.28004975831E+02  0.43400718246E+02  0.00000000000E+00 0. -1.
         11    1    4    4    0    0 -0.58807941999E+01 -0.46186837249E+00 -0.66761981325E+01  0.89089104037E+01  0.51100000000E-03 0. -1.
        -11    1    4    4    0    0 -0.80817828799E+01  0.48122951919E+01 -0.61107440735E+01  0.11216710432E+02  0.51100000000E-03 0.  1.
         12    1    4    4    0    0 -0.17351846035E+02 -0.15247700695E+02 -0.15218033625E+02  0.27661660918E+02  0.00000000000E+00 0. -1.
</event>
<event>
 8    1  0.1164123E-009  0.9118800E+02  0.7816164E-02  0.1184000E+00
        -11   -1    0    0    0    0  0.00000000000E+00  0.00000000000E+00  0.45593999997E+02  0.45594000000E+02  0.51100000000E-03 0. -1.
         11   -1    0    0    0    0 -0.00000000000E+00 -0.00000000000E+00 -0.45593999997E+02  0.45594000000E+02  0.51100000000E-03 0.  1.
         23    2    1    2    0    0  0.00000000000E+00  0.00000000000E+00  0.00000000000E+00  0.91188000000E+02  0.91188000000E+02 0.  0.
    9900012    2    3    3    0    0 -0.88782350821E+01  0.20040095128E+02 -0.37459248535E+02  0.47787265309E+02  0.19999973851E+02 0.  0.
         12    1    3    3    0    0  0.88782350821E+01 -0.20040095128E+02  0.37459248535E+02  0.43400734691E+02  0.00000000000E+00 0. -1.
         11    1    4    4    0    0  0.11836130565E+01  0.15344237988E+01 -0.45778983807E-01  0.19384251954E+01  0.51100000000E-03 0. -1.
        -11    1    4    4    0    0 -0.56068945756E+01  0.19490320189E+02 -0.35534359801E+02  0.40914552113E+02  0.51100000000E-03 0.  1.
        -12    1    4    4    0    0 -0.44549535630E+01 -0.98464885957E+00 -0.18791097497E+01  0.49342880010E+01  0.00000000000E+00 0.  1.
</event>
<event>
 8    1  0.1164123E-009  0.9118800E+02  0.7816164E-02  0.1184000E+00
        -11   -1    0    0    0    0  0.00000000000E+00  0.00000000000E+00  0.45593999997E+02  0.45594000000E+02  0.51100000000E-03 0. -1.
         11   -1    0    0    0    0 -0.00000000000E+00 -0.00000000000E+00 -0.45593999997E+02  0.45594000000E+02  0.51100000000E-03 0.  1.
         23    2    1    2    0    0  0.00000000000E+00  0.00000000000E+00  0.00000000000E+00  0.91188000000E+02  0.91188000000E+02 0.  0.
    9900012    2    3    3    0    0 -0.11278339790E+02 -0.22388144726E+02  0.35428727610E+02  0.47787254468E+02  0.19999924422E+02 0.  0.
        -12    1    3    3    0    0  0.11278339790E+02  0.22388144726E+02 -0.35428727610E+02  0.43400745532E+02  0.00000000000E+00 0.  1.
         11    1    4    4    0    0  0.33895525530E+01 -0.60412957075E+01  0.75214359068E+01  0.10225376213E+02  0.51100000000E-03 0. -1.
        -11    1    4    4    0    0 -0.22672241714E+01 -0.18671516575E+01 -0.85161070972E+00  0.30580715848E+01  0.51100000000E-03 0.  1.
        -12    1    4    4    0    0 -0.12400668172E+02 -0.14479697361E+02  0.28758902413E+02  0.34503806670E+02  0.00000000000E+00 0.  1.
</event>
<event>
 8    1  0.1164123E-009  0.9118800E+02  0.7816164E-02  0.1184000E+00
        -11   -1    0    0    0    0  0.00000000000E+00  0.00000000000E+00  0.45593999997E+02  0.45594000000E+02  0.51100000000E-03 0. -1.
         11   -1    0    0    0    0 -0.00000000000E+00 -0.00000000000E+00 -0.45593999997E+02  0.45594000000E+02  0.51100000000E-03 0.  1.
         23    2    1    2    0    0  0.35527136788E-14 -0.17763568394E-14  0.00000000000E+00  0.91188000000E+02  0.91188000000E+02 0.  0.
    9900012    2    3    3    0    0 -0.17007727095E+02  0.14738372390E+02 -0.37109844821E+02  0.47787274381E+02  0.20000015213E+02 0.  0.
         12    1    3    3    0    0  0.17007727095E+02 -0.14738372390E+02  0.37109844821E+02  0.43400725619E+02  0.00000000000E+00 0. -1.
         11    1    4    4    0    0  0.51752738741E+00 -0.21446837440E+01 -0.24488009709E+01  0.32960778836E+01  0.51100000000E-03 0. -1.
        -11    1    4    4    0    0 -0.79099037682E-01  0.29890989098E+01  0.31792446867E+00  0.30069993647E+01  0.51100000000E-03 0.  1.
         12    1    4    4    0    0 -0.17446155445E+02  0.13893957224E+02 -0.34978968318E+02  0.41484197133E+02  0.00000000000E+00 0. -1.
</event>
<event>
 8    1  0.1164123E-009  0.9118800E+02  0.7816164E-02  0.1184000E+00
        -11   -1    0    0    0    0  0.00000000000E+00  0.00000000000E+00  0.45593999997E+02  0.45594000000E+02  0.51100000000E-03 0.  1.
         11   -1    0    0    0    0 -0.00000000000E+00 -0.00000000000E+00 -0.45593999997E+02  0.45594000000E+02  0.51100000000E-03 0. -1.
         23    2    1    2    0    0  0.00000000000E+00  0.00000000000E+00  0.00000000000E+00  0.91188000000E+02  0.91188000000E+02 0.  0.
    9900012    2    3    3    0    0  0.11021712024E+02  0.40800570638E+02 -0.98720727827E+01  0.47787279714E+02  0.20000039528E+02 0.  0.
        -12    1    3    3    0    0 -0.11021712024E+02 -0.40800570638E+02  0.98720727827E+01  0.43400720286E+02  0.00000000000E+00 0.  1.
         11    1    4    4    0    0 -0.30473618011E+01  0.13859494588E+02 -0.15715157358E+01  0.14277312988E+02  0.51100000000E-03 0. -1.
        -11    1    4    4    0    0  0.64402237692E+00  0.55297459575E+01 -0.59193358660E+01  0.81259702518E+01  0.51100000000E-03 0.  1.
        -12    1    4    4    0    0  0.13425051448E+02  0.21411330092E+02 -0.23812211809E+01  0.25383996474E+02  0.00000000000E+00 0.  1.
</event>
<event>
 8    1  0.1164123E-009  0.9118800E+02  0.7816164E-02  0.1184000E+00
        -11   -1    0    0    0    0  0.00000000000E+00  0.00000000000E+00  0.45593999997E+02  0.45594000000E+02  0.51100000000E-03 0. -1.
         11   -1    0    0    0    0 -0.00000000000E+00 -0.00000000000E+00 -0.45593999997E+02  0.45594000000E+02  0.51100000000E-03 0.  1.
         23    2    1    2    0    0  0.00000000000E+00  0.00000000000E+00 -0.71054273576E-14  0.91188000000E+02  0.91188000000E+02 0.  0.
    9900012    2    3    3    0    0  0.97512809076E+01 -0.11107970286E+02 -0.40806230078E+02  0.47787275393E+02  0.20000019829E+02 0.  0.
         12    1    3    3    0    0 -0.97512809076E+01  0.11107970286E+02  0.40806230078E+02  0.43400724607E+02  0.00000000000E+00 0. -1.
         11    1    4    4    0    0  0.21531883492E+00  0.10558475042E+01 -0.66121304584E+01  0.66993615825E+01  0.51100000000E-03 0. -1.
        -11    1    4    4    0    0 -0.26806172662E+01 -0.73651450852E+01 -0.21268180153E+02  0.22666419178E+02  0.51100000000E-03 0.  1.
         12    1    4    4    0    0  0.12216579339E+02 -0.47986727051E+01 -0.12925919466E+02  0.18421494633E+02  0.00000000000E+00 0. -1.
</event>
<event>
 8    1  0.1164123E-009  0.9118800E+02  0.7816164E-02  0.1184000E+00
        -11   -1    0    0    0    0  0.00000000000E+00  0.00000000000E+00  0.45593999997E+02  0.45594000000E+02  0.51100000000E-03 0. -1.
         11   -1    0    0    0    0 -0.00000000000E+00 -0.00000000000E+00 -0.45593999997E+02  0.45594000000E+02  0.51100000000E-03 0.  1.
         23    2    1    2    0    0  0.00000000000E+00  0.17763568394E-14  0.00000000000E+00  0.91188000000E+02  0.91188000000E+02 0.  0.
    9900012    2    3    3    0    0 -0.36543817215E+02  0.15534260691E+02 -0.17517411446E+02  0.47787268029E+02  0.19999986251E+02 0.  0.
         12    1    3    3    0    0  0.36543817215E+02 -0.15534260691E+02  0.17517411446E+02  0.43400731971E+02  0.00000000000E+00 0. -1.
         11    1    4    4    0    0 -0.12100118477E+02  0.21070289015E+01 -0.37072126552E+01  0.12829491957E+02  0.51100000000E-03 0. -1.
        -11    1    4    4    0    0 -0.22214194254E+02  0.61770028738E+01 -0.14663285710E+02  0.27324672714E+02  0.51100000000E-03 0.  1.
         12    1    4    4    0    0 -0.22295044838E+01  0.72502289161E+01  0.85308691913E+00  0.76331033577E+01  0.00000000000E+00 0. -1.
</event>
<event>
 8    1  0.1164123E-009  0.9118800E+02  0.7816164E-02  0.1184000E+00
        -11   -1    0    0    0    0  0.00000000000E+00  0.00000000000E+00  0.45593999997E+02  0.45594000000E+02  0.51100000000E-03 0. -1.
         11   -1    0    0    0    0 -0.00000000000E+00 -0.00000000000E+00 -0.45593999997E+02  0.45594000000E+02  0.51100000000E-03 0.  1.
         23    2    1    2    0    0  0.00000000000E+00  0.00000000000E+00  0.00000000000E+00  0.91188000000E+02  0.91188000000E+02 0.  0.
    9900012    2    3    3    0    0  0.38877912534E+01 -0.25282715492E+02  0.35061266852E+02  0.47787273546E+02  0.20000011406E+02 0.  0.
        -12    1    3    3    0    0 -0.38877912534E+01  0.25282715492E+02 -0.35061266852E+02  0.43400726454E+02  0.00000000000E+00 0.  1.
         11    1    4    4    0    0  0.32742089012E+01 -0.10419855185E+02  0.11207475571E+02  0.15649323786E+02  0.51100000000E-03 0. -1.
        -11    1    4    4    0    0  0.41629126062E+01 -0.42919465142E+01  0.19424740346E+00  0.59823388873E+01  0.51100000000E-03 0.  1.
        -12    1    4    4    0    0 -0.35493302540E+01 -0.10570913793E+02  0.23659543877E+02  0.26155610873E+02  0.00000000000E+00 0.  1.
</event>
<event>
 8    1  0.1164123E-009  0.9118800E+02  0.7816164E-02  0.1184000E+00
        -11   -1    0    0    0    0  0.00000000000E+00  0.00000000000E+00  0.45593999997E+02  0.45594000000E+02  0.51100000000E-03 0. -1.
         11   -1    0    0    0    0 -0.00000000000E+00 -0.00000000000E+00 -0.45593999997E+02  0.45594000000E+02  0.51100000000E-03 0.  1.
         23    2    1    2    0    0 -0.35527136788E-14 -0.35527136788E-14  0.00000000000E+00  0.91188000000E+02  0.91188000000E+02 0.  0.
    9900012    2    3    3    0    0  0.23744671596E+02  0.24908038005E+02  0.26446243880E+02  0.47787267266E+02  0.19999982771E+02 0.  0.
        -12    1    3    3    0    0 -0.23744671596E+02 -0.24908038005E+02 -0.26446243880E+02  0.43400732734E+02  0.00000000000E+00 0.  1.
         11    1    4    4    0    0  0.39637066238E+01 -0.54500986723E+00  0.98490045962E+01  0.10630658387E+02  0.51100000000E-03 0. -1.
        -11    1    4    4    0    0  0.11498072427E+01  0.42440124092E+01 -0.23351033664E-01  0.43970721573E+01  0.51100000000E-03 0.  1.
        -12    1    4    4    0    0  0.18631157730E+02  0.21209035463E+02  0.16620590318E+02  0.32759536721E+02  0.00000000000E+00 0.  1.
</event>
<event>
 8    1  0.1164123E-009  0.9118800E+02  0.7816164E-02  0.1184000E+00
        -11   -1    0    0    0    0  0.00000000000E+00  0.00000000000E+00  0.45593999997E+02  0.45594000000E+02  0.51100000000E-03 0. -1.
         11   -1    0    0    0    0 -0.00000000000E+00 -0.00000000000E+00 -0.45593999997E+02  0.45594000000E+02  0.51100000000E-03 0.  1.
         23    2    1    2    0    0  0.00000000000E+00  0.35527136788E-14 -0.71054273576E-14  0.91188000000E+02  0.91188000000E+02 0.  0.
    9900012    2    3    3    0    0 -0.16081180421E+02 -0.21447085007E+02  0.34132710489E+02  0.47787265625E+02  0.19999975289E+02 0.  0.
        -12    1    3    3    0    0  0.16081180421E+02  0.21447085007E+02 -0.34132710489E+02  0.43400734375E+02  0.00000000000E+00 0.  1.
         11    1    4    4    0    0 -0.32083891720E+00 -0.72822485261E+01  0.19690625873E+02  0.20996543257E+02  0.51100000000E-03 0. -1.
        -11    1    4    4    0    0 -0.16490382941E+01 -0.60546014352E+01  0.36038462149E+01  0.72363826348E+01  0.51100000000E-03 0.  1.
        -12    1    4    4    0    0 -0.14111303210E+02 -0.81102350453E+01  0.10838238400E+02  0.19554339733E+02  0.00000000000E+00 0.  1.
</event>
<event>
 8    1  0.1164123E-009  0.9118800E+02  0.7816164E-02  0.1184000E+00
        -11   -1    0    0    0    0  0.00000000000E+00  0.00000000000E+00  0.45593999997E+02  0.45594000000E+02  0.51100000000E-03 0. -1.
         11   -1    0    0    0    0 -0.00000000000E+00 -0.00000000000E+00 -0.45593999997E+02  0.45594000000E+02  0.51100000000E-03 0.  1.
         23    2    1    2    0    0  0.17763568394E-14  0.00000000000E+00 -0.88817841970E-15  0.91188000000E+02  0.91188000000E+02 0.  0.
    9900012    2    3    3    0    0  0.15683329343E+02  0.40382960588E+02 -0.26216336063E+01  0.47787270883E+02  0.19999999263E+02 0.  0.
         12    1    3    3    0    0 -0.15683329343E+02 -0.40382960588E+02  0.26216336063E+01  0.43400729117E+02  0.00000000000E+00 0. -1.
         11    1    4    4    0    0  0.82543203499E+01  0.17541879027E+02 -0.45582264949E+00  0.19392243264E+02  0.51100000000E-03 0. -1.
        -11    1    4    4    0    0  0.98511995117E+01  0.21906337318E+02 -0.50181136345E+01  0.24538036010E+02  0.51100000000E-03 0.  1.
         12    1    4    4    0    0 -0.24221905191E+01  0.93474424293E+00  0.28523026776E+01  0.38569916094E+01  0.00000000000E+00 0. -1.
</event>
<event>
 8    1  0.1164123E-009  0.9118800E+02  0.7816164E-02  0.1184000E+00
        -11   -1    0    0    0    0  0.00000000000E+00  0.00000000000E+00  0.45593999997E+02  0.45594000000E+02  0.51100000000E-03 0. -1.
         11   -1    0    0    0    0 -0.00000000000E+00 -0.00000000000E+00 -0.45593999997E+02  0.45594000000E+02  0.51100000000E-03 0.  1.
         23    2    1    2    0    0  0.00000000000E+00  0.88817841970E-15  0.71054273576E-14  0.91188000000E+02  0.91188000000E+02 0.  0.
    9900012    2    3    3    0    0  0.70178329399E+01  0.76969169460E+01  0.42132301393E+02  0.47787270394E+02  0.19999997034E+02 0.  0.
        -12    1    3    3    0    0 -0.70178329399E+01 -0.76969169460E+01 -0.42132301393E+02  0.43400729606E+02  0.00000000000E+00 0.  1.
         11    1    4    4    0    0  0.66335254002E+00  0.39089517517E+01  0.15122094018E+02  0.15633223217E+02  0.51100000000E-03 0. -1.
        -11    1    4    4    0    0  0.15420418632E+01 -0.58911170486E+01  0.13807712766E+02  0.15090927250E+02  0.51100000000E-03 0.  1.
         12    1    4    4    0    0  0.48124385368E+01  0.96790822429E+01  0.13202494609E+02  0.17063119927E+02  0.00000000000E+00 0. -1.
</event>
<event>
 8    1  0.1164123E-009  0.9118800E+02  0.7816164E-02  0.1184000E+00
        -11   -1    0    0    0    0  0.00000000000E+00  0.00000000000E+00  0.45593999997E+02  0.45594000000E+02  0.51100000000E-03 0. -1.
         11   -1    0    0    0    0 -0.00000000000E+00 -0.00000000000E+00 -0.45593999997E+02  0.45594000000E+02  0.51100000000E-03 0.  1.
         23    2    1    2    0    0  0.00000000000E+00  0.00000000000E+00  0.88817841970E-15  0.91188000000E+02  0.91188000000E+02 0.  0.
    9900012    2    3    3    0    0  0.36068266123E+02 -0.23256815383E+02  0.64671660429E+01  0.47787268215E+02  0.19999987098E+02 0.  0.
        -12    1    3    3    0    0 -0.36068266123E+02  0.23256815383E+02 -0.64671660429E+01  0.43400731785E+02  0.00000000000E+00 0.  1.
         11    1    4    4    0    0  0.13793450430E+02 -0.95598413964E+01 -0.38577019343E+01  0.17220096015E+02  0.51100000000E-03 0.  1.
        -11    1    4    4    0    0  0.17189785762E+01  0.21882697059E+01  0.77040725505E+00  0.28873758416E+01  0.51100000000E-03 0. -1.
         12    1    4    4    0    0  0.20555837117E+02 -0.15885243692E+02  0.95544607221E+01  0.27679796358E+02  0.00000000000E+00 0. -1.
</event>
<event>
 8    1  0.1164123E-009  0.9118800E+02  0.7816164E-02  0.1184000E+00
        -11   -1    0    0    0    0  0.00000000000E+00  0.00000000000E+00  0.45593999997E+02  0.45594000000E+02  0.51100000000E-03 0. -1.
         11   -1    0    0    0    0 -0.00000000000E+00 -0.00000000000E+00 -0.45593999997E+02  0.45594000000E+02  0.51100000000E-03 0.  1.
         23    2    1    2    0    0  0.00000000000E+00 -0.35527136788E-14  0.00000000000E+00  0.91188000000E+02  0.91188000000E+02 0.  0.
    9900012    2    3    3    0    0  0.28056274755E+02  0.23765328571E+02 -0.23058137615E+02  0.47787272985E+02  0.20000008846E+02 0.  0.
         12    1    3    3    0    0 -0.28056274755E+02 -0.23765328571E+02  0.23058137615E+02  0.43400727015E+02  0.00000000000E+00 0. -1.
         11    1    4    4    0    0  0.10456034603E+02 -0.93945636834E+00 -0.23794829724E+01  0.10764440411E+02  0.51100000000E-03 0. -1.
        -11    1    4    4    0    0  0.18442133906E+01  0.49283296556E+01 -0.21936631510E+01  0.57010274956E+01  0.51100000000E-03 0.  1.
        -12    1    4    4    0    0  0.15756026761E+02  0.19776455284E+02 -0.18484991491E+02  0.31321805078E+02  0.00000000000E+00 0.  1.
</event>
<event>
 8    1  0.1164123E-009  0.9118800E+02  0.7816164E-02  0.1184000E+00
        -11   -1    0    0    0    0  0.00000000000E+00  0.00000000000E+00  0.45593999997E+02  0.45594000000E+02  0.51100000000E-03 0. -1.
         11   -1    0    0    0    0 -0.00000000000E+00 -0.00000000000E+00 -0.45593999997E+02  0.45594000000E+02  0.51100000000E-03 0.  1.
         23    2    1    2    0    0  0.00000000000E+00  0.00000000000E+00 -0.35527136788E-14  0.91188000000E+02  0.91188000000E+02 0.  0.
    9900012    2    3    3    0    0 -0.53245146307E+01  0.33615003538E+02 -0.26931486712E+02  0.47787263884E+02  0.19999967353E+02 0.  0.
         12    1    3    3    0    0  0.53245146307E+01 -0.33615003538E+02  0.26931486712E+02  0.43400736116E+02  0.00000000000E+00 0. -1.
         11    1    4    4    0    0 -0.18349408577E+01  0.36456229968E+01 -0.50961619748E+01  0.65290460345E+01  0.51100000000E-03 0. -1.
        -11    1    4    4    0    0 -0.85893130027E+01  0.26972343957E+02 -0.21082596449E+02  0.35295318524E+02  0.51100000000E-03 0.  1.
         12    1    4    4    0    0  0.50997392296E+01  0.29970365835E+01 -0.75272828843E+00  0.59628993258E+01  0.00000000000E+00 0. -1.
</event>
<event>
 8    1  0.1164123E-009  0.9118800E+02  0.7816164E-02  0.1184000E+00
        -11   -1    0    0    0    0  0.00000000000E+00  0.00000000000E+00  0.45593999997E+02  0.45594000000E+02  0.51100000000E-03 0.  1.
         11   -1    0    0    0    0 -0.00000000000E+00 -0.00000000000E+00 -0.45593999997E+02  0.45594000000E+02  0.51100000000E-03 0. -1.
         23    2    1    2    0    0  0.00000000000E+00  0.00000000000E+00  0.00000000000E+00  0.91188000000E+02  0.91188000000E+02 0.  0.
    9900012    2    3    3    0    0  0.23159841065E+02  0.30306159857E+02  0.20707044283E+02  0.47787271361E+02  0.20000001445E+02 0.  0.
        -12    1    3    3    0    0 -0.23159841065E+02 -0.30306159857E+02 -0.20707044283E+02  0.43400728639E+02  0.00000000000E+00 0.  1.
         11    1    4    4    0    0  0.17053832930E+02  0.16645246876E+02  0.12107113450E+02  0.26729752291E+02  0.51100000000E-03 0. -1.
        -11    1    4    4    0    0  0.39088128875E+01  0.13375917941E+02  0.11027593209E+02  0.17770813465E+02  0.51100000000E-03 0.  1.
        -12    1    4    4    0    0  0.21971952468E+01  0.28499503978E+00 -0.24276623759E+01  0.32867056054E+01  0.00000000000E+00 0.  1.
</event>
<event>
 8    1  0.1287755E-009  0.9118800E+02  0.7816164E-02  0.1184000E+00
        -11   -1    0    0    0    0  0.00000000000E+00  0.00000000000E+00  0.45593999997E+02  0.45594000000E+02  0.51100000000E-03 0. -1.
         11   -1    0    0    0    0 -0.00000000000E+00 -0.00000000000E+00 -0.45593999997E+02  0.45594000000E+02  0.51100000000E-03 0.  1.
         23    2    1    2    0    0  0.00000000000E+00  0.00000000000E+00  0.00000000000E+00  0.91188000000E+02  0.91188000000E+02 0.  0.
    9900012    2    3    3    0    0 -0.25401187371E+02 -0.23252422065E+02 -0.26414543679E+02  0.47787267638E+02  0.19999984471E+02 0.  0.
         12    1    3    3    0    0  0.25401187371E+02  0.23252422065E+02  0.26414543679E+02  0.43400732362E+02  0.00000000000E+00 0. -1.
         11    1    4    4    0    0 -0.96194282110E+00 -0.57835228044E+01 -0.97136623668E+01  0.11345911460E+02  0.51100000000E-03 0. -1.
        -11    1    4    4    0    0 -0.36168254250E+01 -0.45239072970E+01  0.14078910199E+01  0.59606476806E+01  0.51100000000E-03 0.  1.
        -12    1    4    4    0    0 -0.20822419125E+02 -0.12944991964E+02 -0.18108772332E+02  0.30480708498E+02  0.00000000000E+00 0.  1.
</event>
<event>
 8    1  0.1164123E-009  0.9118800E+02  0.7816164E-02  0.1184000E+00
        -11   -1    0    0    0    0  0.00000000000E+00  0.00000000000E+00  0.45593999997E+02  0.45594000000E+02  0.51100000000E-03 0.  1.
         11   -1    0    0    0    0 -0.00000000000E+00 -0.00000000000E+00 -0.45593999997E+02  0.45594000000E+02  0.51100000000E-03 0. -1.
         23    2    1    2    0    0  0.44408920985E-15 -0.71054273576E-14  0.00000000000E+00  0.91188000000E+02  0.91188000000E+02 0.  0.
    9900012    2    3    3    0    0  0.25392230581E+01 -0.42511890978E+02 -0.83614913949E+01  0.47787273432E+02  0.20000010885E+02 0.  0.
         12    1    3    3    0    0 -0.25392230581E+01  0.42511890978E+02  0.83614913949E+01  0.43400726568E+02  0.00000000000E+00 0. -1.
         11    1    4    4    0    0 -0.35118352325E+00 -0.28108198770E+02 -0.10908101869E+02  0.30152625998E+02  0.51100000000E-03 0. -1.
        -11    1    4    4    0    0  0.10499934854E+01 -0.15297809693E+02  0.17280106326E+01  0.15430861568E+02  0.51100000000E-03 0.  1.
        -12    1    4    4    0    0  0.18404130960E+01  0.89411748467E+00  0.81859984131E+00  0.22037858654E+01  0.00000000000E+00 0.  1.
</event>
<event>
 8    1  0.1164123E-009  0.9118800E+02  0.7816164E-02  0.1184000E+00
        -11   -1    0    0    0    0  0.00000000000E+00  0.00000000000E+00  0.45593999997E+02  0.45594000000E+02  0.51100000000E-03 0. -1.
         11   -1    0    0    0    0 -0.00000000000E+00 -0.00000000000E+00 -0.45593999997E+02  0.45594000000E+02  0.51100000000E-03 0.  1.
         23    2    1    2    0    0  0.00000000000E+00  0.00000000000E+00  0.00000000000E+00  0.91188000000E+02  0.91188000000E+02 0.  0.
    9900012    2    3    3    0    0  0.28019922872E+02 -0.83882763462E+01  0.32064689746E+02  0.47787267445E+02  0.19999983588E+02 0.  0.
        -12    1    3    3    0    0 -0.28019922872E+02  0.83882763462E+01 -0.32064689746E+02  0.43400732555E+02  0.00000000000E+00 0.  1.
         11    1    4    4    0    0  0.10712028498E+02  0.40815237979E+00  0.63834912131E+01  0.12476502043E+02  0.51100000000E-03 0. -1.
        -11    1    4    4    0    0 -0.18542193800E+01 -0.20591186031E+01  0.27721484998E+00  0.27847705947E+01  0.51100000000E-03 0.  1.
         12    1    4    4    0    0  0.19162113755E+02 -0.67373101229E+01  0.25403983683E+02  0.32525994807E+02  0.00000000000E+00 0. -1.
</event>
<event>
 8    1  0.1164123E-009  0.9118800E+02  0.7816164E-02  0.1184000E+00
        -11   -1    0    0    0    0  0.00000000000E+00  0.00000000000E+00  0.45593999997E+02  0.45594000000E+02  0.51100000000E-03 0. -1.
         11   -1    0    0    0    0 -0.00000000000E+00 -0.00000000000E+00 -0.45593999997E+02  0.45594000000E+02  0.51100000000E-03 0.  1.
         23    2    1    2    0    0  0.00000000000E+00 -0.35527136788E-14  0.00000000000E+00  0.91188000000E+02  0.91188000000E+02 0.  0.
    9900012    2    3    3    0    0 -0.68672728609E+01 -0.15213720813E+02  0.40062578684E+02  0.47787228713E+02  0.19999806992E+02 0.  0.
        -12    1    3    3    0    0  0.68672728609E+01  0.15213720813E+02 -0.40062578684E+02  0.43400771287E+02  0.00000000000E+00 0.  1.
         11    1    4    4    0    0  0.21496036762E+01 -0.58939468785E+01  0.22580229415E+01  0.66676887777E+01  0.51100000000E-03 0. -1.
        -11    1    4    4    0    0 -0.69690572220E+00  0.17879028932E+01  0.22780683081E+01  0.29785684176E+01  0.51100000000E-03 0.  1.
        -12    1    4    4    0    0 -0.83199708148E+01 -0.11107676828E+02  0.35526487434E+02  0.38140971517E+02  0.00000000000E+00 0.  1.
</event>
<event>
 8    1  0.1164123E-009  0.9118800E+02  0.7816164E-02  0.1184000E+00
        -11   -1    0    0    0    0  0.00000000000E+00  0.00000000000E+00  0.45593999997E+02  0.45594000000E+02  0.51100000000E-03 0. -1.
         11   -1    0    0    0    0 -0.00000000000E+00 -0.00000000000E+00 -0.45593999997E+02  0.45594000000E+02  0.51100000000E-03 0.  1.
         23    2    1    2    0    0 -0.35527136788E-14  0.00000000000E+00  0.00000000000E+00  0.91188000000E+02  0.91188000000E+02 0.  0.
    9900012    2    3    3    0    0 -0.22854779906E+02 -0.15883641749E+02 -0.33301534956E+02  0.47787271087E+02  0.20000000193E+02 0.  0.
         12    1    3    3    0    0  0.22854779906E+02  0.15883641749E+02  0.33301534956E+02  0.43400728913E+02  0.00000000000E+00 0. -1.
         11    1    4    4    0    0 -0.66516884401E+01 -0.15231629794E+02 -0.15219330666E+02  0.22536093971E+02  0.51100000000E-03 0. -1.
        -11    1    4    4    0    0 -0.11370824618E+01 -0.65122945828E+00 -0.54037936123E+01  0.55603994459E+01  0.51100000000E-03 0.  1.
        -12    1    4    4    0    0 -0.15066009004E+02 -0.78249661363E-03 -0.12678410678E+02  0.19690777670E+02  0.00000000000E+00 0.  1.
</event>
<event>
 8    1  0.1164123E-009  0.9118800E+02  0.7816164E-02  0.1184000E+00
        -11   -1    0    0    0    0  0.00000000000E+00  0.00000000000E+00  0.45593999997E+02  0.45594000000E+02  0.51100000000E-03 0. -1.
         11   -1    0    0    0    0 -0.00000000000E+00 -0.00000000000E+00 -0.45593999997E+02  0.45594000000E+02  0.51100000000E-03 0.  1.
         23    2    1    2    0    0  0.00000000000E+00  0.00000000000E+00  0.00000000000E+00  0.91188000000E+02  0.91188000000E+02 0.  0.
    9900012    2    3    3    0    0 -0.42091468875E+01  0.28443562833E+02 -0.32509538003E+02  0.47787271374E+02  0.20000001500E+02 0.  0.
         12    1    3    3    0    0  0.42091468875E+01 -0.28443562833E+02  0.32509538003E+02  0.43400728626E+02  0.00000000000E+00 0. -1.
         11    1    4    4    0    0  0.25734270666E+01  0.16944105223E+01 -0.38881859978E+01  0.49610023684E+01  0.51100000000E-03 0. -1.
        -11    1    4    4    0    0 -0.58814948797E+01  0.20532048145E+01 -0.10398153179E+02  0.12121436459E+02  0.51100000000E-03 0.  1.
         12    1    4    4    0    0 -0.90107907440E+00  0.24695947496E+02 -0.18223198826E+02  0.30704832546E+02  0.00000000000E+00 0. -1.
</event>
<event>
 8    1  0.2459399E-009  0.9118800E+02  0.7816164E-02  0.1184000E+00
        -11   -1    0    0    0    0  0.00000000000E+00  0.00000000000E+00  0.45593999997E+02  0.45594000000E+02  0.51100000000E-03 0. -1.
         11   -1    0    0    0    0 -0.00000000000E+00 -0.00000000000E+00 -0.45593999997E+02  0.45594000000E+02  0.51100000000E-03 0.  1.
         23    2    1    2    0    0  0.00000000000E+00  0.00000000000E+00  0.00000000000E+00  0.91188000000E+02  0.91188000000E+02 0.  0.
    9900012    2    3    3    0    0 -0.24664762477E+02  0.12735523496E+02 -0.33362842808E+02  0.47787270202E+02  0.19999996160E+02 0.  0.
         12    1    3    3    0    0  0.24664762477E+02 -0.12735523496E+02  0.33362842808E+02  0.43400729798E+02  0.00000000000E+00 0. -1.
         11    1    4    4    0    0 -0.11143887680E+01 -0.49563377388E+00  0.88019375182E+00  0.15040799400E+01  0.51100000000E-03 0. -1.
        -11    1    4    4    0    0 -0.12100898558E+02  0.72024409478E+00 -0.22806947993E+02  0.25828421835E+02  0.51100000000E-03 0.  1.
        -12    1    4    4    0    0 -0.11449475152E+02  0.12510913175E+02 -0.11436088567E+02  0.20454768428E+02  0.00000000000E+00 0.  1.
</event>
<event>
 8    1  0.1164123E-009  0.9118800E+02  0.7816164E-02  0.1184000E+00
        -11   -1    0    0    0    0  0.00000000000E+00  0.00000000000E+00  0.45593999997E+02  0.45594000000E+02  0.51100000000E-03 0. -1.
         11   -1    0    0    0    0 -0.00000000000E+00 -0.00000000000E+00 -0.45593999997E+02  0.45594000000E+02  0.51100000000E-03 0.  1.
         23    2    1    2    0    0  0.00000000000E+00 -0.55511151231E-16  0.00000000000E+00  0.91188000000E+02  0.91188000000E+02 0.  0.
    9900012    2    3    3    0    0  0.23246184819E+02 -0.46866240573E+00  0.36647217218E+02  0.47787270940E+02  0.19999999525E+02 0.  0.
        -12    1    3    3    0    0 -0.23246184819E+02  0.46866240573E+00 -0.36647217218E+02  0.43400729060E+02  0.00000000000E+00 0.  1.
         11    1    4    4    0    0  0.21374513304E+01  0.10528585019E+00  0.57429826310E+00  0.22157621840E+01  0.51100000000E-03 0. -1.
        -11    1    4    4    0    0  0.19393812714E+01  0.49250419129E-01 -0.20952396841E+01  0.28554605434E+01  0.51100000000E-03 0.  1.
         12    1    4    4    0    0  0.19169352217E+02 -0.62319867505E+00  0.38168158639E+02  0.42716048213E+02  0.00000000000E+00 0. -1.
</event>
<event>
 8    1  0.1164123E-009  0.9118800E+02  0.7816164E-02  0.1184000E+00
        -11   -1    0    0    0    0  0.00000000000E+00  0.00000000000E+00  0.45593999997E+02  0.45594000000E+02  0.51100000000E-03 0. -1.
         11   -1    0    0    0    0 -0.00000000000E+00 -0.00000000000E+00 -0.45593999997E+02  0.45594000000E+02  0.51100000000E-03 0.  1.
         23    2    1    2    0    0  0.88817841970E-15  0.88817841970E-15 -0.71054273576E-14  0.91188000000E+02  0.91188000000E+02 0.  0.
    9900012    2    3    3    0    0 -0.74662869684E+01  0.74484324958E+01 -0.42099867165E+02  0.47787269556E+02  0.19999993214E+02 0.  0.
         12    1    3    3    0    0  0.74662869684E+01 -0.74484324958E+01  0.42099867165E+02  0.43400730444E+02  0.00000000000E+00 0. -1.
         11    1    4    4    0    0 -0.10740805296E+01  0.27177081353E+01 -0.16761288928E+02  0.17014123347E+02  0.51100000000E-03 0. -1.
        -11    1    4    4    0    0  0.71983372426E+00  0.40345538246E+01 -0.22837136325E+02  0.23201952093E+02  0.51100000000E-03 0.  1.
         12    1    4    4    0    0 -0.71120401631E+01  0.69617053585E+00 -0.25014419124E+01  0.75711941157E+01  0.00000000000E+00 0. -1.
</event>
<event>
 8    1  0.1164123E-009  0.9118800E+02  0.7816164E-02  0.1184000E+00
        -11   -1    0    0    0    0  0.00000000000E+00  0.00000000000E+00  0.45593999997E+02  0.45594000000E+02  0.51100000000E-03 0.  1.
         11   -1    0    0    0    0 -0.00000000000E+00 -0.00000000000E+00 -0.45593999997E+02  0.45594000000E+02  0.51100000000E-03 0. -1.
         23    2    1    2    0    0 -0.44408920985E-15  0.00000000000E+00  0.00000000000E+00  0.91188000000E+02  0.91188000000E+02 0.  0.
    9900012    2    3    3    0    0 -0.15875296792E+01  0.43352961436E+02 -0.12743527186E+01  0.47787268547E+02  0.19999988614E+02 0.  0.
        -12    1    3    3    0    0  0.15875296792E+01 -0.43352961436E+02  0.12743527186E+01  0.43400731453E+02  0.00000000000E+00 0.  1.
         11    1    4    4    0    0 -0.25377368795E+01  0.11923734235E+02  0.31382734584E+01  0.12588260688E+02  0.51100000000E-03 0. -1.
        -11    1    4    4    0    0 -0.52563692024E+01  0.26424766597E+02 -0.31308598284E+01  0.27123790119E+02  0.51100000000E-03 0.  1.
         12    1    4    4    0    0  0.62065764027E+01  0.50044606036E+01 -0.12817663486E+01  0.80752177400E+01  0.00000000000E+00 0. -1.
</event>
<event>
 8    1  0.1164123E-009  0.9118800E+02  0.7816164E-02  0.1184000E+00
        -11   -1    0    0    0    0  0.00000000000E+00  0.00000000000E+00  0.45593999997E+02  0.45594000000E+02  0.51100000000E-03 0. -1.
         11   -1    0    0    0    0 -0.00000000000E+00 -0.00000000000E+00 -0.45593999997E+02  0.45594000000E+02  0.51100000000E-03 0.  1.
         23    2    1    2    0    0  0.00000000000E+00 -0.17763568394E-14 -0.71054273576E-14  0.91188000000E+02  0.91188000000E+02 0.  0.
    9900012    2    3    3    0    0 -0.17904175839E+02  0.10382340618E+02 -0.38148013656E+02  0.47787268957E+02  0.19999990482E+02 0.  0.
         12    1    3    3    0    0  0.17904175839E+02 -0.10382340618E+02  0.38148013656E+02  0.43400731043E+02  0.00000000000E+00 0. -1.
         11    1    4    4    0    0 -0.19465647289E+01  0.10326606384E+02 -0.97121765528E+01  0.14309237831E+02  0.51100000000E-03 0. -1.
        -11    1    4    4    0    0 -0.31795216815E+01  0.19709705490E+01 -0.24924370214E+01  0.44951446690E+01  0.51100000000E-03 0.  1.
        -12    1    4    4    0    0 -0.12778089429E+02 -0.19152363146E+01 -0.25943400082E+02  0.28982886457E+02  0.00000000000E+00 0.  1.
</event>
<event>
 8    1  0.1164123E-009  0.9118800E+02  0.7816164E-02  0.1184000E+00
        -11   -1    0    0    0    0  0.00000000000E+00  0.00000000000E+00  0.45593999997E+02  0.45594000000E+02  0.51100000000E-03 0. -1.
         11   -1    0    0    0    0 -0.00000000000E+00 -0.00000000000E+00 -0.45593999997E+02  0.45594000000E+02  0.51100000000E-03 0.  1.
         23    2    1    2    0    0  0.17763568394E-14  0.00000000000E+00  0.00000000000E+00  0.91188000000E+02  0.91188000000E+02 0.  0.
    9900012    2    3    3    0    0  0.10768905879E+02  0.32536596815E+02 -0.26627465712E+02  0.47787292675E+02  0.20000098620E+02 0.  0.
         12    1    3    3    0    0 -0.10768905879E+02 -0.32536596815E+02  0.26627465712E+02  0.43400707325E+02  0.00000000000E+00 0. -1.
         11    1    4    4    0    0  0.59879081689E+01  0.53502486909E+01 -0.39357474577E+01  0.89426122361E+01  0.51100000000E-03 0. -1.
        -11    1    4    4    0    0  0.10295014600E+02  0.16932536641E+02 -0.13043492639E+02  0.23724055792E+02  0.51100000000E-03 0.  1.
         12    1    4    4    0    0 -0.55140168901E+01  0.10253811482E+02 -0.96482256150E+01  0.15120624646E+02  0.00000000000E+00 0. -1.
</event>
<event>
 8    1  0.1164123E-009  0.9118800E+02  0.7816164E-02  0.1184000E+00
        -11   -1    0    0    0    0  0.00000000000E+00  0.00000000000E+00  0.45593999997E+02  0.45594000000E+02  0.51100000000E-03 0. -1.
         11   -1    0    0    0    0 -0.00000000000E+00 -0.00000000000E+00 -0.45593999997E+02  0.45594000000E+02  0.51100000000E-03 0.  1.
         23    2    1    2    0    0  0.00000000000E+00  0.00000000000E+00  0.00000000000E+00  0.91188000000E+02  0.91188000000E+02 0.  0.
    9900012    2    3    3    0    0 -0.28825844397E+02 -0.16232190472E+02 -0.28092881611E+02  0.47787270629E+02  0.19999998106E+02 0.  0.
         12    1    3    3    0    0  0.28825844397E+02  0.16232190472E+02  0.28092881611E+02  0.43400729371E+02  0.00000000000E+00 0. -1.
         11    1    4    4    0    0 -0.97150188396E+01 -0.61332630201E+01 -0.81077286393E+01  0.14061784036E+02  0.51100000000E-03 0.  1.
        -11    1    4    4    0    0 -0.20601619312E+02 -0.61242459146E+01 -0.11834096817E+02  0.24535259404E+02  0.51100000000E-03 0. -1.
         12    1    4    4    0    0  0.14907937546E+01 -0.39746815373E+01 -0.81510561545E+01  0.91902271884E+01  0.00000000000E+00 0. -1.
</event>
<event>
 8    1  0.1164123E-009  0.9118800E+02  0.7816164E-02  0.1184000E+00
        -11   -1    0    0    0    0  0.00000000000E+00  0.00000000000E+00  0.45593999997E+02  0.45594000000E+02  0.51100000000E-03 0. -1.
         11   -1    0    0    0    0 -0.00000000000E+00 -0.00000000000E+00 -0.45593999997E+02  0.45594000000E+02  0.51100000000E-03 0.  1.
         23    2    1    2    0    0  0.00000000000E+00  0.00000000000E+00 -0.88817841970E-15  0.91188000000E+02  0.91188000000E+02 0.  0.
    9900012    2    3    3    0    0  0.41556869618E+02 -0.10262687131E+02  0.71643244240E+01  0.47787266089E+02  0.19999977405E+02 0.  0.
        -12    1    3    3    0    0 -0.41556869618E+02  0.10262687131E+02 -0.71643244240E+01  0.43400733911E+02  0.00000000000E+00 0.  1.
         11    1    4    4    0    0  0.15289901475E+02 -0.47067948826E+01  0.11378563355E+02  0.19631778052E+02  0.51100000000E-03 0. -1.
        -11    1    4    4    0    0  0.76449430651E+01 -0.90282444026E+00  0.20469318080E+01  0.79655619090E+01  0.51100000000E-03 0.  1.
        -12    1    4    4    0    0  0.18622025078E+02 -0.46530678085E+01 -0.62611707393E+01  0.20189926128E+02  0.00000000000E+00 0.  1.
</event>
<event>
 8    1  0.1164123E-009  0.9118800E+02  0.7816164E-02  0.1184000E+00
        -11   -1    0    0    0    0  0.00000000000E+00  0.00000000000E+00  0.45593999997E+02  0.45594000000E+02  0.51100000000E-03 0. -1.
         11   -1    0    0    0    0 -0.00000000000E+00 -0.00000000000E+00 -0.45593999997E+02  0.45594000000E+02  0.51100000000E-03 0.  1.
         23    2    1    2    0    0 -0.35527136788E-14 -0.35527136788E-14  0.00000000000E+00  0.91188000000E+02  0.91188000000E+02 0.  0.
    9900012    2    3    3    0    0  0.25850969162E+02  0.24449792680E+02  0.24850721394E+02  0.47787270484E+02  0.19999997446E+02 0.  0.
        -12    1    3    3    0    0 -0.25850969162E+02 -0.24449792680E+02 -0.24850721394E+02  0.43400729516E+02  0.00000000000E+00 0.  1.
         11    1    4    4    0    0  0.21893308649E+02  0.26677012613E+02  0.19364049131E+02  0.39572040187E+02  0.51100000000E-03 0. -1.
        -11    1    4    4    0    0  0.17160318163E+01 -0.37404690275E+00  0.49569795330E+01  0.52589278976E+01  0.51100000000E-03 0.  1.
         12    1    4    4    0    0  0.22416286962E+01 -0.18531730299E+01  0.52969273039E+00  0.29563023998E+01  0.00000000000E+00 0. -1.
</event>
<event>
 8    1  0.1164123E-009  0.9118800E+02  0.7816164E-02  0.1184000E+00
        -11   -1    0    0    0    0  0.00000000000E+00  0.00000000000E+00  0.45593999997E+02  0.45594000000E+02  0.51100000000E-03 0. -1.
         11   -1    0    0    0    0 -0.00000000000E+00 -0.00000000000E+00 -0.45593999997E+02  0.45594000000E+02  0.51100000000E-03 0.  1.
         23    2    1    2    0    0  0.35527136788E-14  0.00000000000E+00  0.35527136788E-14  0.91188000000E+02  0.91188000000E+02 0.  0.
    9900012    2    3    3    0    0 -0.27611612750E+02 -0.27176532171E+02 -0.19561648952E+02  0.47787272250E+02  0.20000005496E+02 0.  0.
         12    1    3    3    0    0  0.27611612750E+02  0.27176532171E+02  0.19561648952E+02  0.43400727750E+02  0.00000000000E+00 0. -1.
         11    1    4    4    0    0 -0.26939144927E+01  0.46819996818E+00 -0.50249696560E+01  0.57207260736E+01  0.51100000000E-03 0. -1.
        -11    1    4    4    0    0 -0.12385133600E+02 -0.15869334639E+02 -0.14604016402E+02  0.24869752944E+02  0.51100000000E-03 0.  1.
        -12    1    4    4    0    0 -0.12532564657E+02 -0.11775397500E+02  0.67337105905E-01  0.17196793232E+02  0.00000000000E+00 0.  1.
</event>
<event>
 8    1  0.1164123E-009  0.9118800E+02  0.7816164E-02  0.1184000E+00
        -11   -1    0    0    0    0  0.00000000000E+00  0.00000000000E+00  0.45593999997E+02  0.45594000000E+02  0.51100000000E-03 0. -1.
         11   -1    0    0    0    0 -0.00000000000E+00 -0.00000000000E+00 -0.45593999997E+02  0.45594000000E+02  0.51100000000E-03 0.  1.
         23    2    1    2    0    0 -0.55511151231E-15  0.00000000000E+00  0.00000000000E+00  0.91188000000E+02  0.91188000000E+02 0.  0.
    9900012    2    3    3    0    0  0.95034210654E+00  0.36521518177E+02  0.23428594927E+02  0.47787268436E+02  0.19999988108E+02 0.  0.
        -12    1    3    3    0    0 -0.95034210654E+00 -0.36521518177E+02 -0.23428594927E+02  0.43400731564E+02  0.00000000000E+00 0.  1.
         11    1    4    4    0    0 -0.70023290562E+01  0.19101105218E+02  0.53029161452E+01  0.21023932854E+02  0.51100000000E-03 0.  1.
        -11    1    4    4    0    0  0.21932441752E+01  0.95166977575E+01  0.74341042062E+01  0.12273702043E+02  0.51100000000E-03 0. -1.
        -12    1    4    4    0    0  0.57594269875E+01  0.79037152012E+01  0.10691574575E+02  0.14489633539E+02  0.00000000000E+00 0.  1.
</event>
<event>
 8    1  0.1164123E-009  0.9118800E+02  0.7816164E-02  0.1184000E+00
        -11   -1    0    0    0    0  0.00000000000E+00  0.00000000000E+00  0.45593999997E+02  0.45594000000E+02  0.51100000000E-03 0. -1.
         11   -1    0    0    0    0 -0.00000000000E+00 -0.00000000000E+00 -0.45593999997E+02  0.45594000000E+02  0.51100000000E-03 0.  1.
         23    2    1    2    0    0  0.00000000000E+00  0.00000000000E+00  0.00000000000E+00  0.91188000000E+02  0.91188000000E+02 0.  0.
    9900012    2    3    3    0    0  0.22383467075E+01 -0.22673609954E+02  0.36939420043E+02  0.47787268007E+02  0.19999986153E+02 0.  0.
        -12    1    3    3    0    0 -0.22383467075E+01  0.22673609954E+02 -0.36939420043E+02  0.43400731993E+02  0.00000000000E+00 0.  1.
         11    1    4    4    0    0 -0.52568752050E-01 -0.20519386245E+02  0.22383247497E+02  0.30365403737E+02  0.51100000000E-03 0. -1.
        -11    1    4    4    0    0  0.16976073465E+01 -0.32213868871E+01  0.95294447478E+00  0.37639484072E+01  0.51100000000E-03 0.  1.
        -12    1    4    4    0    0  0.59330811309E+00  0.10671631775E+01  0.13603228071E+02  0.13657915863E+02  0.00000000000E+00 0.  1.
</event>
<event>
 8    1  0.1164123E-009  0.9118800E+02  0.7816164E-02  0.1184000E+00
        -11   -1    0    0    0    0  0.00000000000E+00  0.00000000000E+00  0.45593999997E+02  0.45594000000E+02  0.51100000000E-03 0. -1.
         11   -1    0    0    0    0 -0.00000000000E+00 -0.00000000000E+00 -0.45593999997E+02  0.45594000000E+02  0.51100000000E-03 0.  1.
         23    2    1    2    0    0  0.00000000000E+00  0.00000000000E+00  0.35527136788E-14  0.91188000000E+02  0.91188000000E+02 0.  0.
    9900012    2    3    3    0    0 -0.36862162794E+02 -0.16196359402E+02  0.16201285007E+02  0.47787277199E+02  0.20000028063E+02 0.  0.
        -12    1    3    3    0    0  0.36862162794E+02  0.16196359402E+02 -0.16201285007E+02  0.43400722801E+02  0.00000000000E+00 0.  1.
         11    1    4    4    0    0 -0.11863713292E+02 -0.32010440616E+01  0.10086766909E+02  0.15897711882E+02  0.51100000000E-03 0. -1.
        -11    1    4    4    0    0 -0.14031604865E+02 -0.25082966238E+00  0.54746935450E+01  0.15063901231E+02  0.51100000000E-03 0.  1.
         12    1    4    4    0    0 -0.10966844637E+02 -0.12744485678E+02  0.63982455273E+00  0.16825664086E+02  0.00000000000E+00 0. -1.
</event>
<event>
 8    1  0.1164123E-009  0.9118800E+02  0.7816164E-02  0.1184000E+00
        -11   -1    0    0    0    0  0.00000000000E+00  0.00000000000E+00  0.45593999997E+02  0.45594000000E+02  0.51100000000E-03 0.  1.
         11   -1    0    0    0    0 -0.00000000000E+00 -0.00000000000E+00 -0.45593999997E+02  0.45594000000E+02  0.51100000000E-03 0. -1.
         23    2    1    2    0    0  0.35527136788E-14  0.00000000000E+00  0.00000000000E+00  0.91188000000E+02  0.91188000000E+02 0.  0.
    9900012    2    3    3    0    0  0.28351964193E+02 -0.31369257437E+02  0.97858084858E+01  0.47787236948E+02  0.19999844542E+02 0.  0.
        -12    1    3    3    0    0 -0.28351964193E+02  0.31369257437E+02 -0.97858084858E+01  0.43400763052E+02  0.00000000000E+00 0.  1.
         11    1    4    4    0    0 -0.46120302487E+00 -0.24755178517E+01  0.42869336867E+01  0.49717901765E+01  0.51100000000E-03 0. -1.
        -11    1    4    4    0    0  0.89349630941E+01 -0.10373342200E+02  0.74317598667E+01  0.15577896163E+02  0.51100000000E-03 0.  1.
         12    1    4    4    0    0  0.19878204124E+02 -0.18520397385E+02 -0.19328850676E+01  0.27237550609E+02  0.00000000000E+00 0. -1.
</event>
<event>
 8    1  0.1164123E-009  0.9118800E+02  0.7816164E-02  0.1184000E+00
        -11   -1    0    0    0    0  0.00000000000E+00  0.00000000000E+00  0.45593999997E+02  0.45594000000E+02  0.51100000000E-03 0. -1.
         11   -1    0    0    0    0 -0.00000000000E+00 -0.00000000000E+00 -0.45593999997E+02  0.45594000000E+02  0.51100000000E-03 0.  1.
         23    2    1    2    0    0  0.17763568394E-14  0.88817841970E-15  0.00000000000E+00  0.91188000000E+02  0.91188000000E+02 0.  0.
    9900012    2    3    3    0    0  0.10217679832E+02  0.59695820679E+01 -0.41756271174E+02  0.47787273352E+02  0.20000010520E+02 0.  0.
         12    1    3    3    0    0 -0.10217679832E+02 -0.59695820679E+01  0.41756271174E+02  0.43400726648E+02  0.00000000000E+00 0. -1.
         11    1    4    4    0    0 -0.20570056878E+01 -0.33878184983E+01 -0.15304998366E+02  0.15809856477E+02  0.51100000000E-03 0. -1.
        -11    1    4    4    0    0  0.43248037413E+01  0.38307123494E+01 -0.18707801680E+02  0.19579584481E+02  0.51100000000E-03 0.  1.
        -12    1    4    4    0    0  0.79498817788E+01  0.55266882169E+01 -0.77434711291E+01  0.12397832394E+02  0.00000000000E+00 0.  1.
</event>
<event>
 8    1  0.1164123E-009  0.9118800E+02  0.7816164E-02  0.1184000E+00
        -11   -1    0    0    0    0  0.00000000000E+00  0.00000000000E+00  0.45593999997E+02  0.45594000000E+02  0.51100000000E-03 0. -1.
         11   -1    0    0    0    0 -0.00000000000E+00 -0.00000000000E+00 -0.45593999997E+02  0.45594000000E+02  0.51100000000E-03 0.  1.
         23    2    1    2    0    0  0.35527136788E-14 -0.22204460493E-15  0.00000000000E+00  0.91188000000E+02  0.91188000000E+02 0.  0.
    9900012    2    3    3    0    0  0.30053469208E+02  0.12424301970E+01  0.31286879415E+02  0.47787268811E+02  0.19999989815E+02 0.  0.
        -12    1    3    3    0    0 -0.30053469208E+02 -0.12424301970E+01 -0.31286879415E+02  0.43400731189E+02  0.00000000000E+00 0.  1.
         11    1    4    4    0    0  0.15014177251E+01 -0.22171671344E+01  0.34433966044E+01  0.43620024901E+01  0.51100000000E-03 0. -1.
        -11    1    4    4    0    0  0.20766992358E+01  0.53098466253E+01  0.12151097127E+01  0.58295491057E+01  0.51100000000E-03 0.  1.
         12    1    4    4    0    0  0.26475352247E+02 -0.18502492939E+01  0.26628373098E+02  0.37595717215E+02  0.00000000000E+00 0. -1.
</event>
<event>
 8    1  0.1164123E-009  0.9118800E+02  0.7816164E-02  0.1184000E+00
        -11   -1    0    0    0    0  0.00000000000E+00  0.00000000000E+00  0.45593999997E+02  0.45594000000E+02  0.51100000000E-03 0. -1.
         11   -1    0    0    0    0 -0.00000000000E+00 -0.00000000000E+00 -0.45593999997E+02  0.45594000000E+02  0.51100000000E-03 0.  1.
         23    2    1    2    0    0  0.11102230246E-15  0.00000000000E+00  0.71054273576E-14  0.91188000000E+02  0.91188000000E+02 0.  0.
    9900012    2    3    3    0    0  0.75144123816E+00  0.20021642895E+02 -0.38499251694E+02  0.47787271559E+02  0.20000002348E+02 0.  0.
         12    1    3    3    0    0 -0.75144123816E+00 -0.20021642895E+02  0.38499251694E+02  0.43400728441E+02  0.00000000000E+00 0. -1.
         11    1    4    4    0    0 -0.12882204385E+01  0.49372747885E+01 -0.11741071645E+02  0.12801912274E+02  0.51100000000E-03 0. -1.
        -11    1    4    4    0    0 -0.28829154065E+01  0.16251760926E+02 -0.15498930952E+02  0.22641726863E+02  0.51100000000E-03 0.  1.
         12    1    4    4    0    0  0.49225770832E+01 -0.11673928195E+01 -0.11259249098E+02  0.12343632423E+02  0.00000000000E+00 0. -1.
</event>
<event>
 8    1  0.1164123E-009  0.9118800E+02  0.7816164E-02  0.1184000E+00
        -11   -1    0    0    0    0  0.00000000000E+00  0.00000000000E+00  0.45593999997E+02  0.45594000000E+02  0.51100000000E-03 0. -1.
         11   -1    0    0    0    0 -0.00000000000E+00 -0.00000000000E+00 -0.45593999997E+02  0.45594000000E+02  0.51100000000E-03 0.  1.
         23    2    1    2    0    0 -0.22204460493E-15  0.00000000000E+00 -0.35527136788E-14  0.91188000000E+02  0.91188000000E+02 0.  0.
    9900012    2    3    3    0    0  0.18484939068E+01 -0.35983792030E+02 -0.24194491269E+02  0.47787266984E+02  0.19999981487E+02 0.  0.
         12    1    3    3    0    0 -0.18484939068E+01  0.35983792030E+02  0.24194491269E+02  0.43400733016E+02  0.00000000000E+00 0. -1.
         11    1    4    4    0    0 -0.16108677327E+01 -0.12273828001E+02 -0.39572578678E+01  0.12996216324E+02  0.51100000000E-03 0. -1.
        -11    1    4    4    0    0 -0.33465811384E+01 -0.19382606044E+02 -0.17339721539E+02  0.26221193064E+02  0.51100000000E-03 0.  1.
         12    1    4    4    0    0  0.68059427778E+01 -0.43273579846E+01 -0.28975118621E+01  0.85698575959E+01  0.00000000000E+00 0. -1.
</event>
<event>
 8    1  0.1164123E-009  0.9118800E+02  0.7816164E-02  0.1184000E+00
        -11   -1    0    0    0    0  0.00000000000E+00  0.00000000000E+00  0.45593999997E+02  0.45594000000E+02  0.51100000000E-03 0. -1.
         11   -1    0    0    0    0 -0.00000000000E+00 -0.00000000000E+00 -0.45593999997E+02  0.45594000000E+02  0.51100000000E-03 0.  1.
         23    2    1    2    0    0 -0.17763568394E-14  0.00000000000E+00  0.00000000000E+00  0.91188000000E+02  0.91188000000E+02 0.  0.
    9900012    2    3    3    0    0  0.55721924556E+01  0.28729598352E+02  0.32049730666E+02  0.47787258232E+02  0.19999941584E+02 0.  0.
        -12    1    3    3    0    0 -0.55721924556E+01 -0.28729598352E+02 -0.32049730666E+02  0.43400741768E+02  0.00000000000E+00 0.  1.
         11    1    4    4    0    0  0.10025376937E+02  0.14833907276E+02  0.10133812157E+02  0.20572971028E+02  0.51100000000E-03 0. -1.
        -11    1    4    4    0    0 -0.87550227862E+00  0.84543946817E+01  0.72653766751E+01  0.11181636381E+02  0.51100000000E-03 0.  1.
         12    1    4    4    0    0 -0.35776822028E+01  0.54412963940E+01  0.14650541834E+02  0.16032650823E+02  0.00000000000E+00 0. -1.
</event>
<event>
 8    1  0.1164123E-009  0.9118800E+02  0.7816164E-02  0.1184000E+00
        -11   -1    0    0    0    0  0.00000000000E+00  0.00000000000E+00  0.45593999997E+02  0.45594000000E+02  0.51100000000E-03 0. -1.
         11   -1    0    0    0    0 -0.00000000000E+00 -0.00000000000E+00 -0.45593999997E+02  0.45594000000E+02  0.51100000000E-03 0.  1.
         23    2    1    2    0    0  0.00000000000E+00  0.00000000000E+00  0.00000000000E+00  0.91188000000E+02  0.91188000000E+02 0.  0.
    9900012    2    3    3    0    0 -0.21727554272E+02  0.25936604074E+02  0.27181410730E+02  0.47787272646E+02  0.20000007303E+02 0.  0.
        -12    1    3    3    0    0  0.21727554272E+02 -0.25936604074E+02 -0.27181410730E+02  0.43400727354E+02  0.00000000000E+00 0.  1.
         11    1    4    4    0    0 -0.92908200902E+01  0.11293710340E+02  0.14454781038E+02  0.20562293800E+02  0.51100000000E-03 0. -1.
        -11    1    4    4    0    0 -0.15235993923E+02  0.90620839590E+01  0.83174743519E+01  0.19581553982E+02  0.51100000000E-03 0.  1.
        -12    1    4    4    0    0  0.27992597406E+01  0.55808097753E+01  0.44091553406E+01  0.76434248646E+01  0.00000000000E+00 0.  1.
</event>
<event>
 8    1  0.1164123E-009  0.9118800E+02  0.7816164E-02  0.1184000E+00
        -11   -1    0    0    0    0  0.00000000000E+00  0.00000000000E+00  0.45593999997E+02  0.45594000000E+02  0.51100000000E-03 0. -1.
         11   -1    0    0    0    0 -0.00000000000E+00 -0.00000000000E+00 -0.45593999997E+02  0.45594000000E+02  0.51100000000E-03 0.  1.
         23    2    1    2    0    0  0.00000000000E+00  0.00000000000E+00 -0.17763568394E-14  0.91188000000E+02  0.91188000000E+02 0.  0.
    9900012    2    3    3    0    0 -0.40981251419E+02  0.95343218236E+01  0.10642221796E+02  0.47787272526E+02  0.20000006754E+02 0.  0.
        -12    1    3    3    0    0  0.40981251419E+02 -0.95343218236E+01 -0.10642221796E+02  0.43400727474E+02  0.00000000000E+00 0.  1.
         11    1    4    4    0    0 -0.33400048826E+01  0.36092814767E+01  0.33268728958E+01  0.59372240079E+01  0.51100000000E-03 0. -1.
        -11    1    4    4    0    0 -0.33010452872E+01  0.55970040412E+01 -0.84331468969E+00  0.65524448988E+01  0.51100000000E-03 0.  1.
         12    1    4    4    0    0 -0.34340201250E+02  0.32803630570E+00  0.81586635901E+01  0.35297603619E+02  0.00000000000E+00 0. -1.
</event>
<event>
 8    1  0.1164123E-009  0.9118800E+02  0.7816164E-02  0.1184000E+00
        -11   -1    0    0    0    0  0.00000000000E+00  0.00000000000E+00  0.45593999997E+02  0.45594000000E+02  0.51100000000E-03 0. -1.
         11   -1    0    0    0    0 -0.00000000000E+00 -0.00000000000E+00 -0.45593999997E+02  0.45594000000E+02  0.51100000000E-03 0.  1.
         23    2    1    2    0    0  0.44408920985E-15  0.71054273576E-14  0.71054273576E-14  0.91188000000E+02  0.91188000000E+02 0.  0.
    9900012    2    3    3    0    0  0.19194931412E+01  0.19200501249E+02  0.38875179500E+02  0.47787270936E+02  0.19999999506E+02 0.  0.
        -12    1    3    3    0    0 -0.19194931412E+01 -0.19200501249E+02 -0.38875179500E+02  0.43400729064E+02  0.00000000000E+00 0.  1.
         11    1    4    4    0    0  0.58390273813E+01  0.33250578223E+01  0.11603747960E+02  0.13408848469E+02  0.51100000000E-03 0. -1.
        -11    1    4    4    0    0 -0.75833207528E+01  0.14092815643E+02  0.25082862603E+02  0.29753389774E+02  0.51100000000E-03 0.  1.
        -12    1    4    4    0    0  0.36637865128E+01  0.17826277840E+01  0.21885689361E+01  0.46250326935E+01  0.00000000000E+00 0.  1.
</event>
<event>
 8    1  0.1164123E-009  0.9118800E+02  0.7816164E-02  0.1184000E+00
        -11   -1    0    0    0    0  0.00000000000E+00  0.00000000000E+00  0.45593999997E+02  0.45594000000E+02  0.51100000000E-03 0. -1.
         11   -1    0    0    0    0 -0.00000000000E+00 -0.00000000000E+00 -0.45593999997E+02  0.45594000000E+02  0.51100000000E-03 0.  1.
         23    2    1    2    0    0  0.35527136788E-14 -0.35527136788E-14  0.35527136788E-14  0.91188000000E+02  0.91188000000E+02 0.  0.
    9900012    2    3    3    0    0  0.22433512482E+02 -0.24742716868E+02  0.27715675242E+02  0.47787272190E+02  0.20000005224E+02 0.  0.
        -12    1    3    3    0    0 -0.22433512482E+02  0.24742716868E+02 -0.27715675242E+02  0.43400727810E+02  0.00000000000E+00 0.  1.
         11    1    4    4    0    0  0.10343462340E+02 -0.71533813275E+01  0.21152945626E+02  0.24609046843E+02  0.51100000000E-03 0.  1.
        -11    1    4    4    0    0  0.79826521379E+00 -0.92010680146E+00  0.22933716285E+01  0.25968014104E+01  0.51100000000E-03 0. -1.
        -12    1    4    4    0    0  0.11291784928E+02 -0.16669228739E+02  0.42693579871E+01  0.20581423937E+02  0.00000000000E+00 0.  1.
</event>
<event>
 8    1  0.1164123E-009  0.9118800E+02  0.7816164E-02  0.1184000E+00
        -11   -1    0    0    0    0  0.00000000000E+00  0.00000000000E+00  0.45593999997E+02  0.45594000000E+02  0.51100000000E-03 0.  1.
         11   -1    0    0    0    0 -0.00000000000E+00 -0.00000000000E+00 -0.45593999997E+02  0.45594000000E+02  0.51100000000E-03 0. -1.
         23    2    1    2    0    0  0.00000000000E+00  0.00000000000E+00  0.00000000000E+00  0.91188000000E+02  0.91188000000E+02 0.  0.
    9900012    2    3    3    0    0 -0.32460501415E+02  0.22566381028E+02 -0.17908032611E+02  0.47787270320E+02  0.19999996696E+02 0.  0.
         12    1    3    3    0    0  0.32460501415E+02 -0.22566381028E+02  0.17908032611E+02  0.43400729680E+02  0.00000000000E+00 0. -1.
         11    1    4    4    0    0  0.92016551582E+00  0.41040912261E+01 -0.41741458069E+00  0.42266422326E+01  0.51100000000E-03 0. -1.
        -11    1    4    4    0    0 -0.17079434969E+02  0.13259854565E+02 -0.45222093889E+01  0.22090296964E+02  0.51100000000E-03 0.  1.
         12    1    4    4    0    0 -0.16301231962E+02  0.52024352367E+01 -0.12968408641E+02  0.21470331123E+02  0.00000000000E+00 0. -1.
</event>
<event>
 8    1  0.1164123E-009  0.9118800E+02  0.7816164E-02  0.1184000E+00
        -11   -1    0    0    0    0  0.00000000000E+00  0.00000000000E+00  0.45593999997E+02  0.45594000000E+02  0.51100000000E-03 0. -1.
         11   -1    0    0    0    0 -0.00000000000E+00 -0.00000000000E+00 -0.45593999997E+02  0.45594000000E+02  0.51100000000E-03 0.  1.
         23    2    1    2    0    0  0.88817841970E-15 -0.83266726847E-15 -0.71054273576E-14  0.91188000000E+02  0.91188000000E+02 0.  0.
    9900012    2    3    3    0    0 -0.57893330790E+01  0.32306025619E+00  0.43011658593E+02  0.47787268205E+02  0.19999987052E+02 0.  0.
        -12    1    3    3    0    0  0.57893330790E+01 -0.32306025619E+00 -0.43011658593E+02  0.43400731795E+02  0.00000000000E+00 0.  1.
         11    1    4    4    0    0  0.12010452894E+01  0.15486847908E+01  0.96342815605E+01  0.98315978262E+01  0.51100000000E-03 0. -1.
        -11    1    4    4    0    0 -0.71289293318E+01  0.50293092219E+01  0.29092636473E+02  0.30372637058E+02  0.51100000000E-03 0.  1.
         12    1    4    4    0    0  0.13855096337E+00 -0.62549337565E+01  0.42847405602E+01  0.75830333203E+01  0.00000000000E+00 0. -1.
</event>
<event>
 8    1  0.1164123E-009  0.9118800E+02  0.7816164E-02  0.1184000E+00
        -11   -1    0    0    0    0  0.00000000000E+00  0.00000000000E+00  0.45593999997E+02  0.45594000000E+02  0.51100000000E-03 0. -1.
         11   -1    0    0    0    0 -0.00000000000E+00 -0.00000000000E+00 -0.45593999997E+02  0.45594000000E+02  0.51100000000E-03 0.  1.
         23    2    1    2    0    0  0.00000000000E+00  0.00000000000E+00  0.00000000000E+00  0.91188000000E+02  0.91188000000E+02 0.  0.
    9900012    2    3    3    0    0  0.15062977897E+02  0.78235998189E+01 -0.39943975308E+02  0.47787272118E+02  0.20000004895E+02 0.  0.
         12    1    3    3    0    0 -0.15062977897E+02 -0.78235998189E+01  0.39943975308E+02  0.43400727882E+02  0.00000000000E+00 0. -1.
         11    1    4    4    0    0  0.19409847138E+00  0.32892794172E+01  0.10502913081E+01  0.34583443140E+01  0.51100000000E-03 0. -1.
        -11    1    4    4    0    0 -0.25503766501E+00 -0.45750750753E+00 -0.42419383358E+01  0.42741547043E+01  0.51100000000E-03 0.  1.
        -12    1    4    4    0    0  0.15123917090E+02  0.49918279093E+01 -0.36752328281E+02  0.40054773100E+02  0.00000000000E+00 0.  1.
</event>
<event>
 8    1  0.1164123E-009  0.9118800E+02  0.7816164E-02  0.1184000E+00
        -11   -1    0    0    0    0  0.00000000000E+00  0.00000000000E+00  0.45593999997E+02  0.45594000000E+02  0.51100000000E-03 0. -1.
         11   -1    0    0    0    0 -0.00000000000E+00 -0.00000000000E+00 -0.45593999997E+02  0.45594000000E+02  0.51100000000E-03 0.  1.
         23    2    1    2    0    0  0.88817841970E-15  0.00000000000E+00  0.00000000000E+00  0.91188000000E+02  0.91188000000E+02 0.  0.
    9900012    2    3    3    0    0  0.62801956025E+01 -0.22880998773E+02  0.36340646683E+02  0.47787267714E+02  0.19999984815E+02 0.  0.
        -12    1    3    3    0    0 -0.62801956025E+01  0.22880998773E+02 -0.36340646683E+02  0.43400732286E+02  0.00000000000E+00 0.  1.
         11    1    4    4    0    0  0.55828127309E-01 -0.77111688389E+01  0.13760211465E+02  0.15773669880E+02  0.51100000000E-03 0. -1.
        -11    1    4    4    0    0 -0.32476313199E+01 -0.11851074114E+02  0.95318522722E+01  0.15551568244E+02  0.51100000000E-03 0.  1.
        -12    1    4    4    0    0  0.94719987950E+01 -0.33187558201E+01  0.13048582945E+02  0.16462029591E+02  0.00000000000E+00 0.  1.
</event>
<event>
 8    1  0.1164123E-009  0.9118800E+02  0.7816164E-02  0.1184000E+00
        -11   -1    0    0    0    0  0.00000000000E+00  0.00000000000E+00  0.45593999997E+02  0.45594000000E+02  0.51100000000E-03 0.  1.
         11   -1    0    0    0    0 -0.00000000000E+00 -0.00000000000E+00 -0.45593999997E+02  0.45594000000E+02  0.51100000000E-03 0. -1.
         23    2    1    2    0    0  0.00000000000E+00 -0.71054273576E-14 -0.17763568394E-14  0.91188000000E+02  0.91188000000E+02 0.  0.
    9900012    2    3    3    0    0 -0.13900222187E+02  0.38461429540E+02  0.14530154771E+02  0.47787272624E+02  0.20000007200E+02 0.  0.
        -12    1    3    3    0    0  0.13900222187E+02 -0.38461429540E+02 -0.14530154771E+02  0.43400727376E+02  0.00000000000E+00 0.  1.
         11    1    4    4    0    0 -0.11905337729E+02  0.13927365576E+02  0.27306382717E+01  0.18524712250E+02  0.51100000000E-03 0. -1.
        -11    1    4    4    0    0  0.51261011564E+00 -0.49334666269E+00 -0.84977917729E+00  0.11082801864E+01  0.51100000000E-03 0.  1.
        -12    1    4    4    0    0 -0.25074945740E+01  0.25027410627E+02  0.12649295677E+02  0.28154280187E+02  0.00000000000E+00 0.  1.
</event>
<event>
 8    1  0.1164123E-009  0.9118800E+02  0.7816164E-02  0.1184000E+00
        -11   -1    0    0    0    0  0.00000000000E+00  0.00000000000E+00  0.45593999997E+02  0.45594000000E+02  0.51100000000E-03 0. -1.
         11   -1    0    0    0    0 -0.00000000000E+00 -0.00000000000E+00 -0.45593999997E+02  0.45594000000E+02  0.51100000000E-03 0.  1.
         23    2    1    2    0    0  0.00000000000E+00  0.00000000000E+00  0.00000000000E+00  0.91188000000E+02  0.91188000000E+02 0.  0.
    9900012    2    3    3    0    0  0.35510621070E+02 -0.18878589148E+02  0.16316193565E+02  0.47787268331E+02  0.19999987626E+02 0.  0.
        -12    1    3    3    0    0 -0.35510621070E+02  0.18878589148E+02 -0.16316193565E+02  0.43400731669E+02  0.00000000000E+00 0.  1.
         11    1    4    4    0    0  0.46680577411E+01 -0.67215339157E+01  0.68026488240E+01  0.10641701581E+02  0.51100000000E-03 0.  1.
        -11    1    4    4    0    0  0.76205238616E+01 -0.99344090296E+01  0.23220800583E+01  0.12734085077E+02  0.51100000000E-03 0. -1.
        -12    1    4    4    0    0  0.23222039467E+02 -0.22226462027E+01  0.71914646829E+01  0.24411481672E+02  0.00000000000E+00 0.  1.
</event>
<event>
 8    1  0.1164123E-009  0.9118800E+02  0.7816164E-02  0.1184000E+00
        -11   -1    0    0    0    0  0.00000000000E+00  0.00000000000E+00  0.45593999997E+02  0.45594000000E+02  0.51100000000E-03 0. -1.
         11   -1    0    0    0    0 -0.00000000000E+00 -0.00000000000E+00 -0.45593999997E+02  0.45594000000E+02  0.51100000000E-03 0.  1.
         23    2    1    2    0    0  0.00000000000E+00  0.71054273576E-14  0.00000000000E+00  0.91188000000E+02  0.91188000000E+02 0.  0.
    9900012    2    3    3    0    0  0.38357134964E+01 -0.35079192238E+02  0.25265799040E+02  0.47787273886E+02  0.20000012957E+02 0.  0.
        -12    1    3    3    0    0 -0.38357134964E+01  0.35079192238E+02 -0.25265799040E+02  0.43400726114E+02  0.00000000000E+00 0.  1.
         11    1    4    4    0    0  0.25637456442E+01 -0.22225619978E+02  0.14804316890E+02  0.26827574880E+02  0.51100000000E-03 0. -1.
        -11    1    4    4    0    0 -0.46882001069E+01 -0.74337386217E+01  0.93421639748E+01  0.12826368080E+02  0.51100000000E-03 0.  1.
         12    1    4    4    0    0  0.59601679592E+01 -0.54198336377E+01  0.11193181758E+01  0.81333309254E+01  0.00000000000E+00 0. -1.
</event>
<event>
 8    1  0.1164123E-009  0.9118800E+02  0.7816164E-02  0.1184000E+00
        -11   -1    0    0    0    0  0.00000000000E+00  0.00000000000E+00  0.45593999997E+02  0.45594000000E+02  0.51100000000E-03 0. -1.
         11   -1    0    0    0    0 -0.00000000000E+00 -0.00000000000E+00 -0.45593999997E+02  0.45594000000E+02  0.51100000000E-03 0.  1.
         23    2    1    2    0    0  0.00000000000E+00  0.00000000000E+00  0.00000000000E+00  0.91188000000E+02  0.91188000000E+02 0.  0.
    9900012    2    3    3    0    0 -0.52922186509E+01 -0.28633691092E+02 -0.32182719560E+02  0.47787270950E+02  0.19999999571E+02 0.  0.
         12    1    3    3    0    0  0.52922186509E+01  0.28633691092E+02  0.32182719560E+02  0.43400729050E+02  0.00000000000E+00 0. -1.
         11    1    4    4    0    0  0.12415482544E+01  0.15987151670E+01 -0.72717414148E+01  0.75482153995E+01  0.51100000000E-03 0. -1.
        -11    1    4    4    0    0 -0.23624345713E+01 -0.49832296871E+01 -0.74048135780E+01  0.92328186165E+01  0.51100000000E-03 0.  1.
        -12    1    4    4    0    0 -0.41713323340E+01 -0.25249176572E+02 -0.17506164567E+02  0.31006236934E+02  0.00000000000E+00 0.  1.
</event>
<event>
 8    1  0.1164123E-009  0.9118800E+02  0.7816164E-02  0.1184000E+00
        -11   -1    0    0    0    0  0.00000000000E+00  0.00000000000E+00  0.45593999997E+02  0.45594000000E+02  0.51100000000E-03 0. -1.
         11   -1    0    0    0    0 -0.00000000000E+00 -0.00000000000E+00 -0.45593999997E+02  0.45594000000E+02  0.51100000000E-03 0.  1.
         23    2    1    2    0    0  0.35527136788E-14  0.00000000000E+00 -0.35527136788E-14  0.91188000000E+02  0.91188000000E+02 0.  0.
    9900012    2    3    3    0    0 -0.30772743774E+02 -0.24199793755E+01  0.30509105559E+02  0.47787267500E+02  0.19999983838E+02 0.  0.
        -12    1    3    3    0    0  0.30772743774E+02  0.24199793755E+01 -0.30509105559E+02  0.43400732500E+02  0.00000000000E+00 0.  1.
         11    1    4    4    0    0 -0.26753376115E+02 -0.50405227943E+01  0.17547945928E+02  0.32389510804E+02  0.51100000000E-03 0. -1.
        -11    1    4    4    0    0 -0.48348262783E+01  0.25034812411E+01  0.49937259502E+01  0.73878455988E+01  0.51100000000E-03 0.  1.
         12    1    4    4    0    0  0.81545861924E+00  0.11706217778E+00  0.79674336814E+01  0.80099110969E+01  0.00000000000E+00 0. -1.
</event>
<event>
 8    1  0.1164123E-009  0.9118800E+02  0.7816164E-02  0.1184000E+00
        -11   -1    0    0    0    0  0.00000000000E+00  0.00000000000E+00  0.45593999997E+02  0.45594000000E+02  0.51100000000E-03 0. -1.
         11   -1    0    0    0    0 -0.00000000000E+00 -0.00000000000E+00 -0.45593999997E+02  0.45594000000E+02  0.51100000000E-03 0.  1.
         23    2    1    2    0    0 -0.17763568394E-14  0.00000000000E+00 -0.71054273576E-14  0.91188000000E+02  0.91188000000E+02 0.  0.
    9900012    2    3    3    0    0  0.14587255123E+02 -0.18542693127E+02  0.36428062212E+02  0.47787271931E+02  0.20000004043E+02 0.  0.
        -12    1    3    3    0    0 -0.14587255123E+02  0.18542693127E+02 -0.36428062212E+02  0.43400728069E+02  0.00000000000E+00 0.  1.
         11    1    4    4    0    0  0.65182611588E+01 -0.64420643624E+01  0.13132754569E+02  0.16014280022E+02  0.51100000000E-03 0. -1.
        -11    1    4    4    0    0  0.28781933996E+01  0.79965622218E+00  0.15593587980E+02  0.15877135563E+02  0.51100000000E-03 0.  1.
        -12    1    4    4    0    0  0.51908005641E+01 -0.12900284987E+02  0.77017196624E+01  0.15895856347E+02  0.00000000000E+00 0.  1.
</event>
<event>
 8    1  0.1164123E-009  0.9118800E+02  0.7816164E-02  0.1184000E+00
        -11   -1    0    0    0    0  0.00000000000E+00  0.00000000000E+00  0.45593999997E+02  0.45594000000E+02  0.51100000000E-03 0. -1.
         11   -1    0    0    0    0 -0.00000000000E+00 -0.00000000000E+00 -0.45593999997E+02  0.45594000000E+02  0.51100000000E-03 0.  1.
         23    2    1    2    0    0  0.35527136788E-14 -0.88817841970E-15  0.71054273576E-14  0.91188000000E+02  0.91188000000E+02 0.  0.
    9900012    2    3    3    0    0  0.22986006610E+02  0.68497462927E+01  0.36171086381E+02  0.47787274037E+02  0.20000013642E+02 0.  0.
        -12    1    3    3    0    0 -0.22986006610E+02 -0.68497462927E+01 -0.36171086381E+02  0.43400725963E+02  0.00000000000E+00 0.  1.
         11    1    4    4    0    0 -0.68751011373E+00  0.31767769472E+01  0.54625934264E+01  0.63564541320E+01  0.51100000000E-03 0. -1.
        -11    1    4    4    0    0  0.75336775502E+01 -0.48221028205E+01  0.14465109140E+02  0.17007303012E+02  0.51100000000E-03 0.  1.
         12    1    4    4    0    0  0.16139839174E+02  0.84950721660E+01  0.16243383815E+02  0.24423516893E+02  0.00000000000E+00 0. -1.
</event>
<event>
 8    1  0.1164123E-009  0.9118800E+02  0.7816164E-02  0.1184000E+00
        -11   -1    0    0    0    0  0.00000000000E+00  0.00000000000E+00  0.45593999997E+02  0.45594000000E+02  0.51100000000E-03 0. -1.
         11   -1    0    0    0    0 -0.00000000000E+00 -0.00000000000E+00 -0.45593999997E+02  0.45594000000E+02  0.51100000000E-03 0.  1.
         23    2    1    2    0    0  0.00000000000E+00  0.35527136788E-14  0.00000000000E+00  0.91188000000E+02  0.91188000000E+02 0.  0.
    9900012    2    3    3    0    0  0.26429205182E+02 -0.19034592163E+02 -0.28684573159E+02  0.47787270482E+02  0.19999997436E+02 0.  0.
         12    1    3    3    0    0 -0.26429205182E+02  0.19034592163E+02  0.28684573159E+02  0.43400729518E+02  0.00000000000E+00 0. -1.
         11    1    4    4    0    0  0.31398553444E+00  0.11438609979E+01 -0.97120665770E+00  0.15330517054E+01  0.51100000000E-03 0. -1.
        -11    1    4    4    0    0  0.12355156523E+02 -0.19513545474E+02 -0.15247035014E+02  0.27674906082E+02  0.51100000000E-03 0.  1.
         12    1    4    4    0    0  0.13760063125E+02 -0.66490768627E+00 -0.12466331488E+02  0.18579312694E+02  0.00000000000E+00 0. -1.
</event>
<event>
 8    1  0.1164123E-009  0.9118800E+02  0.7816164E-02  0.1184000E+00
        -11   -1    0    0    0    0  0.00000000000E+00  0.00000000000E+00  0.45593999997E+02  0.45594000000E+02  0.51100000000E-03 0. -1.
         11   -1    0    0    0    0 -0.00000000000E+00 -0.00000000000E+00 -0.45593999997E+02  0.45594000000E+02  0.51100000000E-03 0.  1.
         23    2    1    2    0    0 -0.11102230246E-14  0.35527136788E-14  0.00000000000E+00  0.91188000000E+02  0.91188000000E+02 0.  0.
    9900012    2    3    3    0    0 -0.15269390644E+01 -0.16952669588E+02  0.39923661750E+02  0.47787270553E+02  0.19999997758E+02 0.  0.
        -12    1    3    3    0    0  0.15269390644E+01  0.16952669588E+02 -0.39923661750E+02  0.43400729447E+02  0.00000000000E+00 0.  1.
         11    1    4    4    0    0 -0.35867387242E+01 -0.42691042551E+01  0.11384964842E+02  0.12677041079E+02  0.51100000000E-03 0. -1.
        -11    1    4    4    0    0 -0.68751598831E+01 -0.38195872016E+01  0.10815556298E+02  0.13372857889E+02  0.51100000000E-03 0.  1.
        -12    1    4    4    0    0  0.89349595429E+01 -0.88639781308E+01  0.17723140610E+02  0.21737371585E+02  0.00000000000E+00 0.  1.
</event>
<event>
 8    1  0.1164123E-009  0.9118800E+02  0.7816164E-02  0.1184000E+00
        -11   -1    0    0    0    0  0.00000000000E+00  0.00000000000E+00  0.45593999997E+02  0.45594000000E+02  0.51100000000E-03 0. -1.
         11   -1    0    0    0    0 -0.00000000000E+00 -0.00000000000E+00 -0.45593999997E+02  0.45594000000E+02  0.51100000000E-03 0.  1.
         23    2    1    2    0    0  0.00000000000E+00  0.00000000000E+00 -0.71054273576E-14  0.91188000000E+02  0.91188000000E+02 0.  0.
    9900012    2    3    3    0    0 -0.20509046297E+02  0.18271426391E+02  0.33602931670E+02  0.47787273978E+02  0.20000013377E+02 0.  0.
        -12    1    3    3    0    0  0.20509046297E+02 -0.18271426391E+02 -0.33602931670E+02  0.43400726022E+02  0.00000000000E+00 0.  1.
         11    1    4    4    0    0 -0.37352132724E+01  0.70560439167E+01  0.16548209249E+02  0.18373426560E+02  0.51100000000E-03 0. -1.
        -11    1    4    4    0    0 -0.79000831339E+01  0.79763818549E+01  0.16492335145E+02  0.19950716774E+02  0.51100000000E-03 0.  1.
        -12    1    4    4    0    0 -0.88737498909E+01  0.32390006192E+01  0.56238727629E+00  0.94631306440E+01  0.00000000000E+00 0.  1.
</event>
<event>
 8    1  0.1164123E-009  0.9118800E+02  0.7816164E-02  0.1184000E+00
        -11   -1    0    0    0    0  0.00000000000E+00  0.00000000000E+00  0.45593999997E+02  0.45594000000E+02  0.51100000000E-03 0.  1.
         11   -1    0    0    0    0 -0.00000000000E+00 -0.00000000000E+00 -0.45593999997E+02  0.45594000000E+02  0.51100000000E-03 0. -1.
         23    2    1    2    0    0  0.00000000000E+00 -0.71054273576E-14  0.00000000000E+00  0.91188000000E+02  0.91188000000E+02 0.  0.
    9900012    2    3    3    0    0  0.33193169756E+01  0.42973010113E+02  0.50916402099E+01  0.47787282686E+02  0.20000053080E+02 0.  0.
         12    1    3    3    0    0 -0.33193169756E+01 -0.42973010113E+02 -0.50916402099E+01  0.43400717314E+02  0.00000000000E+00 0. -1.
         11    1    4    4    0    0  0.11107012449E+01  0.24401689775E+02  0.49854143890E+01  0.24930512991E+02  0.51100000000E-03 0. -1.
        -11    1    4    4    0    0  0.19298349813E+01  0.20260274883E+02 -0.16318093784E+01  0.20417291776E+02  0.51100000000E-03 0.  1.
         12    1    4    4    0    0  0.27878074944E+00 -0.16889545448E+01  0.17380351994E+01  0.24394779185E+01  0.00000000000E+00 0. -1.
</event>
<event>
 8    1  0.1164123E-009  0.9118800E+02  0.7816164E-02  0.1184000E+00
        -11   -1    0    0    0    0  0.00000000000E+00  0.00000000000E+00  0.45593999997E+02  0.45594000000E+02  0.51100000000E-03 0.  1.
         11   -1    0    0    0    0 -0.00000000000E+00 -0.00000000000E+00 -0.45593999997E+02  0.45594000000E+02  0.51100000000E-03 0. -1.
         23    2    1    2    0    0  0.00000000000E+00  0.00000000000E+00  0.00000000000E+00  0.91188000000E+02  0.91188000000E+02 0.  0.
    9900012    2    3    3    0    0 -0.20600132458E+02 -0.37925943894E+02  0.45696506049E+01  0.47787258253E+02  0.19999941680E+02 0.  0.
        -12    1    3    3    0    0  0.20600132458E+02  0.37925943894E+02 -0.45696506049E+01  0.43400741747E+02  0.00000000000E+00 0.  1.
         11    1    4    4    0    0 -0.10006824993E+02 -0.24777463649E+02  0.24581112056E+01  0.26834708164E+02  0.51100000000E-03 0. -1.
        -11    1    4    4    0    0  0.61635959176E+00 -0.69253281071E+01 -0.24082403581E+01  0.73579678187E+01  0.51100000000E-03 0.  1.
        -12    1    4    4    0    0 -0.11209667056E+02 -0.62231521383E+01  0.45197797574E+01  0.13594582270E+02  0.00000000000E+00 0.  1.
</event>
<event>
 8    1  0.1164123E-009  0.9118800E+02  0.7816164E-02  0.1184000E+00
        -11   -1    0    0    0    0  0.00000000000E+00  0.00000000000E+00  0.45593999997E+02  0.45594000000E+02  0.51100000000E-03 0. -1.
         11   -1    0    0    0    0 -0.00000000000E+00 -0.00000000000E+00 -0.45593999997E+02  0.45594000000E+02  0.51100000000E-03 0.  1.
         23    2    1    2    0    0  0.00000000000E+00  0.17763568394E-14  0.00000000000E+00  0.91188000000E+02  0.91188000000E+02 0.  0.
    9900012    2    3    3    0    0  0.78182355280E+01 -0.13663432721E+02 -0.40445136387E+02  0.47787271229E+02  0.20000000843E+02 0.  0.
         12    1    3    3    0    0 -0.78182355280E+01  0.13663432721E+02  0.40445136387E+02  0.43400728771E+02  0.00000000000E+00 0. -1.
         11    1    4    4    0    0 -0.51369750152E+01 -0.41686674023E+01 -0.74357068915E+01  0.99526899608E+01  0.51100000000E-03 0. -1.
        -11    1    4    4    0    0  0.15956570796E+00 -0.28054369569E+01 -0.12115563453E+02  0.12437154649E+02  0.51100000000E-03 0.  1.
        -12    1    4    4    0    0  0.12795644835E+02 -0.66893283618E+01 -0.20893866042E+02  0.25397426619E+02  0.00000000000E+00 0.  1.
</event>
<event>
 8    1  0.1164123E-009  0.9118800E+02  0.7816164E-02  0.1184000E+00
        -11   -1    0    0    0    0  0.00000000000E+00  0.00000000000E+00  0.45593999997E+02  0.45594000000E+02  0.51100000000E-03 0. -1.
         11   -1    0    0    0    0 -0.00000000000E+00 -0.00000000000E+00 -0.45593999997E+02  0.45594000000E+02  0.51100000000E-03 0.  1.
         23    2    1    2    0    0  0.44408920985E-15  0.00000000000E+00  0.00000000000E+00  0.91188000000E+02  0.91188000000E+02 0.  0.
    9900012    2    3    3    0    0 -0.39918832085E+01 -0.27497734108E+02  0.33340098849E+02  0.47787277611E+02  0.20000029941E+02 0.  0.
        -12    1    3    3    0    0  0.39918832085E+01  0.27497734108E+02 -0.33340098849E+02  0.43400722389E+02  0.00000000000E+00 0.  1.
         11    1    4    4    0    0 -0.32132509141E+01 -0.36602275968E+01  0.11185411562E+02  0.12199822932E+02  0.51100000000E-03 0. -1.
        -11    1    4    4    0    0  0.66134679567E+01 -0.11800552216E+02  0.87274401854E+01  0.16098422391E+02  0.51100000000E-03 0.  1.
         12    1    4    4    0    0 -0.73921002511E+01 -0.12036954295E+02  0.13427247101E+02  0.19489032288E+02  0.00000000000E+00 0. -1.
</event>
<event>
 8    1  0.1164123E-009  0.9118800E+02  0.7816164E-02  0.1184000E+00
        -11   -1    0    0    0    0  0.00000000000E+00  0.00000000000E+00  0.45593999997E+02  0.45594000000E+02  0.51100000000E-03 0. -1.
         11   -1    0    0    0    0 -0.00000000000E+00 -0.00000000000E+00 -0.45593999997E+02  0.45594000000E+02  0.51100000000E-03 0.  1.
         23    2    1    2    0    0  0.00000000000E+00  0.35527136788E-14  0.00000000000E+00  0.91188000000E+02  0.91188000000E+02 0.  0.
    9900012    2    3    3    0    0 -0.14624873713E+02  0.28798023354E+02  0.28989825802E+02  0.47787273276E+02  0.20000010173E+02 0.  0.
        -12    1    3    3    0    0  0.14624873713E+02 -0.28798023354E+02 -0.28989825802E+02  0.43400726724E+02  0.00000000000E+00 0.  1.
         11    1    4    4    0    0 -0.19891892342E+00  0.90648271882E+01  0.50915089436E+01  0.10398755900E+02  0.51100000000E-03 0. -1.
        -11    1    4    4    0    0  0.53720688418E+00  0.27713376451E+01 -0.16473276554E+01  0.32684235107E+01  0.51100000000E-03 0.  1.
        -12    1    4    4    0    0 -0.14963161674E+02  0.16961858520E+02  0.25545644513E+02  0.34120093865E+02  0.00000000000E+00 0.  1.
</event>
<event>
 8    1  0.1164123E-009  0.9118800E+02  0.7816164E-02  0.1184000E+00
        -11   -1    0    0    0    0  0.00000000000E+00  0.00000000000E+00  0.45593999997E+02  0.45594000000E+02  0.51100000000E-03 0.  1.
         11   -1    0    0    0    0 -0.00000000000E+00 -0.00000000000E+00 -0.45593999997E+02  0.45594000000E+02  0.51100000000E-03 0. -1.
         23    2    1    2    0    0  0.00000000000E+00  0.35527136788E-14  0.00000000000E+00  0.91188000000E+02  0.91188000000E+02 0.  0.
    9900012    2    3    3    0    0  0.30812747965E+02  0.24574869757E+02 -0.18173442981E+02  0.47787266245E+02  0.19999978116E+02 0.  0.
         12    1    3    3    0    0 -0.30812747965E+02 -0.24574869757E+02  0.18173442981E+02  0.43400733755E+02  0.00000000000E+00 0. -1.
         11    1    4    4    0    0  0.34666730945E+01  0.80676050875E+01 -0.16881122769E+01  0.89416887394E+01  0.51100000000E-03 0. -1.
        -11    1    4    4    0    0  0.24376255322E+02  0.16903041110E+02 -0.93424243381E+01  0.31099767122E+02  0.51100000000E-03 0.  1.
         12    1    4    4    0    0  0.29698195492E+01 -0.39577644044E+00 -0.71429063659E+01  0.77458103835E+01  0.00000000000E+00 0. -1.
</event>
<event>
 8    1  0.1600337E-009  0.9118800E+02  0.7816164E-02  0.1184000E+00
        -11   -1    0    0    0    0  0.00000000000E+00  0.00000000000E+00  0.45593999997E+02  0.45594000000E+02  0.51100000000E-03 0. -1.
         11   -1    0    0    0    0 -0.00000000000E+00 -0.00000000000E+00 -0.45593999997E+02  0.45594000000E+02  0.51100000000E-03 0.  1.
         23    2    1    2    0    0  0.00000000000E+00  0.17763568394E-14  0.00000000000E+00  0.91188000000E+02  0.91188000000E+02 0.  0.
    9900012    2    3    3    0    0 -0.18439303292E+02  0.70108269711E+01 -0.38658288496E+02  0.47787275695E+02  0.20000021206E+02 0.  0.
         12    1    3    3    0    0  0.18439303292E+02 -0.70108269711E+01  0.38658288496E+02  0.43400724305E+02  0.00000000000E+00 0. -1.
         11    1    4    4    0    0 -0.19873164335E+01  0.47731459258E+01 -0.16717872726E+02  0.17499131904E+02  0.51100000000E-03 0. -1.
        -11    1    4    4    0    0  0.39620787233E+00  0.20031866635E+01  0.61616477632E+00  0.21329314991E+01  0.51100000000E-03 0.  1.
        -12    1    4    4    0    0 -0.16848194731E+02  0.23449438182E+00 -0.22556580546E+02  0.28155212293E+02  0.00000000000E+00 0.  1.
</event>
<event>
 8    1  0.1164123E-009  0.9118800E+02  0.7816164E-02  0.1184000E+00
        -11   -1    0    0    0    0  0.00000000000E+00  0.00000000000E+00  0.45593999997E+02  0.45594000000E+02  0.51100000000E-03 0. -1.
         11   -1    0    0    0    0 -0.00000000000E+00 -0.00000000000E+00 -0.45593999997E+02  0.45594000000E+02  0.51100000000E-03 0.  1.
         23    2    1    2    0    0  0.71054273576E-14  0.00000000000E+00  0.00000000000E+00  0.91188000000E+02  0.91188000000E+02 0.  0.
    9900012    2    3    3    0    0 -0.27929039321E+02  0.32913969526E+02 -0.45013813874E+01  0.47787273488E+02  0.20000011142E+02 0.  0.
         12    1    3    3    0    0  0.27929039321E+02 -0.32913969526E+02  0.45013813874E+01  0.43400726512E+02  0.00000000000E+00 0. -1.
         11    1    4    4    0    0 -0.27039370988E+01  0.15684177434E+01  0.38975435850E+01  0.49962041902E+01  0.51100000000E-03 0. -1.
        -11    1    4    4    0    0 -0.63289688897E+00 -0.42855217340E+00 -0.19540710880E+01  0.20982396229E+01  0.51100000000E-03 0.  1.
        -12    1    4    4    0    0 -0.24592205334E+02  0.31774103956E+02 -0.64448538845E+01  0.40692829675E+02  0.00000000000E+00 0.  1.
</event>
<event>
 8    1  0.1164123E-009  0.9118800E+02  0.7816164E-02  0.1184000E+00
        -11   -1    0    0    0    0  0.00000000000E+00  0.00000000000E+00  0.45593999997E+02  0.45594000000E+02  0.51100000000E-03 0. -1.
         11   -1    0    0    0    0 -0.00000000000E+00 -0.00000000000E+00 -0.45593999997E+02  0.45594000000E+02  0.51100000000E-03 0.  1.
         23    2    1    2    0    0  0.00000000000E+00  0.00000000000E+00  0.71054273576E-14  0.91188000000E+02  0.91188000000E+02 0.  0.
    9900012    2    3    3    0    0  0.15959351433E+02  0.16821170007E+02  0.36687471053E+02  0.47787272002E+02  0.20000004364E+02 0.  0.
        -12    1    3    3    0    0 -0.15959351433E+02 -0.16821170007E+02 -0.36687471053E+02  0.43400727998E+02  0.00000000000E+00 0.  1.
         11    1    4    4    0    0 -0.26442555851E+01 -0.19451666699E+01  0.49732040167E+01  0.59589025354E+01  0.51100000000E-03 0. -1.
        -11    1    4    4    0    0  0.66108890549E+00  0.33021410902E+01  0.23759521459E+01  0.41214467340E+01  0.51100000000E-03 0.  1.
         12    1    4    4    0    0  0.17942518112E+02  0.15464195586E+02  0.29338314890E+02  0.37706922732E+02  0.00000000000E+00 0. -1.
</event>
<event>
 8    1  0.1164123E-009  0.9118800E+02  0.7816164E-02  0.1184000E+00
        -11   -1    0    0    0    0  0.00000000000E+00  0.00000000000E+00  0.45593999997E+02  0.45594000000E+02  0.51100000000E-03 0. -1.
         11   -1    0    0    0    0 -0.00000000000E+00 -0.00000000000E+00 -0.45593999997E+02  0.45594000000E+02  0.51100000000E-03 0.  1.
         23    2    1    2    0    0  0.17763568394E-14  0.00000000000E+00  0.00000000000E+00  0.91188000000E+02  0.91188000000E+02 0.  0.
    9900012    2    3    3    0    0  0.13213218352E+02 -0.11677202642E+02  0.39656994112E+02  0.47787269790E+02  0.19999994282E+02 0.  0.
        -12    1    3    3    0    0 -0.13213218352E+02  0.11677202642E+02 -0.39656994112E+02  0.43400730210E+02  0.00000000000E+00 0.  1.
         11    1    4    4    0    0  0.31401290959E+01 -0.14483432538E+01  0.12426789764E+02  0.12898961703E+02  0.51100000000E-03 0. -1.
        -11    1    4    4    0    0  0.31318154677E+01 -0.13675013156E+02  0.16623647030E+02  0.21752238823E+02  0.51100000000E-03 0.  1.
        -12    1    4    4    0    0  0.69412737887E+01  0.34461537682E+01  0.10606557317E+02  0.13136069265E+02  0.00000000000E+00 0.  1.
</event>
<event>
 8    1  0.1164123E-009  0.9118800E+02  0.7816164E-02  0.1184000E+00
        -11   -1    0    0    0    0  0.00000000000E+00  0.00000000000E+00  0.45593999997E+02  0.45594000000E+02  0.51100000000E-03 0. -1.
         11   -1    0    0    0    0 -0.00000000000E+00 -0.00000000000E+00 -0.45593999997E+02  0.45594000000E+02  0.51100000000E-03 0.  1.
         23    2    1    2    0    0  0.17763568394E-14 -0.26645352591E-14  0.71054273576E-14  0.91188000000E+02  0.91188000000E+02 0.  0.
    9900012    2    3    3    0    0  0.13709904078E+02 -0.77319852363E+01  0.40445992778E+02  0.47787269622E+02  0.19999993515E+02 0.  0.
        -12    1    3    3    0    0 -0.13709904078E+02  0.77319852363E+01 -0.40445992778E+02  0.43400730378E+02  0.00000000000E+00 0.  1.
         11    1    4    4    0    0  0.75860344487E-01 -0.40976349761E+01  0.62080190194E+01  0.74388082107E+01  0.51100000000E-03 0. -1.
        -11    1    4    4    0    0  0.10523401609E+02 -0.98099149917E+01  0.24352083368E+02  0.28284277933E+02  0.51100000000E-03 0.  1.
         12    1    4    4    0    0  0.31106421251E+01  0.61755647314E+01  0.98858903912E+01  0.12064183479E+02  0.00000000000E+00 0. -1.
</event>
<event>
 8    1  0.1164123E-009  0.9118800E+02  0.7816164E-02  0.1184000E+00
        -11   -1    0    0    0    0  0.00000000000E+00  0.00000000000E+00  0.45593999997E+02  0.45594000000E+02  0.51100000000E-03 0. -1.
         11   -1    0    0    0    0 -0.00000000000E+00 -0.00000000000E+00 -0.45593999997E+02  0.45594000000E+02  0.51100000000E-03 0.  1.
         23    2    1    2    0    0  0.00000000000E+00  0.17763568394E-14  0.00000000000E+00  0.91188000000E+02  0.91188000000E+02 0.  0.
    9900012    2    3    3    0    0  0.44321735191E+01 -0.96700224414E+01  0.42076950131E+02  0.47787271567E+02  0.20000002385E+02 0.  0.
        -12    1    3    3    0    0 -0.44321735191E+01  0.96700224414E+01 -0.42076950131E+02  0.43400728433E+02  0.00000000000E+00 0.  1.
         11    1    4    4    0    0  0.28951190474E+01 -0.17936623962E+01  0.13993535084E+02  0.14402012481E+02  0.51100000000E-03 0. -1.
        -11    1    4    4    0    0 -0.49691926395E+01 -0.79138940770E+01  0.23869539833E+02  0.25633523500E+02  0.51100000000E-03 0.  1.
         12    1    4    4    0    0  0.65062471112E+01  0.37534031795E-01  0.42138752146E+01  0.77517355863E+01  0.00000000000E+00 0. -1.
</event>
<event>
 8    1  0.1164123E-009  0.9118800E+02  0.7816164E-02  0.1184000E+00
        -11   -1    0    0    0    0  0.00000000000E+00  0.00000000000E+00  0.45593999997E+02  0.45594000000E+02  0.51100000000E-03 0. -1.
         11   -1    0    0    0    0 -0.00000000000E+00 -0.00000000000E+00 -0.45593999997E+02  0.45594000000E+02  0.51100000000E-03 0.  1.
         23    2    1    2    0    0  0.00000000000E+00  0.17763568394E-14  0.00000000000E+00  0.91188000000E+02  0.91188000000E+02 0.  0.
    9900012    2    3    3    0    0  0.85203157692E+01  0.99346841887E+01 -0.41380296995E+02  0.47787277539E+02  0.20000029612E+02 0.  0.
         12    1    3    3    0    0 -0.85203157692E+01 -0.99346841887E+01  0.41380296995E+02  0.43400722461E+02  0.00000000000E+00 0. -1.
         11    1    4    4    0    0  0.11486517083E+02  0.50825724510E+01 -0.11529213138E+02  0.17049791003E+02  0.51100000000E-03 0. -1.
        -11    1    4    4    0    0 -0.16132006455E+00  0.54194747815E+00 -0.15192919070E+02  0.15203437814E+02  0.51100000000E-03 0.  1.
         12    1    4    4    0    0 -0.28048812491E+01  0.43101642596E+01 -0.14658164787E+02  0.15534048722E+02  0.00000000000E+00 0. -1.
</event>
<event>
 8    1  0.1164123E-009  0.9118800E+02  0.7816164E-02  0.1184000E+00
        -11   -1    0    0    0    0  0.00000000000E+00  0.00000000000E+00  0.45593999997E+02  0.45594000000E+02  0.51100000000E-03 0. -1.
         11   -1    0    0    0    0 -0.00000000000E+00 -0.00000000000E+00 -0.45593999997E+02  0.45594000000E+02  0.51100000000E-03 0.  1.
         23    2    1    2    0    0  0.00000000000E+00  0.00000000000E+00  0.17763568394E-14  0.91188000000E+02  0.91188000000E+02 0.  0.
    9900012    2    3    3    0    0  0.22545684606E+02 -0.35548742661E+02  0.10564251968E+02  0.47787257854E+02  0.19999939860E+02 0.  0.
         12    1    3    3    0    0 -0.22545684606E+02  0.35548742661E+02 -0.10564251968E+02  0.43400742146E+02  0.00000000000E+00 0. -1.
         11    1    4    4    0    0  0.75839043494E+01 -0.17812742535E+02  0.10782907393E+02  0.22160336051E+02  0.51100000000E-03 0. -1.
        -11    1    4    4    0    0  0.12474555727E+02 -0.16507739352E+02  0.35026899090E+01  0.20985443430E+02  0.51100000000E-03 0.  1.
         12    1    4    4    0    0  0.24872245294E+01 -0.12282607743E+01 -0.37213453336E+01  0.46414783724E+01  0.00000000000E+00 0. -1.
</event>
<event>
 8    1  0.1164123E-009  0.9118800E+02  0.7816164E-02  0.1184000E+00
        -11   -1    0    0    0    0  0.00000000000E+00  0.00000000000E+00  0.45593999997E+02  0.45594000000E+02  0.51100000000E-03 0. -1.
         11   -1    0    0    0    0 -0.00000000000E+00 -0.00000000000E+00 -0.45593999997E+02  0.45594000000E+02  0.51100000000E-03 0.  1.
         23    2    1    2    0    0  0.00000000000E+00 -0.88817841970E-15  0.88817841970E-15  0.91188000000E+02  0.91188000000E+02 0.  0.
    9900012    2    3    3    0    0 -0.42454017299E+02 -0.78888711677E+01  0.43640129558E+01  0.47787280165E+02  0.20000041582E+02 0.  0.
        -12    1    3    3    0    0  0.42454017299E+02  0.78888711677E+01 -0.43640129558E+01  0.43400719835E+02  0.00000000000E+00 0.  1.
         11    1    4    4    0    0 -0.73200764680E+01 -0.10779000702E+00 -0.39741195072E+01  0.83299918549E+01  0.51100000000E-03 0. -1.
        -11    1    4    4    0    0 -0.89904229595E+00 -0.59193795576E+00  0.40774937520E+01  0.42171818970E+01  0.51100000000E-03 0.  1.
         12    1    4    4    0    0 -0.34234898535E+02 -0.71891432049E+01  0.42606387110E+01  0.35240106413E+02  0.00000000000E+00 0. -1.
</event>
<event>
 8    1  0.1164123E-009  0.9118800E+02  0.7816164E-02  0.1184000E+00
        -11   -1    0    0    0    0  0.00000000000E+00  0.00000000000E+00  0.45593999997E+02  0.45594000000E+02  0.51100000000E-03 0. -1.
         11   -1    0    0    0    0 -0.00000000000E+00 -0.00000000000E+00 -0.45593999997E+02  0.45594000000E+02  0.51100000000E-03 0.  1.
         23    2    1    2    0    0  0.00000000000E+00  0.00000000000E+00  0.71054273576E-14  0.91188000000E+02  0.91188000000E+02 0.  0.
    9900012    2    3    3    0    0  0.42258711889E+01  0.17872703125E+02 -0.39323421409E+02  0.47787274481E+02  0.20000015668E+02 0.  0.
         12    1    3    3    0    0 -0.42258711889E+01 -0.17872703125E+02  0.39323421409E+02  0.43400725519E+02  0.00000000000E+00 0. -1.
         11    1    4    4    0    0  0.19601283548E+01  0.12114821256E+02 -0.16197163397E+02  0.20321395119E+02  0.51100000000E-03 0. -1.
        -11    1    4    4    0    0  0.60165149518E+01  0.68745894282E+01 -0.90636509242E+01  0.12868884967E+02  0.51100000000E-03 0.  1.
         12    1    4    4    0    0 -0.37507721177E+01 -0.11167075583E+01 -0.14062607088E+02  0.14596994394E+02  0.00000000000E+00 0. -1.
</event>
<event>
 8    1  0.1164123E-009  0.9118800E+02  0.7816164E-02  0.1184000E+00
        -11   -1    0    0    0    0  0.00000000000E+00  0.00000000000E+00  0.45593999997E+02  0.45594000000E+02  0.51100000000E-03 0. -1.
         11   -1    0    0    0    0 -0.00000000000E+00 -0.00000000000E+00 -0.45593999997E+02  0.45594000000E+02  0.51100000000E-03 0.  1.
         23    2    1    2    0    0  0.88817841970E-15  0.00000000000E+00  0.00000000000E+00  0.91188000000E+02  0.91188000000E+02 0.  0.
    9900012    2    3    3    0    0  0.74563089230E+01  0.16450821431E+02  0.39463872260E+02  0.47787270948E+02  0.19999999560E+02 0.  0.
        -12    1    3    3    0    0 -0.74563089230E+01 -0.16450821431E+02 -0.39463872260E+02  0.43400729052E+02  0.00000000000E+00 0.  1.
         11    1    4    4    0    0 -0.95553864564E+00  0.58824460204E+01  0.12653013907E+02  0.13986242758E+02  0.51100000000E-03 0. -1.
        -11    1    4    4    0    0 -0.13981153863E+01 -0.14693855573E+01 -0.75329050580E+00  0.21636236726E+01  0.51100000000E-03 0.  1.
         12    1    4    4    0    0  0.98099629550E+01  0.12037760968E+02  0.27564148858E+02  0.31637404517E+02  0.00000000000E+00 0. -1.
</event>
<event>
 8    1  0.1164123E-009  0.9118800E+02  0.7816164E-02  0.1184000E+00
        -11   -1    0    0    0    0  0.00000000000E+00  0.00000000000E+00  0.45593999997E+02  0.45594000000E+02  0.51100000000E-03 0. -1.
         11   -1    0    0    0    0 -0.00000000000E+00 -0.00000000000E+00 -0.45593999997E+02  0.45594000000E+02  0.51100000000E-03 0.  1.
         23    2    1    2    0    0  0.33306690739E-15  0.00000000000E+00  0.00000000000E+00  0.91188000000E+02  0.91188000000E+02 0.  0.
    9900012    2    3    3    0    0 -0.66140129756E+00  0.47976986787E+01  0.43129662303E+02  0.47787272648E+02  0.20000007313E+02 0.  0.
        -12    1    3    3    0    0  0.66140129756E+00 -0.47976986787E+01 -0.43129662303E+02  0.43400727352E+02  0.00000000000E+00 0.  1.
         11    1    4    4    0    0 -0.25791446876E+00 -0.93887962651E+00  0.20626045269E+01  0.22808666164E+01  0.51100000000E-03 0. -1.
        -11    1    4    4    0    0  0.21470001111E+01  0.80503904249E+01  0.59919199568E+01  0.10262626394E+02  0.51100000000E-03 0.  1.
         12    1    4    4    0    0 -0.25504869399E+01 -0.23138121197E+01  0.35075137819E+02  0.35243779638E+02  0.00000000000E+00 0. -1.
</event>
<event>
 8    1  0.1164123E-009  0.9118800E+02  0.7816164E-02  0.1184000E+00
        -11   -1    0    0    0    0  0.00000000000E+00  0.00000000000E+00  0.45593999997E+02  0.45594000000E+02  0.51100000000E-03 0. -1.
         11   -1    0    0    0    0 -0.00000000000E+00 -0.00000000000E+00 -0.45593999997E+02  0.45594000000E+02  0.51100000000E-03 0.  1.
         23    2    1    2    0    0  0.35527136788E-14 -0.27755575616E-15  0.00000000000E+00  0.91188000000E+02  0.91188000000E+02 0.  0.
    9900012    2    3    3    0    0 -0.12805569259E+02 -0.47666246150E+00 -0.41465813364E+02  0.47787268565E+02  0.19999988694E+02 0.  0.
         12    1    3    3    0    0  0.12805569259E+02  0.47666246150E+00  0.41465813364E+02  0.43400731435E+02  0.00000000000E+00 0. -1.
         11    1    4    4    0    0 -0.98232063151E+00 -0.47781371865E+00 -0.46015751089E+01  0.47294559430E+01  0.51100000000E-03 0.  1.
        -11    1    4    4    0    0 -0.15231179538E+02  0.51298024136E+01 -0.27438094347E+02  0.31798627715E+02  0.51100000000E-03 0. -1.
         12    1    4    4    0    0  0.34079309103E+01 -0.51286511565E+01 -0.94261439086E+01  0.11259184906E+02  0.00000000000E+00 0. -1.
</event>
<event>
 8    1  0.1164123E-009  0.9118800E+02  0.7816164E-02  0.1184000E+00
        -11   -1    0    0    0    0  0.00000000000E+00  0.00000000000E+00  0.45593999997E+02  0.45594000000E+02  0.51100000000E-03 0. -1.
         11   -1    0    0    0    0 -0.00000000000E+00 -0.00000000000E+00 -0.45593999997E+02  0.45594000000E+02  0.51100000000E-03 0.  1.
         23    2    1    2    0    0  0.00000000000E+00  0.00000000000E+00  0.00000000000E+00  0.91188000000E+02  0.91188000000E+02 0.  0.
    9900012    2    3    3    0    0 -0.24951048045E+02 -0.82560850593E+01 -0.34538465505E+02  0.47787270300E+02  0.19999996605E+02 0.  0.
         12    1    3    3    0    0  0.24951048045E+02  0.82560850593E+01  0.34538465505E+02  0.43400729700E+02  0.00000000000E+00 0. -1.
         11    1    4    4    0    0 -0.28963483983E+01  0.51135724030E+01 -0.25941678966E+01  0.64239523739E+01  0.51100000000E-03 0. -1.
        -11    1    4    4    0    0 -0.88162526024E+01 -0.26693890996E+01 -0.10096974328E+02  0.13667510342E+02  0.51100000000E-03 0.  1.
         12    1    4    4    0    0 -0.13238447045E+02 -0.10700268363E+02 -0.21847323280E+02  0.27695807583E+02  0.00000000000E+00 0. -1.
</event>
<event>
 8    1  0.1164123E-009  0.9118800E+02  0.7816164E-02  0.1184000E+00
        -11   -1    0    0    0    0  0.00000000000E+00  0.00000000000E+00  0.45593999997E+02  0.45594000000E+02  0.51100000000E-03 0.  1.
         11   -1    0    0    0    0 -0.00000000000E+00 -0.00000000000E+00 -0.45593999997E+02  0.45594000000E+02  0.51100000000E-03 0. -1.
         23    2    1    2    0    0  0.00000000000E+00  0.00000000000E+00 -0.44408920985E-15  0.91188000000E+02  0.91188000000E+02 0.  0.
    9900012    2    3    3    0    0  0.26267921044E+02  0.34450789183E+02  0.26005385658E+01  0.47787270143E+02  0.19999995889E+02 0.  0.
         12    1    3    3    0    0 -0.26267921044E+02 -0.34450789183E+02 -0.26005385658E+01  0.43400729857E+02  0.00000000000E+00 0. -1.
         11    1    4    4    0    0  0.91346224585E+01  0.10533870097E+02 -0.54331313374E+01  0.14964045678E+02  0.51100000000E-03 0. -1.
        -11    1    4    4    0    0  0.42037469491E+01  0.33757695279E+01  0.65819804954E+01  0.85082181343E+01  0.51100000000E-03 0.  1.
         12    1    4    4    0    0  0.12929551636E+02  0.20541149559E+02  0.14516894077E+01  0.24315006330E+02  0.00000000000E+00 0. -1.
</event>
<event>
 8    1  0.1164123E-009  0.9118800E+02  0.7816164E-02  0.1184000E+00
        -11   -1    0    0    0    0  0.00000000000E+00  0.00000000000E+00  0.45593999997E+02  0.45594000000E+02  0.51100000000E-03 0. -1.
         11   -1    0    0    0    0 -0.00000000000E+00 -0.00000000000E+00 -0.45593999997E+02  0.45594000000E+02  0.51100000000E-03 0.  1.
         23    2    1    2    0    0 -0.17763568394E-14 -0.71054273576E-14  0.00000000000E+00  0.91188000000E+02  0.91188000000E+02 0.  0.
    9900012    2    3    3    0    0  0.12011297992E+02  0.34997969241E+02  0.22682464458E+02  0.47787270463E+02  0.19999997349E+02 0.  0.
        -12    1    3    3    0    0 -0.12011297992E+02 -0.34997969241E+02 -0.22682464458E+02  0.43400729537E+02  0.00000000000E+00 0.  1.
         11    1    4    4    0    0  0.16905343701E+00  0.13957436917E+02  0.11623386835E+02  0.18164298669E+02  0.51100000000E-03 0. -1.
        -11    1    4    4    0    0 -0.14558783387E+00  0.10927666781E+02  0.96372532879E+00  0.10971046617E+02  0.51100000000E-03 0.  1.
         12    1    4    4    0    0  0.11987832389E+02  0.10112865542E+02  0.10095352295E+02  0.18651925177E+02  0.00000000000E+00 0. -1.
</event>
<event>
 8    1  0.1164123E-009  0.9118800E+02  0.7816164E-02  0.1184000E+00
        -11   -1    0    0    0    0  0.00000000000E+00  0.00000000000E+00  0.45593999997E+02  0.45594000000E+02  0.51100000000E-03 0.  1.
         11   -1    0    0    0    0 -0.00000000000E+00 -0.00000000000E+00 -0.45593999997E+02  0.45594000000E+02  0.51100000000E-03 0. -1.
         23    2    1    2    0    0  0.00000000000E+00 -0.71054273576E-14  0.00000000000E+00  0.91188000000E+02  0.91188000000E+02 0.  0.
    9900012    2    3    3    0    0  0.25862660023E+02 -0.33239463329E+02 -0.10482573641E+02  0.47787268946E+02  0.19999990435E+02 0.  0.
         12    1    3    3    0    0 -0.25862660023E+02  0.33239463329E+02  0.10482573641E+02  0.43400731054E+02  0.00000000000E+00 0. -1.
         11    1    4    4    0    0  0.63092003624E+01 -0.10737494090E+02  0.77943088868E-02  0.12453909007E+02  0.51100000000E-03 0. -1.
        -11    1    4    4    0    0  0.12510684461E+02 -0.16671387077E+02  0.73393082972E+00  0.20856438514E+02  0.51100000000E-03 0.  1.
         12    1    4    4    0    0  0.70427751992E+01 -0.58305821613E+01 -0.11224298780E+02  0.14476921425E+02  0.00000000000E+00 0. -1.
</event>
<event>
 8    1  0.1164123E-009  0.9118800E+02  0.7816164E-02  0.1184000E+00
        -11   -1    0    0    0    0  0.00000000000E+00  0.00000000000E+00  0.45593999997E+02  0.45594000000E+02  0.51100000000E-03 0. -1.
         11   -1    0    0    0    0 -0.00000000000E+00 -0.00000000000E+00 -0.45593999997E+02  0.45594000000E+02  0.51100000000E-03 0.  1.
         23    2    1    2    0    0  0.35527136788E-14  0.00000000000E+00  0.00000000000E+00  0.91188000000E+02  0.91188000000E+02 0.  0.
    9900012    2    3    3    0    0 -0.30821453787E+02  0.67661302421E+01  0.29797329302E+02  0.47787269988E+02  0.19999995184E+02 0.  0.
        -12    1    3    3    0    0  0.30821453787E+02 -0.67661302421E+01 -0.29797329302E+02  0.43400730012E+02  0.00000000000E+00 0.  1.
         11    1    4    4    0    0 -0.11524957811E+02  0.10683633247E+02  0.98380807503E+01  0.18540563773E+02  0.51100000000E-03 0. -1.
        -11    1    4    4    0    0 -0.10314299064E+02  0.14776458242E+01  0.13034281646E+02  0.16687141776E+02  0.51100000000E-03 0.  1.
        -12    1    4    4    0    0 -0.89821969118E+01 -0.53951488290E+01  0.69249669060E+01  0.12559564439E+02  0.00000000000E+00 0.  1.
</event>
<event>
 8    1  0.1164123E-009  0.9118800E+02  0.7816164E-02  0.1184000E+00
        -11   -1    0    0    0    0  0.00000000000E+00  0.00000000000E+00  0.45593999997E+02  0.45594000000E+02  0.51100000000E-03 0. -1.
         11   -1    0    0    0    0 -0.00000000000E+00 -0.00000000000E+00 -0.45593999997E+02  0.45594000000E+02  0.51100000000E-03 0.  1.
         23    2    1    2    0    0 -0.35527136788E-14  0.00000000000E+00 -0.17763568394E-14  0.91188000000E+02  0.91188000000E+02 0.  0.
    9900012    2    3    3    0    0 -0.30644267293E+02  0.27188882285E+02 -0.14328852853E+02  0.47787280399E+02  0.20000042652E+02 0.  0.
         12    1    3    3    0    0  0.30644267293E+02 -0.27188882285E+02  0.14328852853E+02  0.43400719601E+02  0.00000000000E+00 0. -1.
         11    1    4    4    0    0 -0.38990706313E+01  0.32114404494E+01  0.14958872753E+01  0.52681856981E+01  0.51100000000E-03 0. -1.
        -11    1    4    4    0    0 -0.49970657083E+00  0.81340646767E+01 -0.66515774479E+01  0.10519324961E+02  0.51100000000E-03 0.  1.
        -12    1    4    4    0    0 -0.26245490090E+02  0.15843377159E+02 -0.91731626804E+01  0.31999769740E+02  0.00000000000E+00 0.  1.
</event>
<event>
 8    1  0.1164123E-009  0.9118800E+02  0.7816164E-02  0.1184000E+00
        -11   -1    0    0    0    0  0.00000000000E+00  0.00000000000E+00  0.45593999997E+02  0.45594000000E+02  0.51100000000E-03 0.  1.
         11   -1    0    0    0    0 -0.00000000000E+00 -0.00000000000E+00 -0.45593999997E+02  0.45594000000E+02  0.51100000000E-03 0. -1.
         23    2    1    2    0    0  0.71054273576E-14  0.35527136788E-14  0.00000000000E+00  0.91188000000E+02  0.91188000000E+02 0.  0.
    9900012    2    3    3    0    0  0.34753679334E+02  0.25994202037E+02 -0.32666809980E+00  0.47787268683E+02  0.19999989235E+02 0.  0.
         12    1    3    3    0    0 -0.34753679334E+02 -0.25994202037E+02  0.32666809980E+00  0.43400731317E+02  0.00000000000E+00 0. -1.
         11    1    4    4    0    0  0.18366797243E+02  0.83964725831E+01  0.16965295078E+01  0.20266183791E+02  0.51100000000E-03 0. -1.
        -11    1    4    4    0    0  0.18290360727E+02  0.16668061939E+02 -0.23214485635E+00  0.24747029636E+02  0.51100000000E-03 0.  1.
        -12    1    4    4    0    0 -0.19034786364E+01  0.92966751525E+00 -0.17910527512E+01  0.27740552565E+01  0.00000000000E+00 0.  1.
</event>
<event>
 8    1  0.1164123E-009  0.9118800E+02  0.7816164E-02  0.1184000E+00
        -11   -1    0    0    0    0  0.00000000000E+00  0.00000000000E+00  0.45593999997E+02  0.45594000000E+02  0.51100000000E-03 0. -1.
         11   -1    0    0    0    0 -0.00000000000E+00 -0.00000000000E+00 -0.45593999997E+02  0.45594000000E+02  0.51100000000E-03 0.  1.
         23    2    1    2    0    0  0.00000000000E+00  0.35527136788E-14  0.71054273576E-14  0.91188000000E+02  0.91188000000E+02 0.  0.
    9900012    2    3    3    0    0 -0.17384026553E+02 -0.19403873211E+02 -0.34711769781E+02  0.47787289912E+02  0.20000086026E+02 0.  0.
         12    1    3    3    0    0  0.17384026553E+02  0.19403873211E+02  0.34711769781E+02  0.43400710088E+02  0.00000000000E+00 0. -1.
         11    1    4    4    0    0 -0.10880329117E+01  0.10236371955E+01 -0.85414598926E+01  0.86711121596E+01  0.51100000000E-03 0. -1.
        -11    1    4    4    0    0 -0.14826795818E+02 -0.10854225484E+02 -0.21740854906E+02  0.28465994755E+02  0.51100000000E-03 0.  1.
        -12    1    4    4    0    0 -0.14691978233E+01 -0.95732849223E+01 -0.44294549827E+01  0.10650182998E+02  0.00000000000E+00 0.  1.
</event>
<event>
 8    1  0.1164123E-009  0.9118800E+02  0.7816164E-02  0.1184000E+00
        -11   -1    0    0    0    0  0.00000000000E+00  0.00000000000E+00  0.45593999997E+02  0.45594000000E+02  0.51100000000E-03 0. -1.
         11   -1    0    0    0    0 -0.00000000000E+00 -0.00000000000E+00 -0.45593999997E+02  0.45594000000E+02  0.51100000000E-03 0.  1.
         23    2    1    2    0    0  0.00000000000E+00  0.45102810375E-15  0.71054273576E-14  0.91188000000E+02  0.91188000000E+02 0.  0.
    9900012    2    3    3    0    0 -0.18653803937E+02  0.26530658989E-01  0.39187514972E+02  0.47787234628E+02  0.19999833960E+02 0.  0.
        -12    1    3    3    0    0  0.18653803937E+02 -0.26530658989E-01 -0.39187514972E+02  0.43400765372E+02  0.00000000000E+00 0.  1.
         11    1    4    4    0    0 -0.60989221085E+01 -0.43326924329E+01  0.57375577035E+01  0.94280773896E+01  0.51100000000E-03 0. -1.
        -11    1    4    4    0    0 -0.13352290099E+02 -0.47198960044E+00  0.28051793810E+02  0.31071040557E+02  0.51100000000E-03 0.  1.
        -12    1    4    4    0    0  0.79740827002E+00  0.48312126923E+01  0.53981634587E+01  0.72881166809E+01  0.00000000000E+00 0.  1.
</event>
<event>
 8    1  0.1164123E-009  0.9118800E+02  0.7816164E-02  0.1184000E+00
        -11   -1    0    0    0    0  0.00000000000E+00  0.00000000000E+00  0.45593999997E+02  0.45594000000E+02  0.51100000000E-03 0. -1.
         11   -1    0    0    0    0 -0.00000000000E+00 -0.00000000000E+00 -0.45593999997E+02  0.45594000000E+02  0.51100000000E-03 0.  1.
         23    2    1    2    0    0  0.00000000000E+00 -0.12490009027E-15  0.00000000000E+00  0.91188000000E+02  0.91188000000E+02 0.  0.
    9900012    2    3    3    0    0  0.31932398177E+02  0.86571034023E-01  0.29392817724E+02  0.47787270955E+02  0.19999999591E+02 0.  0.
        -12    1    3    3    0    0 -0.31932398177E+02 -0.86571034023E-01 -0.29392817724E+02  0.43400729045E+02  0.00000000000E+00 0.  1.
         11    1    4    4    0    0  0.28161755503E+02  0.18107345043E+01  0.32082274060E+02  0.42727456530E+02  0.51100000000E-03 0. -1.
        -11    1    4    4    0    0  0.11352095682E+01 -0.45123979028E+00 -0.24367427255E+00  0.12456707126E+01  0.51100000000E-03 0.  1.
         12    1    4    4    0    0  0.26354331065E+01 -0.12729236800E+01 -0.24457820632E+01  0.38141437119E+01  0.00000000000E+00 0. -1.
</event>
<event>
 8    1  0.1164123E-009  0.9118800E+02  0.7816164E-02  0.1184000E+00
        -11   -1    0    0    0    0  0.00000000000E+00  0.00000000000E+00  0.45593999997E+02  0.45594000000E+02  0.51100000000E-03 0. -1.
         11   -1    0    0    0    0 -0.00000000000E+00 -0.00000000000E+00 -0.45593999997E+02  0.45594000000E+02  0.51100000000E-03 0.  1.
         23    2    1    2    0    0  0.00000000000E+00 -0.35527136788E-14  0.00000000000E+00  0.91188000000E+02  0.91188000000E+02 0.  0.
    9900012    2    3    3    0    0  0.35156816071E+02 -0.12720594774E+02  0.22041053141E+02  0.47787271075E+02  0.20000000138E+02 0.  0.
        -12    1    3    3    0    0 -0.35156816071E+02  0.12720594774E+02 -0.22041053141E+02  0.43400728925E+02  0.00000000000E+00 0.  1.
         11    1    4    4    0    0  0.16719672138E+02 -0.98760777850E+01  0.13243969152E+02  0.23505043459E+02  0.51100000000E-03 0. -1.
        -11    1    4    4    0    0  0.12985187194E+02 -0.78485342927E+01  0.50783004548E+01  0.16000116024E+02  0.51100000000E-03 0.  1.
        -12    1    4    4    0    0  0.54519567394E+01  0.50040173034E+01  0.37187835336E+01  0.82821115924E+01  0.00000000000E+00 0.  1.
</event>
<event>
 8    1  0.1164123E-009  0.9118800E+02  0.7816164E-02  0.1184000E+00
        -11   -1    0    0    0    0  0.00000000000E+00  0.00000000000E+00  0.45593999997E+02  0.45594000000E+02  0.51100000000E-03 0. -1.
         11   -1    0    0    0    0 -0.00000000000E+00 -0.00000000000E+00 -0.45593999997E+02  0.45594000000E+02  0.51100000000E-03 0.  1.
         23    2    1    2    0    0 -0.88817841970E-15  0.00000000000E+00  0.00000000000E+00  0.91188000000E+02  0.91188000000E+02 0.  0.
    9900012    2    3    3    0    0  0.40927314647E+01 -0.26601607461E+02 -0.34047428708E+02  0.47787269915E+02  0.19999994849E+02 0.  0.
         12    1    3    3    0    0 -0.40927314647E+01  0.26601607461E+02  0.34047428708E+02  0.43400730085E+02  0.00000000000E+00 0. -1.
         11    1    4    4    0    0 -0.24175426372E+01  0.18366425942E+01 -0.20338757628E+00  0.30428827104E+01  0.51100000000E-03 0. -1.
        -11    1    4    4    0    0  0.14153869759E+01 -0.69455003875E+01 -0.67562523801E+01  0.97923563257E+01  0.51100000000E-03 0.  1.
         12    1    4    4    0    0  0.50948871260E+01 -0.21492749667E+02 -0.27087788751E+02  0.34952030879E+02  0.00000000000E+00 0. -1.
</event>
<event>
 8    1  0.1164123E-009  0.9118800E+02  0.7816164E-02  0.1184000E+00
        -11   -1    0    0    0    0  0.00000000000E+00  0.00000000000E+00  0.45593999997E+02  0.45594000000E+02  0.51100000000E-03 0. -1.
         11   -1    0    0    0    0 -0.00000000000E+00 -0.00000000000E+00 -0.45593999997E+02  0.45594000000E+02  0.51100000000E-03 0.  1.
         23    2    1    2    0    0  0.00000000000E+00  0.00000000000E+00  0.00000000000E+00  0.91188000000E+02  0.91188000000E+02 0.  0.
    9900012    2    3    3    0    0 -0.15829699134E+02 -0.22231412937E+02  0.33746229720E+02  0.47787272861E+02  0.20000008282E+02 0.  0.
        -12    1    3    3    0    0  0.15829699134E+02  0.22231412937E+02 -0.33746229720E+02  0.43400727139E+02  0.00000000000E+00 0.  1.
         11    1    4    4    0    0 -0.63466686744E+01 -0.15385169544E+02  0.18172241227E+02  0.24641712534E+02  0.51100000000E-03 0. -1.
        -11    1    4    4    0    0 -0.66009266634E+01 -0.10539538117E+02  0.11443284238E+02  0.16899788488E+02  0.51100000000E-03 0.  1.
        -12    1    4    4    0    0 -0.28821037967E+01  0.36932947239E+01  0.41307042558E+01  0.62457718387E+01  0.00000000000E+00 0.  1.
</event>
<event>
 8    1  0.1164123E-009  0.9118800E+02  0.7816164E-02  0.1184000E+00
        -11   -1    0    0    0    0  0.00000000000E+00  0.00000000000E+00  0.45593999997E+02  0.45594000000E+02  0.51100000000E-03 0.  1.
         11   -1    0    0    0    0 -0.00000000000E+00 -0.00000000000E+00 -0.45593999997E+02  0.45594000000E+02  0.51100000000E-03 0. -1.
         23    2    1    2    0    0  0.00000000000E+00  0.00000000000E+00  0.00000000000E+00  0.91188000000E+02  0.91188000000E+02 0.  0.
    9900012    2    3    3    0    0 -0.26076669912E+02 -0.33798390449E+02  0.78293823028E+01  0.47787272611E+02  0.20000007144E+02 0.  0.
        -12    1    3    3    0    0  0.26076669912E+02  0.33798390449E+02 -0.78293823028E+01  0.43400727389E+02  0.00000000000E+00 0.  1.
         11    1    4    4    0    0 -0.27181656558E+01 -0.46645543912E+01  0.56827691242E+01  0.78383899738E+01  0.51100000000E-03 0. -1.
        -11    1    4    4    0    0 -0.13138032279E+02 -0.13639669358E+02  0.78948623339E+01  0.20517731938E+02  0.51100000000E-03 0.  1.
         12    1    4    4    0    0 -0.10220471978E+02 -0.15494166699E+02 -0.57482491553E+01  0.19431150699E+02  0.00000000000E+00 0. -1.
</event>
<event>
 8    1  0.1164123E-009  0.9118800E+02  0.7816164E-02  0.1184000E+00
        -11   -1    0    0    0    0  0.00000000000E+00  0.00000000000E+00  0.45593999997E+02  0.45594000000E+02  0.51100000000E-03 0. -1.
         11   -1    0    0    0    0 -0.00000000000E+00 -0.00000000000E+00 -0.45593999997E+02  0.45594000000E+02  0.51100000000E-03 0.  1.
         23    2    1    2    0    0  0.00000000000E+00  0.00000000000E+00  0.35527136788E-14  0.91188000000E+02  0.91188000000E+02 0.  0.
    9900012    2    3    3    0    0  0.43454646863E+01 -0.33489549033E+02 -0.27261536893E+02  0.47787258629E+02  0.19999943393E+02 0.  0.
         12    1    3    3    0    0 -0.43454646863E+01  0.33489549033E+02  0.27261536893E+02  0.43400741371E+02  0.00000000000E+00 0. -1.
         11    1    4    4    0    0 -0.17574883849E+01 -0.37641094055E+01  0.20278745029E+00  0.41591354932E+01  0.51100000000E-03 0. -1.
        -11    1    4    4    0    0  0.62439797150E+01 -0.45528294642E+01 -0.23679135117E+01  0.80822369101E+01  0.51100000000E-03 0.  1.
         12    1    4    4    0    0 -0.14102664379E+00 -0.25172610163E+02 -0.25096410832E+02  0.35545886226E+02  0.00000000000E+00 0. -1.
</event>
<event>
 8    1  0.1164123E-009  0.9118800E+02  0.7816164E-02  0.1184000E+00
        -11   -1    0    0    0    0  0.00000000000E+00  0.00000000000E+00  0.45593999997E+02  0.45594000000E+02  0.51100000000E-03 0. -1.
         11   -1    0    0    0    0 -0.00000000000E+00 -0.00000000000E+00 -0.45593999997E+02  0.45594000000E+02  0.51100000000E-03 0.  1.
         23    2    1    2    0    0  0.00000000000E+00 -0.35527136788E-14  0.00000000000E+00  0.91188000000E+02  0.91188000000E+02 0.  0.
    9900012    2    3    3    0    0 -0.96211898714E+01 -0.13322174183E+02 -0.40169337075E+02  0.47787271198E+02  0.20000000699E+02 0.  0.
         12    1    3    3    0    0  0.96211898714E+01  0.13322174183E+02  0.40169337075E+02  0.43400728802E+02  0.00000000000E+00 0. -1.
         11    1    4    4    0    0 -0.56693867219E+01 -0.33027062509E+01 -0.31791993471E+01  0.72908931642E+01  0.51100000000E-03 0. -1.
        -11    1    4    4    0    0 -0.19253807540E+01 -0.39065176375E+01 -0.17846331079E+01  0.47066853189E+01  0.51100000000E-03 0.  1.
        -12    1    4    4    0    0 -0.20264223955E+01 -0.61129502942E+01 -0.35205504620E+02  0.35789692715E+02  0.00000000000E+00 0.  1.
</event>
<event>
 8    1  0.1164123E-009  0.9118800E+02  0.7816164E-02  0.1184000E+00
        -11   -1    0    0    0    0  0.00000000000E+00  0.00000000000E+00  0.45593999997E+02  0.45594000000E+02  0.51100000000E-03 0. -1.
         11   -1    0    0    0    0 -0.00000000000E+00 -0.00000000000E+00 -0.45593999997E+02  0.45594000000E+02  0.51100000000E-03 0.  1.
         23    2    1    2    0    0 -0.44408920985E-15 -0.88817841970E-15  0.00000000000E+00  0.91188000000E+02  0.91188000000E+02 0.  0.
    9900012    2    3    3    0    0 -0.26766139172E+01 -0.73917379596E+01 -0.42682803409E+02  0.47787265456E+02  0.19999974520E+02 0.  0.
         12    1    3    3    0    0  0.26766139172E+01  0.73917379596E+01  0.42682803409E+02  0.43400734544E+02  0.00000000000E+00 0. -1.
         11    1    4    4    0    0  0.72339006236E+00  0.20554124519E+01 -0.41298369937E+01  0.46694290213E+01  0.51100000000E-03 0. -1.
        -11    1    4    4    0    0 -0.10046550855E+02 -0.67570904927E+01 -0.25372091568E+02  0.28112888268E+02  0.51100000000E-03 0.  1.
        -12    1    4    4    0    0  0.66465468752E+01 -0.26900599189E+01 -0.13180874847E+02  0.15004948166E+02  0.00000000000E+00 0.  1.
</event>
<event>
 8    1  0.1182508E-009  0.9118800E+02  0.7816164E-02  0.1184000E+00
        -11   -1    0    0    0    0  0.00000000000E+00  0.00000000000E+00  0.45593999997E+02  0.45594000000E+02  0.51100000000E-03 0. -1.
         11   -1    0    0    0    0 -0.00000000000E+00 -0.00000000000E+00 -0.45593999997E+02  0.45594000000E+02  0.51100000000E-03 0.  1.
         23    2    1    2    0    0  0.00000000000E+00  0.00000000000E+00 -0.35527136788E-14  0.91188000000E+02  0.91188000000E+02 0.  0.
    9900012    2    3    3    0    0  0.26460668262E+02  0.13120036070E+02 -0.31801270706E+02  0.47787272703E+02  0.20000007562E+02 0.  0.
         12    1    3    3    0    0 -0.26460668262E+02 -0.13120036070E+02  0.31801270706E+02  0.43400727297E+02  0.00000000000E+00 0. -1.
         11    1    4    4    0    0  0.78550024731E+01  0.61270207463E+01 -0.37811816399E+01  0.10655457847E+02  0.51100000000E-03 0. -1.
        -11    1    4    4    0    0  0.34123034814E+01  0.84215080325E+01 -0.11151480879E+02  0.14384753688E+02  0.51100000000E-03 0.  1.
        -12    1    4    4    0    0  0.15193362308E+02 -0.14284927083E+01 -0.16868608187E+02  0.22747061168E+02  0.00000000000E+00 0.  1.
</event>
<event>
 8    1  0.1164123E-009  0.9118800E+02  0.7816164E-02  0.1184000E+00
        -11   -1    0    0    0    0  0.00000000000E+00  0.00000000000E+00  0.45593999997E+02  0.45594000000E+02  0.51100000000E-03 0.  1.
         11   -1    0    0    0    0 -0.00000000000E+00 -0.00000000000E+00 -0.45593999997E+02  0.45594000000E+02  0.51100000000E-03 0. -1.
         23    2    1    2    0    0  0.00000000000E+00  0.00000000000E+00  0.00000000000E+00  0.91188000000E+02  0.91188000000E+02 0.  0.
    9900012    2    3    3    0    0  0.24233932452E+02 -0.29231452793E+02  0.21020510493E+02  0.47787272174E+02  0.20000005148E+02 0.  0.
         12    1    3    3    0    0 -0.24233932452E+02  0.29231452793E+02 -0.21020510493E+02  0.43400727826E+02  0.00000000000E+00 0. -1.
         11    1    4    4    0    0  0.10734972938E+02 -0.13107785410E+01  0.27938287882E+01  0.11169747711E+02  0.51100000000E-03 0. -1.
        -11    1    4    4    0    0 -0.79759919924E+00 -0.11441051817E+01  0.61650040578E+00  0.15248652927E+01  0.51100000000E-03 0.  1.
        -12    1    4    4    0    0  0.14296558713E+02 -0.26776569071E+02  0.17610181299E+02  0.35092659170E+02  0.00000000000E+00 0.  1.
</event>
<event>
 8    1  0.1164123E-009  0.9118800E+02  0.7816164E-02  0.1184000E+00
        -11   -1    0    0    0    0  0.00000000000E+00  0.00000000000E+00  0.45593999997E+02  0.45594000000E+02  0.51100000000E-03 0. -1.
         11   -1    0    0    0    0 -0.00000000000E+00 -0.00000000000E+00 -0.45593999997E+02  0.45594000000E+02  0.51100000000E-03 0.  1.
         23    2    1    2    0    0 -0.17763568394E-14  0.00000000000E+00  0.35527136788E-14  0.91188000000E+02  0.91188000000E+02 0.  0.
    9900012    2    3    3    0    0 -0.14241954405E+02 -0.26615802203E+02 -0.31183162215E+02  0.47787265007E+02  0.19999972471E+02 0.  0.
         12    1    3    3    0    0  0.14241954405E+02  0.26615802203E+02  0.31183162215E+02  0.43400734993E+02  0.00000000000E+00 0. -1.
         11    1    4    4    0    0  0.36020087568E+00 -0.43610122411E+01 -0.77497547031E+00  0.44439576594E+01  0.51100000000E-03 0. -1.
        -11    1    4    4    0    0 -0.97021977151E+00 -0.15486487578E+02 -0.13215950728E+02  0.20382197571E+02  0.51100000000E-03 0.  1.
         12    1    4    4    0    0 -0.13631935510E+02 -0.67683023843E+01 -0.17192236017E+02  0.22961109777E+02  0.00000000000E+00 0. -1.
</event>
<event>
 8    1  0.1164123E-009  0.9118800E+02  0.7816164E-02  0.1184000E+00
        -11   -1    0    0    0    0  0.00000000000E+00  0.00000000000E+00  0.45593999997E+02  0.45594000000E+02  0.51100000000E-03 0. -1.
         11   -1    0    0    0    0 -0.00000000000E+00 -0.00000000000E+00 -0.45593999997E+02  0.45594000000E+02  0.51100000000E-03 0.  1.
         23    2    1    2    0    0  0.00000000000E+00  0.00000000000E+00 -0.71054273576E-14  0.91188000000E+02  0.91188000000E+02 0.  0.
    9900012    2    3    3    0    0  0.12708877627E+02 -0.10163254266E+02  0.40234512120E+02  0.47787271051E+02  0.20000000028E+02 0.  0.
        -12    1    3    3    0    0 -0.12708877627E+02  0.10163254266E+02 -0.40234512120E+02  0.43400728949E+02  0.00000000000E+00 0.  1.
         11    1    4    4    0    0 -0.13457465407E+01 -0.55582506666E+01  0.15532094984E+02  0.16551469997E+02  0.51100000000E-03 0. -1.
        -11    1    4    4    0    0 -0.16679450000E+01 -0.27269057269E+01  0.53349234780E+01  0.62192816421E+01  0.51100000000E-03 0.  1.
         12    1    4    4    0    0  0.15722569168E+02 -0.18780978726E+01  0.19367493658E+02  0.25016519411E+02  0.00000000000E+00 0. -1.
</event>
<event>
 8    1  0.1164123E-009  0.9118800E+02  0.7816164E-02  0.1184000E+00
        -11   -1    0    0    0    0  0.00000000000E+00  0.00000000000E+00  0.45593999997E+02  0.45594000000E+02  0.51100000000E-03 0.  1.
         11   -1    0    0    0    0 -0.00000000000E+00 -0.00000000000E+00 -0.45593999997E+02  0.45594000000E+02  0.51100000000E-03 0. -1.
         23    2    1    2    0    0 -0.71054273576E-14  0.00000000000E+00 -0.17763568394E-14  0.91188000000E+02  0.91188000000E+02 0.  0.
    9900012    2    3    3    0    0 -0.38490729067E+02  0.17355135546E+02 -0.10044209954E+02  0.47787272961E+02  0.20000008738E+02 0.  0.
         12    1    3    3    0    0  0.38490729067E+02 -0.17355135546E+02  0.10044209954E+02  0.43400727039E+02  0.00000000000E+00 0. -1.
         11    1    4    4    0    0 -0.24935233288E+02  0.70797707174E+01 -0.56457645329E+01  0.26528544437E+02  0.51100000000E-03 0. -1.
        -11    1    4    4    0    0 -0.13089638213E+02  0.10887534902E+02 -0.23766756907E+00  0.17027434655E+02  0.51100000000E-03 0.  1.
         12    1    4    4    0    0 -0.46585756544E+00 -0.61217007270E+00 -0.41607778521E+01  0.42312938687E+01  0.00000000000E+00 0. -1.
</event>
<event>
 8    1  0.1164123E-009  0.9118800E+02  0.7816164E-02  0.1184000E+00
        -11   -1    0    0    0    0  0.00000000000E+00  0.00000000000E+00  0.45593999997E+02  0.45594000000E+02  0.51100000000E-03 0. -1.
         11   -1    0    0    0    0 -0.00000000000E+00 -0.00000000000E+00 -0.45593999997E+02  0.45594000000E+02  0.51100000000E-03 0.  1.
         23    2    1    2    0    0  0.00000000000E+00  0.17763568394E-14 -0.71054273576E-14  0.91188000000E+02  0.91188000000E+02 0.  0.
    9900012    2    3    3    0    0 -0.16301664630E+01  0.90996404168E+01 -0.42404743266E+02  0.47787272473E+02  0.20000006514E+02 0.  0.
         12    1    3    3    0    0  0.16301664630E+01 -0.90996404168E+01  0.42404743266E+02  0.43400727527E+02  0.00000000000E+00 0. -1.
         11    1    4    4    0    0 -0.39409096563E+01  0.33889709751E+01 -0.60202331185E+01  0.79535589676E+01  0.51100000000E-03 0. -1.
        -11    1    4    4    0    0 -0.56564384523E+01 -0.10584102094E+01 -0.12454443831E+02  0.13719646480E+02  0.51100000000E-03 0.  1.
        -12    1    4    4    0    0  0.79671816457E+01  0.67690796511E+01 -0.23930066317E+02  0.26114067026E+02  0.00000000000E+00 0.  1.
</event>
<event>
 8    1  0.1164123E-009  0.9118800E+02  0.7816164E-02  0.1184000E+00
        -11   -1    0    0    0    0  0.00000000000E+00  0.00000000000E+00  0.45593999997E+02  0.45594000000E+02  0.51100000000E-03 0. -1.
         11   -1    0    0    0    0 -0.00000000000E+00 -0.00000000000E+00 -0.45593999997E+02  0.45594000000E+02  0.51100000000E-03 0.  1.
         23    2    1    2    0    0 -0.88817841970E-15  0.00000000000E+00  0.71054273576E-14  0.91188000000E+02  0.91188000000E+02 0.  0.
    9900012    2    3    3    0    0 -0.29760382195E+01 -0.26617628222E+02 -0.34150674227E+02  0.47787268603E+02  0.19999988871E+02 0.  0.
         12    1    3    3    0    0  0.29760382195E+01  0.26617628222E+02  0.34150674227E+02  0.43400731397E+02  0.00000000000E+00 0. -1.
         11    1    4    4    0    0 -0.17349640651E+01 -0.11621318567E+00 -0.44119187032E+01  0.47422181220E+01  0.51100000000E-03 0. -1.
        -11    1    4    4    0    0 -0.86421660634E+01 -0.11447038374E+02 -0.13960206907E+02  0.20015221681E+02  0.51100000000E-03 0.  1.
         12    1    4    4    0    0  0.74010919091E+01 -0.15054376662E+02 -0.15778548617E+02  0.23029828800E+02  0.00000000000E+00 0. -1.
</event>
<event>
 8    1  0.1164123E-009  0.9118800E+02  0.7816164E-02  0.1184000E+00
        -11   -1    0    0    0    0  0.00000000000E+00  0.00000000000E+00  0.45593999997E+02  0.45594000000E+02  0.51100000000E-03 0. -1.
         11   -1    0    0    0    0 -0.00000000000E+00 -0.00000000000E+00 -0.45593999997E+02  0.45594000000E+02  0.51100000000E-03 0.  1.
         23    2    1    2    0    0 -0.35527136788E-14  0.35527136788E-14  0.00000000000E+00  0.91188000000E+02  0.91188000000E+02 0.  0.
    9900012    2    3    3    0    0 -0.21927263856E+02  0.31909445923E+02 -0.19611390325E+02  0.47787259571E+02  0.19999947688E+02 0.  0.
         12    1    3    3    0    0  0.21927263856E+02 -0.31909445923E+02  0.19611390325E+02  0.43400740429E+02  0.00000000000E+00 0. -1.
         11    1    4    4    0    0 -0.11000084186E+02  0.66410684639E+01  0.14275205527E+01  0.12928397334E+02  0.51100000000E-03 0. -1.
        -11    1    4    4    0    0 -0.34732077322E+01  0.62798365893E+01 -0.36357903470E+01  0.80447803729E+01  0.51100000000E-03 0.  1.
        -12    1    4    4    0    0 -0.74539719371E+01  0.18988540870E+02 -0.17403120530E+02  0.26814081864E+02  0.00000000000E+00 0.  1.
</event>
<event>
 8    1  0.1164123E-009  0.9118800E+02  0.7816164E-02  0.1184000E+00
        -11   -1    0    0    0    0  0.00000000000E+00  0.00000000000E+00  0.45593999997E+02  0.45594000000E+02  0.51100000000E-03 0. -1.
         11   -1    0    0    0    0 -0.00000000000E+00 -0.00000000000E+00 -0.45593999997E+02  0.45594000000E+02  0.51100000000E-03 0.  1.
         23    2    1    2    0    0  0.00000000000E+00  0.00000000000E+00  0.00000000000E+00  0.91188000000E+02  0.91188000000E+02 0.  0.
    9900012    2    3    3    0    0 -0.16224733213E+02  0.23339915295E+02  0.32796794391E+02  0.47787270327E+02  0.19999996729E+02 0.  0.
        -12    1    3    3    0    0  0.16224733213E+02 -0.23339915295E+02 -0.32796794391E+02  0.43400729673E+02  0.00000000000E+00 0.  1.
         11    1    4    4    0    0 -0.26371414034E+01  0.87754743917E+01  0.10600622714E+02  0.14012018690E+02  0.51100000000E-03 0. -1.
        -11    1    4    4    0    0 -0.85334148443E+01  0.10032824992E+02  0.23427633888E+02  0.26876212085E+02  0.51100000000E-03 0.  1.
        -12    1    4    4    0    0 -0.50541769648E+01  0.45316159116E+01 -0.12314622103E+01  0.68990395518E+01  0.00000000000E+00 0.  1.
</event>
<event>
 8    1  0.1164123E-009  0.9118800E+02  0.7816164E-02  0.1184000E+00
        -11   -1    0    0    0    0  0.00000000000E+00  0.00000000000E+00  0.45593999997E+02  0.45594000000E+02  0.51100000000E-03 0.  1.
         11   -1    0    0    0    0 -0.00000000000E+00 -0.00000000000E+00 -0.45593999997E+02  0.45594000000E+02  0.51100000000E-03 0. -1.
         23    2    1    2    0    0  0.00000000000E+00  0.71054273576E-14  0.00000000000E+00  0.91188000000E+02  0.91188000000E+02 0.  0.
    9900012    2    3    3    0    0 -0.11933421025E+02  0.32434793504E+02 -0.26252636639E+02  0.47787270772E+02  0.19999998760E+02 0.  0.
         12    1    3    3    0    0  0.11933421025E+02 -0.32434793504E+02  0.26252636639E+02  0.43400729228E+02  0.00000000000E+00 0. -1.
         11    1    4    4    0    0 -0.22346463650E+01 -0.91703141315E+00  0.33977339897E+00  0.24392698114E+01  0.51100000000E-03 0. -1.
        -11    1    4    4    0    0 -0.50537042965E+01  0.94599457263E+01 -0.14866334410E+02  0.18331350177E+02  0.51100000000E-03 0.  1.
        -12    1    4    4    0    0 -0.46450703631E+01  0.23891879191E+02 -0.11726075628E+02  0.27016650784E+02  0.00000000000E+00 0.  1.
</event>
<event>
 8    1  0.1164123E-009  0.9118800E+02  0.7816164E-02  0.1184000E+00
        -11   -1    0    0    0    0  0.00000000000E+00  0.00000000000E+00  0.45593999997E+02  0.45594000000E+02  0.51100000000E-03 0. -1.
         11   -1    0    0    0    0 -0.00000000000E+00 -0.00000000000E+00 -0.45593999997E+02  0.45594000000E+02  0.51100000000E-03 0.  1.
         23    2    1    2    0    0  0.00000000000E+00 -0.35527136788E-14  0.00000000000E+00  0.91188000000E+02  0.91188000000E+02 0.  0.
    9900012    2    3    3    0    0 -0.43568652832E+01 -0.17223099472E+02  0.39598054944E+02  0.47787269754E+02  0.19999994118E+02 0.  0.
        -12    1    3    3    0    0  0.43568652832E+01  0.17223099472E+02 -0.39598054944E+02  0.43400730246E+02  0.00000000000E+00 0.  1.
         11    1    4    4    0    0  0.48945068672E+01 -0.57342489233E+01  0.60522078830E+01  0.96678347477E+01  0.51100000000E-03 0. -1.
        -11    1    4    4    0    0 -0.54921180944E+01 -0.87557152472E+01  0.10977687136E+02  0.15077649875E+02  0.51100000000E-03 0.  1.
         12    1    4    4    0    0 -0.37592540560E+01 -0.27331353010E+01  0.22568159925E+02  0.23041785131E+02  0.00000000000E+00 0. -1.
</event>
<event>
 8    1  0.1164123E-009  0.9118800E+02  0.7816164E-02  0.1184000E+00
        -11   -1    0    0    0    0  0.00000000000E+00  0.00000000000E+00  0.45593999997E+02  0.45594000000E+02  0.51100000000E-03 0. -1.
         11   -1    0    0    0    0 -0.00000000000E+00 -0.00000000000E+00 -0.45593999997E+02  0.45594000000E+02  0.51100000000E-03 0.  1.
         23    2    1    2    0    0 -0.35527136788E-14  0.17763568394E-14  0.00000000000E+00  0.91188000000E+02  0.91188000000E+02 0.  0.
    9900012    2    3    3    0    0  0.20007319672E+02 -0.83701093472E+01  0.37593508993E+02  0.47787268562E+02  0.19999988681E+02 0.  0.
        -12    1    3    3    0    0 -0.20007319672E+02  0.83701093472E+01 -0.37593508993E+02  0.43400731438E+02  0.00000000000E+00 0.  1.
         11    1    4    4    0    0  0.15589481904E+02 -0.11469093319E+02  0.35846125413E+02  0.40737166752E+02  0.51100000000E-03 0. -1.
        -11    1    4    4    0    0 -0.13081328963E+00 -0.76108927694E+00  0.59302430688E+00  0.97367709939E+00  0.51100000000E-03 0.  1.
         12    1    4    4    0    0  0.45486510575E+01  0.38600732488E+01  0.11543592732E+01  0.60764247103E+01  0.00000000000E+00 0. -1.
</event>
<event>
 8    1  0.1164123E-009  0.9118800E+02  0.7816164E-02  0.1184000E+00
        -11   -1    0    0    0    0  0.00000000000E+00  0.00000000000E+00  0.45593999997E+02  0.45594000000E+02  0.51100000000E-03 0. -1.
         11   -1    0    0    0    0 -0.00000000000E+00 -0.00000000000E+00 -0.45593999997E+02  0.45594000000E+02  0.51100000000E-03 0.  1.
         23    2    1    2    0    0  0.00000000000E+00  0.00000000000E+00  0.35527136788E-14  0.91188000000E+02  0.91188000000E+02 0.  0.
    9900012    2    3    3    0    0  0.18745621394E+02 -0.35121866855E+02 -0.17282372407E+02  0.47787259812E+02  0.19999948788E+02 0.  0.
         12    1    3    3    0    0 -0.18745621394E+02  0.35121866855E+02  0.17282372407E+02  0.43400740188E+02  0.00000000000E+00 0. -1.
         11    1    4    4    0    0  0.12027634281E+01 -0.13717775673E+02 -0.49226946890E+01  0.14623848076E+02  0.51100000000E-03 0. -1.
        -11    1    4    4    0    0  0.12881066184E+02 -0.21025664573E+02 -0.13816375815E+02  0.28264689591E+02  0.51100000000E-03 0.  1.
         12    1    4    4    0    0  0.46617917814E+01 -0.37842660907E+00  0.14566980963E+01  0.48987221452E+01  0.00000000000E+00 0. -1.
</event>
<event>
 8    1  0.1164123E-009  0.9118800E+02  0.7816164E-02  0.1184000E+00
        -11   -1    0    0    0    0  0.00000000000E+00  0.00000000000E+00  0.45593999997E+02  0.45594000000E+02  0.51100000000E-03 0. -1.
         11   -1    0    0    0    0 -0.00000000000E+00 -0.00000000000E+00 -0.45593999997E+02  0.45594000000E+02  0.51100000000E-03 0.  1.
         23    2    1    2    0    0 -0.35527136788E-14  0.00000000000E+00 -0.35527136788E-14  0.91188000000E+02  0.91188000000E+02 0.  0.
    9900012    2    3    3    0    0 -0.23039436262E+02  0.20828525023E+02 -0.30314685405E+02  0.47787271560E+02  0.20000002350E+02 0.  0.
         12    1    3    3    0    0  0.23039436262E+02 -0.20828525023E+02  0.30314685405E+02  0.43400728440E+02  0.00000000000E+00 0. -1.
         11    1    4    4    0    0 -0.50238435698E+01  0.72129171455E+01 -0.14362012301E+01  0.89066184490E+01  0.51100000000E-03 0. -1.
        -11    1    4    4    0    0 -0.10153616100E+02  0.13418571383E+02 -0.13370129889E+02  0.21492192800E+02  0.51100000000E-03 0.  1.
         12    1    4    4    0    0 -0.78619765926E+01  0.19703649514E+00 -0.15508354286E+02  0.17388460310E+02  0.00000000000E+00 0. -1.
</event>
<event>
 8    1  0.1164123E-009  0.9118800E+02  0.7816164E-02  0.1184000E+00
        -11   -1    0    0    0    0  0.00000000000E+00  0.00000000000E+00  0.45593999997E+02  0.45594000000E+02  0.51100000000E-03 0. -1.
         11   -1    0    0    0    0 -0.00000000000E+00 -0.00000000000E+00 -0.45593999997E+02  0.45594000000E+02  0.51100000000E-03 0.  1.
         23    2    1    2    0    0  0.00000000000E+00  0.00000000000E+00  0.00000000000E+00  0.91188000000E+02  0.91188000000E+02 0.  0.
    9900012    2    3    3    0    0  0.18532482976E+02  0.29954977914E+02  0.25354879055E+02  0.47787268221E+02  0.19999987126E+02 0.  0.
        -12    1    3    3    0    0 -0.18532482976E+02 -0.29954977914E+02 -0.25354879055E+02  0.43400731779E+02  0.00000000000E+00 0.  1.
         11    1    4    4    0    0 -0.15982829591E+01  0.36075164249E+01  0.63550020120E+01  0.74802897007E+01  0.51100000000E-03 0. -1.
        -11    1    4    4    0    0  0.29429720526E+01  0.12902951969E+02  0.39937435943E+01  0.13823792612E+02  0.51100000000E-03 0.  1.
         12    1    4    4    0    0  0.17187793882E+02  0.13444509520E+02  0.15006133449E+02  0.26483185908E+02  0.00000000000E+00 0. -1.
</event>
<event>
 8    1  0.1164123E-009  0.9118800E+02  0.7816164E-02  0.1184000E+00
        -11   -1    0    0    0    0  0.00000000000E+00  0.00000000000E+00  0.45593999997E+02  0.45594000000E+02  0.51100000000E-03 0. -1.
         11   -1    0    0    0    0 -0.00000000000E+00 -0.00000000000E+00 -0.45593999997E+02  0.45594000000E+02  0.51100000000E-03 0.  1.
         23    2    1    2    0    0 -0.35527136788E-14  0.35527136788E-14  0.00000000000E+00  0.91188000000E+02  0.91188000000E+02 0.  0.
    9900012    2    3    3    0    0 -0.31008962141E+02  0.29383463992E+02  0.76602481283E+01  0.47787273156E+02  0.20000009626E+02 0.  0.
        -12    1    3    3    0    0  0.31008962141E+02 -0.29383463992E+02 -0.76602481283E+01  0.43400726844E+02  0.00000000000E+00 0.  1.
         11    1    4    4    0    0 -0.12556904962E+02  0.21623961369E+01  0.38382226744E+01  0.13307282700E+02  0.51100000000E-03 0. -1.
        -11    1    4    4    0    0 -0.53029571677E+01  0.54166377056E+01 -0.29473301286E+01  0.81331466177E+01  0.51100000000E-03 0.  1.
         12    1    4    4    0    0 -0.13149100011E+02  0.21804430150E+02  0.67693555825E+01  0.26346843838E+02  0.00000000000E+00 0. -1.
</event>
<event>
 8    1  0.1164123E-009  0.9118800E+02  0.7816164E-02  0.1184000E+00
        -11   -1    0    0    0    0  0.00000000000E+00  0.00000000000E+00  0.45593999997E+02  0.45594000000E+02  0.51100000000E-03 0. -1.
         11   -1    0    0    0    0 -0.00000000000E+00 -0.00000000000E+00 -0.45593999997E+02  0.45594000000E+02  0.51100000000E-03 0.  1.
         23    2    1    2    0    0  0.00000000000E+00  0.17763568394E-14  0.00000000000E+00  0.91188000000E+02  0.91188000000E+02 0.  0.
    9900012    2    3    3    0    0 -0.14265544114E+02 -0.15176974522E+02 -0.38075937058E+02  0.47787270889E+02  0.19999999290E+02 0.  0.
         12    1    3    3    0    0  0.14265544114E+02  0.15176974522E+02  0.38075937058E+02  0.43400729111E+02  0.00000000000E+00 0. -1.
         11    1    4    4    0    0 -0.59252282573E+01 -0.15345359279E+02 -0.15632683374E+02  0.22692932183E+02  0.51100000000E-03 0. -1.
        -11    1    4    4    0    0 -0.29599999472E+01 -0.28283078513E+01 -0.14360637996E+02  0.14932811152E+02  0.51100000000E-03 0.  1.
        -12    1    4    4    0    0 -0.53803159094E+01  0.29966926081E+01 -0.80826156876E+01  0.10161527554E+02  0.00000000000E+00 0.  1.
</event>
<event>
 8    1  0.1164123E-009  0.9118800E+02  0.7816164E-02  0.1184000E+00
        -11   -1    0    0    0    0  0.00000000000E+00  0.00000000000E+00  0.45593999997E+02  0.45594000000E+02  0.51100000000E-03 0. -1.
         11   -1    0    0    0    0 -0.00000000000E+00 -0.00000000000E+00 -0.45593999997E+02  0.45594000000E+02  0.51100000000E-03 0.  1.
         23    2    1    2    0    0  0.44408920985E-15  0.00000000000E+00  0.00000000000E+00  0.91188000000E+02  0.91188000000E+02 0.  0.
    9900012    2    3    3    0    0  0.32656217662E+01  0.36750673364E+02  0.22854852046E+02  0.47787302537E+02  0.20000143585E+02 0.  0.
        -12    1    3    3    0    0 -0.32656217662E+01 -0.36750673364E+02 -0.22854852046E+02  0.43400697463E+02  0.00000000000E+00 0.  1.
         11    1    4    4    0    0  0.18888117988E+01  0.12229277574E+02  0.16632986511E+02  0.20731113827E+02  0.51100000000E-03 0. -1.
        -11    1    4    4    0    0 -0.35692544056E+01  0.72108820776E+01  0.11938882401E+00  0.80467789395E+01  0.51100000000E-03 0.  1.
        -12    1    4    4    0    0  0.49460643731E+01  0.17310513713E+02  0.61024767115E+01  0.19009409770E+02  0.00000000000E+00 0.  1.
</event>
<event>
 8    1  0.1164123E-009  0.9118800E+02  0.7816164E-02  0.1184000E+00
        -11   -1    0    0    0    0  0.00000000000E+00  0.00000000000E+00  0.45593999997E+02  0.45594000000E+02  0.51100000000E-03 0. -1.
         11   -1    0    0    0    0 -0.00000000000E+00 -0.00000000000E+00 -0.45593999997E+02  0.45594000000E+02  0.51100000000E-03 0.  1.
         23    2    1    2    0    0  0.00000000000E+00 -0.88817841970E-15  0.00000000000E+00  0.91188000000E+02  0.91188000000E+02 0.  0.
    9900012    2    3    3    0    0 -0.80974087488E+01 -0.46915541720E+01 -0.42379744270E+02  0.47787292248E+02  0.20000096675E+02 0.  0.
         12    1    3    3    0    0  0.80974087488E+01  0.46915541720E+01  0.42379744270E+02  0.43400707752E+02  0.00000000000E+00 0. -1.
         11    1    4    4    0    0 -0.85126697411E+01 -0.16557665914E+01 -0.10934810834E+02  0.13956260149E+02  0.51100000000E-03 0. -1.
        -11    1    4    4    0    0 -0.48678256257E+01 -0.36478073738E+01 -0.97355804316E+01  0.11479710430E+02  0.51100000000E-03 0.  1.
        -12    1    4    4    0    0  0.52830866181E+01  0.61201979317E+00 -0.21709353005E+02  0.22351321668E+02  0.00000000000E+00 0.  1.
</event>
<event>
 8    1  0.1164123E-009  0.9118800E+02  0.7816164E-02  0.1184000E+00
        -11   -1    0    0    0    0  0.00000000000E+00  0.00000000000E+00  0.45593999997E+02  0.45594000000E+02  0.51100000000E-03 0. -1.
         11   -1    0    0    0    0 -0.00000000000E+00 -0.00000000000E+00 -0.45593999997E+02  0.45594000000E+02  0.51100000000E-03 0.  1.
         23    2    1    2    0    0  0.00000000000E+00  0.00000000000E+00  0.00000000000E+00  0.91188000000E+02  0.91188000000E+02 0.  0.
    9900012    2    3    3    0    0  0.12894782924E+02 -0.70987575632E+01  0.40828368709E+02  0.47787268704E+02  0.19999989327E+02 0.  0.
        -12    1    3    3    0    0 -0.12894782924E+02  0.70987575632E+01 -0.40828368709E+02  0.43400731296E+02  0.00000000000E+00 0.  1.
         11    1    4    4    0    0 -0.38286424019E+01 -0.45926598027E+01  0.13888484398E+02  0.15120880458E+02  0.51100000000E-03 0. -1.
        -11    1    4    4    0    0  0.21434293518E+01  0.16858125207E+01  0.16858151691E+01  0.32059672934E+01  0.51100000000E-03 0.  1.
         12    1    4    4    0    0  0.14579995975E+02 -0.41919102811E+01  0.25254069142E+02  0.29460420952E+02  0.00000000000E+00 0. -1.
</event>
<event>
 8    1  0.1164123E-009  0.9118800E+02  0.7816164E-02  0.1184000E+00
        -11   -1    0    0    0    0  0.00000000000E+00  0.00000000000E+00  0.45593999997E+02  0.45594000000E+02  0.51100000000E-03 0. -1.
         11   -1    0    0    0    0 -0.00000000000E+00 -0.00000000000E+00 -0.45593999997E+02  0.45594000000E+02  0.51100000000E-03 0.  1.
         23    2    1    2    0    0  0.00000000000E+00 -0.71054273576E-14  0.35527136788E-14  0.91188000000E+02  0.91188000000E+02 0.  0.
    9900012    2    3    3    0    0  0.15059604565E+02  0.33357914514E+02  0.23325540968E+02  0.47787274063E+02  0.20000013765E+02 0.  0.
        -12    1    3    3    0    0 -0.15059604565E+02 -0.33357914514E+02 -0.23325540968E+02  0.43400725937E+02  0.00000000000E+00 0.  1.
         11    1    4    4    0    0  0.15804940110E+02  0.23272884461E+02  0.12161919989E+02  0.30648582041E+02  0.51100000000E-03 0. -1.
        -11    1    4    4    0    0  0.27125380246E+01  0.26248424345E+01  0.69273612402E+01  0.78889792973E+01  0.51100000000E-03 0.  1.
        -12    1    4    4    0    0 -0.34578735700E+01  0.74601876190E+01  0.42362597380E+01  0.92497127255E+01  0.00000000000E+00 0.  1.
</event>
<event>
 8    1  0.1164123E-009  0.9118800E+02  0.7816164E-02  0.1184000E+00
        -11   -1    0    0    0    0  0.00000000000E+00  0.00000000000E+00  0.45593999997E+02  0.45594000000E+02  0.51100000000E-03 0. -1.
         11   -1    0    0    0    0 -0.00000000000E+00 -0.00000000000E+00 -0.45593999997E+02  0.45594000000E+02  0.51100000000E-03 0.  1.
         23    2    1    2    0    0  0.00000000000E+00  0.44408920985E-15  0.00000000000E+00  0.91188000000E+02  0.91188000000E+02 0.  0.
    9900012    2    3    3    0    0 -0.19323585377E+02 -0.25932760941E+01  0.38774957141E+02  0.47787270352E+02  0.19999996843E+02 0.  0.
        -12    1    3    3    0    0  0.19323585377E+02  0.25932760941E+01 -0.38774957141E+02  0.43400729648E+02  0.00000000000E+00 0.  1.
         11    1    4    4    0    0 -0.10930138179E+02 -0.34393622691E+00  0.11152826187E+02  0.15619594904E+02  0.51100000000E-03 0. -1.
        -11    1    4    4    0    0 -0.21168622756E-01 -0.32610828043E+01 -0.26776734478E-01  0.32612614771E+01  0.51100000000E-03 0.  1.
        -12    1    4    4    0    0 -0.83722785748E+01  0.10117429371E+01  0.27648907688E+02  0.28906413971E+02  0.00000000000E+00 0.  1.
</event>
<event>
 8    1  0.1164123E-009  0.9118800E+02  0.7816164E-02  0.1184000E+00
        -11   -1    0    0    0    0  0.00000000000E+00  0.00000000000E+00  0.45593999997E+02  0.45594000000E+02  0.51100000000E-03 0. -1.
         11   -1    0    0    0    0 -0.00000000000E+00 -0.00000000000E+00 -0.45593999997E+02  0.45594000000E+02  0.51100000000E-03 0.  1.
         23    2    1    2    0    0  0.00000000000E+00  0.00000000000E+00  0.00000000000E+00  0.91188000000E+02  0.91188000000E+02 0.  0.
    9900012    2    3    3    0    0 -0.91478397498E+01 -0.20756862330E+02  0.37001258360E+02  0.47787269291E+02  0.19999992003E+02 0.  0.
        -12    1    3    3    0    0  0.91478397498E+01  0.20756862330E+02 -0.37001258360E+02  0.43400730709E+02  0.00000000000E+00 0.  1.
         11    1    4    4    0    0 -0.44010411177E+01 -0.11087590729E+02  0.24707644207E+02  0.27436681899E+02  0.51100000000E-03 0. -1.
        -11    1    4    4    0    0 -0.59433597896E+01 -0.39187768805E+00  0.82119608231E+01  0.10144623923E+02  0.51100000000E-03 0.  1.
        -12    1    4    4    0    0  0.11965611575E+01 -0.92773939130E+01  0.40816533299E+01  0.10205963469E+02  0.00000000000E+00 0.  1.
</event>
<event>
 8    1  0.1164123E-009  0.9118800E+02  0.7816164E-02  0.1184000E+00
        -11   -1    0    0    0    0  0.00000000000E+00  0.00000000000E+00  0.45593999997E+02  0.45594000000E+02  0.51100000000E-03 0. -1.
         11   -1    0    0    0    0 -0.00000000000E+00 -0.00000000000E+00 -0.45593999997E+02  0.45594000000E+02  0.51100000000E-03 0.  1.
         23    2    1    2    0    0  0.35527136788E-14  0.00000000000E+00 -0.88817841970E-15  0.91188000000E+02  0.91188000000E+02 0.  0.
    9900012    2    3    3    0    0 -0.18104418320E+02  0.38861279974E+02 -0.67567088695E+01  0.47787283892E+02  0.20000058578E+02 0.  0.
         12    1    3    3    0    0  0.18104418320E+02 -0.38861279974E+02  0.67567088695E+01  0.43400716108E+02  0.00000000000E+00 0. -1.
         11    1    4    4    0    0 -0.56669929755E+00 -0.66499688714E+00 -0.56515041174E+00  0.10405595623E+01  0.51100000000E-03 0. -1.
        -11    1    4    4    0    0 -0.10684509180E+01  0.15430843578E+02 -0.81714551730E+01  0.17493575987E+02  0.51100000000E-03 0.  1.
         12    1    4    4    0    0 -0.16469268104E+02  0.24095433283E+02  0.19798967153E+01  0.29253148343E+02  0.00000000000E+00 0. -1.
</event>
<event>
 8    1  0.1164123E-009  0.9118800E+02  0.7816164E-02  0.1184000E+00
        -11   -1    0    0    0    0  0.00000000000E+00  0.00000000000E+00  0.45593999997E+02  0.45594000000E+02  0.51100000000E-03 0. -1.
         11   -1    0    0    0    0 -0.00000000000E+00 -0.00000000000E+00 -0.45593999997E+02  0.45594000000E+02  0.51100000000E-03 0.  1.
         23    2    1    2    0    0 -0.88817841970E-15  0.00000000000E+00  0.00000000000E+00  0.91188000000E+02  0.91188000000E+02 0.  0.
    9900012    2    3    3    0    0  0.34988981829E+01 -0.36273610905E+02  0.23571288364E+02  0.47787276830E+02  0.20000026378E+02 0.  0.
        -12    1    3    3    0    0 -0.34988981829E+01  0.36273610905E+02 -0.23571288364E+02  0.43400723170E+02  0.00000000000E+00 0.  1.
         11    1    4    4    0    0 -0.38352429555E+01 -0.13157693284E+02  0.13043835792E+02  0.18920244013E+02  0.51100000000E-03 0. -1.
        -11    1    4    4    0    0 -0.98574753149E+00 -0.64772740197E+01  0.76016576696E+01  0.10035535686E+02  0.51100000000E-03 0.  1.
         12    1    4    4    0    0  0.83198886699E+01 -0.16638643601E+02  0.29257949018E+01  0.18831497130E+02  0.00000000000E+00 0. -1.
</event>
<event>
 8    1  0.1164123E-009  0.9118800E+02  0.7816164E-02  0.1184000E+00
        -11   -1    0    0    0    0  0.00000000000E+00  0.00000000000E+00  0.45593999997E+02  0.45594000000E+02  0.51100000000E-03 0. -1.
         11   -1    0    0    0    0 -0.00000000000E+00 -0.00000000000E+00 -0.45593999997E+02  0.45594000000E+02  0.51100000000E-03 0.  1.
         23    2    1    2    0    0  0.88817841970E-15  0.88817841970E-15  0.00000000000E+00  0.91188000000E+02  0.91188000000E+02 0.  0.
    9900012    2    3    3    0    0  0.40932981137E+01 -0.76557395212E+01  0.42523615548E+02  0.47787270555E+02  0.19999997768E+02 0.  0.
        -12    1    3    3    0    0 -0.40932981137E+01  0.76557395212E+01 -0.42523615548E+02  0.43400729445E+02  0.00000000000E+00 0.  1.
         11    1    4    4    0    0 -0.73187157713E+00  0.11251977756E+01  0.10486250650E+02  0.10571809637E+02  0.51100000000E-03 0. -1.
        -11    1    4    4    0    0 -0.55424502030E+01 -0.60692379472E+01  0.13703366270E+02  0.15979256894E+02  0.51100000000E-03 0.  1.
         12    1    4    4    0    0  0.10367619894E+02 -0.27116993497E+01  0.18333998628E+02  0.21236204024E+02  0.00000000000E+00 0. -1.
</event>
<event>
 8    1  0.1164123E-009  0.9118800E+02  0.7816164E-02  0.1184000E+00
        -11   -1    0    0    0    0  0.00000000000E+00  0.00000000000E+00  0.45593999997E+02  0.45594000000E+02  0.51100000000E-03 0. -1.
         11   -1    0    0    0    0 -0.00000000000E+00 -0.00000000000E+00 -0.45593999997E+02  0.45594000000E+02  0.51100000000E-03 0.  1.
         23    2    1    2    0    0  0.00000000000E+00 -0.17763568394E-14  0.00000000000E+00  0.91188000000E+02  0.91188000000E+02 0.  0.
    9900012    2    3    3    0    0 -0.22724111863E+02 -0.14249786244E+02  0.34120106713E+02  0.47787270166E+02  0.19999995997E+02 0.  0.
        -12    1    3    3    0    0  0.22724111863E+02  0.14249786244E+02 -0.34120106713E+02  0.43400729834E+02  0.00000000000E+00 0.  1.
         11    1    4    4    0    0  0.15082936816E+01 -0.11142974953E+01  0.35051085845E+00  0.19077386773E+01  0.51100000000E-03 0. -1.
        -11    1    4    4    0    0  0.93402597185E+00 -0.14337583687E+01  0.74022696533E+01  0.75974774667E+01  0.51100000000E-03 0.  1.
         12    1    4    4    0    0 -0.25166431517E+02 -0.11701730380E+02  0.26367326201E+02  0.38282054022E+02  0.00000000000E+00 0. -1.
</event>
<event>
 8    1  0.1164123E-009  0.9118800E+02  0.7816164E-02  0.1184000E+00
        -11   -1    0    0    0    0  0.00000000000E+00  0.00000000000E+00  0.45593999997E+02  0.45594000000E+02  0.51100000000E-03 0.  1.
         11   -1    0    0    0    0 -0.00000000000E+00 -0.00000000000E+00 -0.45593999997E+02  0.45594000000E+02  0.51100000000E-03 0. -1.
         23    2    1    2    0    0  0.71054273576E-14  0.00000000000E+00  0.35527136788E-14  0.91188000000E+02  0.91188000000E+02 0.  0.
    9900012    2    3    3    0    0 -0.35613211892E+02 -0.51312873264E+01 -0.24269163619E+02  0.47787271047E+02  0.20000000011E+02 0.  0.
         12    1    3    3    0    0  0.35613211892E+02  0.51312873264E+01  0.24269163619E+02  0.43400728953E+02  0.00000000000E+00 0. -1.
         11    1    4    4    0    0 -0.15718887890E+01  0.32336433545E+01  0.36743032739E+00  0.36141788854E+01  0.51100000000E-03 0. -1.
        -11    1    4    4    0    0  0.76457499504E+00 -0.26620842575E+00 -0.11643022794E+01  0.14181120928E+01  0.51100000000E-03 0.  1.
        -12    1    4    4    0    0 -0.34805898098E+02 -0.80987222551E+01 -0.23472291667E+02  0.42754980069E+02  0.00000000000E+00 0.  1.
</event>
<event>
 8    1  0.1164123E-009  0.9118800E+02  0.7816164E-02  0.1184000E+00
        -11   -1    0    0    0    0  0.00000000000E+00  0.00000000000E+00  0.45593999997E+02  0.45594000000E+02  0.51100000000E-03 0. -1.
         11   -1    0    0    0    0 -0.00000000000E+00 -0.00000000000E+00 -0.45593999997E+02  0.45594000000E+02  0.51100000000E-03 0.  1.
         23    2    1    2    0    0  0.00000000000E+00  0.00000000000E+00  0.00000000000E+00  0.91188000000E+02  0.91188000000E+02 0.  0.
    9900012    2    3    3    0    0  0.30481889219E+02 -0.40678888027E+01  0.30625642739E+02  0.47787270941E+02  0.19999999529E+02 0.  0.
        -12    1    3    3    0    0 -0.30481889219E+02  0.40678888027E+01 -0.30625642739E+02  0.43400729059E+02  0.00000000000E+00 0.  1.
         11    1    4    4    0    0  0.23160195420E+01 -0.20268319950E+00 -0.12465779411E+01  0.26379885941E+01  0.51100000000E-03 0. -1.
        -11    1    4    4    0    0  0.15494700156E+00  0.62020651921E+00 -0.13318419465E+01  0.14773178166E+01  0.51100000000E-03 0.  1.
         12    1    4    4    0    0  0.28010922675E+02 -0.44854121224E+01  0.33204062627E+02  0.43671964530E+02  0.00000000000E+00 0. -1.
</event>
<event>
 8    1  0.1164123E-009  0.9118800E+02  0.7816164E-02  0.1184000E+00
        -11   -1    0    0    0    0  0.00000000000E+00  0.00000000000E+00  0.45593999997E+02  0.45594000000E+02  0.51100000000E-03 0.  1.
         11   -1    0    0    0    0 -0.00000000000E+00 -0.00000000000E+00 -0.45593999997E+02  0.45594000000E+02  0.51100000000E-03 0. -1.
         23    2    1    2    0    0 -0.71054273576E-14  0.00000000000E+00  0.00000000000E+00  0.91188000000E+02  0.91188000000E+02 0.  0.
    9900012    2    3    3    0    0  0.33455524562E+02  0.19054220316E+02 -0.20032170342E+02  0.47787270926E+02  0.19999999459E+02 0.  0.
         12    1    3    3    0    0 -0.33455524562E+02 -0.19054220316E+02  0.20032170342E+02  0.43400729074E+02  0.00000000000E+00 0. -1.
         11    1    4    4    0    0  0.93088451271E+01  0.71478498128E+01 -0.58222330060E+01  0.13101326344E+02  0.51100000000E-03 0.  1.
        -11    1    4    4    0    0  0.18734150696E+02  0.42542470297E+00 -0.10410836759E+02  0.21436765399E+02  0.51100000000E-03 0. -1.
         12    1    4    4    0    0  0.54125287388E+01  0.11480945800E+02 -0.37991005774E+01  0.13249179183E+02  0.00000000000E+00 0. -1.
</event>
<event>
 8    1  0.1164123E-009  0.9118800E+02  0.7816164E-02  0.1184000E+00
        -11   -1    0    0    0    0  0.00000000000E+00  0.00000000000E+00  0.45593999997E+02  0.45594000000E+02  0.51100000000E-03 0. -1.
         11   -1    0    0    0    0 -0.00000000000E+00 -0.00000000000E+00 -0.45593999997E+02  0.45594000000E+02  0.51100000000E-03 0.  1.
         23    2    1    2    0    0  0.00000000000E+00  0.00000000000E+00  0.00000000000E+00  0.91188000000E+02  0.91188000000E+02 0.  0.
    9900012    2    3    3    0    0 -0.95834410977E+01 -0.34253679560E+02 -0.24868971799E+02  0.47787278059E+02  0.20000031980E+02 0.  0.
         12    1    3    3    0    0  0.95834410977E+01  0.34253679560E+02  0.24868971799E+02  0.43400721941E+02  0.00000000000E+00 0. -1.
         11    1    4    4    0    0  0.20277519059E+01 -0.64182716058E+01 -0.24368484254E+01  0.71585067372E+01  0.51100000000E-03 0. -1.
        -11    1    4    4    0    0 -0.83914564353E+01 -0.29164305006E+02 -0.19469003696E+02  0.36055725382E+02  0.51100000000E-03 0.  1.
         12    1    4    4    0    0 -0.32197365684E+01  0.13288970519E+01 -0.29631196774E+01  0.45730459398E+01  0.00000000000E+00 0. -1.
</event>
<event>
 8    1  0.1164123E-009  0.9118800E+02  0.7816164E-02  0.1184000E+00
        -11   -1    0    0    0    0  0.00000000000E+00  0.00000000000E+00  0.45593999997E+02  0.45594000000E+02  0.51100000000E-03 0. -1.
         11   -1    0    0    0    0 -0.00000000000E+00 -0.00000000000E+00 -0.45593999997E+02  0.45594000000E+02  0.51100000000E-03 0.  1.
         23    2    1    2    0    0  0.00000000000E+00  0.00000000000E+00  0.00000000000E+00  0.91188000000E+02  0.91188000000E+02 0.  0.
    9900012    2    3    3    0    0 -0.32883221839E+02 -0.27725312931E+02  0.57986160408E+01  0.47787271853E+02  0.20000003689E+02 0.  0.
        -12    1    3    3    0    0  0.32883221839E+02  0.27725312931E+02 -0.57986160408E+01  0.43400728147E+02  0.00000000000E+00 0.  1.
         11    1    4    4    0    0 -0.23618544655E+01 -0.51539621112E+01  0.18817631090E+01  0.59735010354E+01  0.51100000000E-03 0. -1.
        -11    1    4    4    0    0 -0.15249804450E+01 -0.94966597666E+01 -0.82839689944E+00  0.96539294468E+01  0.51100000000E-03 0.  1.
         12    1    4    4    0    0 -0.28996386929E+02 -0.13074691053E+02  0.47452498313E+01  0.32159841371E+02  0.00000000000E+00 0. -1.
</event>
<event>
 8    1  0.1164123E-009  0.9118800E+02  0.7816164E-02  0.1184000E+00
        -11   -1    0    0    0    0  0.00000000000E+00  0.00000000000E+00  0.45593999997E+02  0.45594000000E+02  0.51100000000E-03 0. -1.
         11   -1    0    0    0    0 -0.00000000000E+00 -0.00000000000E+00 -0.45593999997E+02  0.45594000000E+02  0.51100000000E-03 0.  1.
         23    2    1    2    0    0  0.00000000000E+00  0.00000000000E+00  0.00000000000E+00  0.91188000000E+02  0.91188000000E+02 0.  0.
    9900012    2    3    3    0    0 -0.12978653450E+02 -0.20362935611E+02  0.36062845044E+02  0.47787269767E+02  0.19999994177E+02 0.  0.
        -12    1    3    3    0    0  0.12978653450E+02  0.20362935611E+02 -0.36062845044E+02  0.43400730233E+02  0.00000000000E+00 0.  1.
         11    1    4    4    0    0 -0.52356688724E+00 -0.16685975680E+01 -0.13351462724E+00  0.17539003809E+01  0.51100000000E-03 0. -1.
        -11    1    4    4    0    0 -0.66622725943E+01 -0.16177992228E+02  0.12481438592E+02  0.21491850043E+02  0.51100000000E-03 0.  1.
         12    1    4    4    0    0 -0.57928139689E+01 -0.25163458151E+01  0.23714921078E+02  0.24541519344E+02  0.00000000000E+00 0. -1.
</event>
<event>
 8    1  0.1164123E-009  0.9118800E+02  0.7816164E-02  0.1184000E+00
        -11   -1    0    0    0    0  0.00000000000E+00  0.00000000000E+00  0.45593999997E+02  0.45594000000E+02  0.51100000000E-03 0. -1.
         11   -1    0    0    0    0 -0.00000000000E+00 -0.00000000000E+00 -0.45593999997E+02  0.45594000000E+02  0.51100000000E-03 0.  1.
         23    2    1    2    0    0  0.00000000000E+00 -0.44408920985E-15  0.00000000000E+00  0.91188000000E+02  0.91188000000E+02 0.  0.
    9900012    2    3    3    0    0 -0.15554724962E+02  0.27293238749E+01  0.40425544600E+02  0.47787270355E+02  0.19999996857E+02 0.  0.
        -12    1    3    3    0    0  0.15554724962E+02 -0.27293238749E+01 -0.40425544600E+02  0.43400729645E+02  0.00000000000E+00 0.  1.
         11    1    4    4    0    0 -0.18508669006E+02  0.61076571556E+01  0.28626964464E+02  0.34632028514E+02  0.51100000000E-03 0. -1.
        -11    1    4    4    0    0  0.65153905477E+00 -0.14795048920E+01  0.87160985895E+01  0.88647511385E+01  0.51100000000E-03 0.  1.
         12    1    4    4    0    0  0.23024049887E+01 -0.18988283888E+01  0.30824815465E+01  0.42904907023E+01  0.00000000000E+00 0. -1.
</event>
<event>
 8    1  0.1164123E-009  0.9118800E+02  0.7816164E-02  0.1184000E+00
        -11   -1    0    0    0    0  0.00000000000E+00  0.00000000000E+00  0.45593999997E+02  0.45594000000E+02  0.51100000000E-03 0. -1.
         11   -1    0    0    0    0 -0.00000000000E+00 -0.00000000000E+00 -0.45593999997E+02  0.45594000000E+02  0.51100000000E-03 0.  1.
         23    2    1    2    0    0  0.00000000000E+00  0.17763568394E-14  0.00000000000E+00  0.91188000000E+02  0.91188000000E+02 0.  0.
    9900012    2    3    3    0    0 -0.21289788954E+02  0.44998405022E+01 -0.37551549278E+02  0.47787279598E+02  0.20000039000E+02 0.  0.
         12    1    3    3    0    0  0.21289788954E+02 -0.44998405022E+01  0.37551549278E+02  0.43400720402E+02  0.00000000000E+00 0. -1.
         11    1    4    4    0    0 -0.18482502151E+02  0.10918557105E+02 -0.30984330977E+02  0.37694118127E+02  0.51100000000E-03 0.  1.
        -11    1    4    4    0    0 -0.15258261153E+01 -0.92397131052E+00 -0.60278923930E+00  0.18828763754E+01  0.51100000000E-03 0. -1.
        -12    1    4    4    0    0 -0.12814606877E+01 -0.54947452927E+01 -0.59644290618E+01  0.82102850961E+01  0.00000000000E+00 0.  1.
</event>
<event>
 8    1  0.1164123E-009  0.9118800E+02  0.7816164E-02  0.1184000E+00
        -11   -1    0    0    0    0  0.00000000000E+00  0.00000000000E+00  0.45593999997E+02  0.45594000000E+02  0.51100000000E-03 0. -1.
         11   -1    0    0    0    0 -0.00000000000E+00 -0.00000000000E+00 -0.45593999997E+02  0.45594000000E+02  0.51100000000E-03 0.  1.
         23    2    1    2    0    0  0.00000000000E+00 -0.88817841970E-15  0.00000000000E+00  0.91188000000E+02  0.91188000000E+02 0.  0.
    9900012    2    3    3    0    0  0.21475555514E+02 -0.44703336075E+01 -0.37449165016E+02  0.47787270425E+02  0.19999997176E+02 0.  0.
         12    1    3    3    0    0 -0.21475555514E+02  0.44703336075E+01  0.37449165016E+02  0.43400729575E+02  0.00000000000E+00 0. -1.
         11    1    4    4    0    0  0.18346089250E+02 -0.84747636766E+01 -0.30999244428E+02  0.37004780306E+02  0.51100000000E-03 0.  1.
        -11    1    4    4    0    0 -0.10657560945E+01 -0.40881164485E+00 -0.40996484691E+01  0.42555940649E+01  0.51100000000E-03 0. -1.
         12    1    4    4    0    0  0.41952223588E+01  0.44132417139E+01 -0.23502721192E+01  0.65268960540E+01  0.00000000000E+00 0. -1.
</event>
<event>
 8    1  0.1164123E-009  0.9118800E+02  0.7816164E-02  0.1184000E+00
        -11   -1    0    0    0    0  0.00000000000E+00  0.00000000000E+00  0.45593999997E+02  0.45594000000E+02  0.51100000000E-03 0. -1.
         11   -1    0    0    0    0 -0.00000000000E+00 -0.00000000000E+00 -0.45593999997E+02  0.45594000000E+02  0.51100000000E-03 0.  1.
         23    2    1    2    0    0  0.00000000000E+00  0.00000000000E+00  0.00000000000E+00  0.91188000000E+02  0.91188000000E+02 0.  0.
    9900012    2    3    3    0    0 -0.12326713343E+02  0.18648833094E+02 -0.37200760771E+02  0.47787269135E+02  0.19999991296E+02 0.  0.
         12    1    3    3    0    0  0.12326713343E+02 -0.18648833094E+02  0.37200760771E+02  0.43400730865E+02  0.00000000000E+00 0. -1.
         11    1    4    4    0    0 -0.10046489989E+02  0.10471100809E+02 -0.16921832337E+02  0.22291799459E+02  0.51100000000E-03 0. -1.
        -11    1    4    4    0    0 -0.36334635960E+01  0.11183492416E+02 -0.17952808723E+02  0.21461032166E+02  0.51100000000E-03 0.  1.
        -12    1    4    4    0    0  0.13532402414E+01 -0.30057601304E+01 -0.23261197118E+01  0.40344375105E+01  0.00000000000E+00 0.  1.
</event>
<event>
 8    1  0.1164123E-009  0.9118800E+02  0.7816164E-02  0.1184000E+00
        -11   -1    0    0    0    0  0.00000000000E+00  0.00000000000E+00  0.45593999997E+02  0.45594000000E+02  0.51100000000E-03 0. -1.
         11   -1    0    0    0    0 -0.00000000000E+00 -0.00000000000E+00 -0.45593999997E+02  0.45594000000E+02  0.51100000000E-03 0.  1.
         23    2    1    2    0    0  0.00000000000E+00  0.35527136788E-14  0.00000000000E+00  0.91188000000E+02  0.91188000000E+02 0.  0.
    9900012    2    3    3    0    0 -0.16578316803E+02 -0.18235208272E+02  0.35724777828E+02  0.47787272361E+02  0.20000006002E+02 0.  0.
        -12    1    3    3    0    0  0.16578316803E+02  0.18235208272E+02 -0.35724777828E+02  0.43400727639E+02  0.00000000000E+00 0.  1.
         11    1    4    4    0    0 -0.13006607553E+02 -0.12359461222E+01  0.17578562803E+02  0.21902175082E+02  0.51100000000E-03 0.  1.
        -11    1    4    4    0    0 -0.88572666532E+00 -0.46045413021E+01  0.93219907421E+01  0.10434837037E+02  0.51100000000E-03 0. -1.
        -12    1    4    4    0    0 -0.26859825849E+01 -0.12394720848E+02  0.88242242827E+01  0.15450260242E+02  0.00000000000E+00 0.  1.
</event>
<event>
 8    1  0.1164123E-009  0.9118800E+02  0.7816164E-02  0.1184000E+00
        -11   -1    0    0    0    0  0.00000000000E+00  0.00000000000E+00  0.45593999997E+02  0.45594000000E+02  0.51100000000E-03 0. -1.
         11   -1    0    0    0    0 -0.00000000000E+00 -0.00000000000E+00 -0.45593999997E+02  0.45594000000E+02  0.51100000000E-03 0.  1.
         23    2    1    2    0    0  0.35527136788E-14  0.35527136788E-14  0.00000000000E+00  0.91188000000E+02  0.91188000000E+02 0.  0.
    9900012    2    3    3    0    0  0.19147216256E+02  0.16006259499E+02 -0.35507845484E+02  0.47787270462E+02  0.19999997345E+02 0.  0.
         12    1    3    3    0    0 -0.19147216256E+02 -0.16006259499E+02  0.35507845484E+02  0.43400729538E+02  0.00000000000E+00 0. -1.
         11    1    4    4    0    0  0.14704094272E+02  0.37812432799E+01 -0.18288271516E+02  0.23769077904E+02  0.51100000000E-03 0. -1.
        -11    1    4    4    0    0  0.62325501584E+01  0.65760898982E+01 -0.47904144834E+01  0.10248790710E+02  0.51100000000E-03 0.  1.
         12    1    4    4    0    0 -0.17894281746E+01  0.56489263214E+01 -0.12429159484E+02  0.13769401848E+02  0.00000000000E+00 0. -1.
</event>
<event>
 8    1  0.1164123E-009  0.9118800E+02  0.7816164E-02  0.1184000E+00
        -11   -1    0    0    0    0  0.00000000000E+00  0.00000000000E+00  0.45593999997E+02  0.45594000000E+02  0.51100000000E-03 0. -1.
         11   -1    0    0    0    0 -0.00000000000E+00 -0.00000000000E+00 -0.45593999997E+02  0.45594000000E+02  0.51100000000E-03 0.  1.
         23    2    1    2    0    0  0.88817841970E-15  0.00000000000E+00 -0.71054273576E-14  0.91188000000E+02  0.91188000000E+02 0.  0.
    9900012    2    3    3    0    0 -0.54365178913E+01 -0.21595814875E+02  0.37251685825E+02  0.47787273696E+02  0.20000012089E+02 0.  0.
        -12    1    3    3    0    0  0.54365178913E+01  0.21595814875E+02 -0.37251685825E+02  0.43400726304E+02  0.00000000000E+00 0.  1.
         11    1    4    4    0    0  0.17447890692E+01 -0.84909011408E+01  0.91026872483E+01  0.12569749659E+02  0.51100000000E-03 0. -1.
        -11    1    4    4    0    0  0.43137931277E+01 -0.37358534564E+01  0.12028176710E+02  0.13313243310E+02  0.51100000000E-03 0.  1.
        -12    1    4    4    0    0 -0.11495100088E+02 -0.93690602778E+01  0.16120821867E+02  0.21904280727E+02  0.00000000000E+00 0.  1.
</event>
<event>
 8    1  0.1164123E-009  0.9118800E+02  0.7816164E-02  0.1184000E+00
        -11   -1    0    0    0    0  0.00000000000E+00  0.00000000000E+00  0.45593999997E+02  0.45594000000E+02  0.51100000000E-03 0. -1.
         11   -1    0    0    0    0 -0.00000000000E+00 -0.00000000000E+00 -0.45593999997E+02  0.45594000000E+02  0.51100000000E-03 0.  1.
         23    2    1    2    0    0  0.00000000000E+00  0.00000000000E+00  0.35527136788E-14  0.91188000000E+02  0.91188000000E+02 0.  0.
    9900012    2    3    3    0    0 -0.33279115150E+02 -0.10091264994E+02 -0.25967088425E+02  0.47787276324E+02  0.20000024072E+02 0.  0.
         12    1    3    3    0    0  0.33279115150E+02  0.10091264994E+02  0.25967088425E+02  0.43400723676E+02  0.00000000000E+00 0. -1.
         11    1    4    4    0    0 -0.15362896866E+02 -0.65928899011E+01 -0.12692713519E+02  0.20990230444E+02  0.51100000000E-03 0. -1.
        -11    1    4    4    0    0 -0.20221704102E+02 -0.29912699024E+01 -0.13384661445E+02  0.24433873510E+02  0.51100000000E-03 0.  1.
         12    1    4    4    0    0  0.23054858182E+01 -0.50710519007E+00  0.11028653923E+00  0.23631723705E+01  0.00000000000E+00 0. -1.
</event>
<event>
 8    1  0.1164123E-009  0.9118800E+02  0.7816164E-02  0.1184000E+00
        -11   -1    0    0    0    0  0.00000000000E+00  0.00000000000E+00  0.45593999997E+02  0.45594000000E+02  0.51100000000E-03 0. -1.
         11   -1    0    0    0    0 -0.00000000000E+00 -0.00000000000E+00 -0.45593999997E+02  0.45594000000E+02  0.51100000000E-03 0.  1.
         23    2    1    2    0    0  0.00000000000E+00  0.00000000000E+00  0.00000000000E+00  0.91188000000E+02  0.91188000000E+02 0.  0.
    9900012    2    3    3    0    0  0.31653201698E+02 -0.19102806190E+02  0.22732816872E+02  0.47787270225E+02  0.19999996263E+02 0.  0.
        -12    1    3    3    0    0 -0.31653201698E+02  0.19102806190E+02 -0.22732816872E+02  0.43400729775E+02  0.00000000000E+00 0.  1.
         11    1    4    4    0    0  0.47778658935E+01 -0.16715606976E+01  0.39339991140E-01  0.50619823744E+01  0.51100000000E-03 0.  1.
        -11    1    4    4    0    0  0.23175335149E+01 -0.59963551679E+01  0.11976727075E+02  0.13592984535E+02  0.51100000000E-03 0. -1.
         12    1    4    4    0    0  0.24557802290E+02 -0.11434890324E+02  0.10716749806E+02  0.29132303315E+02  0.00000000000E+00 0. -1.
</event>
<event>
 8    1  0.1164123E-009  0.9118800E+02  0.7816164E-02  0.1184000E+00
        -11   -1    0    0    0    0  0.00000000000E+00  0.00000000000E+00  0.45593999997E+02  0.45594000000E+02  0.51100000000E-03 0. -1.
         11   -1    0    0    0    0 -0.00000000000E+00 -0.00000000000E+00 -0.45593999997E+02  0.45594000000E+02  0.51100000000E-03 0.  1.
         23    2    1    2    0    0  0.00000000000E+00  0.00000000000E+00  0.00000000000E+00  0.91188000000E+02  0.91188000000E+02 0.  0.
    9900012    2    3    3    0    0 -0.37102449219E+02  0.96596522696E+01 -0.20340173794E+02  0.47787270858E+02  0.19999999152E+02 0.  0.
         12    1    3    3    0    0  0.37102449219E+02 -0.96596522696E+01  0.20340173794E+02  0.43400729142E+02  0.00000000000E+00 0. -1.
         11    1    4    4    0    0 -0.29062127243E+02  0.15068544895E+01 -0.18586377954E+02  0.34530150536E+02  0.51100000000E-03 0. -1.
        -11    1    4    4    0    0 -0.56905116721E+00 -0.37169466579E+00 -0.17976258378E+01  0.19218311761E+01  0.51100000000E-03 0.  1.
         12    1    4    4    0    0 -0.74712708095E+01  0.85244924459E+01  0.43829997537E-01  0.11335289147E+02  0.00000000000E+00 0. -1.
</event>
<event>
 8    1  0.1164123E-009  0.9118800E+02  0.7816164E-02  0.1184000E+00
        -11   -1    0    0    0    0  0.00000000000E+00  0.00000000000E+00  0.45593999997E+02  0.45594000000E+02  0.51100000000E-03 0. -1.
         11   -1    0    0    0    0 -0.00000000000E+00 -0.00000000000E+00 -0.45593999997E+02  0.45594000000E+02  0.51100000000E-03 0.  1.
         23    2    1    2    0    0  0.00000000000E+00  0.00000000000E+00  0.00000000000E+00  0.91188000000E+02  0.91188000000E+02 0.  0.
    9900012    2    3    3    0    0 -0.21338935371E+02  0.21174657602E+02 -0.31303461005E+02  0.47787274681E+02  0.20000016580E+02 0.  0.
         12    1    3    3    0    0  0.21338935371E+02 -0.21174657602E+02  0.31303461005E+02  0.43400725319E+02  0.00000000000E+00 0. -1.
         11    1    4    4    0    0  0.18406845709E+00  0.13885440923E+01  0.66021611634E+00  0.15484900628E+01  0.51100000000E-03 0. -1.
        -11    1    4    4    0    0 -0.24338570228E+01  0.11784021620E+02 -0.16404722915E+02  0.20344575683E+02  0.51100000000E-03 0.  1.
        -12    1    4    4    0    0 -0.19089146806E+02  0.80020918894E+01 -0.15558954206E+02  0.25894208935E+02  0.00000000000E+00 0.  1.
</event>
<event>
 8    1  0.1164123E-009  0.9118800E+02  0.7816164E-02  0.1184000E+00
        -11   -1    0    0    0    0  0.00000000000E+00  0.00000000000E+00  0.45593999997E+02  0.45594000000E+02  0.51100000000E-03 0. -1.
         11   -1    0    0    0    0 -0.00000000000E+00 -0.00000000000E+00 -0.45593999997E+02  0.45594000000E+02  0.51100000000E-03 0.  1.
         23    2    1    2    0    0  0.00000000000E+00 -0.35527136788E-14  0.35527136788E-14  0.91188000000E+02  0.91188000000E+02 0.  0.
    9900012    2    3    3    0    0 -0.19801798643E+02  0.25924504434E+02 -0.28625720307E+02  0.47787273938E+02  0.20000013191E+02 0.  0.
         12    1    3    3    0    0  0.19801798643E+02 -0.25924504434E+02  0.28625720307E+02  0.43400726062E+02  0.00000000000E+00 0. -1.
         11    1    4    4    0    0 -0.40961715589E+01  0.80588045662E+01 -0.11472230223E+02  0.14605992573E+02  0.51100000000E-03 0. -1.
        -11    1    4    4    0    0 -0.87242120649E+01  0.17255659910E+02 -0.17617261680E+02  0.26157935401E+02  0.51100000000E-03 0.  1.
         12    1    4    4    0    0 -0.69814150198E+01  0.61003995787E+00  0.46377159706E+00  0.70233459635E+01  0.00000000000E+00 0. -1.
</event>
<event>
 8    1  0.1164123E-009  0.9118800E+02  0.7816164E-02  0.1184000E+00
        -11   -1    0    0    0    0  0.00000000000E+00  0.00000000000E+00  0.45593999997E+02  0.45594000000E+02  0.51100000000E-03 0. -1.
         11   -1    0    0    0    0 -0.00000000000E+00 -0.00000000000E+00 -0.45593999997E+02  0.45594000000E+02  0.51100000000E-03 0.  1.
         23    2    1    2    0    0  0.00000000000E+00  0.00000000000E+00  0.00000000000E+00  0.91188000000E+02  0.91188000000E+02 0.  0.
    9900012    2    3    3    0    0  0.18254306423E+02  0.35187930108E+02  0.17669558283E+02  0.47787269382E+02  0.19999992421E+02 0.  0.
        -12    1    3    3    0    0 -0.18254306423E+02 -0.35187930108E+02 -0.17669558283E+02  0.43400730618E+02  0.00000000000E+00 0.  1.
         11    1    4    4    0    0 -0.51695041985E-01 -0.22017175039E+00  0.70951079475E-01  0.23702804441E+00  0.51100000000E-03 0. -1.
        -11    1    4    4    0    0  0.12097894158E+01  0.28502495413E+01 -0.38796154004E+01  0.49637615570E+01  0.51100000000E-03 0.  1.
         12    1    4    4    0    0  0.17096212049E+02  0.32557852317E+02  0.21478222604E+02  0.42586479781E+02  0.00000000000E+00 0. -1.
</event>
<event>
 8    1  0.1164123E-009  0.9118800E+02  0.7816164E-02  0.1184000E+00
        -11   -1    0    0    0    0  0.00000000000E+00  0.00000000000E+00  0.45593999997E+02  0.45594000000E+02  0.51100000000E-03 0.  1.
         11   -1    0    0    0    0 -0.00000000000E+00 -0.00000000000E+00 -0.45593999997E+02  0.45594000000E+02  0.51100000000E-03 0. -1.
         23    2    1    2    0    0  0.00000000000E+00  0.00000000000E+00  0.22204460493E-15  0.91188000000E+02  0.91188000000E+02 0.  0.
    9900012    2    3    3    0    0 -0.22196393376E+02  0.37247976677E+02 -0.18793973863E+01  0.47787265215E+02  0.19999973419E+02 0.  0.
         12    1    3    3    0    0  0.22196393376E+02 -0.37247976677E+02  0.18793973863E+01  0.43400734785E+02  0.00000000000E+00 0. -1.
         11    1    4    4    0    0  0.69235420876E+00  0.16519238074E+02  0.15552387747E+01  0.16606726011E+02  0.51100000000E-03 0. -1.
        -11    1    4    4    0    0 -0.40019937077E+01  0.38520313636E+01 -0.16250781869E+01  0.57874846555E+01  0.51100000000E-03 0.  1.
         12    1    4    4    0    0 -0.18886753877E+02  0.16876707239E+02 -0.18095579740E+01  0.25393054548E+02  0.00000000000E+00 0. -1.
</event>
<event>
 8    1  0.1164123E-009  0.9118800E+02  0.7816164E-02  0.1184000E+00
        -11   -1    0    0    0    0  0.00000000000E+00  0.00000000000E+00  0.45593999997E+02  0.45594000000E+02  0.51100000000E-03 0. -1.
         11   -1    0    0    0    0 -0.00000000000E+00 -0.00000000000E+00 -0.45593999997E+02  0.45594000000E+02  0.51100000000E-03 0.  1.
         23    2    1    2    0    0  0.00000000000E+00 -0.88817841970E-15  0.00000000000E+00  0.91188000000E+02  0.91188000000E+02 0.  0.
    9900012    2    3    3    0    0  0.86151879329E+01  0.53434337646E+01 -0.42200108057E+02  0.47787275726E+02  0.20000021343E+02 0.  0.
         12    1    3    3    0    0 -0.86151879329E+01 -0.53434337646E+01  0.42200108057E+02  0.43400724274E+02  0.00000000000E+00 0. -1.
         11    1    4    4    0    0  0.56014257382E+01  0.52161842372E+01 -0.38297078506E+01  0.85586921185E+01  0.51100000000E-03 0. -1.
        -11    1    4    4    0    0  0.35561067875E+01  0.29090272272E+01 -0.15024113473E+02  0.15710898154E+02  0.51100000000E-03 0.  1.
        -12    1    4    4    0    0 -0.54234459276E+00 -0.27817776997E+01 -0.23346286733E+02  0.23517685453E+02  0.00000000000E+00 0.  1.
</event>
<event>
 8    1  0.1164123E-009  0.9118800E+02  0.7816164E-02  0.1184000E+00
        -11   -1    0    0    0    0  0.00000000000E+00  0.00000000000E+00  0.45593999997E+02  0.45594000000E+02  0.51100000000E-03 0.  1.
         11   -1    0    0    0    0 -0.00000000000E+00 -0.00000000000E+00 -0.45593999997E+02  0.45594000000E+02  0.51100000000E-03 0. -1.
         23    2    1    2    0    0  0.00000000000E+00  0.00000000000E+00  0.00000000000E+00  0.91188000000E+02  0.91188000000E+02 0.  0.
    9900012    2    3    3    0    0 -0.38320891560E+02 -0.12102234003E+02  0.16391110944E+02  0.47787270561E+02  0.19999997796E+02 0.  0.
        -12    1    3    3    0    0  0.38320891560E+02  0.12102234003E+02 -0.16391110944E+02  0.43400729439E+02  0.00000000000E+00 0.  1.
         11    1    4    4    0    0 -0.38383914291E+01 -0.48948213037E+01  0.60408735772E+01  0.86709098827E+01  0.51100000000E-03 0. -1.
        -11    1    4    4    0    0 -0.65060511255E+01 -0.69485271099E+01  0.45203777329E+01  0.10537767570E+02  0.51100000000E-03 0.  1.
         12    1    4    4    0    0 -0.27976449006E+02 -0.25888558923E+00  0.58298596343E+01  0.28578593109E+02  0.00000000000E+00 0. -1.
</event>
<event>
 8    1  0.1164123E-009  0.9118800E+02  0.7816164E-02  0.1184000E+00
        -11   -1    0    0    0    0  0.00000000000E+00  0.00000000000E+00  0.45593999997E+02  0.45594000000E+02  0.51100000000E-03 0. -1.
         11   -1    0    0    0    0 -0.00000000000E+00 -0.00000000000E+00 -0.45593999997E+02  0.45594000000E+02  0.51100000000E-03 0.  1.
         23    2    1    2    0    0  0.00000000000E+00 -0.35527136788E-14  0.35527136788E-14  0.91188000000E+02  0.91188000000E+02 0.  0.
    9900012    2    3    3    0    0  0.28314203570E+02 -0.24800227114E+02  0.21607359768E+02  0.47787269766E+02  0.19999994169E+02 0.  0.
        -12    1    3    3    0    0 -0.28314203570E+02  0.24800227114E+02 -0.21607359768E+02  0.43400730234E+02  0.00000000000E+00 0.  1.
         11    1    4    4    0    0  0.25916554218E+01 -0.30520925921E+01 -0.23164677855E+01  0.46257940160E+01  0.51100000000E-03 0. -1.
        -11    1    4    4    0    0  0.16420781318E+02 -0.11065076122E+02  0.67952716101E+01  0.20934509432E+02  0.51100000000E-03 0.  1.
         12    1    4    4    0    0  0.93017668311E+01 -0.10683058400E+02  0.17128555943E+02  0.22226966317E+02  0.00000000000E+00 0. -1.
</event>
<event>
 8    1  0.1164123E-009  0.9118800E+02  0.7816164E-02  0.1184000E+00
        -11   -1    0    0    0    0  0.00000000000E+00  0.00000000000E+00  0.45593999997E+02  0.45594000000E+02  0.51100000000E-03 0. -1.
         11   -1    0    0    0    0 -0.00000000000E+00 -0.00000000000E+00 -0.45593999997E+02  0.45594000000E+02  0.51100000000E-03 0.  1.
         23    2    1    2    0    0 -0.44408920985E-15  0.00000000000E+00  0.00000000000E+00  0.91188000000E+02  0.91188000000E+02 0.  0.
    9900012    2    3    3    0    0  0.38178039646E+01 -0.14569970336E+02 -0.40703365367E+02  0.47787267115E+02  0.19999982086E+02 0.  0.
         12    1    3    3    0    0 -0.38178039646E+01  0.14569970336E+02  0.40703365367E+02  0.43400732885E+02  0.00000000000E+00 0. -1.
         11    1    4    4    0    0  0.31097345293E+01 -0.54576091320E+01 -0.11032203823E+01  0.63775419837E+01  0.51100000000E-03 0. -1.
        -11    1    4    4    0    0  0.12547394378E+01 -0.44721753361E+01 -0.65432152505E+01  0.80242376192E+01  0.51100000000E-03 0.  1.
         12    1    4    4    0    0 -0.54667000245E+00 -0.46401858680E+01 -0.33056929734E+02  0.33385487512E+02  0.00000000000E+00 0. -1.
</event>
<event>
 8    1  0.1164123E-009  0.9118800E+02  0.7816164E-02  0.1184000E+00
        -11   -1    0    0    0    0  0.00000000000E+00  0.00000000000E+00  0.45593999997E+02  0.45594000000E+02  0.51100000000E-03 0.  1.
         11   -1    0    0    0    0 -0.00000000000E+00 -0.00000000000E+00 -0.45593999997E+02  0.45594000000E+02  0.51100000000E-03 0. -1.
         23    2    1    2    0    0 -0.71054273576E-14  0.00000000000E+00  0.00000000000E+00  0.91188000000E+02  0.91188000000E+02 0.  0.
    9900012    2    3    3    0    0  0.31569155511E+02 -0.21891983559E+02 -0.20192895455E+02  0.47787267856E+02  0.19999985462E+02 0.  0.
         12    1    3    3    0    0 -0.31569155511E+02  0.21891983559E+02  0.20192895455E+02  0.43400732144E+02  0.00000000000E+00 0. -1.
         11    1    4    4    0    0  0.15409053238E+02 -0.13965691572E+02 -0.52315126566E+01  0.21444071155E+02  0.51100000000E-03 0. -1.
        -11    1    4    4    0    0  0.10236350331E+02 -0.22051391195E+01 -0.15219638096E+01  0.10581204125E+02  0.51100000000E-03 0.  1.
         12    1    4    4    0    0  0.59237519418E+01 -0.57211528674E+01 -0.13439418989E+02  0.15761992576E+02  0.00000000000E+00 0. -1.
</event>
<event>
 8    1  0.1164123E-009  0.9118800E+02  0.7816164E-02  0.1184000E+00
        -11   -1    0    0    0    0  0.00000000000E+00  0.00000000000E+00  0.45593999997E+02  0.45594000000E+02  0.51100000000E-03 0. -1.
         11   -1    0    0    0    0 -0.00000000000E+00 -0.00000000000E+00 -0.45593999997E+02  0.45594000000E+02  0.51100000000E-03 0.  1.
         23    2    1    2    0    0  0.00000000000E+00  0.00000000000E+00  0.00000000000E+00  0.91188000000E+02  0.91188000000E+02 0.  0.
    9900012    2    3    3    0    0  0.31803162074E+02  0.16966764412E+02 -0.24172514767E+02  0.47787277855E+02  0.20000031052E+02 0.  0.
         12    1    3    3    0    0 -0.31803162074E+02 -0.16966764412E+02  0.24172514767E+02  0.43400722145E+02  0.00000000000E+00 0. -1.
         11    1    4    4    0    0  0.97382292403E+01  0.10582667170E+02 -0.12483181202E+02  0.19043522950E+02  0.51100000000E-03 0. -1.
        -11    1    4    4    0    0  0.14804749861E+02  0.60665245373E+01 -0.13850853711E+02  0.21161982119E+02  0.51100000000E-03 0.  1.
         12    1    4    4    0    0  0.72601829730E+01  0.31757270495E+00  0.21615201473E+01  0.75817727855E+01  0.00000000000E+00 0. -1.
</event>
<event>
 8    1  0.1164123E-009  0.9118800E+02  0.7816164E-02  0.1184000E+00
        -11   -1    0    0    0    0  0.00000000000E+00  0.00000000000E+00  0.45593999997E+02  0.45594000000E+02  0.51100000000E-03 0. -1.
         11   -1    0    0    0    0 -0.00000000000E+00 -0.00000000000E+00 -0.45593999997E+02  0.45594000000E+02  0.51100000000E-03 0.  1.
         23    2    1    2    0    0  0.00000000000E+00  0.17763568394E-14  0.00000000000E+00  0.91188000000E+02  0.91188000000E+02 0.  0.
    9900012    2    3    3    0    0 -0.85806953324E+01  0.15442685778E+02  0.39642383682E+02  0.47787268896E+02  0.19999990203E+02 0.  0.
        -12    1    3    3    0    0  0.85806953324E+01 -0.15442685778E+02 -0.39642383682E+02  0.43400731104E+02  0.00000000000E+00 0.  1.
         11    1    4    4    0    0 -0.61623922963E+00  0.67701496274E+01  0.15173334393E+02  0.16626627849E+02  0.51100000000E-03 0. -1.
        -11    1    4    4    0    0  0.37368144680E+01  0.47571777622E+01  0.39739509959E+01  0.72378732656E+01  0.51100000000E-03 0.  1.
        -12    1    4    4    0    0 -0.11701270571E+02  0.39153583879E+01  0.20495098293E+02  0.23922767781E+02  0.00000000000E+00 0.  1.
</event>
<event>
 8    1  0.1164123E-009  0.9118800E+02  0.7816164E-02  0.1184000E+00
        -11   -1    0    0    0    0  0.00000000000E+00  0.00000000000E+00  0.45593999997E+02  0.45594000000E+02  0.51100000000E-03 0. -1.
         11   -1    0    0    0    0 -0.00000000000E+00 -0.00000000000E+00 -0.45593999997E+02  0.45594000000E+02  0.51100000000E-03 0.  1.
         23    2    1    2    0    0  0.00000000000E+00  0.00000000000E+00  0.00000000000E+00  0.91188000000E+02  0.91188000000E+02 0.  0.
    9900012    2    3    3    0    0  0.64734242848E+01  0.15566681682E+02  0.39992456186E+02  0.47787270140E+02  0.19999995875E+02 0.  0.
        -12    1    3    3    0    0 -0.64734242848E+01 -0.15566681682E+02 -0.39992456186E+02  0.43400729860E+02  0.00000000000E+00 0.  1.
         11    1    4    4    0    0 -0.24138818025E+01  0.47129703033E+01  0.10442450057E+02  0.11708273908E+02  0.51100000000E-03 0. -1.
        -11    1    4    4    0    0 -0.61054689634E+00 -0.37642278829E+00 -0.15326210507E+01  0.16921551862E+01  0.51100000000E-03 0.  1.
         12    1    4    4    0    0  0.94978529837E+01  0.11230134167E+02  0.31082627180E+02  0.34386841046E+02  0.00000000000E+00 0. -1.
</event>
<event>
 8    1  0.1164123E-009  0.9118800E+02  0.7816164E-02  0.1184000E+00
        -11   -1    0    0    0    0  0.00000000000E+00  0.00000000000E+00  0.45593999997E+02  0.45594000000E+02  0.51100000000E-03 0. -1.
         11   -1    0    0    0    0 -0.00000000000E+00 -0.00000000000E+00 -0.45593999997E+02  0.45594000000E+02  0.51100000000E-03 0.  1.
         23    2    1    2    0    0  0.35527136788E-14  0.88817841970E-15  0.00000000000E+00  0.91188000000E+02  0.91188000000E+02 0.  0.
    9900012    2    3    3    0    0  0.31009266813E+02  0.42521887820E+01 -0.30066045390E+02  0.47787276237E+02  0.20000023677E+02 0.  0.
         12    1    3    3    0    0 -0.31009266813E+02 -0.42521887820E+01  0.30066045390E+02  0.43400723763E+02  0.00000000000E+00 0. -1.
         11    1    4    4    0    0  0.86444879477E+01 -0.15334937876E+01 -0.15337277488E+02  0.17672318922E+02  0.51100000000E-03 0.  1.
        -11    1    4    4    0    0  0.95324873306E+00 -0.24821436582E+01  0.30647187995E+00  0.26764987504E+01  0.51100000000E-03 0. -1.
         12    1    4    4    0    0  0.21411530132E+02  0.82678262277E+01 -0.15035239783E+02  0.27438458566E+02  0.00000000000E+00 0. -1.
</event>
<event>
 8    1  0.1164123E-009  0.9118800E+02  0.7816164E-02  0.1184000E+00
        -11   -1    0    0    0    0  0.00000000000E+00  0.00000000000E+00  0.45593999997E+02  0.45594000000E+02  0.51100000000E-03 0. -1.
         11   -1    0    0    0    0 -0.00000000000E+00 -0.00000000000E+00 -0.45593999997E+02  0.45594000000E+02  0.51100000000E-03 0.  1.
         23    2    1    2    0    0  0.16653345369E-15  0.00000000000E+00  0.00000000000E+00  0.91188000000E+02  0.91188000000E+02 0.  0.
    9900012    2    3    3    0    0 -0.35154554886E+00  0.18340428437E+02  0.39333553764E+02  0.47787270153E+02  0.19999995938E+02 0.  0.
        -12    1    3    3    0    0  0.35154554886E+00 -0.18340428437E+02 -0.39333553764E+02  0.43400729847E+02  0.00000000000E+00 0.  1.
         11    1    4    4    0    0  0.13925030656E-01  0.67151441738E+01  0.99657245847E+01  0.12017030496E+02  0.51100000000E-03 0. -1.
        -11    1    4    4    0    0  0.12822036335E+01 -0.12375868152E+01 -0.14742270532E+01  0.23127933216E+01  0.51100000000E-03 0.  1.
        -12    1    4    4    0    0 -0.16476742130E+01  0.12862871079E+02  0.30842056232E+02  0.33457446336E+02  0.00000000000E+00 0.  1.
</event>
<event>
 8    1  0.1164123E-009  0.9118800E+02  0.7816164E-02  0.1184000E+00
        -11   -1    0    0    0    0  0.00000000000E+00  0.00000000000E+00  0.45593999997E+02  0.45594000000E+02  0.51100000000E-03 0. -1.
         11   -1    0    0    0    0 -0.00000000000E+00 -0.00000000000E+00 -0.45593999997E+02  0.45594000000E+02  0.51100000000E-03 0.  1.
         23    2    1    2    0    0 -0.35527136788E-14 -0.88817841970E-15 -0.35527136788E-14  0.91188000000E+02  0.91188000000E+02 0.  0.
    9900012    2    3    3    0    0 -0.31217163562E+02 -0.40658733316E+01  0.29876088163E+02  0.47787271081E+02  0.20000000165E+02 0.  0.
        -12    1    3    3    0    0  0.31217163562E+02  0.40658733316E+01 -0.29876088163E+02  0.43400728919E+02  0.00000000000E+00 0.  1.
         11    1    4    4    0    0 -0.55305378865E+01 -0.66965927468E+01  0.14475997973E+02  0.16881520112E+02  0.51100000000E-03 0. -1.
        -11    1    4    4    0    0 -0.73572479613E+01 -0.65907536141E+00  0.79403318406E+01  0.10844922678E+02  0.51100000000E-03 0.  1.
        -12    1    4    4    0    0 -0.18329377714E+02  0.32897947766E+01  0.74597583502E+01  0.20060828290E+02  0.00000000000E+00 0.  1.
</event>
<event>
 8    1  0.1164123E-009  0.9118800E+02  0.7816164E-02  0.1184000E+00
        -11   -1    0    0    0    0  0.00000000000E+00  0.00000000000E+00  0.45593999997E+02  0.45594000000E+02  0.51100000000E-03 0. -1.
         11   -1    0    0    0    0 -0.00000000000E+00 -0.00000000000E+00 -0.45593999997E+02  0.45594000000E+02  0.51100000000E-03 0.  1.
         23    2    1    2    0    0  0.35527136788E-14 -0.35527136788E-14  0.00000000000E+00  0.91188000000E+02  0.91188000000E+02 0.  0.
    9900012    2    3    3    0    0  0.16117182890E+02 -0.20197953602E+02 -0.34869806424E+02  0.47787259061E+02  0.19999945364E+02 0.  0.
         12    1    3    3    0    0 -0.16117182890E+02  0.20197953602E+02  0.34869806424E+02  0.43400740939E+02  0.00000000000E+00 0. -1.
         11    1    4    4    0    0  0.69862481747E+01 -0.10674867474E+02 -0.21691136757E+02  0.25164774452E+02  0.51100000000E-03 0. -1.
        -11    1    4    4    0    0  0.91434267704E+01 -0.11177231060E+02 -0.66695605166E+01  0.15906469911E+02  0.51100000000E-03 0.  1.
         12    1    4    4    0    0 -0.12492054968E-01  0.16541449319E+01 -0.65091091496E+01  0.67160146984E+01  0.00000000000E+00 0. -1.
</event>
<event>
 8    1  0.1164123E-009  0.9118800E+02  0.7816164E-02  0.1184000E+00
        -11   -1    0    0    0    0  0.00000000000E+00  0.00000000000E+00  0.45593999997E+02  0.45594000000E+02  0.51100000000E-03 0. -1.
         11   -1    0    0    0    0 -0.00000000000E+00 -0.00000000000E+00 -0.45593999997E+02  0.45594000000E+02  0.51100000000E-03 0.  1.
         23    2    1    2    0    0  0.35527136788E-14  0.00000000000E+00  0.00000000000E+00  0.91188000000E+02  0.91188000000E+02 0.  0.
    9900012    2    3    3    0    0 -0.16127867170E+02  0.50832554509E+01 -0.39970931136E+02  0.47787275106E+02  0.20000018519E+02 0.  0.
         12    1    3    3    0    0  0.16127867170E+02 -0.50832554509E+01  0.39970931136E+02  0.43400724894E+02  0.00000000000E+00 0. -1.
         11    1    4    4    0    0 -0.96506415695E+01 -0.48385614011E+00 -0.41847688299E+01  0.10530018513E+02  0.51100000000E-03 0. -1.
        -11    1    4    4    0    0 -0.46181637003E+01  0.20028614690E+01 -0.10393045911E+02  0.11547912954E+02  0.51100000000E-03 0.  1.
         12    1    4    4    0    0 -0.18590618999E+01  0.35642501221E+01 -0.25393116396E+02  0.25709343639E+02  0.00000000000E+00 0. -1.
</event>
<event>
 8    1  0.1164123E-009  0.9118800E+02  0.7816164E-02  0.1184000E+00
        -11   -1    0    0    0    0  0.00000000000E+00  0.00000000000E+00  0.45593999997E+02  0.45594000000E+02  0.51100000000E-03 0. -1.
         11   -1    0    0    0    0 -0.00000000000E+00 -0.00000000000E+00 -0.45593999997E+02  0.45594000000E+02  0.51100000000E-03 0.  1.
         23    2    1    2    0    0 -0.35527136788E-14 -0.35527136788E-14 -0.71054273576E-14  0.91188000000E+02  0.91188000000E+02 0.  0.
    9900012    2    3    3    0    0  0.21539784674E+02  0.15718021902E+02  0.34243325751E+02  0.47787263891E+02  0.19999967385E+02 0.  0.
        -12    1    3    3    0    0 -0.21539784674E+02 -0.15718021902E+02 -0.34243325751E+02  0.43400736109E+02  0.00000000000E+00 0.  1.
         11    1    4    4    0    0  0.64377711269E+01  0.43543013854E+01  0.19144159735E+02  0.20661647801E+02  0.51100000000E-03 0. -1.
        -11    1    4    4    0    0  0.14632099201E+02  0.69149237575E+01  0.15776409548E+02  0.22601097232E+02  0.51100000000E-03 0.  1.
        -12    1    4    4    0    0  0.46991434580E+00  0.44487967592E+01 -0.67724353185E+00  0.45245188582E+01  0.00000000000E+00 0.  1.
</event>
<event>
 8    1  0.1164123E-009  0.9118800E+02  0.7816164E-02  0.1184000E+00
        -11   -1    0    0    0    0  0.00000000000E+00  0.00000000000E+00  0.45593999997E+02  0.45594000000E+02  0.51100000000E-03 0. -1.
         11   -1    0    0    0    0 -0.00000000000E+00 -0.00000000000E+00 -0.45593999997E+02  0.45594000000E+02  0.51100000000E-03 0.  1.
         23    2    1    2    0    0  0.88817841970E-15 -0.88817841970E-15  0.00000000000E+00  0.91188000000E+02  0.91188000000E+02 0.  0.
    9900012    2    3    3    0    0  0.62763749119E+01  0.51683226004E+01 -0.42632367539E+02  0.47787271866E+02  0.20000003746E+02 0.  0.
         12    1    3    3    0    0 -0.62763749119E+01 -0.51683226004E+01  0.42632367539E+02  0.43400728134E+02  0.00000000000E+00 0. -1.
         11    1    4    4    0    0  0.48879713551E+01 -0.55031433753E+01 -0.15044883446E+02  0.16748891580E+02  0.51100000000E-03 0. -1.
        -11    1    4    4    0    0  0.20862591613E+00  0.13385195006E+01 -0.16249679275E+02  0.16306049063E+02  0.51100000000E-03 0.  1.
        -12    1    4    4    0    0  0.11797776407E+01  0.93329464752E+01 -0.11337804818E+02  0.14732331224E+02  0.00000000000E+00 0.  1.
</event>
<event>
 8    1  0.1164123E-009  0.9118800E+02  0.7816164E-02  0.1184000E+00
        -11   -1    0    0    0    0  0.00000000000E+00  0.00000000000E+00  0.45593999997E+02  0.45594000000E+02  0.51100000000E-03 0. -1.
         11   -1    0    0    0    0 -0.00000000000E+00 -0.00000000000E+00 -0.45593999997E+02  0.45594000000E+02  0.51100000000E-03 0.  1.
         23    2    1    2    0    0 -0.88817841970E-15 -0.88817841970E-15  0.00000000000E+00  0.91188000000E+02  0.91188000000E+02 0.  0.
    9900012    2    3    3    0    0  0.79533526593E+01  0.57280424809E+01  0.42279511007E+02  0.47787270281E+02  0.19999996519E+02 0.  0.
        -12    1    3    3    0    0 -0.79533526593E+01 -0.57280424809E+01 -0.42279511007E+02  0.43400729719E+02  0.00000000000E+00 0.  1.
         11    1    4    4    0    0  0.41766883164E+01 -0.52096390461E+01  0.26505030215E+02  0.27333161019E+02  0.51100000000E-03 0. -1.
        -11    1    4    4    0    0  0.20625466108E+01  0.26737302320E+01  0.11468041879E+01  0.35662433991E+01  0.51100000000E-03 0.  1.
         12    1    4    4    0    0  0.17141177321E+01  0.82639512950E+01  0.14627676603E+02  0.16887865863E+02  0.00000000000E+00 0. -1.
</event>
<event>
 8    1  0.1164123E-009  0.9118800E+02  0.7816164E-02  0.1184000E+00
        -11   -1    0    0    0    0  0.00000000000E+00  0.00000000000E+00  0.45593999997E+02  0.45594000000E+02  0.51100000000E-03 0. -1.
         11   -1    0    0    0    0 -0.00000000000E+00 -0.00000000000E+00 -0.45593999997E+02  0.45594000000E+02  0.51100000000E-03 0.  1.
         23    2    1    2    0    0  0.00000000000E+00  0.00000000000E+00  0.00000000000E+00  0.91188000000E+02  0.91188000000E+02 0.  0.
    9900012    2    3    3    0    0 -0.21998053271E+01 -0.10465632852E+02 -0.42062517275E+02  0.47787262979E+02  0.19999963224E+02 0.  0.
         12    1    3    3    0    0  0.21998053271E+01  0.10465632852E+02  0.42062517275E+02  0.43400737021E+02  0.00000000000E+00 0. -1.
         11    1    4    4    0    0 -0.10197941347E+02 -0.61536318982E+01 -0.26563122587E+02  0.29111246540E+02  0.51100000000E-03 0. -1.
        -11    1    4    4    0    0  0.11760703531E+01  0.13446779970E+00 -0.62138323075E+01  0.63255778607E+01  0.51100000000E-03 0.  1.
         12    1    4    4    0    0  0.68220656672E+01 -0.44464687536E+01 -0.92855623808E+01  0.12350438578E+02  0.00000000000E+00 0. -1.
</event>
<event>
 8    1  0.1164123E-009  0.9118800E+02  0.7816164E-02  0.1184000E+00
        -11   -1    0    0    0    0  0.00000000000E+00  0.00000000000E+00  0.45593999997E+02  0.45594000000E+02  0.51100000000E-03 0. -1.
         11   -1    0    0    0    0 -0.00000000000E+00 -0.00000000000E+00 -0.45593999997E+02  0.45594000000E+02  0.51100000000E-03 0.  1.
         23    2    1    2    0    0  0.00000000000E+00  0.00000000000E+00  0.00000000000E+00  0.91188000000E+02  0.91188000000E+02 0.  0.
    9900012    2    3    3    0    0 -0.14563488913E+02  0.24998124154E+02 -0.32351533181E+02  0.47787272821E+02  0.20000008099E+02 0.  0.
         12    1    3    3    0    0  0.14563488913E+02 -0.24998124154E+02  0.32351533181E+02  0.43400727179E+02  0.00000000000E+00 0. -1.
         11    1    4    4    0    0  0.11848455383E+00 -0.12214971699E+01 -0.21721702970E+01  0.24948783510E+01  0.51100000000E-03 0. -1.
        -11    1    4    4    0    0 -0.14524434827E+02  0.14784853232E+02 -0.12397199020E+02  0.24150396186E+02  0.51100000000E-03 0.  1.
         12    1    4    4    0    0 -0.15753863971E+00  0.11434768092E+02 -0.17782163864E+02  0.21141998284E+02  0.00000000000E+00 0. -1.
</event>
<event>
 8    1  0.1164123E-009  0.9118800E+02  0.7816164E-02  0.1184000E+00
        -11   -1    0    0    0    0  0.00000000000E+00  0.00000000000E+00  0.45593999997E+02  0.45594000000E+02  0.51100000000E-03 0. -1.
         11   -1    0    0    0    0 -0.00000000000E+00 -0.00000000000E+00 -0.45593999997E+02  0.45594000000E+02  0.51100000000E-03 0.  1.
         23    2    1    2    0    0  0.00000000000E+00 -0.55511151231E-15  0.00000000000E+00  0.91188000000E+02  0.91188000000E+02 0.  0.
    9900012    2    3    3    0    0 -0.17648948768E+02  0.84375038569E+00  0.39641218256E+02  0.47787268530E+02  0.19999988534E+02 0.  0.
        -12    1    3    3    0    0  0.17648948768E+02 -0.84375038569E+00 -0.39641218256E+02  0.43400731470E+02  0.00000000000E+00 0.  1.
         11    1    4    4    0    0 -0.38745625371E+01 -0.22346961312E+01  0.60049230573E+01  0.74876700541E+01  0.51100000000E-03 0. -1.
        -11    1    4    4    0    0  0.50108557150E+00  0.46352249012E+01  0.11812269226E+01  0.48095419676E+01  0.51100000000E-03 0.  1.
        -12    1    4    4    0    0 -0.14275471803E+02 -0.15567783843E+01  0.32455068276E+02  0.35490056508E+02  0.00000000000E+00 0.  1.
</event>
<event>
 8    1  0.1164123E-009  0.9118800E+02  0.7816164E-02  0.1184000E+00
        -11   -1    0    0    0    0  0.00000000000E+00  0.00000000000E+00  0.45593999997E+02  0.45594000000E+02  0.51100000000E-03 0. -1.
         11   -1    0    0    0    0 -0.00000000000E+00 -0.00000000000E+00 -0.45593999997E+02  0.45594000000E+02  0.51100000000E-03 0.  1.
         23    2    1    2    0    0  0.17763568394E-14  0.00000000000E+00  0.00000000000E+00  0.91188000000E+02  0.91188000000E+02 0.  0.
    9900012    2    3    3    0    0  0.11860459721E+02  0.14527899155E+01  0.41723393134E+02  0.47787278371E+02  0.20000033404E+02 0.  0.
        -12    1    3    3    0    0 -0.11860459721E+02 -0.14527899155E+01 -0.41723393134E+02  0.43400721629E+02  0.00000000000E+00 0.  1.
         11    1    4    4    0    0  0.90025513872E+01  0.64579769511E+00  0.18890291857E+02  0.20935761578E+02  0.51100000000E-03 0. -1.
        -11    1    4    4    0    0  0.26857852452E+01  0.68828335322E+01  0.83776001962E+01  0.11170095126E+02  0.51100000000E-03 0.  1.
        -12    1    4    4    0    0  0.17212308833E+00 -0.60758413117E+01  0.14455501081E+02  0.15681421667E+02  0.00000000000E+00 0.  1.
</event>
<event>
 8    1  0.1164123E-009  0.9118800E+02  0.7816164E-02  0.1184000E+00
        -11   -1    0    0    0    0  0.00000000000E+00  0.00000000000E+00  0.45593999997E+02  0.45594000000E+02  0.51100000000E-03 0.  1.
         11   -1    0    0    0    0 -0.00000000000E+00 -0.00000000000E+00 -0.45593999997E+02  0.45594000000E+02  0.51100000000E-03 0. -1.
         23    2    1    2    0    0  0.00000000000E+00  0.71054273576E-14  0.00000000000E+00  0.91188000000E+02  0.91188000000E+02 0.  0.
    9900012    2    3    3    0    0  0.17836349102E+02 -0.39237075926E+02 -0.50931070199E+01  0.47787271715E+02  0.20000003059E+02 0.  0.
        -12    1    3    3    0    0 -0.17836349102E+02  0.39237075926E+02  0.50931070199E+01  0.43400728285E+02  0.00000000000E+00 0.  1.
         11    1    4    4    0    0  0.41349408060E+01 -0.18268094766E+02  0.92911307288E+00  0.18753247004E+02  0.51100000000E-03 0. -1.
        -11    1    4    4    0    0  0.49065053998E+01 -0.15377934404E+02  0.14555674195E+01  0.16207200207E+02  0.51100000000E-03 0.  1.
         12    1    4    4    0    0  0.87949028961E+01 -0.55910467564E+01 -0.74777875123E+01  0.12826824504E+02  0.00000000000E+00 0. -1.
</event>
<event>
 8    1  0.1571498E-009  0.9118800E+02  0.7816164E-02  0.1184000E+00
        -11   -1    0    0    0    0  0.00000000000E+00  0.00000000000E+00  0.45593999997E+02  0.45594000000E+02  0.51100000000E-03 0. -1.
         11   -1    0    0    0    0 -0.00000000000E+00 -0.00000000000E+00 -0.45593999997E+02  0.45594000000E+02  0.51100000000E-03 0.  1.
         23    2    1    2    0    0 -0.88817841970E-15  0.35527136788E-14  0.00000000000E+00  0.91188000000E+02  0.91188000000E+02 0.  0.
    9900012    2    3    3    0    0  0.18049575404E+01  0.21177673560E+02 -0.37840079600E+02  0.47787270130E+02  0.19999995828E+02 0.  0.
         12    1    3    3    0    0 -0.18049575404E+01 -0.21177673560E+02  0.37840079600E+02  0.43400729870E+02  0.00000000000E+00 0. -1.
         11    1    4    4    0    0  0.34100775533E+01  0.83068087282E+01 -0.65593583116E+01  0.11120111595E+02  0.51100000000E-03 0.  1.
        -11    1    4    4    0    0  0.32156462135E+01  0.15009672011E+00 -0.84283688640E+00  0.33276544102E+01  0.51100000000E-03 0. -1.
        -12    1    4    4    0    0 -0.48207662263E+01  0.12720768111E+02 -0.30437884402E+02  0.33339504124E+02  0.00000000000E+00 0.  1.
</event>
<event>
 8    1  0.1164123E-009  0.9118800E+02  0.7816164E-02  0.1184000E+00
        -11   -1    0    0    0    0  0.00000000000E+00  0.00000000000E+00  0.45593999997E+02  0.45594000000E+02  0.51100000000E-03 0. -1.
         11   -1    0    0    0    0 -0.00000000000E+00 -0.00000000000E+00 -0.45593999997E+02  0.45594000000E+02  0.51100000000E-03 0.  1.
         23    2    1    2    0    0  0.00000000000E+00  0.00000000000E+00  0.71054273576E-14  0.91188000000E+02  0.91188000000E+02 0.  0.
    9900012    2    3    3    0    0  0.16876332794E+02 -0.10679378239E+02  0.38532627555E+02  0.47787272881E+02  0.20000008374E+02 0.  0.
        -12    1    3    3    0    0 -0.16876332794E+02  0.10679378239E+02 -0.38532627555E+02  0.43400727119E+02  0.00000000000E+00 0.  1.
         11    1    4    4    0    0  0.16706420704E+02 -0.10292335190E+02  0.31264211057E+02  0.36911889002E+02  0.51100000000E-03 0. -1.
        -11    1    4    4    0    0  0.63629135280E+00  0.14468810205E+01  0.84815751449E+01  0.86275980767E+01  0.51100000000E-03 0.  1.
        -12    1    4    4    0    0 -0.46637926225E+00 -0.18339240700E+01 -0.12131586474E+01  0.22477858026E+01  0.00000000000E+00 0.  1.
</event>
<event>
 8    1  0.1164123E-009  0.9118800E+02  0.7816164E-02  0.1184000E+00
        -11   -1    0    0    0    0  0.00000000000E+00  0.00000000000E+00  0.45593999997E+02  0.45594000000E+02  0.51100000000E-03 0. -1.
         11   -1    0    0    0    0 -0.00000000000E+00 -0.00000000000E+00 -0.45593999997E+02  0.45594000000E+02  0.51100000000E-03 0.  1.
         23    2    1    2    0    0  0.00000000000E+00  0.00000000000E+00  0.00000000000E+00  0.91188000000E+02  0.91188000000E+02 0.  0.
    9900012    2    3    3    0    0 -0.16269642272E+02 -0.17867687631E+02  0.36050906671E+02  0.47787269675E+02  0.19999993757E+02 0.  0.
        -12    1    3    3    0    0  0.16269642272E+02  0.17867687631E+02 -0.36050906671E+02  0.43400730325E+02  0.00000000000E+00 0.  1.
         11    1    4    4    0    0 -0.41222425640E+01 -0.98776346747E+01  0.15111636730E+02  0.18518156372E+02  0.51100000000E-03 0. -1.
        -11    1    4    4    0    0  0.13313685073E+01  0.13074445305E+01  0.85087037884E+01  0.87109123358E+01  0.51100000000E-03 0.  1.
        -12    1    4    4    0    0 -0.13478768215E+02 -0.92974974865E+01  0.12430566153E+02  0.20558200967E+02  0.00000000000E+00 0.  1.
</event>
<event>
 8    1  0.1164123E-009  0.9118800E+02  0.7816164E-02  0.1184000E+00
        -11   -1    0    0    0    0  0.00000000000E+00  0.00000000000E+00  0.45593999997E+02  0.45594000000E+02  0.51100000000E-03 0. -1.
         11   -1    0    0    0    0 -0.00000000000E+00 -0.00000000000E+00 -0.45593999997E+02  0.45594000000E+02  0.51100000000E-03 0.  1.
         23    2    1    2    0    0  0.00000000000E+00  0.00000000000E+00  0.00000000000E+00  0.91188000000E+02  0.91188000000E+02 0.  0.
    9900012    2    3    3    0    0 -0.89811923712E+01 -0.51802566600E+01  0.42144113677E+02  0.47787271975E+02  0.20000004244E+02 0.  0.
        -12    1    3    3    0    0  0.89811923712E+01  0.51802566600E+01 -0.42144113677E+02  0.43400728025E+02  0.00000000000E+00 0.  1.
         11    1    4    4    0    0 -0.55165150141E+01 -0.27231495843E+00  0.34244580221E+01  0.64986926643E+01  0.51100000000E-03 0.  1.
        -11    1    4    4    0    0 -0.19731300072E+00  0.43976003867E+01  0.13933407358E+02  0.14612243580E+02  0.51100000000E-03 0. -1.
        -12    1    4    4    0    0 -0.32673643563E+01 -0.93055420883E+01  0.24786248297E+02  0.26676335731E+02  0.00000000000E+00 0.  1.
</event>
<event>
 8    1  0.1164123E-009  0.9118800E+02  0.7816164E-02  0.1184000E+00
        -11   -1    0    0    0    0  0.00000000000E+00  0.00000000000E+00  0.45593999997E+02  0.45594000000E+02  0.51100000000E-03 0. -1.
         11   -1    0    0    0    0 -0.00000000000E+00 -0.00000000000E+00 -0.45593999997E+02  0.45594000000E+02  0.51100000000E-03 0.  1.
         23    2    1    2    0    0  0.00000000000E+00  0.00000000000E+00  0.00000000000E+00  0.91188000000E+02  0.91188000000E+02 0.  0.
    9900012    2    3    3    0    0  0.37128459780E+02 -0.20801753436E+02 -0.85081101931E+01  0.47787269468E+02  0.19999992812E+02 0.  0.
        -12    1    3    3    0    0 -0.37128459780E+02  0.20801753436E+02  0.85081101931E+01  0.43400730532E+02  0.00000000000E+00 0.  1.
         11    1    4    4    0    0  0.26320000812E+02 -0.75953084931E+01 -0.54763211216E+01  0.27936020603E+02  0.51100000000E-03 0. -1.
        -11    1    4    4    0    0  0.93175701460E+01 -0.38197097099E+01 -0.22225093288E+01  0.10312460602E+02  0.51100000000E-03 0.  1.
        -12    1    4    4    0    0  0.14908888221E+01 -0.93867352333E+01 -0.80927974278E+00  0.95387882628E+01  0.00000000000E+00 0.  1.
</event>
<event>
 8    1  0.1662239E-009  0.9118800E+02  0.7816164E-02  0.1184000E+00
        -11   -1    0    0    0    0  0.00000000000E+00  0.00000000000E+00  0.45593999997E+02  0.45594000000E+02  0.51100000000E-03 0. -1.
         11   -1    0    0    0    0 -0.00000000000E+00 -0.00000000000E+00 -0.45593999997E+02  0.45594000000E+02  0.51100000000E-03 0.  1.
         23    2    1    2    0    0  0.00000000000E+00  0.00000000000E+00  0.71054273576E-14  0.91188000000E+02  0.91188000000E+02 0.  0.
    9900012    2    3    3    0    0 -0.10850095415E+02  0.20334691806E+02 -0.36774980825E+02  0.47787268715E+02  0.19999989380E+02 0.  0.
         12    1    3    3    0    0  0.10850095415E+02 -0.20334691806E+02  0.36774980825E+02  0.43400731285E+02  0.00000000000E+00 0. -1.
         11    1    4    4    0    0 -0.71787149361E+00  0.26994559510E+01  0.48350528124E+00  0.28348156079E+01  0.51100000000E-03 0.  1.
        -11    1    4    4    0    0  0.30679688043E+01  0.48863351760E+00 -0.24087955568E+01  0.39310929262E+01  0.51100000000E-03 0. -1.
        -12    1    4    4    0    0 -0.13200192726E+02  0.17146602337E+02 -0.34849690549E+02  0.41021360181E+02  0.00000000000E+00 0.  1.
</event>
<event>
 8    1  0.1164123E-009  0.9118800E+02  0.7816164E-02  0.1184000E+00
        -11   -1    0    0    0    0  0.00000000000E+00  0.00000000000E+00  0.45593999997E+02  0.45594000000E+02  0.51100000000E-03 0. -1.
         11   -1    0    0    0    0 -0.00000000000E+00 -0.00000000000E+00 -0.45593999997E+02  0.45594000000E+02  0.51100000000E-03 0.  1.
         23    2    1    2    0    0  0.00000000000E+00 -0.35527136788E-14  0.35527136788E-14  0.91188000000E+02  0.91188000000E+02 0.  0.
    9900012    2    3    3    0    0 -0.24846085100E+02 -0.31256752684E+02  0.17009138864E+02  0.47787270305E+02  0.19999996631E+02 0.  0.
        -12    1    3    3    0    0  0.24846085100E+02  0.31256752684E+02 -0.17009138864E+02  0.43400729695E+02  0.00000000000E+00 0.  1.
         11    1    4    4    0    0 -0.92143511454E+01 -0.11960078005E+02  0.19912322825E+01  0.15228681465E+02  0.51100000000E-03 0. -1.
        -11    1    4    4    0    0 -0.44760119667E+01 -0.50511090862E+01 -0.26677017816E+01  0.72570668443E+01  0.51100000000E-03 0.  1.
         12    1    4    4    0    0 -0.11155721988E+02 -0.14245565593E+02  0.17685608363E+02  0.25301521996E+02  0.00000000000E+00 0. -1.
</event>
<event>
 8    1  0.1164123E-009  0.9118800E+02  0.7816164E-02  0.1184000E+00
        -11   -1    0    0    0    0  0.00000000000E+00  0.00000000000E+00  0.45593999997E+02  0.45594000000E+02  0.51100000000E-03 0. -1.
         11   -1    0    0    0    0 -0.00000000000E+00 -0.00000000000E+00 -0.45593999997E+02  0.45594000000E+02  0.51100000000E-03 0.  1.
         23    2    1    2    0    0  0.71054273576E-14  0.00000000000E+00  0.17763568394E-14  0.91188000000E+02  0.91188000000E+02 0.  0.
    9900012    2    3    3    0    0  0.33440750003E+02 -0.24148851318E+02  0.13497140073E+02  0.47787267623E+02  0.19999984399E+02 0.  0.
        -12    1    3    3    0    0 -0.33440750003E+02  0.24148851318E+02 -0.13497140073E+02  0.43400732377E+02  0.00000000000E+00 0.  1.
         11    1    4    4    0    0  0.10410355723E+02 -0.12170199681E+01  0.35121910612E+01  0.11054054921E+02  0.51100000000E-03 0. -1.
        -11    1    4    4    0    0  0.13660778676E+02 -0.60462564018E+01  0.89057585860E+01  0.17392142673E+02  0.51100000000E-03 0.  1.
        -12    1    4    4    0    0  0.93696156040E+01 -0.16885574948E+02  0.10791904263E+01  0.19341070029E+02  0.00000000000E+00 0.  1.
</event>
<event>
 8    1  0.1171016E-009  0.9118800E+02  0.7816164E-02  0.1184000E+00
        -11   -1    0    0    0    0  0.00000000000E+00  0.00000000000E+00  0.45593999997E+02  0.45594000000E+02  0.51100000000E-03 0. -1.
         11   -1    0    0    0    0 -0.00000000000E+00 -0.00000000000E+00 -0.45593999997E+02  0.45594000000E+02  0.51100000000E-03 0.  1.
         23    2    1    2    0    0  0.00000000000E+00  0.00000000000E+00 -0.35527136788E-14  0.91188000000E+02  0.91188000000E+02 0.  0.
    9900012    2    3    3    0    0 -0.66009394848E+01 -0.31497986876E+02 -0.29119196900E+02  0.47787271809E+02  0.20000003487E+02 0.  0.
         12    1    3    3    0    0  0.66009394848E+01  0.31497986876E+02  0.29119196900E+02  0.43400728191E+02  0.00000000000E+00 0. -1.
         11    1    4    4    0    0 -0.22429788708E+01  0.12065538436E+01 -0.69904565615E+01  0.74399737629E+01  0.51100000000E-03 0. -1.
        -11    1    4    4    0    0 -0.54057495251E+01 -0.16585234338E+02 -0.96495379460E+01  0.19935037216E+02  0.51100000000E-03 0.  1.
        -12    1    4    4    0    0  0.10477889111E+01 -0.16119306382E+02 -0.12479202393E+02  0.20412260831E+02  0.00000000000E+00 0.  1.
</event>
<event>
 8    1  0.1164123E-009  0.9118800E+02  0.7816164E-02  0.1184000E+00
        -11   -1    0    0    0    0  0.00000000000E+00  0.00000000000E+00  0.45593999997E+02  0.45594000000E+02  0.51100000000E-03 0. -1.
         11   -1    0    0    0    0 -0.00000000000E+00 -0.00000000000E+00 -0.45593999997E+02  0.45594000000E+02  0.51100000000E-03 0.  1.
         23    2    1    2    0    0 -0.88817841970E-15  0.00000000000E+00  0.00000000000E+00  0.91188000000E+02  0.91188000000E+02 0.  0.
    9900012    2    3    3    0    0 -0.71434033977E+01 -0.82650843913E+01  0.42003382145E+02  0.47787263328E+02  0.19999964816E+02 0.  0.
        -12    1    3    3    0    0  0.71434033977E+01  0.82650843913E+01 -0.42003382145E+02  0.43400736672E+02  0.00000000000E+00 0.  1.
         11    1    4    4    0    0 -0.25236439461E+01  0.84939700551E+00  0.19756100493E+02  0.19934737545E+02  0.51100000000E-03 0. -1.
        -11    1    4    4    0    0 -0.79073228527E+01 -0.44183126200E+01  0.19488544087E+02  0.21490709434E+02  0.51100000000E-03 0.  1.
        -12    1    4    4    0    0  0.32875634011E+01 -0.46961687768E+01  0.27587375648E+01  0.63618163482E+01  0.00000000000E+00 0.  1.
</event>
<event>
 8    1  0.1164123E-009  0.9118800E+02  0.7816164E-02  0.1184000E+00
        -11   -1    0    0    0    0  0.00000000000E+00  0.00000000000E+00  0.45593999997E+02  0.45594000000E+02  0.51100000000E-03 0. -1.
         11   -1    0    0    0    0 -0.00000000000E+00 -0.00000000000E+00 -0.45593999997E+02  0.45594000000E+02  0.51100000000E-03 0.  1.
         23    2    1    2    0    0  0.00000000000E+00  0.00000000000E+00  0.00000000000E+00  0.91188000000E+02  0.91188000000E+02 0.  0.
    9900012    2    3    3    0    0  0.89410547905E+01 -0.11732969788E+02 -0.40816887301E+02  0.47787270401E+02  0.19999997065E+02 0.  0.
         12    1    3    3    0    0 -0.89410547905E+01  0.11732969788E+02  0.40816887301E+02  0.43400729599E+02  0.00000000000E+00 0. -1.
         11    1    4    4    0    0  0.13269068604E+01 -0.17376048955E+01 -0.14118691647E+02  0.14286966322E+02  0.51100000000E-03 0. -1.
        -11    1    4    4    0    0 -0.48686722789E+01 -0.14857965674E+01 -0.76423706792E+01  0.91824501664E+01  0.51100000000E-03 0.  1.
         12    1    4    4    0    0  0.12482820209E+02 -0.85095683249E+01 -0.19055824975E+02  0.24317853912E+02  0.00000000000E+00 0. -1.
</event>
<event>
 8    1  0.1164123E-009  0.9118800E+02  0.7816164E-02  0.1184000E+00
        -11   -1    0    0    0    0  0.00000000000E+00  0.00000000000E+00  0.45593999997E+02  0.45594000000E+02  0.51100000000E-03 0. -1.
         11   -1    0    0    0    0 -0.00000000000E+00 -0.00000000000E+00 -0.45593999997E+02  0.45594000000E+02  0.51100000000E-03 0.  1.
         23    2    1    2    0    0  0.00000000000E+00  0.00000000000E+00  0.00000000000E+00  0.91188000000E+02  0.91188000000E+02 0.  0.
    9900012    2    3    3    0    0  0.16863785542E+02  0.34950675783E+02 -0.19434152647E+02  0.47787270864E+02  0.19999999175E+02 0.  0.
         12    1    3    3    0    0 -0.16863785542E+02 -0.34950675783E+02  0.19434152647E+02  0.43400729136E+02  0.00000000000E+00 0. -1.
         11    1    4    4    0    0  0.14776433686E+02  0.26937897925E+02 -0.22407933010E+02  0.38027737234E+02  0.51100000000E-03 0.  1.
        -11    1    4    4    0    0 -0.35534275069E+00  0.25146404675E+00 -0.70606126285E+00  0.82947296839E+00  0.51100000000E-03 0. -1.
        -12    1    4    4    0    0  0.24426946066E+01  0.77613138106E+01  0.36798416265E+01  0.89300606607E+01  0.00000000000E+00 0.  1.
</event>
<event>
 8    1  0.1164123E-009  0.9118800E+02  0.7816164E-02  0.1184000E+00
        -11   -1    0    0    0    0  0.00000000000E+00  0.00000000000E+00  0.45593999997E+02  0.45594000000E+02  0.51100000000E-03 0. -1.
         11   -1    0    0    0    0 -0.00000000000E+00 -0.00000000000E+00 -0.45593999997E+02  0.45594000000E+02  0.51100000000E-03 0.  1.
         23    2    1    2    0    0  0.00000000000E+00  0.00000000000E+00 -0.35527136788E-14  0.91188000000E+02  0.91188000000E+02 0.  0.
    9900012    2    3    3    0    0 -0.11035747243E+02  0.36634113151E+02  0.20488486732E+02  0.47787262079E+02  0.19999959122E+02 0.  0.
        -12    1    3    3    0    0  0.11035747243E+02 -0.36634113151E+02 -0.20488486732E+02  0.43400737921E+02  0.00000000000E+00 0.  1.
         11    1    4    4    0    0 -0.50758487871E+01  0.30105301158E+02  0.14471725464E+02  0.33786450493E+02  0.51100000000E-03 0. -1.
        -11    1    4    4    0    0 -0.67886189347E+01  0.80644311285E+01  0.62270440800E+01  0.12243221582E+02  0.51100000000E-03 0.  1.
        -12    1    4    4    0    0  0.82872047908E+00 -0.15356191358E+01 -0.21028281170E+00  0.17575900044E+01  0.00000000000E+00 0.  1.
</event>
<event>
 8    1  0.1164123E-009  0.9118800E+02  0.7816164E-02  0.1184000E+00
        -11   -1    0    0    0    0  0.00000000000E+00  0.00000000000E+00  0.45593999997E+02  0.45594000000E+02  0.51100000000E-03 0. -1.
         11   -1    0    0    0    0 -0.00000000000E+00 -0.00000000000E+00 -0.45593999997E+02  0.45594000000E+02  0.51100000000E-03 0.  1.
         23    2    1    2    0    0  0.00000000000E+00  0.00000000000E+00  0.00000000000E+00  0.91188000000E+02  0.91188000000E+02 0.  0.
    9900012    2    3    3    0    0 -0.11034231763E+01 -0.26290847528E+02  0.34513716243E+02  0.47787276327E+02  0.20000024086E+02 0.  0.
        -12    1    3    3    0    0  0.11034231763E+01  0.26290847528E+02 -0.34513716243E+02  0.43400723673E+02  0.00000000000E+00 0.  1.
         11    1    4    4    0    0 -0.33127565162E+01 -0.10260426842E+02  0.18629713287E+02  0.21524798074E+02  0.51100000000E-03 0. -1.
        -11    1    4    4    0    0  0.98525674431E+00 -0.14310294351E+02  0.18170740768E+02  0.23150185217E+02  0.51100000000E-03 0.  1.
        -12    1    4    4    0    0  0.12240765956E+01 -0.17201263343E+01 -0.22867378121E+01  0.31122930355E+01  0.00000000000E+00 0.  1.
</event>
<event>
 8    1  0.1164123E-009  0.9118800E+02  0.7816164E-02  0.1184000E+00
        -11   -1    0    0    0    0  0.00000000000E+00  0.00000000000E+00  0.45593999997E+02  0.45594000000E+02  0.51100000000E-03 0. -1.
         11   -1    0    0    0    0 -0.00000000000E+00 -0.00000000000E+00 -0.45593999997E+02  0.45594000000E+02  0.51100000000E-03 0.  1.
         23    2    1    2    0    0 -0.55511151231E-16  0.00000000000E+00  0.00000000000E+00  0.91188000000E+02  0.91188000000E+02 0.  0.
    9900012    2    3    3    0    0 -0.48278938517E+00  0.17466581029E+02  0.39727944860E+02  0.47787261052E+02  0.19999954440E+02 0.  0.
        -12    1    3    3    0    0  0.48278938517E+00 -0.17466581029E+02 -0.39727944860E+02  0.43400738948E+02  0.00000000000E+00 0.  1.
         11    1    4    4    0    0  0.56632274447E+00  0.79980500085E+01  0.31078974539E+02  0.32096607048E+02  0.51100000000E-03 0. -1.
        -11    1    4    4    0    0 -0.31681842815E+00  0.93355580382E+01  0.10284763946E+02  0.13893501628E+02  0.51100000000E-03 0.  1.
        -12    1    4    4    0    0 -0.73229370149E+00  0.13297298198E+00 -0.16357936244E+01  0.17971523755E+01  0.00000000000E+00 0.  1.
</event>
<event>
 8    1  0.1164123E-009  0.9118800E+02  0.7816164E-02  0.1184000E+00
        -11   -1    0    0    0    0  0.00000000000E+00  0.00000000000E+00  0.45593999997E+02  0.45594000000E+02  0.51100000000E-03 0. -1.
         11   -1    0    0    0    0 -0.00000000000E+00 -0.00000000000E+00 -0.45593999997E+02  0.45594000000E+02  0.51100000000E-03 0.  1.
         23    2    1    2    0    0  0.00000000000E+00  0.00000000000E+00  0.00000000000E+00  0.91188000000E+02  0.91188000000E+02 0.  0.
    9900012    2    3    3    0    0 -0.90696337134E+01  0.34617235925E+02 -0.24556262243E+02  0.47787293852E+02  0.20000103990E+02 0.  0.
         12    1    3    3    0    0  0.90696337134E+01 -0.34617235925E+02  0.24556262243E+02  0.43400706148E+02  0.00000000000E+00 0. -1.
         11    1    4    4    0    0 -0.10478694482E+01  0.10318642670E+02 -0.12574291919E+02  0.16299853817E+02  0.51100000000E-03 0. -1.
        -11    1    4    4    0    0 -0.24560144514E+01 -0.13976675392E+01 -0.12226993372E+01  0.30790380748E+01  0.51100000000E-03 0.  1.
        -12    1    4    4    0    0 -0.55657498139E+01  0.25696260794E+02 -0.10759270987E+02  0.28408401960E+02  0.00000000000E+00 0.  1.
</event>
<event>
 8    1  0.1164123E-009  0.9118800E+02  0.7816164E-02  0.1184000E+00
        -11   -1    0    0    0    0  0.00000000000E+00  0.00000000000E+00  0.45593999997E+02  0.45594000000E+02  0.51100000000E-03 0. -1.
         11   -1    0    0    0    0 -0.00000000000E+00 -0.00000000000E+00 -0.45593999997E+02  0.45594000000E+02  0.51100000000E-03 0.  1.
         23    2    1    2    0    0  0.00000000000E+00  0.22204460493E-15  0.00000000000E+00  0.91188000000E+02  0.91188000000E+02 0.  0.
    9900012    2    3    3    0    0 -0.36229790694E+02  0.16668092412E+01 -0.23837938800E+02  0.47787270593E+02  0.19999997943E+02 0.  0.
         12    1    3    3    0    0  0.36229790694E+02 -0.16668092412E+01  0.23837938800E+02  0.43400729407E+02  0.00000000000E+00 0. -1.
         11    1    4    4    0    0 -0.97055647158E+01  0.22706385941E+01 -0.81885134946E+01  0.12899827115E+02  0.51100000000E-03 0. -1.
        -11    1    4    4    0    0 -0.28078254502E+02 -0.30373904659E+01 -0.13595937714E+02  0.31344276022E+02  0.51100000000E-03 0.  1.
         12    1    4    4    0    0  0.15540285234E+01  0.24335611130E+01 -0.20534875909E+01  0.35431674570E+01  0.00000000000E+00 0. -1.
</event>
<event>
 8    1  0.1164123E-009  0.9118800E+02  0.7816164E-02  0.1184000E+00
        -11   -1    0    0    0    0  0.00000000000E+00  0.00000000000E+00  0.45593999997E+02  0.45594000000E+02  0.51100000000E-03 0. -1.
         11   -1    0    0    0    0 -0.00000000000E+00 -0.00000000000E+00 -0.45593999997E+02  0.45594000000E+02  0.51100000000E-03 0.  1.
         23    2    1    2    0    0 -0.17763568394E-14  0.00000000000E+00  0.00000000000E+00  0.91188000000E+02  0.91188000000E+02 0.  0.
    9900012    2    3    3    0    0  0.11047761118E+02  0.40634263647E+02 -0.10508385610E+02  0.47787279085E+02  0.20000036658E+02 0.  0.
         12    1    3    3    0    0 -0.11047761118E+02 -0.40634263647E+02  0.10508385610E+02  0.43400720915E+02  0.00000000000E+00 0. -1.
         11    1    4    4    0    0  0.10508871542E+02  0.22654019390E+02  0.20090900341E+01  0.25053491146E+02  0.51100000000E-03 0. -1.
        -11    1    4    4    0    0  0.29714017456E+01  0.53959368581E+01 -0.40344927079E+01  0.73635925051E+01  0.51100000000E-03 0.  1.
         12    1    4    4    0    0 -0.24325121690E+01  0.12584307399E+02 -0.84829829359E+01  0.15370195433E+02  0.00000000000E+00 0. -1.
</event>
<event>
 8    1  0.1164123E-009  0.9118800E+02  0.7816164E-02  0.1184000E+00
        -11   -1    0    0    0    0  0.00000000000E+00  0.00000000000E+00  0.45593999997E+02  0.45594000000E+02  0.51100000000E-03 0. -1.
         11   -1    0    0    0    0 -0.00000000000E+00 -0.00000000000E+00 -0.45593999997E+02  0.45594000000E+02  0.51100000000E-03 0.  1.
         23    2    1    2    0    0 -0.41633363423E-15  0.71054273576E-14  0.00000000000E+00  0.91188000000E+02  0.91188000000E+02 0.  0.
    9900012    2    3    3    0    0 -0.13452422672E+00  0.19899780255E+02 -0.38569467240E+02  0.47787272424E+02  0.20000006290E+02 0.  0.
         12    1    3    3    0    0  0.13452422672E+00 -0.19899780255E+02  0.38569467240E+02  0.43400727576E+02  0.00000000000E+00 0. -1.
         11    1    4    4    0    0 -0.23769264198E+01  0.58436580828E+01 -0.21117133274E+01  0.66526274833E+01  0.51100000000E-03 0. -1.
        -11    1    4    4    0    0 -0.16269706172E+01  0.13502963773E+02 -0.19778123260E+02  0.24003150293E+02  0.51100000000E-03 0.  1.
         12    1    4    4    0    0  0.38693728103E+01  0.55315839922E+00 -0.16679630653E+02  0.17131494648E+02  0.00000000000E+00 0. -1.
</event>
<event>
 8    1  0.1164123E-009  0.9118800E+02  0.7816164E-02  0.1184000E+00
        -11   -1    0    0    0    0  0.00000000000E+00  0.00000000000E+00  0.45593999997E+02  0.45594000000E+02  0.51100000000E-03 0. -1.
         11   -1    0    0    0    0 -0.00000000000E+00 -0.00000000000E+00 -0.45593999997E+02  0.45594000000E+02  0.51100000000E-03 0.  1.
         23    2    1    2    0    0  0.15959455979E-15  0.35527136788E-14  0.00000000000E+00  0.91188000000E+02  0.91188000000E+02 0.  0.
    9900012    2    3    3    0    0  0.29525246522E-01 -0.25168353486E+02 -0.35357833136E+02  0.47787271285E+02  0.20000001097E+02 0.  0.
         12    1    3    3    0    0 -0.29525246522E-01  0.25168353486E+02  0.35357833136E+02  0.43400728715E+02  0.00000000000E+00 0. -1.
         11    1    4    4    0    0 -0.12098919523E+01 -0.78375743451E+01 -0.11035938387E+02  0.13589825109E+02  0.51100000000E-03 0. -1.
        -11    1    4    4    0    0  0.36576837852E+01 -0.57207753619E+01 -0.20718656322E+02  0.21802950293E+02  0.51100000000E-03 0.  1.
         12    1    4    4    0    0 -0.24182665864E+01 -0.11610003779E+02 -0.36032384262E+01  0.12394495883E+02  0.00000000000E+00 0. -1.
</event>
<event>
 8    1  0.1164123E-009  0.9118800E+02  0.7816164E-02  0.1184000E+00
        -11   -1    0    0    0    0  0.00000000000E+00  0.00000000000E+00  0.45593999997E+02  0.45594000000E+02  0.51100000000E-03 0.  1.
         11   -1    0    0    0    0 -0.00000000000E+00 -0.00000000000E+00 -0.45593999997E+02  0.45594000000E+02  0.51100000000E-03 0. -1.
         23    2    1    2    0    0  0.00000000000E+00 -0.35527136788E-14 -0.17763568394E-14  0.91188000000E+02  0.91188000000E+02 0.  0.
    9900012    2    3    3    0    0 -0.34085899967E+02 -0.24132927080E+02 -0.11805780669E+02  0.47787271858E+02  0.20000003709E+02 0.  0.
         12    1    3    3    0    0  0.34085899967E+02  0.24132927080E+02  0.11805780669E+02  0.43400728142E+02  0.00000000000E+00 0. -1.
         11    1    4    4    0    0 -0.64264710151E+01  0.12761044013E+00 -0.71183182288E+00  0.64670332407E+01  0.51100000000E-03 0. -1.
        -11    1    4    4    0    0 -0.29316771115E+02 -0.20828426847E+02 -0.10491853175E+02  0.37461652618E+02  0.51100000000E-03 0.  1.
        -12    1    4    4    0    0  0.16573421628E+01 -0.34321106735E+01 -0.60209567136E+00  0.38585859997E+01  0.00000000000E+00 0.  1.
</event>
<event>
 8    1  0.1164123E-009  0.9118800E+02  0.7816164E-02  0.1184000E+00
        -11   -1    0    0    0    0  0.00000000000E+00  0.00000000000E+00  0.45593999997E+02  0.45594000000E+02  0.51100000000E-03 0. -1.
         11   -1    0    0    0    0 -0.00000000000E+00 -0.00000000000E+00 -0.45593999997E+02  0.45594000000E+02  0.51100000000E-03 0.  1.
         23    2    1    2    0    0  0.00000000000E+00  0.00000000000E+00  0.00000000000E+00  0.91188000000E+02  0.91188000000E+02 0.  0.
    9900012    2    3    3    0    0  0.18826620066E+02 -0.33840473717E+02  0.19596022162E+02  0.47787269948E+02  0.19999995000E+02 0.  0.
        -12    1    3    3    0    0 -0.18826620066E+02  0.33840473717E+02 -0.19596022162E+02  0.43400730052E+02  0.00000000000E+00 0.  1.
         11    1    4    4    0    0 -0.20889517985E+01 -0.26015215617E+00  0.35191723354E+00  0.21343019377E+01  0.51100000000E-03 0. -1.
        -11    1    4    4    0    0  0.34096271302E+01 -0.11435651269E+02  0.85620690864E+00  0.11963810749E+02  0.51100000000E-03 0.  1.
         12    1    4    4    0    0  0.17505944734E+02 -0.22144670292E+02  0.18387898020E+02  0.33689157261E+02  0.00000000000E+00 0. -1.
</event>
<event>
 8    1  0.1164123E-009  0.9118800E+02  0.7816164E-02  0.1184000E+00
        -11   -1    0    0    0    0  0.00000000000E+00  0.00000000000E+00  0.45593999997E+02  0.45594000000E+02  0.51100000000E-03 0.  1.
         11   -1    0    0    0    0 -0.00000000000E+00 -0.00000000000E+00 -0.45593999997E+02  0.45594000000E+02  0.51100000000E-03 0. -1.
         23    2    1    2    0    0  0.00000000000E+00  0.00000000000E+00 -0.17763568394E-14  0.91188000000E+02  0.91188000000E+02 0.  0.
    9900012    2    3    3    0    0  0.22970315057E+02  0.35272293235E+02  0.10576079709E+02  0.47787268371E+02  0.19999987812E+02 0.  0.
        -12    1    3    3    0    0 -0.22970315057E+02 -0.35272293235E+02 -0.10576079709E+02  0.43400731629E+02  0.00000000000E+00 0.  1.
         11    1    4    4    0    0  0.16165160328E+02  0.13487893845E+02 -0.53859302536E+00  0.21060051555E+02  0.51100000000E-03 0. -1.
        -11    1    4    4    0    0  0.25364001015E+01  0.16210302928E+02  0.43424940685E+01  0.16972463035E+02  0.51100000000E-03 0.  1.
        -12    1    4    4    0    0  0.42687546280E+01  0.55740964628E+01  0.67721786662E+01  0.97547537814E+01  0.00000000000E+00 0.  1.
</event>
<event>
 8    1  0.1164123E-009  0.9118800E+02  0.7816164E-02  0.1184000E+00
        -11   -1    0    0    0    0  0.00000000000E+00  0.00000000000E+00  0.45593999997E+02  0.45594000000E+02  0.51100000000E-03 0. -1.
         11   -1    0    0    0    0 -0.00000000000E+00 -0.00000000000E+00 -0.45593999997E+02  0.45594000000E+02  0.51100000000E-03 0.  1.
         23    2    1    2    0    0  0.00000000000E+00  0.00000000000E+00  0.00000000000E+00  0.91188000000E+02  0.91188000000E+02 0.  0.
    9900012    2    3    3    0    0 -0.74059388500E+01 -0.26026779724E+02  0.33931994483E+02  0.47787292141E+02  0.20000096190E+02 0.  0.
        -12    1    3    3    0    0  0.74059388500E+01  0.26026779724E+02 -0.33931994483E+02  0.43400707859E+02  0.00000000000E+00 0.  1.
         11    1    4    4    0    0  0.18403618534E+01 -0.25014145930E+01  0.15924380543E+02  0.16224361395E+02  0.51100000000E-03 0. -1.
        -11    1    4    4    0    0 -0.38633168822E+01 -0.41196404309E+01  0.26597471249E+01  0.62426684712E+01  0.51100000000E-03 0.  1.
        -12    1    4    4    0    0 -0.53829838212E+01 -0.19405724700E+02  0.15347866815E+02  0.25320262276E+02  0.00000000000E+00 0.  1.
</event>
<event>
 8    1  0.1164123E-009  0.9118800E+02  0.7816164E-02  0.1184000E+00
        -11   -1    0    0    0    0  0.00000000000E+00  0.00000000000E+00  0.45593999997E+02  0.45594000000E+02  0.51100000000E-03 0. -1.
         11   -1    0    0    0    0 -0.00000000000E+00 -0.00000000000E+00 -0.45593999997E+02  0.45594000000E+02  0.51100000000E-03 0.  1.
         23    2    1    2    0    0  0.00000000000E+00  0.00000000000E+00  0.71054273576E-14  0.91188000000E+02  0.91188000000E+02 0.  0.
    9900012    2    3    3    0    0 -0.13532800961E+02  0.18475689804E+02 -0.36866491968E+02  0.47787239112E+02  0.19999854409E+02 0.  0.
         12    1    3    3    0    0  0.13532800961E+02 -0.18475689804E+02  0.36866491968E+02  0.43400760888E+02  0.00000000000E+00 0. -1.
         11    1    4    4    0    0 -0.91801681984E+01  0.56792306949E+01 -0.12134196635E+02  0.16240932167E+02  0.51100000000E-03 0. -1.
        -11    1    4    4    0    0  0.11885526054E+01  0.66087981167E+01 -0.21681705847E+02  0.22697692361E+02  0.51100000000E-03 0.  1.
        -12    1    4    4    0    0 -0.55411853679E+01  0.61876609923E+01 -0.30505894871E+01  0.88486145840E+01  0.00000000000E+00 0.  1.
</event>
<event>
 8    1  0.1164123E-009  0.9118800E+02  0.7816164E-02  0.1184000E+00
        -11   -1    0    0    0    0  0.00000000000E+00  0.00000000000E+00  0.45593999997E+02  0.45594000000E+02  0.51100000000E-03 0. -1.
         11   -1    0    0    0    0 -0.00000000000E+00 -0.00000000000E+00 -0.45593999997E+02  0.45594000000E+02  0.51100000000E-03 0.  1.
         23    2    1    2    0    0  0.00000000000E+00  0.00000000000E+00 -0.71054273576E-14  0.91188000000E+02  0.91188000000E+02 0.  0.
    9900012    2    3    3    0    0 -0.26059688224E+02  0.16776242005E+02 -0.30382056561E+02  0.47787320201E+02  0.20000224123E+02 0.  0.
         12    1    3    3    0    0  0.26059688224E+02 -0.16776242005E+02  0.30382056561E+02  0.43400679799E+02  0.00000000000E+00 0. -1.
         11    1    4    4    0    0 -0.12463126982E+01  0.37120836269E+01 -0.36418189375E+01  0.53474952668E+01  0.51100000000E-03 0. -1.
        -11    1    4    4    0    0 -0.19855295140E+02  0.11507622236E+02 -0.28821346392E+02  0.36841934297E+02  0.51100000000E-03 0.  1.
         12    1    4    4    0    0 -0.49580803864E+01  0.15565361426E+01  0.20811087689E+01  0.55978906374E+01  0.00000000000E+00 0. -1.
</event>
<event>
 8    1  0.1164123E-009  0.9118800E+02  0.7816164E-02  0.1184000E+00
        -11   -1    0    0    0    0  0.00000000000E+00  0.00000000000E+00  0.45593999997E+02  0.45594000000E+02  0.51100000000E-03 0. -1.
         11   -1    0    0    0    0 -0.00000000000E+00 -0.00000000000E+00 -0.45593999997E+02  0.45594000000E+02  0.51100000000E-03 0.  1.
         23    2    1    2    0    0  0.44408920985E-15  0.00000000000E+00  0.00000000000E+00  0.91188000000E+02  0.91188000000E+02 0.  0.
    9900012    2    3    3    0    0  0.22226877664E+01  0.38285775961E+02  0.20319502470E+02  0.47787272328E+02  0.20000005853E+02 0.  0.
        -12    1    3    3    0    0 -0.22226877664E+01 -0.38285775961E+02 -0.20319502470E+02  0.43400727672E+02  0.00000000000E+00 0.  1.
         11    1    4    4    0    0  0.27278498199E+01  0.21458726094E+02  0.12063313470E+02  0.24767753680E+02  0.51100000000E-03 0. -1.
        -11    1    4    4    0    0  0.25220730551E+01  0.51891308532E+01  0.93051210261E+01  0.10948662433E+02  0.51100000000E-03 0.  1.
         12    1    4    4    0    0 -0.30272351086E+01  0.11637919014E+02 -0.10489320259E+01  0.12070856215E+02  0.00000000000E+00 0. -1.
</event>
<event>
 8    1  0.1164123E-009  0.9118800E+02  0.7816164E-02  0.1184000E+00
        -11   -1    0    0    0    0  0.00000000000E+00  0.00000000000E+00  0.45593999997E+02  0.45594000000E+02  0.51100000000E-03 0. -1.
         11   -1    0    0    0    0 -0.00000000000E+00 -0.00000000000E+00 -0.45593999997E+02  0.45594000000E+02  0.51100000000E-03 0.  1.
         23    2    1    2    0    0  0.00000000000E+00  0.00000000000E+00  0.00000000000E+00  0.91188000000E+02  0.91188000000E+02 0.  0.
    9900012    2    3    3    0    0 -0.19843153197E+02  0.17462044283E+02 -0.34423094228E+02  0.47787272637E+02  0.20000007263E+02 0.  0.
         12    1    3    3    0    0  0.19843153197E+02 -0.17462044283E+02  0.34423094228E+02  0.43400727363E+02  0.00000000000E+00 0. -1.
         11    1    4    4    0    0 -0.26865682471E+01  0.55238229036E+01 -0.35744893630E+01  0.71068447910E+01  0.51100000000E-03 0. -1.
        -11    1    4    4    0    0 -0.83859729545E+01  0.74539739513E+01 -0.37227429225E+01  0.11821382541E+02  0.51100000000E-03 0.  1.
        -12    1    4    4    0    0 -0.87706119958E+01  0.44842474282E+01 -0.27125861943E+02  0.28859045305E+02  0.00000000000E+00 0.  1.
</event>
<event>
 8    1  0.1164123E-009  0.9118800E+02  0.7816164E-02  0.1184000E+00
        -11   -1    0    0    0    0  0.00000000000E+00  0.00000000000E+00  0.45593999997E+02  0.45594000000E+02  0.51100000000E-03 0.  1.
         11   -1    0    0    0    0 -0.00000000000E+00 -0.00000000000E+00 -0.45593999997E+02  0.45594000000E+02  0.51100000000E-03 0. -1.
         23    2    1    2    0    0  0.00000000000E+00  0.00000000000E+00  0.00000000000E+00  0.91188000000E+02  0.91188000000E+02 0.  0.
    9900012    2    3    3    0    0 -0.16146093757E+02 -0.17473325202E+02 -0.36298874029E+02  0.47787289257E+02  0.20000083038E+02 0.  0.
         12    1    3    3    0    0  0.16146093757E+02  0.17473325202E+02  0.36298874029E+02  0.43400710743E+02  0.00000000000E+00 0. -1.
         11    1    4    4    0    0 -0.33750988057E+01 -0.66453964651E+01 -0.41626579248E+01  0.85369963914E+01  0.51100000000E-03 0. -1.
        -11    1    4    4    0    0 -0.10690142678E+02  0.54559111698E+00 -0.12441626138E+02  0.16412522091E+02  0.51100000000E-03 0.  1.
         12    1    4    4    0    0 -0.20808522730E+01 -0.11373519853E+02 -0.19694589966E+02  0.22837770775E+02  0.00000000000E+00 0. -1.
</event>
<event>
 8    1  0.1164123E-009  0.9118800E+02  0.7816164E-02  0.1184000E+00
        -11   -1    0    0    0    0  0.00000000000E+00  0.00000000000E+00  0.45593999997E+02  0.45594000000E+02  0.51100000000E-03 0. -1.
         11   -1    0    0    0    0 -0.00000000000E+00 -0.00000000000E+00 -0.45593999997E+02  0.45594000000E+02  0.51100000000E-03 0.  1.
         23    2    1    2    0    0  0.00000000000E+00  0.35527136788E-14  0.35527136788E-14  0.91188000000E+02  0.91188000000E+02 0.  0.
    9900012    2    3    3    0    0 -0.21524459038E+02  0.30324352652E+02  0.22377555003E+02  0.47787266497E+02  0.19999979269E+02 0.  0.
        -12    1    3    3    0    0  0.21524459038E+02 -0.30324352652E+02 -0.22377555003E+02  0.43400733503E+02  0.00000000000E+00 0.  1.
         11    1    4    4    0    0 -0.34734142632E+01  0.23199280155E+01  0.26465856669E+01  0.49448042019E+01  0.51100000000E-03 0. -1.
        -11    1    4    4    0    0 -0.73713782205E+01  0.17656467372E+02  0.20384615103E+02  0.27957478250E+02  0.51100000000E-03 0.  1.
         12    1    4    4    0    0 -0.10679666554E+02  0.10347957264E+02 -0.65364576691E+00  0.14884984046E+02  0.00000000000E+00 0. -1.
</event>
<event>
 8    1  0.1164123E-009  0.9118800E+02  0.7816164E-02  0.1184000E+00
        -11   -1    0    0    0    0  0.00000000000E+00  0.00000000000E+00  0.45593999997E+02  0.45594000000E+02  0.51100000000E-03 0. -1.
         11   -1    0    0    0    0 -0.00000000000E+00 -0.00000000000E+00 -0.45593999997E+02  0.45594000000E+02  0.51100000000E-03 0.  1.
         23    2    1    2    0    0  0.00000000000E+00 -0.17763568394E-14  0.00000000000E+00  0.91188000000E+02  0.91188000000E+02 0.  0.
    9900012    2    3    3    0    0  0.24866719781E+02  0.83738754583E+01  0.34570907495E+02  0.47787272036E+02  0.20000004519E+02 0.  0.
        -12    1    3    3    0    0 -0.24866719781E+02 -0.83738754583E+01 -0.34570907495E+02  0.43400727964E+02  0.00000000000E+00 0.  1.
         11    1    4    4    0    0  0.11453957428E+02  0.87963260613E+01  0.19004724031E+02  0.23869395231E+02  0.51100000000E-03 0. -1.
        -11    1    4    4    0    0  0.80408508025E+01  0.36842952798E+01  0.14624037966E+02  0.17090693375E+02  0.51100000000E-03 0.  1.
        -12    1    4    4    0    0  0.53719115502E+01 -0.41067458829E+01  0.94214549826E+00  0.68271834302E+01  0.00000000000E+00 0.  1.
</event>
<event>
 8    1  0.1164123E-009  0.9118800E+02  0.7816164E-02  0.1184000E+00
        -11   -1    0    0    0    0  0.00000000000E+00  0.00000000000E+00  0.45593999997E+02  0.45594000000E+02  0.51100000000E-03 0. -1.
         11   -1    0    0    0    0 -0.00000000000E+00 -0.00000000000E+00 -0.45593999997E+02  0.45594000000E+02  0.51100000000E-03 0.  1.
         23    2    1    2    0    0  0.35527136788E-14 -0.35527136788E-14 -0.71054273576E-14  0.91188000000E+02  0.91188000000E+02 0.  0.
    9900012    2    3    3    0    0  0.22516025662E+02 -0.17432760678E+02  0.32752875680E+02  0.47787269340E+02  0.19999992230E+02 0.  0.
        -12    1    3    3    0    0 -0.22516025662E+02  0.17432760678E+02 -0.32752875680E+02  0.43400730660E+02  0.00000000000E+00 0.  1.
         11    1    4    4    0    0  0.53663864394E+01  0.11264059412E+01  0.74648069239E+01  0.92623018971E+01  0.51100000000E-03 0. -1.
        -11    1    4    4    0    0  0.13955345597E+02 -0.66027919587E+01  0.83636148561E+01  0.17558433476E+02  0.51100000000E-03 0.  1.
         12    1    4    4    0    0  0.31942936249E+01 -0.11956374661E+02  0.16924453900E+02  0.20966533968E+02  0.00000000000E+00 0. -1.
</event>
<event>
 8    1  0.1164123E-009  0.9118800E+02  0.7816164E-02  0.1184000E+00
        -11   -1    0    0    0    0  0.00000000000E+00  0.00000000000E+00  0.45593999997E+02  0.45594000000E+02  0.51100000000E-03 0. -1.
         11   -1    0    0    0    0 -0.00000000000E+00 -0.00000000000E+00 -0.45593999997E+02  0.45594000000E+02  0.51100000000E-03 0.  1.
         23    2    1    2    0    0  0.00000000000E+00 -0.35527136788E-14  0.35527136788E-14  0.91188000000E+02  0.91188000000E+02 0.  0.
    9900012    2    3    3    0    0  0.11556750778E+02 -0.27458370356E+02  0.31561097713E+02  0.47787268670E+02  0.19999989173E+02 0.  0.
        -12    1    3    3    0    0 -0.11556750778E+02  0.27458370356E+02 -0.31561097713E+02  0.43400731330E+02  0.00000000000E+00 0.  1.
         11    1    4    4    0    0  0.50779785393E+01 -0.15602894005E+02  0.15734474584E+02  0.22733452401E+02  0.51100000000E-03 0. -1.
        -11    1    4    4    0    0  0.35766733359E+01 -0.96580580964E+01  0.16661710747E+01  0.10432967203E+02  0.51100000000E-03 0.  1.
         12    1    4    4    0    0  0.29020989027E+01 -0.21974182549E+01  0.14160452054E+02  0.14620849065E+02  0.00000000000E+00 0. -1.
</event>
<event>
 8    1  0.1164123E-009  0.9118800E+02  0.7816164E-02  0.1184000E+00
        -11   -1    0    0    0    0  0.00000000000E+00  0.00000000000E+00  0.45593999997E+02  0.45594000000E+02  0.51100000000E-03 0.  1.
         11   -1    0    0    0    0 -0.00000000000E+00 -0.00000000000E+00 -0.45593999997E+02  0.45594000000E+02  0.51100000000E-03 0. -1.
         23    2    1    2    0    0  0.00000000000E+00  0.00000000000E+00  0.00000000000E+00  0.91188000000E+02  0.91188000000E+02 0.  0.
    9900012    2    3    3    0    0  0.29688852045E+02 -0.24771572529E+02 -0.19712040694E+02  0.47787270863E+02  0.19999999171E+02 0.  0.
         12    1    3    3    0    0 -0.29688852045E+02  0.24771572529E+02  0.19712040694E+02  0.43400729137E+02  0.00000000000E+00 0. -1.
         11    1    4    4    0    0  0.11219021507E+01  0.19893409104E+00  0.19223154579E+01  0.22346221580E+01  0.51100000000E-03 0. -1.
        -11    1    4    4    0    0  0.89956755489E+01 -0.14311504949E+02 -0.46473436631E+01  0.17531091121E+02  0.51100000000E-03 0.  1.
        -12    1    4    4    0    0  0.19571274346E+02 -0.10659001671E+02 -0.16987012489E+02  0.28021557584E+02  0.00000000000E+00 0.  1.
</event>
<event>
 8    1  0.1164123E-009  0.9118800E+02  0.7816164E-02  0.1184000E+00
        -11   -1    0    0    0    0  0.00000000000E+00  0.00000000000E+00  0.45593999997E+02  0.45594000000E+02  0.51100000000E-03 0. -1.
         11   -1    0    0    0    0 -0.00000000000E+00 -0.00000000000E+00 -0.45593999997E+02  0.45594000000E+02  0.51100000000E-03 0.  1.
         23    2    1    2    0    0  0.00000000000E+00  0.00000000000E+00 -0.71054273576E-14  0.91188000000E+02  0.91188000000E+02 0.  0.
    9900012    2    3    3    0    0  0.99262819238E+01  0.14624915107E+02  0.39638416062E+02  0.47787271404E+02  0.20000001641E+02 0.  0.
        -12    1    3    3    0    0 -0.99262819238E+01 -0.14624915107E+02 -0.39638416062E+02  0.43400728596E+02  0.00000000000E+00 0.  1.
         11    1    4    4    0    0  0.69237826615E+01  0.16604934626E+01  0.81786279153E+01  0.10843705996E+02  0.51100000000E-03 0. -1.
        -11    1    4    4    0    0  0.12561390929E-01  0.91027326695E+00 -0.14815105910E+01  0.17388585628E+01  0.51100000000E-03 0.  1.
        -12    1    4    4    0    0  0.29899378714E+01  0.12054148378E+02  0.32941298738E+02  0.35204706846E+02  0.00000000000E+00 0.  1.
</event>
<event>
 8    1  0.1164123E-009  0.9118800E+02  0.7816164E-02  0.1184000E+00
        -11   -1    0    0    0    0  0.00000000000E+00  0.00000000000E+00  0.45593999997E+02  0.45594000000E+02  0.51100000000E-03 0. -1.
         11   -1    0    0    0    0 -0.00000000000E+00 -0.00000000000E+00 -0.45593999997E+02  0.45594000000E+02  0.51100000000E-03 0.  1.
         23    2    1    2    0    0  0.00000000000E+00  0.00000000000E+00  0.00000000000E+00  0.91188000000E+02  0.91188000000E+02 0.  0.
    9900012    2    3    3    0    0  0.16364481827E+02  0.25236710297E+01  0.40118054431E+02  0.47787268759E+02  0.19999989580E+02 0.  0.
        -12    1    3    3    0    0 -0.16364481827E+02 -0.25236710297E+01 -0.40118054431E+02  0.43400731241E+02  0.00000000000E+00 0.  1.
         11    1    4    4    0    0  0.48960495513E+01 -0.27957700904E+00  0.23703721387E+02  0.24205699172E+02  0.51100000000E-03 0. -1.
        -11    1    4    4    0    0 -0.18205954667E+01 -0.14356212537E+01  0.51664152956E+01  0.56628105659E+01  0.51100000000E-03 0.  1.
        -12    1    4    4    0    0  0.13289027742E+02  0.42388692924E+01  0.11247917748E+02  0.17918759022E+02  0.00000000000E+00 0.  1.
</event>
<event>
 8    1  0.1164123E-009  0.9118800E+02  0.7816164E-02  0.1184000E+00
        -11   -1    0    0    0    0  0.00000000000E+00  0.00000000000E+00  0.45593999997E+02  0.45594000000E+02  0.51100000000E-03 0. -1.
         11   -1    0    0    0    0 -0.00000000000E+00 -0.00000000000E+00 -0.45593999997E+02  0.45594000000E+02  0.51100000000E-03 0.  1.
         23    2    1    2    0    0  0.35527136788E-14 -0.35527136788E-14  0.35527136788E-14  0.91188000000E+02  0.91188000000E+02 0.  0.
    9900012    2    3    3    0    0  0.31224266655E+02 -0.13491164888E+02  0.26956581344E+02  0.47787266873E+02  0.19999980982E+02 0.  0.
        -12    1    3    3    0    0 -0.31224266655E+02  0.13491164888E+02 -0.26956581344E+02  0.43400733127E+02  0.00000000000E+00 0.  1.
         11    1    4    4    0    0  0.14353894676E+02 -0.10130206100E+02  0.10658742973E+02  0.20549067376E+02  0.51100000000E-03 0. -1.
        -11    1    4    4    0    0  0.24060605430E+01 -0.65499688218E+01  0.59450726137E+01  0.91670664635E+01  0.51100000000E-03 0.  1.
        -12    1    4    4    0    0  0.14464311436E+02  0.31890100333E+01  0.10352765757E+02  0.18071133034E+02  0.00000000000E+00 0.  1.
</event>
<event>
 8    1  0.1164123E-009  0.9118800E+02  0.7816164E-02  0.1184000E+00
        -11   -1    0    0    0    0  0.00000000000E+00  0.00000000000E+00  0.45593999997E+02  0.45594000000E+02  0.51100000000E-03 0. -1.
         11   -1    0    0    0    0 -0.00000000000E+00 -0.00000000000E+00 -0.45593999997E+02  0.45594000000E+02  0.51100000000E-03 0.  1.
         23    2    1    2    0    0  0.00000000000E+00  0.35527136788E-14  0.00000000000E+00  0.91188000000E+02  0.91188000000E+02 0.  0.
    9900012    2    3    3    0    0  0.31742150791E+01  0.26888804076E+02  0.33919608922E+02  0.47787270796E+02  0.19999998867E+02 0.  0.
        -12    1    3    3    0    0 -0.31742150791E+01 -0.26888804076E+02 -0.33919608922E+02  0.43400729204E+02  0.00000000000E+00 0.  1.
         11    1    4    4    0    0 -0.20754251410E+00  0.19522627882E+02  0.20030236885E+02  0.27971172004E+02  0.51100000000E-03 0. -1.
        -11    1    4    4    0    0  0.16876117057E+01  0.10329624554E+02  0.87286343884E+01  0.13628581556E+02  0.51100000000E-03 0.  1.
        -12    1    4    4    0    0  0.16941458875E+01 -0.29634483598E+01  0.51607376482E+01  0.61875172358E+01  0.00000000000E+00 0.  1.
</event>
<event>
 8    1  0.1164123E-009  0.9118800E+02  0.7816164E-02  0.1184000E+00
        -11   -1    0    0    0    0  0.00000000000E+00  0.00000000000E+00  0.45593999997E+02  0.45594000000E+02  0.51100000000E-03 0.  1.
         11   -1    0    0    0    0 -0.00000000000E+00 -0.00000000000E+00 -0.45593999997E+02  0.45594000000E+02  0.51100000000E-03 0. -1.
         23    2    1    2    0    0  0.00000000000E+00 -0.35527136788E-14  0.00000000000E+00  0.91188000000E+02  0.91188000000E+02 0.  0.
    9900012    2    3    3    0    0  0.20370791923E+02 -0.30928653056E+02  0.22629077364E+02  0.47787240954E+02  0.19999862806E+02 0.  0.
        -12    1    3    3    0    0 -0.20370791923E+02  0.30928653056E+02 -0.22629077364E+02  0.43400759046E+02  0.00000000000E+00 0.  1.
         11    1    4    4    0    0  0.30519617988E+01 -0.28214038943E+01 -0.16537562531E+01  0.44732204016E+01  0.51100000000E-03 0. -1.
        -11    1    4    4    0    0 -0.45497943875E+00 -0.45859679342E+01 -0.71181242224E+00  0.46631304258E+01  0.51100000000E-03 0.  1.
        -12    1    4    4    0    0  0.17773809563E+02 -0.23521281227E+02  0.24994646039E+02  0.38650890127E+02  0.00000000000E+00 0.  1.
</event>
<event>
 8    1  0.1164123E-009  0.9118800E+02  0.7816164E-02  0.1184000E+00
        -11   -1    0    0    0    0  0.00000000000E+00  0.00000000000E+00  0.45593999997E+02  0.45594000000E+02  0.51100000000E-03 0. -1.
         11   -1    0    0    0    0 -0.00000000000E+00 -0.00000000000E+00 -0.45593999997E+02  0.45594000000E+02  0.51100000000E-03 0.  1.
         23    2    1    2    0    0  0.35527136788E-14  0.35527136788E-14  0.17763568394E-14  0.91188000000E+02  0.91188000000E+02 0.  0.
    9900012    2    3    3    0    0  0.30639811568E+02  0.28707173705E+02  0.10987406891E+02  0.47787274369E+02  0.20000015160E+02 0.  0.
        -12    1    3    3    0    0 -0.30639811568E+02 -0.28707173705E+02 -0.10987406891E+02  0.43400725631E+02  0.00000000000E+00 0.  1.
         11    1    4    4    0    0  0.13181562667E+02  0.13020353913E+02  0.56068562036E+01  0.19357687029E+02  0.51100000000E-03 0. -1.
        -11    1    4    4    0    0  0.19153975726E+02  0.10613339292E+02  0.67372222352E+01  0.22910869053E+02  0.51100000000E-03 0.  1.
         12    1    4    4    0    0 -0.16957268247E+01  0.50734804999E+01 -0.13566715480E+01  0.55187182875E+01  0.00000000000E+00 0. -1.
</event>
<event>
 8    1  0.1164123E-009  0.9118800E+02  0.7816164E-02  0.1184000E+00
        -11   -1    0    0    0    0  0.00000000000E+00  0.00000000000E+00  0.45593999997E+02  0.45594000000E+02  0.51100000000E-03 0. -1.
         11   -1    0    0    0    0 -0.00000000000E+00 -0.00000000000E+00 -0.45593999997E+02  0.45594000000E+02  0.51100000000E-03 0.  1.
         23    2    1    2    0    0  0.00000000000E+00 -0.17763568394E-14  0.00000000000E+00  0.91188000000E+02  0.91188000000E+02 0.  0.
    9900012    2    3    3    0    0  0.60404608806E+01 -0.12383450621E+02 -0.41155642179E+02  0.47787263830E+02  0.19999967107E+02 0.  0.
         12    1    3    3    0    0 -0.60404608806E+01  0.12383450621E+02  0.41155642179E+02  0.43400736170E+02  0.00000000000E+00 0. -1.
         11    1    4    4    0    0  0.11009271048E+01  0.20261600958E+01 -0.31795015256E+01  0.39276704847E+01  0.51100000000E-03 0. -1.
        -11    1    4    4    0    0 -0.41642096193E+01  0.41318833598E+00 -0.10915764118E+02  0.11690392333E+02  0.51100000000E-03 0.  1.
         12    1    4    4    0    0  0.91037433950E+01 -0.14822799053E+02 -0.27060376535E+02  0.32169201012E+02  0.00000000000E+00 0. -1.
</event>
<event>
 8    1  0.1164123E-009  0.9118800E+02  0.7816164E-02  0.1184000E+00
        -11   -1    0    0    0    0  0.00000000000E+00  0.00000000000E+00  0.45593999997E+02  0.45594000000E+02  0.51100000000E-03 0.  1.
         11   -1    0    0    0    0 -0.00000000000E+00 -0.00000000000E+00 -0.45593999997E+02  0.45594000000E+02  0.51100000000E-03 0. -1.
         23    2    1    2    0    0  0.00000000000E+00  0.00000000000E+00  0.00000000000E+00  0.91188000000E+02  0.91188000000E+02 0.  0.
    9900012    2    3    3    0    0  0.34120480087E+02 -0.25571952827E+02  0.80926631526E+01  0.47787272706E+02  0.20000007574E+02 0.  0.
         12    1    3    3    0    0 -0.34120480087E+02  0.25571952827E+02 -0.80926631526E+01  0.43400727294E+02  0.00000000000E+00 0. -1.
         11    1    4    4    0    0 -0.13425510004E+01 -0.12331144543E+01  0.81920132981E+00  0.19985258382E+01  0.51100000000E-03 0. -1.
        -11    1    4    4    0    0  0.56260745308E+01 -0.74452770024E+01 -0.33153971282E+01  0.99033692573E+01  0.51100000000E-03 0.  1.
        -12    1    4    4    0    0  0.29836956557E+02 -0.16893561370E+02  0.10588858951E+02  0.35885377610E+02  0.00000000000E+00 0.  1.
</event>
<event>
 8    1  0.1164123E-009  0.9118800E+02  0.7816164E-02  0.1184000E+00
        -11   -1    0    0    0    0  0.00000000000E+00  0.00000000000E+00  0.45593999997E+02  0.45594000000E+02  0.51100000000E-03 0. -1.
         11   -1    0    0    0    0 -0.00000000000E+00 -0.00000000000E+00 -0.45593999997E+02  0.45594000000E+02  0.51100000000E-03 0.  1.
         23    2    1    2    0    0  0.00000000000E+00  0.00000000000E+00  0.00000000000E+00  0.91188000000E+02  0.91188000000E+02 0.  0.
    9900012    2    3    3    0    0 -0.56491724030E+00  0.22540785411E+02 -0.37083910144E+02  0.47787279614E+02  0.20000039073E+02 0.  0.
         12    1    3    3    0    0  0.56491724030E+00 -0.22540785411E+02  0.37083910144E+02  0.43400720386E+02  0.00000000000E+00 0. -1.
         11    1    4    4    0    0  0.15823561328E+01 -0.10333218604E+01 -0.12464496781E+01  0.22638997458E+01  0.51100000000E-03 0. -1.
        -11    1    4    4    0    0  0.10496907721E+00  0.99334914485E+00 -0.13981351461E+02  0.14016987907E+02  0.51100000000E-03 0.  1.
        -12    1    4    4    0    0 -0.22522424503E+01  0.22580758126E+02 -0.21856109005E+02  0.31506391962E+02  0.00000000000E+00 0.  1.
</event>
<event>
 8    1  0.1164123E-009  0.9118800E+02  0.7816164E-02  0.1184000E+00
        -11   -1    0    0    0    0  0.00000000000E+00  0.00000000000E+00  0.45593999997E+02  0.45594000000E+02  0.51100000000E-03 0. -1.
         11   -1    0    0    0    0 -0.00000000000E+00 -0.00000000000E+00 -0.45593999997E+02  0.45594000000E+02  0.51100000000E-03 0.  1.
         23    2    1    2    0    0 -0.44408920985E-15  0.00000000000E+00  0.35527136788E-14  0.91188000000E+02  0.91188000000E+02 0.  0.
    9900012    2    3    3    0    0  0.28719407575E+01 -0.32128683368E+02 -0.29036579212E+02  0.47787271078E+02  0.20000000151E+02 0.  0.
         12    1    3    3    0    0 -0.28719407575E+01  0.32128683368E+02  0.29036579212E+02  0.43400728922E+02  0.00000000000E+00 0. -1.
         11    1    4    4    0    0  0.20787782618E+01 -0.10479036603E+02 -0.18443518368E+02  0.21314194736E+02  0.51100000000E-03 0. -1.
        -11    1    4    4    0    0 -0.90941605582E+00 -0.10445584983E+02 -0.10915814772E+02  0.15135795176E+02  0.51100000000E-03 0.  1.
        -12    1    4    4    0    0  0.17025785515E+01 -0.11204061782E+02  0.32275392822E+00  0.11337281166E+02  0.00000000000E+00 0.  1.
</event>
<event>
 8    1  0.1164123E-009  0.9118800E+02  0.7816164E-02  0.1184000E+00
        -11   -1    0    0    0    0  0.00000000000E+00  0.00000000000E+00  0.45593999997E+02  0.45594000000E+02  0.51100000000E-03 0. -1.
         11   -1    0    0    0    0 -0.00000000000E+00 -0.00000000000E+00 -0.45593999997E+02  0.45594000000E+02  0.51100000000E-03 0.  1.
         23    2    1    2    0    0  0.00000000000E+00  0.59327542878E-15  0.71054273576E-14  0.91188000000E+02  0.91188000000E+02 0.  0.
    9900012    2    3    3    0    0  0.18129729954E+02 -0.24308281012E-01  0.39432668980E+02  0.47787273256E+02  0.20000010082E+02 0.  0.
        -12    1    3    3    0    0 -0.18129729954E+02  0.24308281012E-01 -0.39432668980E+02  0.43400726744E+02  0.00000000000E+00 0.  1.
         11    1    4    4    0    0  0.67936189184E+01 -0.36608407452E+00  0.61474462744E+01  0.91694259098E+01  0.51100000000E-03 0. -1.
        -11    1    4    4    0    0  0.90768272418E+01 -0.33196569056E+01  0.68778276033E+01  0.11862269073E+02  0.51100000000E-03 0.  1.
        -12    1    4    4    0    0  0.22592837937E+01  0.36614326991E+01  0.26407395102E+02  0.26755578273E+02  0.00000000000E+00 0.  1.
</event>
<event>
 8    1  0.1164123E-009  0.9118800E+02  0.7816164E-02  0.1184000E+00
        -11   -1    0    0    0    0  0.00000000000E+00  0.00000000000E+00  0.45593999997E+02  0.45594000000E+02  0.51100000000E-03 0. -1.
         11   -1    0    0    0    0 -0.00000000000E+00 -0.00000000000E+00 -0.45593999997E+02  0.45594000000E+02  0.51100000000E-03 0.  1.
         23    2    1    2    0    0  0.22204460493E-14  0.00000000000E+00  0.35527136788E-14  0.91188000000E+02  0.91188000000E+02 0.  0.
    9900012    2    3    3    0    0 -0.18633645255E+01  0.35100507128E+02 -0.25457921051E+02  0.47787268759E+02  0.19999989581E+02 0.  0.
         12    1    3    3    0    0  0.18633645255E+01 -0.35100507128E+02  0.25457921051E+02  0.43400731241E+02  0.00000000000E+00 0. -1.
         11    1    4    4    0    0  0.11396752682E+01  0.58538904714E+01 -0.93711031422E+01  0.11107856127E+02  0.51100000000E-03 0. -1.
        -11    1    4    4    0    0  0.52211152881E+01  0.19011991255E+02 -0.11164695597E+02  0.22657587788E+02  0.51100000000E-03 0.  1.
         12    1    4    4    0    0 -0.82241550819E+01  0.10234625402E+02 -0.49221223112E+01  0.14021824845E+02  0.00000000000E+00 0. -1.
</event>
<event>
 8    1  0.1164123E-009  0.9118800E+02  0.7816164E-02  0.1184000E+00
        -11   -1    0    0    0    0  0.00000000000E+00  0.00000000000E+00  0.45593999997E+02  0.45594000000E+02  0.51100000000E-03 0.  1.
         11   -1    0    0    0    0 -0.00000000000E+00 -0.00000000000E+00 -0.45593999997E+02  0.45594000000E+02  0.51100000000E-03 0. -1.
         23    2    1    2    0    0  0.00000000000E+00 -0.17763568394E-14  0.00000000000E+00  0.91188000000E+02  0.91188000000E+02 0.  0.
    9900012    2    3    3    0    0 -0.39382623758E+02  0.12655926938E+02 -0.13132372461E+02  0.47787277112E+02  0.20000027664E+02 0.  0.
         12    1    3    3    0    0  0.39382623758E+02 -0.12655926938E+02  0.13132372461E+02  0.43400722888E+02  0.00000000000E+00 0. -1.
         11    1    4    4    0    0 -0.88102979744E+01 -0.11830341516E+00 -0.13443242397E+01  0.89130552572E+01  0.51100000000E-03 0. -1.
        -11    1    4    4    0    0 -0.32109887272E+02  0.13891683148E+02 -0.10331674975E+02  0.36479682418E+02  0.51100000000E-03 0.  1.
         12    1    4    4    0    0  0.15375614878E+01 -0.11174527955E+01 -0.14563732464E+01  0.23945394363E+01  0.00000000000E+00 0. -1.
</event>
<event>
 8    1  0.1164123E-009  0.9118800E+02  0.7816164E-02  0.1184000E+00
        -11   -1    0    0    0    0  0.00000000000E+00  0.00000000000E+00  0.45593999997E+02  0.45594000000E+02  0.51100000000E-03 0.  1.
         11   -1    0    0    0    0 -0.00000000000E+00 -0.00000000000E+00 -0.45593999997E+02  0.45594000000E+02  0.51100000000E-03 0. -1.
         23    2    1    2    0    0 -0.17763568394E-14 -0.71054273576E-14  0.00000000000E+00  0.91188000000E+02  0.91188000000E+02 0.  0.
    9900012    2    3    3    0    0 -0.13897198249E+02 -0.40117246069E+02 -0.90054187705E+01  0.47787272833E+02  0.20000008156E+02 0.  0.
         12    1    3    3    0    0  0.13897198249E+02  0.40117246069E+02  0.90054187705E+01  0.43400727167E+02  0.00000000000E+00 0. -1.
         11    1    4    4    0    0 -0.15215403763E+01 -0.26107771480E+01 -0.62490744369E+01  0.69413380563E+01  0.51100000000E-03 0. -1.
        -11    1    4    4    0    0 -0.42732790353E+01 -0.48253194941E+01 -0.31478312171E+01  0.71731069675E+01  0.51100000000E-03 0.  1.
        -12    1    4    4    0    0 -0.81023788371E+01 -0.32681149427E+02  0.39148688354E+00  0.33672827810E+02  0.00000000000E+00 0.  1.
</event>
<event>
 8    1  0.1164123E-009  0.9118800E+02  0.7816164E-02  0.1184000E+00
        -11   -1    0    0    0    0  0.00000000000E+00  0.00000000000E+00  0.45593999997E+02  0.45594000000E+02  0.51100000000E-03 0.  1.
         11   -1    0    0    0    0 -0.00000000000E+00 -0.00000000000E+00 -0.45593999997E+02  0.45594000000E+02  0.51100000000E-03 0. -1.
         23    2    1    2    0    0  0.00000000000E+00 -0.71054273576E-14  0.00000000000E+00  0.91188000000E+02  0.91188000000E+02 0.  0.
    9900012    2    3    3    0    0  0.24467806337E+01  0.40230602221E+02  0.16097674434E+02  0.47787271749E+02  0.20000003214E+02 0.  0.
         12    1    3    3    0    0 -0.24467806337E+01 -0.40230602221E+02 -0.16097674434E+02  0.43400728251E+02  0.00000000000E+00 0. -1.
         11    1    4    4    0    0 -0.27084195596E+01  0.12397968438E+02  0.34617543665E+00  0.12695077613E+02  0.51100000000E-03 0. -1.
        -11    1    4    4    0    0  0.19427976206E+01  0.27752634906E+02  0.12431323568E+02  0.30471642764E+02  0.51100000000E-03 0.  1.
         12    1    4    4    0    0  0.32124025727E+01  0.79998877194E-01  0.33201754291E+01  0.46205513729E+01  0.00000000000E+00 0. -1.
</event>
<event>
 8    1  0.1164123E-009  0.9118800E+02  0.7816164E-02  0.1184000E+00
        -11   -1    0    0    0    0  0.00000000000E+00  0.00000000000E+00  0.45593999997E+02  0.45594000000E+02  0.51100000000E-03 0. -1.
         11   -1    0    0    0    0 -0.00000000000E+00 -0.00000000000E+00 -0.45593999997E+02  0.45594000000E+02  0.51100000000E-03 0.  1.
         23    2    1    2    0    0  0.35527136788E-14  0.71054273576E-14 -0.35527136788E-14  0.91188000000E+02  0.91188000000E+02 0.  0.
    9900012    2    3    3    0    0  0.18439202545E+02  0.30226434947E+02 -0.25099431925E+02  0.47787273704E+02  0.20000012125E+02 0.  0.
         12    1    3    3    0    0 -0.18439202545E+02 -0.30226434947E+02  0.25099431925E+02  0.43400726296E+02  0.00000000000E+00 0. -1.
         11    1    4    4    0    0  0.62873836234E+01  0.63649431648E+01 -0.74584049595E+01  0.11647810915E+02  0.51100000000E-03 0. -1.
        -11    1    4    4    0    0  0.15934659930E+02  0.21631627763E+02 -0.13354823598E+02  0.30003200168E+02  0.51100000000E-03 0.  1.
         12    1    4    4    0    0 -0.37828410083E+01  0.22298640195E+01 -0.42862033671E+01  0.61362626202E+01  0.00000000000E+00 0. -1.
</event>
<event>
 8    1  0.1164123E-009  0.9118800E+02  0.7816164E-02  0.1184000E+00
        -11   -1    0    0    0    0  0.00000000000E+00  0.00000000000E+00  0.45593999997E+02  0.45594000000E+02  0.51100000000E-03 0. -1.
         11   -1    0    0    0    0 -0.00000000000E+00 -0.00000000000E+00 -0.45593999997E+02  0.45594000000E+02  0.51100000000E-03 0.  1.
         23    2    1    2    0    0 -0.35527136788E-14 -0.35527136788E-14  0.35527136788E-14  0.91188000000E+02  0.91188000000E+02 0.  0.
    9900012    2    3    3    0    0  0.29226905211E+02  0.12820759539E+02 -0.29411551729E+02  0.47787271452E+02  0.20000001858E+02 0.  0.
         12    1    3    3    0    0 -0.29226905211E+02 -0.12820759539E+02  0.29411551729E+02  0.43400728548E+02  0.00000000000E+00 0. -1.
         11    1    4    4    0    0  0.20085162697E+02  0.46874974932E+01 -0.16430944053E+02  0.26369723473E+02  0.51100000000E-03 0. -1.
        -11    1    4    4    0    0  0.82555682120E+01  0.48731410634E+01 -0.18212641736E+01  0.97580179226E+01  0.51100000000E-03 0.  1.
         12    1    4    4    0    0  0.88617430183E+00  0.32601209826E+01 -0.11159343503E+02  0.11659530056E+02  0.00000000000E+00 0. -1.
</event>
<event>
 8    1  0.1164123E-009  0.9118800E+02  0.7816164E-02  0.1184000E+00
        -11   -1    0    0    0    0  0.00000000000E+00  0.00000000000E+00  0.45593999997E+02  0.45594000000E+02  0.51100000000E-03 0. -1.
         11   -1    0    0    0    0 -0.00000000000E+00 -0.00000000000E+00 -0.45593999997E+02  0.45594000000E+02  0.51100000000E-03 0.  1.
         23    2    1    2    0    0  0.44408920985E-15  0.00000000000E+00  0.00000000000E+00  0.91188000000E+02  0.91188000000E+02 0.  0.
    9900012    2    3    3    0    0 -0.25175594314E+01  0.26971899262E+01  0.43243616012E+02  0.47787271150E+02  0.20000000480E+02 0.  0.
        -12    1    3    3    0    0  0.25175594314E+01 -0.26971899262E+01 -0.43243616012E+02  0.43400728850E+02  0.00000000000E+00 0.  1.
         11    1    4    4    0    0  0.26754113781E+01 -0.23725153344E+00  0.57762758784E+01  0.63702023215E+01  0.51100000000E-03 0. -1.
        -11    1    4    4    0    0 -0.47181439652E+01  0.96125682663E+01  0.26303894360E+02  0.28399950879E+02  0.51100000000E-03 0.  1.
        -12    1    4    4    0    0 -0.47482684435E+00 -0.66781268067E+01  0.11163445773E+02  0.13017117949E+02  0.00000000000E+00 0.  1.
</event>
<event>
 8    1  0.1164123E-009  0.9118800E+02  0.7816164E-02  0.1184000E+00
        -11   -1    0    0    0    0  0.00000000000E+00  0.00000000000E+00  0.45593999997E+02  0.45594000000E+02  0.51100000000E-03 0. -1.
         11   -1    0    0    0    0 -0.00000000000E+00 -0.00000000000E+00 -0.45593999997E+02  0.45594000000E+02  0.51100000000E-03 0.  1.
         23    2    1    2    0    0  0.00000000000E+00 -0.66613381478E-15  0.00000000000E+00  0.91188000000E+02  0.91188000000E+02 0.  0.
    9900012    2    3    3    0    0 -0.20675239737E+02  0.17099057053E+01 -0.38121302488E+02  0.47787273980E+02  0.20000013383E+02 0.  0.
         12    1    3    3    0    0  0.20675239737E+02 -0.17099057053E+01  0.38121302488E+02  0.43400726020E+02  0.00000000000E+00 0. -1.
         11    1    4    4    0    0 -0.29406776030E+01 -0.40934347809E+01 -0.47747562763E+01  0.69427725607E+01  0.51100000000E-03 0. -1.
        -11    1    4    4    0    0 -0.10291447669E+02 -0.32341855708E+01 -0.99208752125E+01  0.14655975459E+02  0.51100000000E-03 0.  1.
        -12    1    4    4    0    0 -0.74431144651E+01  0.90375260571E+01 -0.23425670999E+02  0.26188525960E+02  0.00000000000E+00 0.  1.
</event>
<event>
 8    1  0.1164123E-009  0.9118800E+02  0.7816164E-02  0.1184000E+00
        -11   -1    0    0    0    0  0.00000000000E+00  0.00000000000E+00  0.45593999997E+02  0.45594000000E+02  0.51100000000E-03 0. -1.
         11   -1    0    0    0    0 -0.00000000000E+00 -0.00000000000E+00 -0.45593999997E+02  0.45594000000E+02  0.51100000000E-03 0.  1.
         23    2    1    2    0    0 -0.35527136788E-14  0.00000000000E+00  0.00000000000E+00  0.91188000000E+02  0.91188000000E+02 0.  0.
    9900012    2    3    3    0    0 -0.26761814039E+02 -0.71235028889E+01 -0.33416813787E+02  0.47787280793E+02  0.20000044446E+02 0.  0.
         12    1    3    3    0    0  0.26761814039E+02  0.71235028889E+01  0.33416813787E+02  0.43400719207E+02  0.00000000000E+00 0. -1.
         11    1    4    4    0    0 -0.42078507503E+01  0.20867773196E+01 -0.15243257020E+02  0.15950471227E+02  0.51100000000E-03 0. -1.
        -11    1    4    4    0    0 -0.96777880289E+01 -0.16486091806E+01 -0.12426927151E+02  0.15836856129E+02  0.51100000000E-03 0.  1.
        -12    1    4    4    0    0 -0.12876175259E+02 -0.75616710279E+01 -0.57466296159E+01  0.15999953437E+02  0.00000000000E+00 0.  1.
</event>
<event>
 8    1  0.1164123E-009  0.9118800E+02  0.7816164E-02  0.1184000E+00
        -11   -1    0    0    0    0  0.00000000000E+00  0.00000000000E+00  0.45593999997E+02  0.45594000000E+02  0.51100000000E-03 0. -1.
         11   -1    0    0    0    0 -0.00000000000E+00 -0.00000000000E+00 -0.45593999997E+02  0.45594000000E+02  0.51100000000E-03 0.  1.
         23    2    1    2    0    0  0.00000000000E+00  0.00000000000E+00 -0.88817841970E-15  0.91188000000E+02  0.91188000000E+02 0.  0.
    9900012    2    3    3    0    0  0.39247482676E+02 -0.16729639733E+02 -0.79609951075E+01  0.47787272067E+02  0.20000004660E+02 0.  0.
         12    1    3    3    0    0 -0.39247482676E+02  0.16729639733E+02  0.79609951075E+01  0.43400727933E+02  0.00000000000E+00 0. -1.
         11    1    4    4    0    0  0.77755541860E+01  0.44235353094E+00 -0.19461500079E+01  0.80276036063E+01  0.51100000000E-03 0. -1.
        -11    1    4    4    0    0  0.20335563395E+02 -0.44728596171E+01 -0.88653003611E+01  0.22630403499E+02  0.51100000000E-03 0.  1.
         12    1    4    4    0    0  0.11136365095E+02 -0.12699133647E+02  0.28504552616E+01  0.17129264961E+02  0.00000000000E+00 0. -1.
</event>
<event>
 8    1  0.1164123E-009  0.9118800E+02  0.7816164E-02  0.1184000E+00
        -11   -1    0    0    0    0  0.00000000000E+00  0.00000000000E+00  0.45593999997E+02  0.45594000000E+02  0.51100000000E-03 0. -1.
         11   -1    0    0    0    0 -0.00000000000E+00 -0.00000000000E+00 -0.45593999997E+02  0.45594000000E+02  0.51100000000E-03 0.  1.
         23    2    1    2    0    0  0.00000000000E+00 -0.16653345369E-15  0.00000000000E+00  0.91188000000E+02  0.91188000000E+02 0.  0.
    9900012    2    3    3    0    0 -0.18890231336E+02  0.31977281508E+00  0.39072763792E+02  0.47787263083E+02  0.19999963701E+02 0.  0.
        -12    1    3    3    0    0  0.18890231336E+02 -0.31977281508E+00 -0.39072763792E+02  0.43400736917E+02  0.00000000000E+00 0.  1.
         11    1    4    4    0    0 -0.85616062291E+00 -0.95055507366E+00  0.11485142857E+02  0.11556170329E+02  0.51100000000E-03 0. -1.
        -11    1    4    4    0    0  0.16949643973E+01 -0.16587110099E+01  0.24120442838E+00  0.23837798472E+01  0.51100000000E-03 0.  1.
         12    1    4    4    0    0 -0.19729035111E+02  0.29290388987E+01  0.27346416506E+02  0.33847312907E+02  0.00000000000E+00 0. -1.
</event>
<event>
 8    1  0.1164123E-009  0.9118800E+02  0.7816164E-02  0.1184000E+00
        -11   -1    0    0    0    0  0.00000000000E+00  0.00000000000E+00  0.45593999997E+02  0.45594000000E+02  0.51100000000E-03 0. -1.
         11   -1    0    0    0    0 -0.00000000000E+00 -0.00000000000E+00 -0.45593999997E+02  0.45594000000E+02  0.51100000000E-03 0.  1.
         23    2    1    2    0    0  0.00000000000E+00  0.00000000000E+00  0.00000000000E+00  0.91188000000E+02  0.91188000000E+02 0.  0.
    9900012    2    3    3    0    0  0.32634491004E+02 -0.18766823785E+02 -0.21596744566E+02  0.47787273578E+02  0.20000011550E+02 0.  0.
         12    1    3    3    0    0 -0.32634491004E+02  0.18766823785E+02  0.21596744566E+02  0.43400726422E+02  0.00000000000E+00 0. -1.
         11    1    4    4    0    0 -0.97145095340E+00 -0.25979631876E+01 -0.39896842746E+00  0.28021965931E+01  0.51100000000E-03 0. -1.
        -11    1    4    4    0    0  0.87727166728E+01 -0.65875383336E+01 -0.13258375004E+02  0.17208739847E+02  0.51100000000E-03 0.  1.
         12    1    4    4    0    0  0.24833225285E+02 -0.95813222642E+01 -0.79394011346E+01  0.27776337137E+02  0.00000000000E+00 0. -1.
</event>
<event>
 8    1  0.1164123E-009  0.9118800E+02  0.7816164E-02  0.1184000E+00
        -11   -1    0    0    0    0  0.00000000000E+00  0.00000000000E+00  0.45593999997E+02  0.45594000000E+02  0.51100000000E-03 0. -1.
         11   -1    0    0    0    0 -0.00000000000E+00 -0.00000000000E+00 -0.45593999997E+02  0.45594000000E+02  0.51100000000E-03 0.  1.
         23    2    1    2    0    0  0.00000000000E+00  0.00000000000E+00  0.00000000000E+00  0.91188000000E+02  0.91188000000E+02 0.  0.
    9900012    2    3    3    0    0 -0.30499564140E+01 -0.29045120505E+02 -0.32104550074E+02  0.47787269652E+02  0.19999993651E+02 0.  0.
         12    1    3    3    0    0  0.30499564140E+01  0.29045120505E+02  0.32104550074E+02  0.43400730348E+02  0.00000000000E+00 0. -1.
         11    1    4    4    0    0 -0.11176953270E+01 -0.88716407917E+01 -0.34604673184E+01  0.95880179132E+01  0.51100000000E-03 0. -1.
        -11    1    4    4    0    0  0.41775242584E+00 -0.11904675150E+02 -0.47820349738E+01  0.12836030004E+02  0.51100000000E-03 0.  1.
         12    1    4    4    0    0 -0.23500135129E+01 -0.82688045636E+01 -0.23862047782E+02  0.25363221735E+02  0.00000000000E+00 0. -1.
</event>
<event>
 8    1  0.1164123E-009  0.9118800E+02  0.7816164E-02  0.1184000E+00
        -11   -1    0    0    0    0  0.00000000000E+00  0.00000000000E+00  0.45593999997E+02  0.45594000000E+02  0.51100000000E-03 0. -1.
         11   -1    0    0    0    0 -0.00000000000E+00 -0.00000000000E+00 -0.45593999997E+02  0.45594000000E+02  0.51100000000E-03 0.  1.
         23    2    1    2    0    0  0.00000000000E+00 -0.35527136788E-14  0.00000000000E+00  0.91188000000E+02  0.91188000000E+02 0.  0.
    9900012    2    3    3    0    0  0.22113132501E+02 -0.20115453739E+02  0.31464285193E+02  0.47787270158E+02  0.19999995957E+02 0.  0.
        -12    1    3    3    0    0 -0.22113132501E+02  0.20115453739E+02 -0.31464285193E+02  0.43400729842E+02  0.00000000000E+00 0.  1.
         11    1    4    4    0    0  0.15256552119E+02 -0.17664612577E+02  0.18350332708E+02  0.29690665718E+02  0.51100000000E-03 0. -1.
        -11    1    4    4    0    0  0.10676481429E+01 -0.40829790851E+01  0.66701617459E+00  0.42726457383E+01  0.51100000000E-03 0.  1.
        -12    1    4    4    0    0  0.57889322396E+01  0.16321379223E+01  0.12446936310E+02  0.13823958701E+02  0.00000000000E+00 0.  1.
</event>
<event>
 8    1  0.1164123E-009  0.9118800E+02  0.7816164E-02  0.1184000E+00
        -11   -1    0    0    0    0  0.00000000000E+00  0.00000000000E+00  0.45593999997E+02  0.45594000000E+02  0.51100000000E-03 0.  1.
         11   -1    0    0    0    0 -0.00000000000E+00 -0.00000000000E+00 -0.45593999997E+02  0.45594000000E+02  0.51100000000E-03 0. -1.
         23    2    1    2    0    0  0.00000000000E+00  0.00000000000E+00  0.00000000000E+00  0.91188000000E+02  0.91188000000E+02 0.  0.
    9900012    2    3    3    0    0  0.40532235559E+02  0.14688600855E+02  0.50008841073E+01  0.47787240141E+02  0.19999859096E+02 0.  0.
         12    1    3    3    0    0 -0.40532235559E+02 -0.14688600855E+02 -0.50008841073E+01  0.43400759859E+02  0.00000000000E+00 0. -1.
         11    1    4    4    0    0  0.96536997106E+01  0.13788489367E+01 -0.54613040372E+01  0.11176805650E+02  0.51100000000E-03 0. -1.
        -11    1    4    4    0    0  0.13746237303E+02  0.66670247975E+00  0.33824461732E+01  0.14171960858E+02  0.51100000000E-03 0.  1.
        -12    1    4    4    0    0  0.17132298546E+02  0.12643049439E+02  0.70797419712E+01  0.22438473633E+02  0.00000000000E+00 0.  1.
</event>
<event>
 8    1  0.1164123E-009  0.9118800E+02  0.7816164E-02  0.1184000E+00
        -11   -1    0    0    0    0  0.00000000000E+00  0.00000000000E+00  0.45593999997E+02  0.45594000000E+02  0.51100000000E-03 0. -1.
         11   -1    0    0    0    0 -0.00000000000E+00 -0.00000000000E+00 -0.45593999997E+02  0.45594000000E+02  0.51100000000E-03 0.  1.
         23    2    1    2    0    0  0.00000000000E+00 -0.17763568394E-14  0.00000000000E+00  0.91188000000E+02  0.91188000000E+02 0.  0.
    9900012    2    3    3    0    0  0.11201752418E+02 -0.11768516850E+02 -0.40244827800E+02  0.47787269468E+02  0.19999992812E+02 0.  0.
         12    1    3    3    0    0 -0.11201752418E+02  0.11768516850E+02  0.40244827800E+02  0.43400730532E+02  0.00000000000E+00 0. -1.
         11    1    4    4    0    0  0.31345577772E+01 -0.11696485140E+02 -0.11666256461E+02  0.16814718468E+02  0.51100000000E-03 0. -1.
        -11    1    4    4    0    0  0.26914417523E+01 -0.41510997908E+01 -0.90953318458E+01  0.10353769836E+02  0.51100000000E-03 0.  1.
        -12    1    4    4    0    0  0.53757528889E+01  0.40790680809E+01 -0.19483239493E+02  0.20618781163E+02  0.00000000000E+00 0.  1.
</event>
<event>
 8    1  0.1164123E-009  0.9118800E+02  0.7816164E-02  0.1184000E+00
        -11   -1    0    0    0    0  0.00000000000E+00  0.00000000000E+00  0.45593999997E+02  0.45594000000E+02  0.51100000000E-03 0. -1.
         11   -1    0    0    0    0 -0.00000000000E+00 -0.00000000000E+00 -0.45593999997E+02  0.45594000000E+02  0.51100000000E-03 0.  1.
         23    2    1    2    0    0  0.00000000000E+00  0.00000000000E+00  0.00000000000E+00  0.91188000000E+02  0.91188000000E+02 0.  0.
    9900012    2    3    3    0    0  0.23680696182E+02 -0.17271896160E+02  0.32008275505E+02  0.47787268791E+02  0.19999989727E+02 0.  0.
        -12    1    3    3    0    0 -0.23680696182E+02  0.17271896160E+02 -0.32008275505E+02  0.43400731209E+02  0.00000000000E+00 0.  1.
         11    1    4    4    0    0  0.67919577724E+00  0.61400423206E+00  0.66270182349E+01  0.66899685386E+01  0.51100000000E-03 0. -1.
        -11    1    4    4    0    0  0.47104621995E+00  0.20890752613E+01  0.24180816581E+01  0.32300525003E+01  0.51100000000E-03 0.  1.
         12    1    4    4    0    0  0.22530454185E+02 -0.19974975653E+02  0.22963175612E+02  0.37867247752E+02  0.00000000000E+00 0. -1.
</event>
<event>
 8    1  0.1164123E-009  0.9118800E+02  0.7816164E-02  0.1184000E+00
        -11   -1    0    0    0    0  0.00000000000E+00  0.00000000000E+00  0.45593999997E+02  0.45594000000E+02  0.51100000000E-03 0. -1.
         11   -1    0    0    0    0 -0.00000000000E+00 -0.00000000000E+00 -0.45593999997E+02  0.45594000000E+02  0.51100000000E-03 0.  1.
         23    2    1    2    0    0  0.00000000000E+00  0.00000000000E+00  0.00000000000E+00  0.91188000000E+02  0.91188000000E+02 0.  0.
    9900012    2    3    3    0    0 -0.27648639556E+02  0.28431517495E+02  0.17630226733E+02  0.47787270156E+02  0.19999995949E+02 0.  0.
        -12    1    3    3    0    0  0.27648639556E+02 -0.28431517495E+02 -0.17630226733E+02  0.43400729844E+02  0.00000000000E+00 0.  1.
         11    1    4    4    0    0 -0.13355380525E+01  0.67553341063E+01 -0.84284431375E-01  0.68866032922E+01  0.51100000000E-03 0. -1.
        -11    1    4    4    0    0 -0.86670345896E+01  0.14234009400E+02  0.13109974295E+02  0.21203677475E+02  0.51100000000E-03 0.  1.
        -12    1    4    4    0    0 -0.17646066914E+02  0.74421739881E+01  0.46045368689E+01  0.19696989388E+02  0.00000000000E+00 0.  1.
</event>
<event>
 8    1  0.1164123E-009  0.9118800E+02  0.7816164E-02  0.1184000E+00
        -11   -1    0    0    0    0  0.00000000000E+00  0.00000000000E+00  0.45593999997E+02  0.45594000000E+02  0.51100000000E-03 0. -1.
         11   -1    0    0    0    0 -0.00000000000E+00 -0.00000000000E+00 -0.45593999997E+02  0.45594000000E+02  0.51100000000E-03 0.  1.
         23    2    1    2    0    0  0.17763568394E-14  0.71054273576E-14  0.71054273576E-14  0.91188000000E+02  0.91188000000E+02 0.  0.
    9900012    2    3    3    0    0  0.88602349637E+01  0.28487248835E+02  0.31521362844E+02  0.47787269299E+02  0.19999992043E+02 0.  0.
        -12    1    3    3    0    0 -0.88602349637E+01 -0.28487248835E+02 -0.31521362844E+02  0.43400730701E+02  0.00000000000E+00 0.  1.
         11    1    4    4    0    0  0.80487390476E+01  0.14660912232E+02  0.13621060975E+02  0.21569836580E+02  0.51100000000E-03 0. -1.
        -11    1    4    4    0    0  0.19568872625E+00  0.15539313459E+02  0.10894224317E+02  0.18978742861E+02  0.51100000000E-03 0.  1.
        -12    1    4    4    0    0  0.61580718987E+00 -0.17129768555E+01  0.70060775523E+01  0.72386898588E+01  0.00000000000E+00 0.  1.
</event>
<event>
 8    1  0.1164123E-009  0.9118800E+02  0.7816164E-02  0.1184000E+00
        -11   -1    0    0    0    0  0.00000000000E+00  0.00000000000E+00  0.45593999997E+02  0.45594000000E+02  0.51100000000E-03 0. -1.
         11   -1    0    0    0    0 -0.00000000000E+00 -0.00000000000E+00 -0.45593999997E+02  0.45594000000E+02  0.51100000000E-03 0.  1.
         23    2    1    2    0    0  0.00000000000E+00 -0.88817841970E-15  0.00000000000E+00  0.91188000000E+02  0.91188000000E+02 0.  0.
    9900012    2    3    3    0    0  0.38682239460E+02 -0.56018344454E+01  0.18866030581E+02  0.47787270644E+02  0.19999998173E+02 0.  0.
        -12    1    3    3    0    0 -0.38682239460E+02  0.56018344454E+01 -0.18866030581E+02  0.43400729356E+02  0.00000000000E+00 0.  1.
         11    1    4    4    0    0  0.91823112155E+01  0.30964169745E+01  0.50290737267E+00  0.97033784541E+01  0.51100000000E-03 0. -1.
        -11    1    4    4    0    0  0.98690849254E+01  0.30982779575E+01  0.72186460327E+01  0.12613762895E+02  0.51100000000E-03 0.  1.
         12    1    4    4    0    0  0.19630843319E+02 -0.11796529377E+02  0.11144477176E+02  0.25470129294E+02  0.00000000000E+00 0. -1.
</event>
<event>
 8    1  0.1164123E-009  0.9118800E+02  0.7816164E-02  0.1184000E+00
        -11   -1    0    0    0    0  0.00000000000E+00  0.00000000000E+00  0.45593999997E+02  0.45594000000E+02  0.51100000000E-03 0.  1.
         11   -1    0    0    0    0 -0.00000000000E+00 -0.00000000000E+00 -0.45593999997E+02  0.45594000000E+02  0.51100000000E-03 0. -1.
         23    2    1    2    0    0 -0.71054273576E-14  0.88817841970E-15  0.00000000000E+00  0.91188000000E+02  0.91188000000E+02 0.  0.
    9900012    2    3    3    0    0 -0.42159431422E+02  0.57839822394E+01  0.85293381381E+01  0.47787288975E+02  0.20000081755E+02 0.  0.
        -12    1    3    3    0    0  0.42159431422E+02 -0.57839822394E+01 -0.85293381381E+01  0.43400711025E+02  0.00000000000E+00 0.  1.
         11    1    4    4    0    0 -0.21332957081E+02  0.45315315539E+01  0.72316874686E+01  0.22976665118E+02  0.51100000000E-03 0. -1.
        -11    1    4    4    0    0 -0.21080701289E+02  0.15331485591E+01  0.44798945787E+01  0.21605924350E+02  0.51100000000E-03 0.  1.
        -12    1    4    4    0    0  0.25422694729E+00 -0.28069787369E+00 -0.31822439092E+01  0.32046995077E+01  0.00000000000E+00 0.  1.
</event>
<event>
 8    1  0.1164123E-009  0.9118800E+02  0.7816164E-02  0.1184000E+00
        -11   -1    0    0    0    0  0.00000000000E+00  0.00000000000E+00  0.45593999997E+02  0.45594000000E+02  0.51100000000E-03 0. -1.
         11   -1    0    0    0    0 -0.00000000000E+00 -0.00000000000E+00 -0.45593999997E+02  0.45594000000E+02  0.51100000000E-03 0.  1.
         23    2    1    2    0    0  0.35527136788E-14  0.00000000000E+00  0.00000000000E+00  0.91188000000E+02  0.91188000000E+02 0.  0.
    9900012    2    3    3    0    0  0.29521810066E+02 -0.20462661537E+02  0.24359094280E+02  0.47787271193E+02  0.20000000679E+02 0.  0.
        -12    1    3    3    0    0 -0.29521810066E+02  0.20462661537E+02 -0.24359094280E+02  0.43400728807E+02  0.00000000000E+00 0.  1.
         11    1    4    4    0    0  0.66121735421E+01 -0.17600145405E+01  0.63058671898E+00  0.68713994212E+01  0.51100000000E-03 0.  1.
        -11    1    4    4    0    0  0.47277647000E+01 -0.93551422275E+01  0.12906456408E+01  0.10561070570E+02  0.51100000000E-03 0. -1.
         12    1    4    4    0    0  0.18181871824E+02 -0.93475047695E+01  0.22437861921E+02  0.30354801202E+02  0.00000000000E+00 0. -1.
</event>
<event>
 8    1  0.1164123E-009  0.9118800E+02  0.7816164E-02  0.1184000E+00
        -11   -1    0    0    0    0  0.00000000000E+00  0.00000000000E+00  0.45593999997E+02  0.45594000000E+02  0.51100000000E-03 0. -1.
         11   -1    0    0    0    0 -0.00000000000E+00 -0.00000000000E+00 -0.45593999997E+02  0.45594000000E+02  0.51100000000E-03 0.  1.
         23    2    1    2    0    0 -0.17763568394E-14  0.44408920985E-15  0.00000000000E+00  0.91188000000E+02  0.91188000000E+02 0.  0.
    9900012    2    3    3    0    0 -0.15442139717E+02 -0.19560626390E+01  0.40513417948E+02  0.47787275422E+02  0.20000019959E+02 0.  0.
        -12    1    3    3    0    0  0.15442139717E+02  0.19560626390E+01 -0.40513417948E+02  0.43400724578E+02  0.00000000000E+00 0.  1.
         11    1    4    4    0    0 -0.27857834776E+01 -0.77091246141E+01  0.13218856477E+02  0.15554078524E+02  0.51100000000E-03 0. -1.
        -11    1    4    4    0    0 -0.91240490085E+01 -0.13141784982E+01  0.15595324573E+02  0.18116000780E+02  0.51100000000E-03 0.  1.
        -12    1    4    4    0    0 -0.35323072309E+01  0.70672404732E+01  0.11699236897E+02  0.14117196119E+02  0.00000000000E+00 0.  1.
</event>
<event>
 8    1  0.1164123E-009  0.9118800E+02  0.7816164E-02  0.1184000E+00
        -11   -1    0    0    0    0  0.00000000000E+00  0.00000000000E+00  0.45593999997E+02  0.45594000000E+02  0.51100000000E-03 0. -1.
         11   -1    0    0    0    0 -0.00000000000E+00 -0.00000000000E+00 -0.45593999997E+02  0.45594000000E+02  0.51100000000E-03 0.  1.
         23    2    1    2    0    0  0.00000000000E+00  0.00000000000E+00  0.00000000000E+00  0.91188000000E+02  0.91188000000E+02 0.  0.
    9900012    2    3    3    0    0  0.13199028235E+02  0.23116455744E+02  0.34278833707E+02  0.47787270596E+02  0.19999997955E+02 0.  0.
        -12    1    3    3    0    0 -0.13199028235E+02 -0.23116455744E+02 -0.34278833707E+02  0.43400729404E+02  0.00000000000E+00 0.  1.
         11    1    4    4    0    0  0.28523895882E+01  0.94402181586E+01  0.80851186171E+01  0.12752371880E+02  0.51100000000E-03 0. -1.
        -11    1    4    4    0    0  0.91072216091E+01  0.12018215486E+02  0.86792324938E+01  0.17398507576E+02  0.51100000000E-03 0.  1.
         12    1    4    4    0    0  0.12394170380E+01  0.16580220989E+01  0.17514482596E+02  0.17636391141E+02  0.00000000000E+00 0. -1.
</event>
<event>
 8    1  0.1164123E-009  0.9118800E+02  0.7816164E-02  0.1184000E+00
        -11   -1    0    0    0    0  0.00000000000E+00  0.00000000000E+00  0.45593999997E+02  0.45594000000E+02  0.51100000000E-03 0. -1.
         11   -1    0    0    0    0 -0.00000000000E+00 -0.00000000000E+00 -0.45593999997E+02  0.45594000000E+02  0.51100000000E-03 0.  1.
         23    2    1    2    0    0 -0.66613381478E-15  0.71054273576E-14  0.00000000000E+00  0.91188000000E+02  0.91188000000E+02 0.  0.
    9900012    2    3    3    0    0  0.12044336410E+01 -0.41307928178E+02 -0.13259988274E+02  0.47787275585E+02  0.20000020703E+02 0.  0.
         12    1    3    3    0    0 -0.12044336410E+01  0.41307928178E+02  0.13259988274E+02  0.43400724415E+02  0.00000000000E+00 0. -1.
         11    1    4    4    0    0 -0.85765519033E+01 -0.20621758877E+02 -0.90707138664E+01  0.24105850577E+02  0.51100000000E-03 0. -1.
        -11    1    4    4    0    0  0.12672542655E+01 -0.70107459948E+01 -0.41665643120E+00  0.71365324647E+01  0.51100000000E-03 0.  1.
         12    1    4    4    0    0  0.85137312788E+01 -0.13675423305E+02 -0.37726179759E+01  0.16544892543E+02  0.00000000000E+00 0. -1.
</event>
<event>
 8    1  0.1164123E-009  0.9118800E+02  0.7816164E-02  0.1184000E+00
        -11   -1    0    0    0    0  0.00000000000E+00  0.00000000000E+00  0.45593999997E+02  0.45594000000E+02  0.51100000000E-03 0. -1.
         11   -1    0    0    0    0 -0.00000000000E+00 -0.00000000000E+00 -0.45593999997E+02  0.45594000000E+02  0.51100000000E-03 0.  1.
         23    2    1    2    0    0  0.00000000000E+00  0.35527136788E-14  0.00000000000E+00  0.91188000000E+02  0.91188000000E+02 0.  0.
    9900012    2    3    3    0    0  0.15800529181E+02  0.25620727710E+02  0.31265743819E+02  0.47787249461E+02  0.19999901594E+02 0.  0.
        -12    1    3    3    0    0 -0.15800529181E+02 -0.25620727710E+02 -0.31265743819E+02  0.43400750539E+02  0.00000000000E+00 0.  1.
         11    1    4    4    0    0  0.74606288994E+01  0.33824621540E+01  0.15476290944E+02  0.17510500148E+02  0.51100000000E-03 0. -1.
        -11    1    4    4    0    0 -0.16166617725E+01  0.64758327717E+00  0.10809127549E-01  0.17415729918E+01  0.51100000000E-03 0.  1.
         12    1    4    4    0    0  0.99565620537E+01  0.21590682278E+02  0.15778643747E+02  0.28535176321E+02  0.00000000000E+00 0. -1.
</event>
<event>
 8    1  0.1164123E-009  0.9118800E+02  0.7816164E-02  0.1184000E+00
        -11   -1    0    0    0    0  0.00000000000E+00  0.00000000000E+00  0.45593999997E+02  0.45594000000E+02  0.51100000000E-03 0. -1.
         11   -1    0    0    0    0 -0.00000000000E+00 -0.00000000000E+00 -0.45593999997E+02  0.45594000000E+02  0.51100000000E-03 0.  1.
         23    2    1    2    0    0  0.00000000000E+00 -0.17763568394E-14 -0.71054273576E-14  0.91188000000E+02  0.91188000000E+02 0.  0.
    9900012    2    3    3    0    0 -0.24290004848E+02 -0.85509712968E+01 -0.34935654810E+02  0.47787269331E+02  0.19999992186E+02 0.  0.
         12    1    3    3    0    0  0.24290004848E+02  0.85509712968E+01  0.34935654810E+02  0.43400730669E+02  0.00000000000E+00 0. -1.
         11    1    4    4    0    0 -0.65856397497E+01 -0.10372618522E+02 -0.13654957238E+02  0.18368988087E+02  0.51100000000E-03 0. -1.
        -11    1    4    4    0    0 -0.12548856014E+02 -0.33226779023E+01 -0.14582067375E+02  0.19523080313E+02  0.51100000000E-03 0.  1.
        -12    1    4    4    0    0 -0.51555090846E+01  0.51443251279E+01 -0.66986301972E+01  0.98952009309E+01  0.00000000000E+00 0.  1.
</event>
<event>
 8    1  0.1164123E-009  0.9118800E+02  0.7816164E-02  0.1184000E+00
        -11   -1    0    0    0    0  0.00000000000E+00  0.00000000000E+00  0.45593999997E+02  0.45594000000E+02  0.51100000000E-03 0. -1.
         11   -1    0    0    0    0 -0.00000000000E+00 -0.00000000000E+00 -0.45593999997E+02  0.45594000000E+02  0.51100000000E-03 0.  1.
         23    2    1    2    0    0  0.35527136788E-14  0.35527136788E-14  0.71054273576E-14  0.91188000000E+02  0.91188000000E+02 0.  0.
    9900012    2    3    3    0    0  0.27239269613E+02  0.17645825163E+02  0.28814410842E+02  0.47787271586E+02  0.20000002469E+02 0.  0.
        -12    1    3    3    0    0 -0.27239269613E+02 -0.17645825163E+02 -0.28814410842E+02  0.43400728414E+02  0.00000000000E+00 0.  1.
         11    1    4    4    0    0  0.19412475098E+02  0.71453768071E+01  0.23703186350E+02  0.31460159607E+02  0.51100000000E-03 0. -1.
        -11    1    4    4    0    0  0.79637122215E+01  0.77918158354E+01  0.68750053382E+01  0.13091936641E+02  0.51100000000E-03 0.  1.
        -12    1    4    4    0    0 -0.13691770688E+00  0.27086325205E+01 -0.17637808459E+01  0.32351753371E+01  0.00000000000E+00 0.  1.
</event>
<event>
 8    1  0.1164123E-009  0.9118800E+02  0.7816164E-02  0.1184000E+00
        -11   -1    0    0    0    0  0.00000000000E+00  0.00000000000E+00  0.45593999997E+02  0.45594000000E+02  0.51100000000E-03 0. -1.
         11   -1    0    0    0    0 -0.00000000000E+00 -0.00000000000E+00 -0.45593999997E+02  0.45594000000E+02  0.51100000000E-03 0.  1.
         23    2    1    2    0    0 -0.17763568394E-14  0.44408920985E-15  0.00000000000E+00  0.91188000000E+02  0.91188000000E+02 0.  0.
    9900012    2    3    3    0    0 -0.10727042973E+02 -0.39407312865E+01 -0.41869137606E+02  0.47787268464E+02  0.19999988235E+02 0.  0.
         12    1    3    3    0    0  0.10727042973E+02  0.39407312865E+01  0.41869137606E+02  0.43400731536E+02  0.00000000000E+00 0. -1.
         11    1    4    4    0    0 -0.79989783141E+01  0.30994528654E+01 -0.20171990489E+02  0.21920297960E+02  0.51100000000E-03 0. -1.
        -11    1    4    4    0    0 -0.34909548601E+01  0.46468773774E+00 -0.16081710874E+02  0.16462810374E+02  0.51100000000E-03 0.  1.
         12    1    4    4    0    0  0.76289020107E+00 -0.75048718896E+01 -0.56154362430E+01  0.94041601293E+01  0.00000000000E+00 0. -1.
</event>
<event>
 8    1  0.1164123E-009  0.9118800E+02  0.7816164E-02  0.1184000E+00
        -11   -1    0    0    0    0  0.00000000000E+00  0.00000000000E+00  0.45593999997E+02  0.45594000000E+02  0.51100000000E-03 0.  1.
         11   -1    0    0    0    0 -0.00000000000E+00 -0.00000000000E+00 -0.45593999997E+02  0.45594000000E+02  0.51100000000E-03 0. -1.
         23    2    1    2    0    0 -0.88817841970E-15  0.71054273576E-14 -0.44408920985E-15  0.91188000000E+02  0.91188000000E+02 0.  0.
    9900012    2    3    3    0    0 -0.53829033157E+01  0.43034961455E+02  0.16252130380E+01  0.47787252622E+02  0.19999916003E+02 0.  0.
         12    1    3    3    0    0  0.53829033157E+01 -0.43034961455E+02 -0.16252130380E+01  0.43400747378E+02  0.00000000000E+00 0. -1.
         11    1    4    4    0    0  0.27552300526E+00  0.20340167618E+02 -0.59905947398E-01  0.20342121832E+02  0.51100000000E-03 0. -1.
        -11    1    4    4    0    0  0.43410222029E+00  0.18785468785E+02  0.50575329990E+01  0.19459211764E+02  0.51100000000E-03 0.  1.
         12    1    4    4    0    0 -0.60925285412E+01  0.39093250529E+01 -0.33724140136E+01  0.79859190250E+01  0.00000000000E+00 0. -1.
</event>
<event>
 8    1  0.1164123E-009  0.9118800E+02  0.7816164E-02  0.1184000E+00
        -11   -1    0    0    0    0  0.00000000000E+00  0.00000000000E+00  0.45593999997E+02  0.45594000000E+02  0.51100000000E-03 0.  1.
         11   -1    0    0    0    0 -0.00000000000E+00 -0.00000000000E+00 -0.45593999997E+02  0.45594000000E+02  0.51100000000E-03 0. -1.
         23    2    1    2    0    0  0.00000000000E+00  0.00000000000E+00  0.00000000000E+00  0.91188000000E+02  0.91188000000E+02 0.  0.
    9900012    2    3    3    0    0  0.23668503764E+02 -0.36334753798E+02  0.17918666697E+01  0.47787272009E+02  0.20000004398E+02 0.  0.
        -12    1    3    3    0    0 -0.23668503764E+02  0.36334753798E+02 -0.17918666697E+01  0.43400727991E+02  0.00000000000E+00 0.  1.
         11    1    4    4    0    0  0.89207953091E+01 -0.12644343948E+02 -0.59457860825E+01  0.16577466490E+02  0.51100000000E-03 0. -1.
        -11    1    4    4    0    0  0.17037892272E+01  0.10339953452E+01 -0.52315377514E+00  0.20605179539E+01  0.51100000000E-03 0.  1.
         12    1    4    4    0    0  0.13043919228E+02 -0.24724405195E+02  0.82608065274E+01  0.29149287565E+02  0.00000000000E+00 0. -1.
</event>
<event>
 8    1  0.1164123E-009  0.9118800E+02  0.7816164E-02  0.1184000E+00
        -11   -1    0    0    0    0  0.00000000000E+00  0.00000000000E+00  0.45593999997E+02  0.45594000000E+02  0.51100000000E-03 0. -1.
         11   -1    0    0    0    0 -0.00000000000E+00 -0.00000000000E+00 -0.45593999997E+02  0.45594000000E+02  0.51100000000E-03 0.  1.
         23    2    1    2    0    0  0.35527136788E-14  0.00000000000E+00  0.00000000000E+00  0.91188000000E+02  0.91188000000E+02 0.  0.
    9900012    2    3    3    0    0 -0.28378731365E+02  0.99207184987E+01  0.31302559884E+02  0.47787270689E+02  0.19999998378E+02 0.  0.
        -12    1    3    3    0    0  0.28378731365E+02 -0.99207184987E+01 -0.31302559884E+02  0.43400729311E+02  0.00000000000E+00 0.  1.
         11    1    4    4    0    0 -0.13304679511E+02  0.10789543266E+02  0.24038340281E+02  0.29517292296E+02  0.51100000000E-03 0. -1.
        -11    1    4    4    0    0 -0.59363702745E+01  0.31357902194E+01  0.20908093385E+01  0.70317249866E+01  0.51100000000E-03 0.  1.
         12    1    4    4    0    0 -0.91376815795E+01 -0.40046149871E+01  0.51734102653E+01  0.11238253406E+02  0.00000000000E+00 0. -1.
</event>
<event>
 8    1  0.1164123E-009  0.9118800E+02  0.7816164E-02  0.1184000E+00
        -11   -1    0    0    0    0  0.00000000000E+00  0.00000000000E+00  0.45593999997E+02  0.45594000000E+02  0.51100000000E-03 0. -1.
         11   -1    0    0    0    0 -0.00000000000E+00 -0.00000000000E+00 -0.45593999997E+02  0.45594000000E+02  0.51100000000E-03 0.  1.
         23    2    1    2    0    0  0.00000000000E+00  0.00000000000E+00 -0.71054273576E-14  0.91188000000E+02  0.91188000000E+02 0.  0.
    9900012    2    3    3    0    0 -0.28604961022E+01 -0.20060761698E+02  0.38379769019E+02  0.47787271114E+02  0.20000000319E+02 0.  0.
        -12    1    3    3    0    0  0.28604961022E+01  0.20060761698E+02 -0.38379769019E+02  0.43400728886E+02  0.00000000000E+00 0.  1.
         11    1    4    4    0    0  0.32996190967E+01  0.22779700324E+01  0.76076180386E+01  0.85995631363E+01  0.51100000000E-03 0. -1.
        -11    1    4    4    0    0  0.12706969975E+01 -0.73421528396E+01  0.80824526741E+01  0.10993085130E+02  0.51100000000E-03 0.  1.
         12    1    4    4    0    0 -0.74308121964E+01 -0.14996578891E+02  0.22689698306E+02  0.28194622848E+02  0.00000000000E+00 0. -1.
</event>
<event>
 8    1  0.1164123E-009  0.9118800E+02  0.7816164E-02  0.1184000E+00
        -11   -1    0    0    0    0  0.00000000000E+00  0.00000000000E+00  0.45593999997E+02  0.45594000000E+02  0.51100000000E-03 0. -1.
         11   -1    0    0    0    0 -0.00000000000E+00 -0.00000000000E+00 -0.45593999997E+02  0.45594000000E+02  0.51100000000E-03 0.  1.
         23    2    1    2    0    0  0.00000000000E+00  0.00000000000E+00  0.00000000000E+00  0.91188000000E+02  0.91188000000E+02 0.  0.
    9900012    2    3    3    0    0  0.33971478319E+02  0.82405746909E+01  0.25722660552E+02  0.47787266408E+02  0.19999978862E+02 0.  0.
        -12    1    3    3    0    0 -0.33971478319E+02 -0.82405746909E+01 -0.25722660552E+02  0.43400733592E+02  0.00000000000E+00 0.  1.
         11    1    4    4    0    0  0.11894214826E+02  0.19251395754E+01  0.16472982350E+01  0.12161089608E+02  0.51100000000E-03 0. -1.
        -11    1    4    4    0    0  0.27063470967E+01 -0.89826562839E-01 -0.13510257409E+01  0.30261616336E+01  0.51100000000E-03 0.  1.
         12    1    4    4    0    0  0.19370916397E+02  0.64052616784E+01  0.25426388058E+02  0.32600015167E+02  0.00000000000E+00 0. -1.
</event>
<event>
 8    1  0.1164123E-009  0.9118800E+02  0.7816164E-02  0.1184000E+00
        -11   -1    0    0    0    0  0.00000000000E+00  0.00000000000E+00  0.45593999997E+02  0.45594000000E+02  0.51100000000E-03 0.  1.
         11   -1    0    0    0    0 -0.00000000000E+00 -0.00000000000E+00 -0.45593999997E+02  0.45594000000E+02  0.51100000000E-03 0. -1.
         23    2    1    2    0    0  0.17763568394E-14  0.71054273576E-14  0.00000000000E+00  0.91188000000E+02  0.91188000000E+02 0.  0.
    9900012    2    3    3    0    0  0.14838139692E+02 -0.37493950253E+02 -0.16051690012E+02  0.47787269046E+02  0.19999990888E+02 0.  0.
         12    1    3    3    0    0 -0.14838139692E+02  0.37493950253E+02  0.16051690012E+02  0.43400730954E+02  0.00000000000E+00 0. -1.
         11    1    4    4    0    0  0.49023363254E+00  0.14573275986E+01 -0.19193376742E+01  0.24592661736E+01  0.51100000000E-03 0. -1.
        -11    1    4    4    0    0  0.55805416197E+00 -0.18479137979E+01  0.18184017235E+01  0.26519417304E+01  0.51100000000E-03 0.  1.
        -12    1    4    4    0    0  0.13789851897E+02 -0.37103364054E+02 -0.15950754061E+02  0.42676061142E+02  0.00000000000E+00 0.  1.
</event>
<event>
 8    1  0.1164123E-009  0.9118800E+02  0.7816164E-02  0.1184000E+00
        -11   -1    0    0    0    0  0.00000000000E+00  0.00000000000E+00  0.45593999997E+02  0.45594000000E+02  0.51100000000E-03 0. -1.
         11   -1    0    0    0    0 -0.00000000000E+00 -0.00000000000E+00 -0.45593999997E+02  0.45594000000E+02  0.51100000000E-03 0.  1.
         23    2    1    2    0    0  0.18873791419E-14  0.00000000000E+00 -0.71054273576E-14  0.91188000000E+02  0.91188000000E+02 0.  0.
    9900012    2    3    3    0    0 -0.75719263799E+00 -0.11851162943E+02  0.41744461944E+02  0.47787268361E+02  0.19999987765E+02 0.  0.
        -12    1    3    3    0    0  0.75719263799E+00  0.11851162943E+02 -0.41744461944E+02  0.43400731639E+02  0.00000000000E+00 0.  1.
         11    1    4    4    0    0  0.40539280606E+01 -0.48121363292E+01  0.15396435260E+02  0.16632534616E+02  0.51100000000E-03 0. -1.
        -11    1    4    4    0    0  0.32658140763E+01 -0.75209713995E+01  0.16367064990E+02  0.18306047335E+02  0.51100000000E-03 0.  1.
        -12    1    4    4    0    0 -0.80769347748E+01  0.48194478560E+00  0.99809616940E+01  0.12848686410E+02  0.00000000000E+00 0.  1.
</event>
<event>
 8    1  0.1164123E-009  0.9118800E+02  0.7816164E-02  0.1184000E+00
        -11   -1    0    0    0    0  0.00000000000E+00  0.00000000000E+00  0.45593999997E+02  0.45594000000E+02  0.51100000000E-03 0. -1.
         11   -1    0    0    0    0 -0.00000000000E+00 -0.00000000000E+00 -0.45593999997E+02  0.45594000000E+02  0.51100000000E-03 0.  1.
         23    2    1    2    0    0  0.66613381478E-15  0.71054273576E-14  0.00000000000E+00  0.91188000000E+02  0.91188000000E+02 0.  0.
    9900012    2    3    3    0    0 -0.11783962572E+01 -0.35046129176E+02 -0.25573491964E+02  0.47787270983E+02  0.19999999720E+02 0.  0.
         12    1    3    3    0    0  0.11783962572E+01  0.35046129176E+02  0.25573491964E+02  0.43400729017E+02  0.00000000000E+00 0. -1.
         11    1    4    4    0    0  0.24086105985E+01 -0.44622078919E+01 -0.76744098983E+01  0.91983298394E+01  0.51100000000E-03 0. -1.
        -11    1    4    4    0    0 -0.64785470709E+01 -0.26261466889E+02 -0.19269826969E+02  0.33210878443E+02  0.51100000000E-03 0.  1.
         12    1    4    4    0    0  0.28915402151E+01 -0.43224543954E+01  0.13707449035E+01  0.53780627001E+01  0.00000000000E+00 0. -1.
</event>
<event>
 8    1  0.1164123E-009  0.9118800E+02  0.7816164E-02  0.1184000E+00
        -11   -1    0    0    0    0  0.00000000000E+00  0.00000000000E+00  0.45593999997E+02  0.45594000000E+02  0.51100000000E-03 0. -1.
         11   -1    0    0    0    0 -0.00000000000E+00 -0.00000000000E+00 -0.45593999997E+02  0.45594000000E+02  0.51100000000E-03 0.  1.
         23    2    1    2    0    0  0.00000000000E+00  0.00000000000E+00  0.00000000000E+00  0.91188000000E+02  0.91188000000E+02 0.  0.
    9900012    2    3    3    0    0  0.10670353243E+02  0.37410202369E+02  0.19241719605E+02  0.47787268981E+02  0.19999990590E+02 0.  0.
        -12    1    3    3    0    0 -0.10670353243E+02 -0.37410202369E+02 -0.19241719605E+02  0.43400731019E+02  0.00000000000E+00 0.  1.
         11    1    4    4    0    0 -0.32261062859E+01  0.37869358563E+01  0.11480795147E+01  0.51055589097E+01  0.51100000000E-03 0.  1.
        -11    1    4    4    0    0  0.29827639344E+00  0.17636051147E+02  0.74246936427E+01  0.19137537585E+02  0.51100000000E-03 0. -1.
        -12    1    4    4    0    0  0.13598183135E+02  0.15987215366E+02  0.10668946448E+02  0.23544172486E+02  0.00000000000E+00 0.  1.
</event>
<event>
 8    1  0.1164123E-009  0.9118800E+02  0.7816164E-02  0.1184000E+00
        -11   -1    0    0    0    0  0.00000000000E+00  0.00000000000E+00  0.45593999997E+02  0.45594000000E+02  0.51100000000E-03 0. -1.
         11   -1    0    0    0    0 -0.00000000000E+00 -0.00000000000E+00 -0.45593999997E+02  0.45594000000E+02  0.51100000000E-03 0.  1.
         23    2    1    2    0    0 -0.71054273576E-14  0.00000000000E+00  0.00000000000E+00  0.91188000000E+02  0.91188000000E+02 0.  0.
    9900012    2    3    3    0    0  0.32247474396E+02  0.22931823772E+02 -0.17828487792E+02  0.47787272778E+02  0.20000007906E+02 0.  0.
         12    1    3    3    0    0 -0.32247474396E+02 -0.22931823772E+02  0.17828487792E+02  0.43400727222E+02  0.00000000000E+00 0. -1.
         11    1    4    4    0    0  0.79342141018E+01  0.93638304909E+01 -0.50757697673E+01  0.13281434933E+02  0.51100000000E-03 0. -1.
        -11    1    4    4    0    0  0.22413048889E+02  0.53219100715E+01 -0.63530759842E+01  0.23896214387E+02  0.51100000000E-03 0.  1.
        -12    1    4    4    0    0  0.19002114046E+01  0.82460832096E+01 -0.63996420406E+01  0.10609623458E+02  0.00000000000E+00 0.  1.
</event>
<event>
 8    1  0.1164123E-009  0.9118800E+02  0.7816164E-02  0.1184000E+00
        -11   -1    0    0    0    0  0.00000000000E+00  0.00000000000E+00  0.45593999997E+02  0.45594000000E+02  0.51100000000E-03 0. -1.
         11   -1    0    0    0    0 -0.00000000000E+00 -0.00000000000E+00 -0.45593999997E+02  0.45594000000E+02  0.51100000000E-03 0.  1.
         23    2    1    2    0    0  0.00000000000E+00 -0.17763568394E-14  0.00000000000E+00  0.91188000000E+02  0.91188000000E+02 0.  0.
    9900012    2    3    3    0    0 -0.18971038001E+02  0.12151981107E+02 -0.37095178227E+02  0.47787272180E+02  0.20000005176E+02 0.  0.
         12    1    3    3    0    0  0.18971038001E+02 -0.12151981107E+02  0.37095178227E+02  0.43400727820E+02  0.00000000000E+00 0. -1.
         11    1    4    4    0    0 -0.14561563543E+02  0.14991364666E+02 -0.22382193927E+02  0.30622585662E+02  0.51100000000E-03 0. -1.
        -11    1    4    4    0    0 -0.59399850402E+01 -0.43206194500E+00 -0.92442686146E+01  0.10996663234E+02  0.51100000000E-03 0.  1.
         12    1    4    4    0    0  0.15305105817E+01 -0.24073216138E+01 -0.54687156845E+01  0.61680232839E+01  0.00000000000E+00 0. -1.
</event>
<event>
 8    1  0.1164123E-009  0.9118800E+02  0.7816164E-02  0.1184000E+00
        -11   -1    0    0    0    0  0.00000000000E+00  0.00000000000E+00  0.45593999997E+02  0.45594000000E+02  0.51100000000E-03 0. -1.
         11   -1    0    0    0    0 -0.00000000000E+00 -0.00000000000E+00 -0.45593999997E+02  0.45594000000E+02  0.51100000000E-03 0.  1.
         23    2    1    2    0    0  0.00000000000E+00  0.00000000000E+00  0.00000000000E+00  0.91188000000E+02  0.91188000000E+02 0.  0.
    9900012    2    3    3    0    0 -0.38057695624E+02  0.24950476009E+01  0.20712475491E+02  0.47787307612E+02  0.20000166726E+02 0.  0.
        -12    1    3    3    0    0  0.38057695624E+02 -0.24950476009E+01 -0.20712475491E+02  0.43400692388E+02  0.00000000000E+00 0.  1.
         11    1    4    4    0    0 -0.20304623871E+02  0.84219784461E+00  0.13443609100E+02  0.24366322530E+02  0.51100000000E-03 0. -1.
        -11    1    4    4    0    0 -0.16761980099E+02 -0.33209156074E+01  0.46298132003E+01  0.17703887365E+02  0.51100000000E-03 0.  1.
        -12    1    4    4    0    0 -0.99109165470E+00  0.49737653637E+01  0.26390531909E+01  0.57170977170E+01  0.00000000000E+00 0.  1.
</event>
<event>
 8    1  0.1164123E-009  0.9118800E+02  0.7816164E-02  0.1184000E+00
        -11   -1    0    0    0    0  0.00000000000E+00  0.00000000000E+00  0.45593999997E+02  0.45594000000E+02  0.51100000000E-03 0. -1.
         11   -1    0    0    0    0 -0.00000000000E+00 -0.00000000000E+00 -0.45593999997E+02  0.45594000000E+02  0.51100000000E-03 0.  1.
         23    2    1    2    0    0  0.00000000000E+00  0.00000000000E+00  0.00000000000E+00  0.91188000000E+02  0.91188000000E+02 0.  0.
    9900012    2    3    3    0    0 -0.11453333750E+02  0.23058095004E+02 -0.34939496131E+02  0.47787274325E+02  0.20000014960E+02 0.  0.
         12    1    3    3    0    0  0.11453333750E+02 -0.23058095004E+02  0.34939496131E+02  0.43400725675E+02  0.00000000000E+00 0. -1.
         11    1    4    4    0    0 -0.97968952426E+01  0.16359798887E+02 -0.11078368792E+02  0.22053399542E+02  0.51100000000E-03 0. -1.
        -11    1    4    4    0    0 -0.33652002529E+01  0.60303530712E+01 -0.13014638927E+02  0.14733314548E+02  0.51100000000E-03 0.  1.
         12    1    4    4    0    0  0.17087617458E+01  0.66794304547E+00 -0.10846488412E+02  0.11000560235E+02  0.00000000000E+00 0. -1.
</event>
<event>
 8    1  0.1164123E-009  0.9118800E+02  0.7816164E-02  0.1184000E+00
        -11   -1    0    0    0    0  0.00000000000E+00  0.00000000000E+00  0.45593999997E+02  0.45594000000E+02  0.51100000000E-03 0. -1.
         11   -1    0    0    0    0 -0.00000000000E+00 -0.00000000000E+00 -0.45593999997E+02  0.45594000000E+02  0.51100000000E-03 0.  1.
         23    2    1    2    0    0  0.88817841970E-15  0.00000000000E+00  0.71054273576E-14  0.91188000000E+02  0.91188000000E+02 0.  0.
    9900012    2    3    3    0    0  0.71922734396E+01  0.19137358179E+02  0.38283887607E+02  0.47787270449E+02  0.19999997283E+02 0.  0.
        -12    1    3    3    0    0 -0.71922734396E+01 -0.19137358179E+02 -0.38283887607E+02  0.43400729551E+02  0.00000000000E+00 0.  1.
         11    1    4    4    0    0  0.61442226272E+01  0.34952833223E+01  0.24390174963E+02  0.25393879424E+02  0.51100000000E-03 0.  1.
        -11    1    4    4    0    0  0.23008202303E+01  0.33422958499E+01  0.73729218645E+01  0.84157407494E+01  0.51100000000E-03 0. -1.
        -12    1    4    4    0    0 -0.12527694179E+01  0.12299779007E+02  0.65207907791E+01  0.13977650275E+02  0.00000000000E+00 0.  1.
</event>
<event>
 8    1  0.1164123E-009  0.9118800E+02  0.7816164E-02  0.1184000E+00
        -11   -1    0    0    0    0  0.00000000000E+00  0.00000000000E+00  0.45593999997E+02  0.45594000000E+02  0.51100000000E-03 0. -1.
         11   -1    0    0    0    0 -0.00000000000E+00 -0.00000000000E+00 -0.45593999997E+02  0.45594000000E+02  0.51100000000E-03 0.  1.
         23    2    1    2    0    0 -0.55511151231E-15  0.00000000000E+00  0.00000000000E+00  0.91188000000E+02  0.91188000000E+02 0.  0.
    9900012    2    3    3    0    0  0.63311667801E+00  0.34301706415E+02  0.26582243430E+02  0.47787267685E+02  0.19999984683E+02 0.  0.
        -12    1    3    3    0    0 -0.63311667801E+00 -0.34301706415E+02 -0.26582243430E+02  0.43400732315E+02  0.00000000000E+00 0.  1.
         11    1    4    4    0    0  0.60618047216E+01  0.41712077650E+01  0.19657493778E+01  0.76163391192E+01  0.51100000000E-03 0. -1.
        -11    1    4    4    0    0 -0.52183128802E+00  0.10049076434E+02  0.35884519097E+01  0.10683315611E+02  0.51100000000E-03 0.  1.
         12    1    4    4    0    0 -0.49068567555E+01  0.20081422216E+02  0.21028042142E+02  0.29487612955E+02  0.00000000000E+00 0. -1.
</event>
<event>
 8    1  0.1164123E-009  0.9118800E+02  0.7816164E-02  0.1184000E+00
        -11   -1    0    0    0    0  0.00000000000E+00  0.00000000000E+00  0.45593999997E+02  0.45594000000E+02  0.51100000000E-03 0. -1.
         11   -1    0    0    0    0 -0.00000000000E+00 -0.00000000000E+00 -0.45593999997E+02  0.45594000000E+02  0.51100000000E-03 0.  1.
         23    2    1    2    0    0  0.00000000000E+00 -0.35527136788E-14  0.71054273576E-14  0.91188000000E+02  0.91188000000E+02 0.  0.
    9900012    2    3    3    0    0  0.14998825163E+02 -0.23582945691E+02  0.33203964478E+02  0.47787270274E+02  0.19999996485E+02 0.  0.
        -12    1    3    3    0    0 -0.14998825163E+02  0.23582945691E+02 -0.33203964478E+02  0.43400729726E+02  0.00000000000E+00 0.  1.
         11    1    4    4    0    0  0.11717826629E+02 -0.12615944257E+02  0.29866731310E+02  0.34474499994E+02  0.51100000000E-03 0. -1.
        -11    1    4    4    0    0  0.18261475529E+01 -0.68578219821E+01  0.49633543079E+01  0.86602207519E+01  0.51100000000E-03 0.  1.
         12    1    4    4    0    0  0.14548509807E+01 -0.41091794520E+01 -0.16261211403E+01  0.46525495277E+01  0.00000000000E+00 0. -1.
</event>
<event>
 8    1  0.1164123E-009  0.9118800E+02  0.7816164E-02  0.1184000E+00
        -11   -1    0    0    0    0  0.00000000000E+00  0.00000000000E+00  0.45593999997E+02  0.45594000000E+02  0.51100000000E-03 0.  1.
         11   -1    0    0    0    0 -0.00000000000E+00 -0.00000000000E+00 -0.45593999997E+02  0.45594000000E+02  0.51100000000E-03 0. -1.
         23    2    1    2    0    0  0.00000000000E+00  0.00000000000E+00  0.44408920985E-15  0.91188000000E+02  0.91188000000E+02 0.  0.
    9900012    2    3    3    0    0  0.39727132316E+02 -0.17440229116E+02 -0.11036979116E+01  0.47787253662E+02  0.19999920744E+02 0.  0.
         12    1    3    3    0    0 -0.39727132316E+02  0.17440229116E+02  0.11036979116E+01  0.43400746338E+02  0.00000000000E+00 0. -1.
         11    1    4    4    0    0  0.11920874564E+02 -0.78409622119E+01 -0.43058668729E+01  0.14903973583E+02  0.51100000000E-03 0. -1.
        -11    1    4    4    0    0  0.17974624698E+02  0.13242673868E+01  0.21078293274E+01  0.18146177611E+02  0.51100000000E-03 0.  1.
         12    1    4    4    0    0  0.98316330534E+01 -0.10923534291E+02  0.10943396338E+01  0.14737102467E+02  0.00000000000E+00 0. -1.
</event>
<event>
 8    1  0.1164123E-009  0.9118800E+02  0.7816164E-02  0.1184000E+00
        -11   -1    0    0    0    0  0.00000000000E+00  0.00000000000E+00  0.45593999997E+02  0.45594000000E+02  0.51100000000E-03 0. -1.
         11   -1    0    0    0    0 -0.00000000000E+00 -0.00000000000E+00 -0.45593999997E+02  0.45594000000E+02  0.51100000000E-03 0.  1.
         23    2    1    2    0    0  0.00000000000E+00  0.00000000000E+00  0.00000000000E+00  0.91188000000E+02  0.91188000000E+02 0.  0.
    9900012    2    3    3    0    0  0.32365889755E+02 -0.18914704684E+02  0.21870216848E+02  0.47787271229E+02  0.20000000840E+02 0.  0.
        -12    1    3    3    0    0 -0.32365889755E+02  0.18914704684E+02 -0.21870216848E+02  0.43400728771E+02  0.00000000000E+00 0.  1.
         11    1    4    4    0    0  0.11527700001E+02 -0.65444833190E+01  0.68203436996E+01  0.14907555724E+02  0.51100000000E-03 0. -1.
        -11    1    4    4    0    0  0.83365001206E+01 -0.76690373507E+01 -0.17024103999E+01  0.11454674573E+02  0.51100000000E-03 0.  1.
        -12    1    4    4    0    0  0.12501689633E+02 -0.47011840145E+01  0.16752283548E+02  0.21425040931E+02  0.00000000000E+00 0.  1.
</event>
<event>
 8    1  0.1164123E-009  0.9118800E+02  0.7816164E-02  0.1184000E+00
        -11   -1    0    0    0    0  0.00000000000E+00  0.00000000000E+00  0.45593999997E+02  0.45594000000E+02  0.51100000000E-03 0.  1.
         11   -1    0    0    0    0 -0.00000000000E+00 -0.00000000000E+00 -0.45593999997E+02  0.45594000000E+02  0.51100000000E-03 0. -1.
         23    2    1    2    0    0  0.00000000000E+00  0.00000000000E+00  0.00000000000E+00  0.91188000000E+02  0.91188000000E+02 0.  0.
    9900012    2    3    3    0    0 -0.39658986843E+02  0.17056240109E+02  0.44580508721E+01  0.47787253674E+02  0.19999920803E+02 0.  0.
        -12    1    3    3    0    0  0.39658986843E+02 -0.17056240109E+02 -0.44580508721E+01  0.43400746326E+02  0.00000000000E+00 0.  1.
         11    1    4    4    0    0 -0.60157376031E+00  0.11455255748E+01  0.23907534056E+01  0.27184226933E+01  0.51100000000E-03 0. -1.
        -11    1    4    4    0    0 -0.28995043870E+01 -0.23802213434E+00 -0.40627555827E+01  0.49969754264E+01  0.51100000000E-03 0.  1.
        -12    1    4    4    0    0 -0.36157908695E+02  0.16148736669E+02  0.61300530492E+01  0.40071855555E+02  0.00000000000E+00 0.  1.
</event>
<event>
 8    1  0.1164123E-009  0.9118800E+02  0.7816164E-02  0.1184000E+00
        -11   -1    0    0    0    0  0.00000000000E+00  0.00000000000E+00  0.45593999997E+02  0.45594000000E+02  0.51100000000E-03 0. -1.
         11   -1    0    0    0    0 -0.00000000000E+00 -0.00000000000E+00 -0.45593999997E+02  0.45594000000E+02  0.51100000000E-03 0.  1.
         23    2    1    2    0    0 -0.35527136788E-14  0.00000000000E+00 -0.35527136788E-14  0.91188000000E+02  0.91188000000E+02 0.  0.
    9900012    2    3    3    0    0 -0.28780904206E+02 -0.22367067990E+02 -0.23558382136E+02  0.47787267906E+02  0.19999985691E+02 0.  0.
         12    1    3    3    0    0  0.28780904206E+02  0.22367067990E+02  0.23558382136E+02  0.43400732094E+02  0.00000000000E+00 0. -1.
         11    1    4    4    0    0 -0.16625520957E+02 -0.12006333319E+02 -0.12794211992E+02  0.24171302150E+02  0.51100000000E-03 0. -1.
        -11    1    4    4    0    0 -0.91987327230E+01 -0.84158237100E+01 -0.19410043309E+00  0.12469179912E+02  0.51100000000E-03 0.  1.
         12    1    4    4    0    0 -0.29566505263E+01 -0.19449109612E+01 -0.10570069710E+02  0.11146785845E+02  0.00000000000E+00 0. -1.
</event>
<event>
 8    1  0.1164123E-009  0.9118800E+02  0.7816164E-02  0.1184000E+00
        -11   -1    0    0    0    0  0.00000000000E+00  0.00000000000E+00  0.45593999997E+02  0.45594000000E+02  0.51100000000E-03 0. -1.
         11   -1    0    0    0    0 -0.00000000000E+00 -0.00000000000E+00 -0.45593999997E+02  0.45594000000E+02  0.51100000000E-03 0.  1.
         23    2    1    2    0    0  0.00000000000E+00  0.00000000000E+00  0.00000000000E+00  0.91188000000E+02  0.91188000000E+02 0.  0.
    9900012    2    3    3    0    0  0.22152900586E+02 -0.36517732643E+02  0.77024478419E+01  0.47787268387E+02  0.19999987885E+02 0.  0.
        -12    1    3    3    0    0 -0.22152900586E+02  0.36517732643E+02 -0.77024478419E+01  0.43400731613E+02  0.00000000000E+00 0.  1.
         11    1    4    4    0    0  0.12533026855E+02 -0.21829088198E+02  0.33783583622E+01  0.25396833645E+02  0.51100000000E-03 0. -1.
        -11    1    4    4    0    0  0.92465799576E+01 -0.13107794056E+02 -0.17190110510E+01  0.16132839341E+02  0.51100000000E-03 0.  1.
        -12    1    4    4    0    0  0.37329377385E+00 -0.15808503889E+01  0.60431005307E+01  0.62575954022E+01  0.00000000000E+00 0.  1.
</event>
<event>
 8    1  0.1164123E-009  0.9118800E+02  0.7816164E-02  0.1184000E+00
        -11   -1    0    0    0    0  0.00000000000E+00  0.00000000000E+00  0.45593999997E+02  0.45594000000E+02  0.51100000000E-03 0. -1.
         11   -1    0    0    0    0 -0.00000000000E+00 -0.00000000000E+00 -0.45593999997E+02  0.45594000000E+02  0.51100000000E-03 0.  1.
         23    2    1    2    0    0 -0.17763568394E-14  0.00000000000E+00  0.35527136788E-14  0.91188000000E+02  0.91188000000E+02 0.  0.
    9900012    2    3    3    0    0  0.10050467310E+02 -0.35630513962E+02 -0.22651221601E+02  0.47787271224E+02  0.20000000817E+02 0.  0.
         12    1    3    3    0    0 -0.10050467310E+02  0.35630513962E+02  0.22651221601E+02  0.43400728776E+02  0.00000000000E+00 0. -1.
         11    1    4    4    0    0  0.54774759636E+01 -0.10132745472E+02 -0.34497745319E+01  0.12023985126E+02  0.51100000000E-03 0.  1.
        -11    1    4    4    0    0 -0.34327747810E+01 -0.16260790057E+02 -0.57455965510E+01  0.17584342921E+02  0.51100000000E-03 0. -1.
         12    1    4    4    0    0  0.80057661278E+01 -0.92369784327E+01 -0.13455850518E+02  0.18178943177E+02  0.00000000000E+00 0. -1.
</event>
<event>
 8    1  0.1164123E-009  0.9118800E+02  0.7816164E-02  0.1184000E+00
        -11   -1    0    0    0    0  0.00000000000E+00  0.00000000000E+00  0.45593999997E+02  0.45594000000E+02  0.51100000000E-03 0. -1.
         11   -1    0    0    0    0 -0.00000000000E+00 -0.00000000000E+00 -0.45593999997E+02  0.45594000000E+02  0.51100000000E-03 0.  1.
         23    2    1    2    0    0  0.00000000000E+00  0.17763568394E-14  0.00000000000E+00  0.91188000000E+02  0.91188000000E+02 0.  0.
    9900012    2    3    3    0    0  0.48710115820E+01  0.12777814941E+02 -0.41190059143E+02  0.47787305527E+02  0.20000157221E+02 0.  0.
         12    1    3    3    0    0 -0.48710115820E+01 -0.12777814941E+02  0.41190059143E+02  0.43400694473E+02  0.00000000000E+00 0. -1.
         11    1    4    4    0    0  0.11010654454E+01  0.18652111392E+01 -0.48688679984E+01  0.53289054744E+01  0.51100000000E-03 0. -1.
        -11    1    4    4    0    0  0.62481090088E+00  0.73487908254E+01 -0.36936438113E+02  0.37665575477E+02  0.51100000000E-03 0.  1.
         12    1    4    4    0    0  0.31451352357E+01  0.35638129769E+01  0.61524696871E+00  0.47928245762E+01  0.00000000000E+00 0. -1.
</event>
<event>
 8    1  0.1164123E-009  0.9118800E+02  0.7816164E-02  0.1184000E+00
        -11   -1    0    0    0    0  0.00000000000E+00  0.00000000000E+00  0.45593999997E+02  0.45594000000E+02  0.51100000000E-03 0. -1.
         11   -1    0    0    0    0 -0.00000000000E+00 -0.00000000000E+00 -0.45593999997E+02  0.45594000000E+02  0.51100000000E-03 0.  1.
         23    2    1    2    0    0  0.00000000000E+00  0.00000000000E+00  0.00000000000E+00  0.91188000000E+02  0.91188000000E+02 0.  0.
    9900012    2    3    3    0    0  0.17022035304E+02  0.33890952881E+02 -0.21101579794E+02  0.47787273705E+02  0.20000012133E+02 0.  0.
         12    1    3    3    0    0 -0.17022035304E+02 -0.33890952881E+02  0.21101579794E+02  0.43400726295E+02  0.00000000000E+00 0. -1.
         11    1    4    4    0    0  0.72492744142E+00  0.59998388219E+01 -0.60972364981E+00  0.60741541694E+01  0.51100000000E-03 0. -1.
        -11    1    4    4    0    0  0.23229781088E+01  0.73181298358E+01 -0.14067832689E+02  0.16026701732E+02  0.51100000000E-03 0.  1.
        -12    1    4    4    0    0  0.13974129754E+02  0.20572984223E+02 -0.64240234554E+01  0.25686417804E+02  0.00000000000E+00 0.  1.
</event>
<event>
 8    1  0.1164123E-009  0.9118800E+02  0.7816164E-02  0.1184000E+00
        -11   -1    0    0    0    0  0.00000000000E+00  0.00000000000E+00  0.45593999997E+02  0.45594000000E+02  0.51100000000E-03 0. -1.
         11   -1    0    0    0    0 -0.00000000000E+00 -0.00000000000E+00 -0.45593999997E+02  0.45594000000E+02  0.51100000000E-03 0.  1.
         23    2    1    2    0    0 -0.88817841970E-15 -0.88817841970E-15  0.00000000000E+00  0.91188000000E+02  0.91188000000E+02 0.  0.
    9900012    2    3    3    0    0  0.56353988811E+01  0.62507732331E+01  0.42576909765E+02  0.47787272683E+02  0.20000007469E+02 0.  0.
        -12    1    3    3    0    0 -0.56353988811E+01 -0.62507732331E+01 -0.42576909765E+02  0.43400727317E+02  0.00000000000E+00 0.  1.
         11    1    4    4    0    0 -0.34979759449E+01  0.13236771826E+01  0.10137716748E+01  0.38750084212E+01  0.51100000000E-03 0.  1.
        -11    1    4    4    0    0 -0.17197535921E+01  0.28098443399E+00  0.21419598283E+01  0.27612491443E+01  0.51100000000E-03 0. -1.
        -12    1    4    4    0    0  0.10853128418E+02  0.46461116165E+01  0.39421178262E+02  0.41151015117E+02  0.00000000000E+00 0.  1.
</event>
<event>
 8    1  0.1164123E-009  0.9118800E+02  0.7816164E-02  0.1184000E+00
        -11   -1    0    0    0    0  0.00000000000E+00  0.00000000000E+00  0.45593999997E+02  0.45594000000E+02  0.51100000000E-03 0. -1.
         11   -1    0    0    0    0 -0.00000000000E+00 -0.00000000000E+00 -0.45593999997E+02  0.45594000000E+02  0.51100000000E-03 0.  1.
         23    2    1    2    0    0  0.00000000000E+00  0.00000000000E+00 -0.44408920985E-15  0.91188000000E+02  0.91188000000E+02 0.  0.
    9900012    2    3    3    0    0  0.54149603593E+01  0.43043532456E+02  0.12473198797E+01  0.47787270872E+02  0.19999999214E+02 0.  0.
        -12    1    3    3    0    0 -0.54149603593E+01 -0.43043532456E+02 -0.12473198797E+01  0.43400729128E+02  0.00000000000E+00 0.  1.
         11    1    4    4    0    0  0.68790034329E+01  0.18414738425E+02 -0.21789104912E+01  0.19778041629E+02  0.51100000000E-03 0. -1.
        -11    1    4    4    0    0  0.43066694741E+01  0.14214932901E+02 -0.18854982293E+01  0.14972201681E+02  0.51100000000E-03 0.  1.
         12    1    4    4    0    0 -0.57707125477E+01  0.10413861130E+02  0.53117286003E+01  0.13037027563E+02  0.00000000000E+00 0. -1.
</event>
<event>
 8    1  0.1164123E-009  0.9118800E+02  0.7816164E-02  0.1184000E+00
        -11   -1    0    0    0    0  0.00000000000E+00  0.00000000000E+00  0.45593999997E+02  0.45594000000E+02  0.51100000000E-03 0. -1.
         11   -1    0    0    0    0 -0.00000000000E+00 -0.00000000000E+00 -0.45593999997E+02  0.45594000000E+02  0.51100000000E-03 0.  1.
         23    2    1    2    0    0  0.00000000000E+00  0.00000000000E+00  0.00000000000E+00  0.91188000000E+02  0.91188000000E+02 0.  0.
    9900012    2    3    3    0    0 -0.34601827921E+01 -0.22076618068E+02  0.37205825366E+02  0.47787269921E+02  0.19999994876E+02 0.  0.
        -12    1    3    3    0    0  0.34601827921E+01  0.22076618068E+02 -0.37205825366E+02  0.43400730079E+02  0.00000000000E+00 0.  1.
         11    1    4    4    0    0  0.30024155622E+00 -0.59198273724E+01  0.15129936940E+02  0.16249599785E+02  0.51100000000E-03 0. -1.
        -11    1    4    4    0    0 -0.44104930536E+01 -0.74798864242E+01  0.21056815328E+02  0.22776975697E+02  0.51100000000E-03 0.  1.
        -12    1    4    4    0    0  0.65006870522E+00 -0.86769042715E+01  0.10190730975E+01  0.87606944381E+01  0.00000000000E+00 0.  1.
</event>
<event>
 8    1  0.1164123E-009  0.9118800E+02  0.7816164E-02  0.1184000E+00
        -11   -1    0    0    0    0  0.00000000000E+00  0.00000000000E+00  0.45593999997E+02  0.45594000000E+02  0.51100000000E-03 0. -1.
         11   -1    0    0    0    0 -0.00000000000E+00 -0.00000000000E+00 -0.45593999997E+02  0.45594000000E+02  0.51100000000E-03 0.  1.
         23    2    1    2    0    0  0.00000000000E+00  0.17763568394E-14  0.00000000000E+00  0.91188000000E+02  0.91188000000E+02 0.  0.
    9900012    2    3    3    0    0  0.20642453058E+02  0.56632452154E+01  0.37755005862E+02  0.47787266340E+02  0.19999978548E+02 0.  0.
        -12    1    3    3    0    0 -0.20642453058E+02 -0.56632452154E+01 -0.37755005862E+02  0.43400733660E+02  0.00000000000E+00 0.  1.
         11    1    4    4    0    0  0.12297577653E+01  0.45086669564E+00  0.17895194544E+01  0.22176485469E+01  0.51100000000E-03 0. -1.
        -11    1    4    4    0    0  0.69672844366E+01  0.11507439266E+02  0.22302451000E+02  0.26045412873E+02  0.51100000000E-03 0.  1.
         12    1    4    4    0    0  0.12445410856E+02 -0.62950607462E+01  0.13663035408E+02  0.19524204920E+02  0.00000000000E+00 0. -1.
</event>
<event>
 8    1  0.1164123E-009  0.9118800E+02  0.7816164E-02  0.1184000E+00
        -11   -1    0    0    0    0  0.00000000000E+00  0.00000000000E+00  0.45593999997E+02  0.45594000000E+02  0.51100000000E-03 0. -1.
         11   -1    0    0    0    0 -0.00000000000E+00 -0.00000000000E+00 -0.45593999997E+02  0.45594000000E+02  0.51100000000E-03 0.  1.
         23    2    1    2    0    0  0.00000000000E+00 -0.71054273576E-14  0.00000000000E+00  0.91188000000E+02  0.91188000000E+02 0.  0.
    9900012    2    3    3    0    0 -0.18733195180E+02 -0.36768552634E+02 -0.13444858408E+02  0.47787270950E+02  0.19999999570E+02 0.  0.
         12    1    3    3    0    0  0.18733195180E+02  0.36768552634E+02  0.13444858408E+02  0.43400729050E+02  0.00000000000E+00 0. -1.
         11    1    4    4    0    0 -0.11758142495E+01 -0.14158131789E+00  0.17843792297E+01  0.21416334690E+01  0.51100000000E-03 0. -1.
        -11    1    4    4    0    0  0.39376228095E-01  0.11341148777E+01  0.31914502136E+00  0.11788218055E+01  0.51100000000E-03 0.  1.
        -12    1    4    4    0    0 -0.17596757159E+02 -0.37761086194E+02 -0.15548382659E+02  0.44466815676E+02  0.00000000000E+00 0.  1.
</event>
<event>
 8    1  0.1164123E-009  0.9118800E+02  0.7816164E-02  0.1184000E+00
        -11   -1    0    0    0    0  0.00000000000E+00  0.00000000000E+00  0.45593999997E+02  0.45594000000E+02  0.51100000000E-03 0. -1.
         11   -1    0    0    0    0 -0.00000000000E+00 -0.00000000000E+00 -0.45593999997E+02  0.45594000000E+02  0.51100000000E-03 0.  1.
         23    2    1    2    0    0 -0.22204460493E-14  0.35527136788E-14  0.00000000000E+00  0.91188000000E+02  0.91188000000E+02 0.  0.
    9900012    2    3    3    0    0  0.21974492370E+01 -0.31830531693E+02 -0.29421271099E+02  0.47787277378E+02  0.20000028879E+02 0.  0.
         12    1    3    3    0    0 -0.21974492370E+01  0.31830531693E+02  0.29421271099E+02  0.43400722622E+02  0.00000000000E+00 0. -1.
         11    1    4    4    0    0  0.10289776243E+02 -0.18613635777E+02 -0.21778657107E+02  0.30441038708E+02  0.51100000000E-03 0.  1.
        -11    1    4    4    0    0 -0.37475254620E+01 -0.75645003419E+01 -0.42226452540E+01  0.94390860634E+01  0.51100000000E-03 0. -1.
        -12    1    4    4    0    0 -0.43448015443E+01 -0.56523955741E+01 -0.34199687377E+01  0.79071526071E+01  0.00000000000E+00 0.  1.
</event>
<event>
 8    1  0.1164123E-009  0.9118800E+02  0.7816164E-02  0.1184000E+00
        -11   -1    0    0    0    0  0.00000000000E+00  0.00000000000E+00  0.45593999997E+02  0.45594000000E+02  0.51100000000E-03 0. -1.
         11   -1    0    0    0    0 -0.00000000000E+00 -0.00000000000E+00 -0.45593999997E+02  0.45594000000E+02  0.51100000000E-03 0.  1.
         23    2    1    2    0    0  0.00000000000E+00  0.00000000000E+00  0.00000000000E+00  0.91188000000E+02  0.91188000000E+02 0.  0.
    9900012    2    3    3    0    0 -0.77454228704E+00  0.10212437129E+02  0.42174986414E+02  0.47787271125E+02  0.20000000366E+02 0.  0.
        -12    1    3    3    0    0  0.77454228704E+00 -0.10212437129E+02 -0.42174986414E+02  0.43400728875E+02  0.00000000000E+00 0.  1.
         11    1    4    4    0    0 -0.92074232386E+01  0.34999256240E+01  0.14365253078E+02  0.17417996966E+02  0.51100000000E-03 0. -1.
        -11    1    4    4    0    0 -0.59540056420E+00  0.18029019060E+01  0.51188102483E+01  0.54595948324E+01  0.51100000000E-03 0.  1.
        -12    1    4    4    0    0  0.90282815158E+01  0.49096095992E+01  0.22690923088E+02  0.24909679326E+02  0.00000000000E+00 0.  1.
</event>
<event>
 8    1  0.1164123E-009  0.9118800E+02  0.7816164E-02  0.1184000E+00
        -11   -1    0    0    0    0  0.00000000000E+00  0.00000000000E+00  0.45593999997E+02  0.45594000000E+02  0.51100000000E-03 0. -1.
         11   -1    0    0    0    0 -0.00000000000E+00 -0.00000000000E+00 -0.45593999997E+02  0.45594000000E+02  0.51100000000E-03 0.  1.
         23    2    1    2    0    0  0.71054273576E-14  0.00000000000E+00  0.00000000000E+00  0.91188000000E+02  0.91188000000E+02 0.  0.
    9900012    2    3    3    0    0 -0.35365966066E+02 -0.17254989136E+02 -0.18306747508E+02  0.47787271778E+02  0.20000003346E+02 0.  0.
         12    1    3    3    0    0  0.35365966066E+02  0.17254989136E+02  0.18306747508E+02  0.43400728222E+02  0.00000000000E+00 0. -1.
         11    1    4    4    0    0 -0.30038417581E+01  0.13213469382E+01  0.82503233484E-02  0.32816293770E+01  0.51100000000E-03 0. -1.
        -11    1    4    4    0    0  0.14064850869E+00  0.20308194895E+01 -0.13808495124E+01  0.24598283353E+01  0.51100000000E-03 0.  1.
        -12    1    4    4    0    0 -0.32502772816E+02 -0.20607155564E+02 -0.16934148319E+02  0.42045814066E+02  0.00000000000E+00 0.  1.
</event>
<event>
 8    1  0.1164123E-009  0.9118800E+02  0.7816164E-02  0.1184000E+00
        -11   -1    0    0    0    0  0.00000000000E+00  0.00000000000E+00  0.45593999997E+02  0.45594000000E+02  0.51100000000E-03 0. -1.
         11   -1    0    0    0    0 -0.00000000000E+00 -0.00000000000E+00 -0.45593999997E+02  0.45594000000E+02  0.51100000000E-03 0.  1.
         23    2    1    2    0    0  0.00000000000E+00  0.00000000000E+00  0.00000000000E+00  0.91188000000E+02  0.91188000000E+02 0.  0.
    9900012    2    3    3    0    0 -0.19233478477E+02  0.35582252660E+02  0.15735448140E+02  0.47787219744E+02  0.19999766098E+02 0.  0.
        -12    1    3    3    0    0  0.19233478477E+02 -0.35582252660E+02 -0.15735448140E+02  0.43400780256E+02  0.00000000000E+00 0.  1.
         11    1    4    4    0    0 -0.11240314569E+02  0.17485361179E+02  0.11718196065E+01  0.20819598666E+02  0.51100000000E-03 0. -1.
        -11    1    4    4    0    0 -0.66324532307E+01  0.34256438914E+01  0.23399566307E+01  0.78230345278E+01  0.51100000000E-03 0.  1.
         12    1    4    4    0    0 -0.13607106777E+01  0.14671247590E+02  0.12223671902E+02  0.19144586550E+02  0.00000000000E+00 0. -1.
</event>
<event>
 8    1  0.1164123E-009  0.9118800E+02  0.7816164E-02  0.1184000E+00
        -11   -1    0    0    0    0  0.00000000000E+00  0.00000000000E+00  0.45593999997E+02  0.45594000000E+02  0.51100000000E-03 0. -1.
         11   -1    0    0    0    0 -0.00000000000E+00 -0.00000000000E+00 -0.45593999997E+02  0.45594000000E+02  0.51100000000E-03 0.  1.
         23    2    1    2    0    0  0.00000000000E+00  0.00000000000E+00  0.00000000000E+00  0.91188000000E+02  0.91188000000E+02 0.  0.
    9900012    2    3    3    0    0  0.15696905013E+02 -0.35369443825E+02 -0.19652844693E+02  0.47787254753E+02  0.19999925722E+02 0.  0.
         12    1    3    3    0    0 -0.15696905013E+02  0.35369443825E+02  0.19652844693E+02  0.43400745247E+02  0.00000000000E+00 0. -1.
         11    1    4    4    0    0 -0.11706252218E+01 -0.44333636031E+00  0.16828295577E+00  0.12630241299E+01  0.51100000000E-03 0. -1.
        -11    1    4    4    0    0 -0.29473135907E+01 -0.72328519101E+01 -0.56570560445E+01  0.96438108395E+01  0.51100000000E-03 0.  1.
        -12    1    4    4    0    0  0.19814843826E+02 -0.27693255554E+02 -0.14164071604E+02  0.36880419784E+02  0.00000000000E+00 0.  1.
</event>
<event>
 8    1  0.1164123E-009  0.9118800E+02  0.7816164E-02  0.1184000E+00
        -11   -1    0    0    0    0  0.00000000000E+00  0.00000000000E+00  0.45593999997E+02  0.45594000000E+02  0.51100000000E-03 0. -1.
         11   -1    0    0    0    0 -0.00000000000E+00 -0.00000000000E+00 -0.45593999997E+02  0.45594000000E+02  0.51100000000E-03 0.  1.
         23    2    1    2    0    0  0.00000000000E+00  0.17763568394E-14  0.00000000000E+00  0.91188000000E+02  0.91188000000E+02 0.  0.
    9900012    2    3    3    0    0  0.30677205738E+01 -0.12954872275E+02  0.41308394053E+02  0.47787273688E+02  0.20000012053E+02 0.  0.
        -12    1    3    3    0    0 -0.30677205738E+01  0.12954872275E+02 -0.41308394053E+02  0.43400726312E+02  0.00000000000E+00 0.  1.
         11    1    4    4    0    0  0.33964403264E+01 -0.15647039228E+02  0.34183506550E+02  0.37747553084E+02  0.51100000000E-03 0. -1.
        -11    1    4    4    0    0 -0.18599419741E+01  0.11082088540E+00  0.67649871192E+01  0.70168879426E+01  0.51100000000E-03 0.  1.
        -12    1    4    4    0    0  0.15312222216E+01  0.25813460680E+01  0.35990038379E+00  0.30228326617E+01  0.00000000000E+00 0.  1.
</event>
<event>
 8    1  0.1164123E-009  0.9118800E+02  0.7816164E-02  0.1184000E+00
        -11   -1    0    0    0    0  0.00000000000E+00  0.00000000000E+00  0.45593999997E+02  0.45594000000E+02  0.51100000000E-03 0. -1.
         11   -1    0    0    0    0 -0.00000000000E+00 -0.00000000000E+00 -0.45593999997E+02  0.45594000000E+02  0.51100000000E-03 0.  1.
         23    2    1    2    0    0  0.00000000000E+00  0.00000000000E+00  0.00000000000E+00  0.91188000000E+02  0.91188000000E+02 0.  0.
    9900012    2    3    3    0    0  0.26005154208E+02  0.30010560940E+02 -0.17513478700E+02  0.47787265566E+02  0.19999975020E+02 0.  0.
         12    1    3    3    0    0 -0.26005154208E+02 -0.30010560940E+02  0.17513478700E+02  0.43400734434E+02  0.00000000000E+00 0. -1.
         11    1    4    4    0    0  0.42529382020E+01  0.64297940733E+01 -0.29513570410E+01  0.82547104019E+01  0.51100000000E-03 0. -1.
        -11    1    4    4    0    0  0.24366625679E+02  0.22572052518E+02 -0.10976103891E+02  0.34981493089E+02  0.51100000000E-03 0.  1.
         12    1    4    4    0    0 -0.26144096735E+01  0.10087143484E+01 -0.35860177675E+01  0.45510620746E+01  0.00000000000E+00 0. -1.
</event>
<event>
 8    1  0.1164123E-009  0.9118800E+02  0.7816164E-02  0.1184000E+00
        -11   -1    0    0    0    0  0.00000000000E+00  0.00000000000E+00  0.45593999997E+02  0.45594000000E+02  0.51100000000E-03 0.  1.
         11   -1    0    0    0    0 -0.00000000000E+00 -0.00000000000E+00 -0.45593999997E+02  0.45594000000E+02  0.51100000000E-03 0. -1.
         23    2    1    2    0    0  0.00000000000E+00  0.71054273576E-14  0.00000000000E+00  0.91188000000E+02  0.91188000000E+02 0.  0.
    9900012    2    3    3    0    0 -0.12030582149E+02  0.41685457692E+02 -0.11004172721E+01  0.47787271804E+02  0.20000003461E+02 0.  0.
        -12    1    3    3    0    0  0.12030582149E+02 -0.41685457692E+02  0.11004172721E+01  0.43400728196E+02  0.00000000000E+00 0.  1.
         11    1    4    4    0    0  0.61168860935E+00  0.56581557670E+01 -0.47238877929E+00  0.57106953218E+01  0.51100000000E-03 0. -1.
        -11    1    4    4    0    0 -0.12452774846E+02  0.18140424501E+02  0.63101348599E+01  0.22890268776E+02  0.51100000000E-03 0.  1.
        -12    1    4    4    0    0 -0.18949591292E+00  0.17886877424E+02 -0.69381633527E+01  0.19186307706E+02  0.00000000000E+00 0.  1.
</event>
<event>
 8    1  0.1164123E-009  0.9118800E+02  0.7816164E-02  0.1184000E+00
        -11   -1    0    0    0    0  0.00000000000E+00  0.00000000000E+00  0.45593999997E+02  0.45594000000E+02  0.51100000000E-03 0. -1.
         11   -1    0    0    0    0 -0.00000000000E+00 -0.00000000000E+00 -0.45593999997E+02  0.45594000000E+02  0.51100000000E-03 0.  1.
         23    2    1    2    0    0  0.00000000000E+00  0.00000000000E+00  0.00000000000E+00  0.91188000000E+02  0.91188000000E+02 0.  0.
    9900012    2    3    3    0    0 -0.20316020256E+02 -0.24494826628E+02  0.29510769654E+02  0.47787277239E+02  0.20000028244E+02 0.  0.
        -12    1    3    3    0    0  0.20316020256E+02  0.24494826628E+02 -0.29510769654E+02  0.43400722761E+02  0.00000000000E+00 0.  1.
         11    1    4    4    0    0 -0.47460883828E+01 -0.49711072596E+01  0.10247931592E+02  0.12339261100E+02  0.51100000000E-03 0. -1.
        -11    1    4    4    0    0 -0.17206145057E+02 -0.10235514204E+02  0.10655040386E+02  0.22679220988E+02  0.51100000000E-03 0.  1.
        -12    1    4    4    0    0  0.16362131837E+01 -0.92882051643E+01  0.86077976768E+01  0.12768795151E+02  0.00000000000E+00 0.  1.
</event>
<event>
 8    1  0.1164123E-009  0.9118800E+02  0.7816164E-02  0.1184000E+00
        -11   -1    0    0    0    0  0.00000000000E+00  0.00000000000E+00  0.45593999997E+02  0.45594000000E+02  0.51100000000E-03 0. -1.
         11   -1    0    0    0    0 -0.00000000000E+00 -0.00000000000E+00 -0.45593999997E+02  0.45594000000E+02  0.51100000000E-03 0.  1.
         23    2    1    2    0    0  0.00000000000E+00 -0.88817841970E-15  0.00000000000E+00  0.91188000000E+02  0.91188000000E+02 0.  0.
    9900012    2    3    3    0    0 -0.13951871154E+02  0.16169137803E+01 -0.41065239910E+02  0.47787273650E+02  0.20000011878E+02 0.  0.
         12    1    3    3    0    0  0.13951871154E+02 -0.16169137803E+01  0.41065239910E+02  0.43400726350E+02  0.00000000000E+00 0. -1.
         11    1    4    4    0    0 -0.70243294966E+00  0.44654767518E+01 -0.15361755892E+02  0.16013039656E+02  0.51100000000E-03 0.  1.
        -11    1    4    4    0    0 -0.96624931353E+00  0.43308998563E+01 -0.55815651658E+01  0.71305119916E+01  0.51100000000E-03 0. -1.
        -12    1    4    4    0    0 -0.12283188891E+02 -0.71794628278E+01 -0.20121918852E+02  0.24643722002E+02  0.00000000000E+00 0.  1.
</event>
<event>
 8    1  0.1164123E-009  0.9118800E+02  0.7816164E-02  0.1184000E+00
        -11   -1    0    0    0    0  0.00000000000E+00  0.00000000000E+00  0.45593999997E+02  0.45594000000E+02  0.51100000000E-03 0. -1.
         11   -1    0    0    0    0 -0.00000000000E+00 -0.00000000000E+00 -0.45593999997E+02  0.45594000000E+02  0.51100000000E-03 0.  1.
         23    2    1    2    0    0  0.00000000000E+00 -0.88817841970E-15  0.00000000000E+00  0.91188000000E+02  0.91188000000E+02 0.  0.
    9900012    2    3    3    0    0  0.11534476741E+02  0.48970376856E+01  0.41552356897E+02  0.47787268492E+02  0.19999988361E+02 0.  0.
        -12    1    3    3    0    0 -0.11534476741E+02 -0.48970376856E+01 -0.41552356897E+02  0.43400731508E+02  0.00000000000E+00 0.  1.
         11    1    4    4    0    0  0.22057596239E+01 -0.27414992100E+01  0.51033103636E+01  0.61987878142E+01  0.51100000000E-03 0.  1.
        -11    1    4    4    0    0 -0.10008020559E+01  0.82533891664E+01  0.89930996219E+01  0.12247280456E+02  0.51100000000E-03 0. -1.
         12    1    4    4    0    0  0.10329519173E+02 -0.61485227090E+00  0.27455946911E+02  0.29341200222E+02  0.00000000000E+00 0. -1.
</event>
<event>
 8    1  0.1164123E-009  0.9118800E+02  0.7816164E-02  0.1184000E+00
        -11   -1    0    0    0    0  0.00000000000E+00  0.00000000000E+00  0.45593999997E+02  0.45594000000E+02  0.51100000000E-03 0.  1.
         11   -1    0    0    0    0 -0.00000000000E+00 -0.00000000000E+00 -0.45593999997E+02  0.45594000000E+02  0.51100000000E-03 0. -1.
         23    2    1    2    0    0 -0.71054273576E-14  0.00000000000E+00  0.00000000000E+00  0.91188000000E+02  0.91188000000E+02 0.  0.
    9900012    2    3    3    0    0 -0.37815938585E+02 -0.49227149088E+01  0.20720631154E+02  0.47787275483E+02  0.20000020238E+02 0.  0.
        -12    1    3    3    0    0  0.37815938585E+02  0.49227149088E+01 -0.20720631154E+02  0.43400724517E+02  0.00000000000E+00 0.  1.
         11    1    4    4    0    0 -0.19910219061E+02 -0.60532386755E+01  0.63560975143E+01  0.21759101484E+02  0.51100000000E-03 0. -1.
        -11    1    4    4    0    0 -0.78445842231E+01  0.23095054873E+01 -0.32557462874E+00  0.81839670289E+01  0.51100000000E-03 0.  1.
         12    1    4    4    0    0 -0.10061135301E+02 -0.11789817206E+01  0.14690108269E+02  0.17844206970E+02  0.00000000000E+00 0. -1.
</event>
<event>
 8    1  0.1164123E-009  0.9118800E+02  0.7816164E-02  0.1184000E+00
        -11   -1    0    0    0    0  0.00000000000E+00  0.00000000000E+00  0.45593999997E+02  0.45594000000E+02  0.51100000000E-03 0. -1.
         11   -1    0    0    0    0 -0.00000000000E+00 -0.00000000000E+00 -0.45593999997E+02  0.45594000000E+02  0.51100000000E-03 0.  1.
         23    2    1    2    0    0 -0.35527136788E-14  0.00000000000E+00  0.00000000000E+00  0.91188000000E+02  0.91188000000E+02 0.  0.
    9900012    2    3    3    0    0  0.21799019319E+02  0.35854164472E+02 -0.11086253909E+02  0.47787269833E+02  0.19999994476E+02 0.  0.
         12    1    3    3    0    0 -0.21799019319E+02 -0.35854164472E+02  0.11086253909E+02  0.43400730167E+02  0.00000000000E+00 0. -1.
         11    1    4    4    0    0  0.91051684919E+01  0.15911516273E+02 -0.38383251710E+01  0.18730007575E+02  0.51100000000E-03 0.  1.
        -11    1    4    4    0    0  0.14553858924E+02  0.21075450556E+02 -0.53425006747E+01  0.26163557469E+02  0.51100000000E-03 0. -1.
         12    1    4    4    0    0 -0.18600080964E+01 -0.11328023571E+01 -0.19054280637E+01  0.28937047888E+01  0.00000000000E+00 0. -1.
</event>
<event>
 8    1  0.1164123E-009  0.9118800E+02  0.7816164E-02  0.1184000E+00
        -11   -1    0    0    0    0  0.00000000000E+00  0.00000000000E+00  0.45593999997E+02  0.45594000000E+02  0.51100000000E-03 0. -1.
         11   -1    0    0    0    0 -0.00000000000E+00 -0.00000000000E+00 -0.45593999997E+02  0.45594000000E+02  0.51100000000E-03 0.  1.
         23    2    1    2    0    0  0.00000000000E+00  0.00000000000E+00  0.35527136788E-14  0.91188000000E+02  0.91188000000E+02 0.  0.
    9900012    2    3    3    0    0  0.23379242498E+02  0.22857968916E+02 -0.28540285414E+02  0.47787267123E+02  0.19999982119E+02 0.  0.
         12    1    3    3    0    0 -0.23379242498E+02 -0.22857968916E+02  0.28540285414E+02  0.43400732877E+02  0.00000000000E+00 0. -1.
         11    1    4    4    0    0 -0.85417834550E-01 -0.13137212930E+00  0.20289420815E+01  0.20349842933E+01  0.51100000000E-03 0. -1.
        -11    1    4    4    0    0  0.15109087806E+02  0.86819744965E+01 -0.16865839625E+02  0.24251139395E+02  0.51100000000E-03 0.  1.
        -12    1    4    4    0    0  0.83555725272E+01  0.14307366549E+02 -0.13703387871E+02  0.21501143434E+02  0.00000000000E+00 0.  1.
</event>
<event>
 8    1  0.1164123E-009  0.9118800E+02  0.7816164E-02  0.1184000E+00
        -11   -1    0    0    0    0  0.00000000000E+00  0.00000000000E+00  0.45593999997E+02  0.45594000000E+02  0.51100000000E-03 0.  1.
         11   -1    0    0    0    0 -0.00000000000E+00 -0.00000000000E+00 -0.45593999997E+02  0.45594000000E+02  0.51100000000E-03 0. -1.
         23    2    1    2    0    0  0.00000000000E+00  0.00000000000E+00 -0.44408920985E-15  0.91188000000E+02  0.91188000000E+02 0.  0.
    9900012    2    3    3    0    0  0.18606714569E+02  0.39015065180E+02  0.39036203680E+01  0.47787269706E+02  0.19999993898E+02 0.  0.
        -12    1    3    3    0    0 -0.18606714569E+02 -0.39015065180E+02 -0.39036203680E+01  0.43400730294E+02  0.00000000000E+00 0.  1.
         11    1    4    4    0    0  0.41744432850E+00  0.15966826416E+02 -0.40747315264E+00  0.15977479157E+02  0.51100000000E-03 0. -1.
        -11    1    4    4    0    0 -0.87543892839E-01 -0.10661787962E+01 -0.48404933082E+00  0.11741827687E+01  0.51100000000E-03 0.  1.
         12    1    4    4    0    0  0.18276814134E+02  0.24114417560E+02  0.47951428514E+01  0.30635607781E+02  0.00000000000E+00 0. -1.
</event>
<event>
 8    1  0.1164123E-009  0.9118800E+02  0.7816164E-02  0.1184000E+00
        -11   -1    0    0    0    0  0.00000000000E+00  0.00000000000E+00  0.45593999997E+02  0.45594000000E+02  0.51100000000E-03 0. -1.
         11   -1    0    0    0    0 -0.00000000000E+00 -0.00000000000E+00 -0.45593999997E+02  0.45594000000E+02  0.51100000000E-03 0.  1.
         23    2    1    2    0    0  0.00000000000E+00  0.88817841970E-15  0.71054273576E-14  0.91188000000E+02  0.91188000000E+02 0.  0.
    9900012    2    3    3    0    0  0.71223380047E+01 -0.64745893449E+01 -0.42319931303E+02  0.47787255867E+02  0.19999930800E+02 0.  0.
         12    1    3    3    0    0 -0.71223380047E+01  0.64745893449E+01  0.42319931303E+02  0.43400744133E+02  0.00000000000E+00 0. -1.
         11    1    4    4    0    0  0.29231833470E+01  0.73524671780E+00  0.21662812066E+00  0.30220053970E+01  0.51100000000E-03 0. -1.
        -11    1    4    4    0    0 -0.14205031007E+01  0.11460428108E+01 -0.11184587445E+01  0.21406058506E+01  0.51100000000E-03 0.  1.
        -12    1    4    4    0    0  0.56196577585E+01 -0.83558788735E+01 -0.41418100679E+02  0.42624644619E+02  0.00000000000E+00 0.  1.
</event>
<event>
 8    1  0.1164123E-009  0.9118800E+02  0.7816164E-02  0.1184000E+00
        -11   -1    0    0    0    0  0.00000000000E+00  0.00000000000E+00  0.45593999997E+02  0.45594000000E+02  0.51100000000E-03 0. -1.
         11   -1    0    0    0    0 -0.00000000000E+00 -0.00000000000E+00 -0.45593999997E+02  0.45594000000E+02  0.51100000000E-03 0.  1.
         23    2    1    2    0    0  0.00000000000E+00  0.00000000000E+00  0.00000000000E+00  0.91188000000E+02  0.91188000000E+02 0.  0.
    9900012    2    3    3    0    0  0.91937219777E+01  0.36277106829E+02 -0.21978861366E+02  0.47787270160E+02  0.19999995967E+02 0.  0.
         12    1    3    3    0    0 -0.91937219777E+01 -0.36277106829E+02  0.21978861366E+02  0.43400729840E+02  0.00000000000E+00 0. -1.
         11    1    4    4    0    0 -0.21954600660E+01  0.11167368043E+02 -0.10628899267E+02  0.15572528818E+02  0.51100000000E-03 0. -1.
        -11    1    4    4    0    0  0.36809082007E+01  0.10156657542E+02 -0.10957138468E+02  0.15387191468E+02  0.51100000000E-03 0.  1.
         12    1    4    4    0    0  0.77082738430E+01  0.14953081244E+02 -0.39282363128E+00  0.16827549874E+02  0.00000000000E+00 0. -1.
</event>
<event>
 8    1  0.1164123E-009  0.9118800E+02  0.7816164E-02  0.1184000E+00
        -11   -1    0    0    0    0  0.00000000000E+00  0.00000000000E+00  0.45593999997E+02  0.45594000000E+02  0.51100000000E-03 0.  1.
         11   -1    0    0    0    0 -0.00000000000E+00 -0.00000000000E+00 -0.45593999997E+02  0.45594000000E+02  0.51100000000E-03 0. -1.
         23    2    1    2    0    0  0.35527136788E-14  0.00000000000E+00  0.17763568394E-14  0.91188000000E+02  0.91188000000E+02 0.  0.
    9900012    2    3    3    0    0  0.31835731047E+02 -0.27589114837E+02  0.10437916377E+02  0.47787272736E+02  0.20000007710E+02 0.  0.
         12    1    3    3    0    0 -0.31835731047E+02  0.27589114837E+02 -0.10437916377E+02  0.43400727264E+02  0.00000000000E+00 0. -1.
         11    1    4    4    0    0  0.62162611089E+01 -0.55793842855E+01  0.71116958027E+01  0.10970307590E+02  0.51100000000E-03 0. -1.
        -11    1    4    4    0    0  0.16576863593E+02 -0.92261234293E+01  0.78298508774E+01  0.20523652822E+02  0.51100000000E-03 0.  1.
         12    1    4    4    0    0  0.90426063450E+01 -0.12783607122E+02 -0.45036303029E+01  0.16293312324E+02  0.00000000000E+00 0. -1.
</event>
<event>
 8    1  0.1164123E-009  0.9118800E+02  0.7816164E-02  0.1184000E+00
        -11   -1    0    0    0    0  0.00000000000E+00  0.00000000000E+00  0.45593999997E+02  0.45594000000E+02  0.51100000000E-03 0. -1.
         11   -1    0    0    0    0 -0.00000000000E+00 -0.00000000000E+00 -0.45593999997E+02  0.45594000000E+02  0.51100000000E-03 0.  1.
         23    2    1    2    0    0  0.00000000000E+00 -0.88817841970E-15 -0.35527136788E-14  0.91188000000E+02  0.91188000000E+02 0.  0.
    9900012    2    3    3    0    0 -0.34127223562E+02  0.78243211326E+01  0.25646451881E+02  0.47787217941E+02  0.19999757878E+02 0.  0.
        -12    1    3    3    0    0  0.34127223562E+02 -0.78243211326E+01 -0.25646451881E+02  0.43400782059E+02  0.00000000000E+00 0.  1.
         11    1    4    4    0    0 -0.23664073905E+02 -0.17977612507E+01  0.16719779688E+02  0.29030524838E+02  0.51100000000E-03 0. -1.
        -11    1    4    4    0    0 -0.17492398330E+01 -0.10798468820E+01  0.32249164037E+01  0.38243947696E+01  0.51100000000E-03 0.  1.
        -12    1    4    4    0    0 -0.87139098246E+01  0.10701929265E+02  0.57017557893E+01  0.14932298333E+02  0.00000000000E+00 0.  1.
</event>
<event>
 8    1  0.1164123E-009  0.9118800E+02  0.7816164E-02  0.1184000E+00
        -11   -1    0    0    0    0  0.00000000000E+00  0.00000000000E+00  0.45593999997E+02  0.45594000000E+02  0.51100000000E-03 0. -1.
         11   -1    0    0    0    0 -0.00000000000E+00 -0.00000000000E+00 -0.45593999997E+02  0.45594000000E+02  0.51100000000E-03 0.  1.
         23    2    1    2    0    0  0.00000000000E+00  0.35527136788E-14  0.00000000000E+00  0.91188000000E+02  0.91188000000E+02 0.  0.
    9900012    2    3    3    0    0 -0.15215864896E+02 -0.21581586565E+02  0.34443225307E+02  0.47787271979E+02  0.20000004260E+02 0.  0.
        -12    1    3    3    0    0  0.15215864896E+02  0.21581586565E+02 -0.34443225307E+02  0.43400728021E+02  0.00000000000E+00 0.  1.
         11    1    4    4    0    0 -0.31599621623E+01 -0.15023042562E+02  0.16758508355E+02  0.22727181330E+02  0.51100000000E-03 0. -1.
        -11    1    4    4    0    0 -0.48466804034E+00 -0.60975939272E+01  0.70956831864E+01  0.93682589073E+01  0.51100000000E-03 0.  1.
        -12    1    4    4    0    0 -0.11571234693E+02 -0.46095007600E+00  0.10589033766E+02  0.15691831741E+02  0.00000000000E+00 0.  1.
</event>
<event>
 8    1  0.1164123E-009  0.9118800E+02  0.7816164E-02  0.1184000E+00
        -11   -1    0    0    0    0  0.00000000000E+00  0.00000000000E+00  0.45593999997E+02  0.45594000000E+02  0.51100000000E-03 0. -1.
         11   -1    0    0    0    0 -0.00000000000E+00 -0.00000000000E+00 -0.45593999997E+02  0.45594000000E+02  0.51100000000E-03 0.  1.
         23    2    1    2    0    0 -0.35527136788E-14  0.44408920985E-15  0.00000000000E+00  0.91188000000E+02  0.91188000000E+02 0.  0.
    9900012    2    3    3    0    0  0.16824174894E+02 -0.36267713379E+01  0.39842400177E+02  0.47787272091E+02  0.20000004771E+02 0.  0.
        -12    1    3    3    0    0 -0.16824174894E+02  0.36267713379E+01 -0.39842400177E+02  0.43400727909E+02  0.00000000000E+00 0.  1.
         11    1    4    4    0    0  0.75912056139E+01 -0.19478454118E+01  0.80162733193E+01  0.11210760126E+02  0.51100000000E-03 0. -1.
        -11    1    4    4    0    0 -0.31947868971E+01 -0.17955830815E+01  0.18064375692E+01  0.40858290313E+01  0.51100000000E-03 0.  1.
        -12    1    4    4    0    0  0.12427756177E+02  0.11665715540E+00  0.30019689288E+02  0.32490682933E+02  0.00000000000E+00 0.  1.
</event>
<event>
 8    1  0.1164123E-009  0.9118800E+02  0.7816164E-02  0.1184000E+00
        -11   -1    0    0    0    0  0.00000000000E+00  0.00000000000E+00  0.45593999997E+02  0.45594000000E+02  0.51100000000E-03 0. -1.
         11   -1    0    0    0    0 -0.00000000000E+00 -0.00000000000E+00 -0.45593999997E+02  0.45594000000E+02  0.51100000000E-03 0.  1.
         23    2    1    2    0    0  0.00000000000E+00  0.00000000000E+00  0.71054273576E-14  0.91188000000E+02  0.91188000000E+02 0.  0.
    9900012    2    3    3    0    0 -0.12064710339E+02  0.11382992660E+02  0.40106033250E+02  0.47787266590E+02  0.19999979692E+02 0.  0.
        -12    1    3    3    0    0  0.12064710339E+02 -0.11382992660E+02 -0.40106033250E+02  0.43400733410E+02  0.00000000000E+00 0.  1.
         11    1    4    4    0    0 -0.13935938618E+01  0.10844505460E+01 -0.29644084920E+00  0.17905346343E+01  0.51100000000E-03 0. -1.
        -11    1    4    4    0    0 -0.46129655975E+01 -0.26462603726E+01  0.33548790856E+01  0.62878740051E+01  0.51100000000E-03 0.  1.
         12    1    4    4    0    0 -0.60581508793E+01  0.12944802486E+02  0.37047595013E+02  0.39708857951E+02  0.00000000000E+00 0. -1.
</event>
<event>
 8    1  0.1164123E-009  0.9118800E+02  0.7816164E-02  0.1184000E+00
        -11   -1    0    0    0    0  0.00000000000E+00  0.00000000000E+00  0.45593999997E+02  0.45594000000E+02  0.51100000000E-03 0. -1.
         11   -1    0    0    0    0 -0.00000000000E+00 -0.00000000000E+00 -0.45593999997E+02  0.45594000000E+02  0.51100000000E-03 0.  1.
         23    2    1    2    0    0  0.88817841970E-15  0.17763568394E-14  0.00000000000E+00  0.91188000000E+02  0.91188000000E+02 0.  0.
    9900012    2    3    3    0    0  0.78291833636E+01  0.11925034003E+02  0.40989274102E+02  0.47787272592E+02  0.20000007056E+02 0.  0.
        -12    1    3    3    0    0 -0.78291833636E+01 -0.11925034003E+02 -0.40989274102E+02  0.43400727408E+02  0.00000000000E+00 0.  1.
         11    1    4    4    0    0  0.33560297616E+01  0.19269601083E+01  0.55688498688E+01  0.67814600303E+01  0.51100000000E-03 0.  1.
        -11    1    4    4    0    0  0.31687016761E+01  0.11996498230E+02  0.36376878635E+02  0.38434801151E+02  0.51100000000E-03 0. -1.
         12    1    4    4    0    0  0.13044519260E+01 -0.19984243350E+01 -0.95645440110E+00  0.25710114102E+01  0.00000000000E+00 0. -1.
</event>
<event>
 8    1  0.1164123E-009  0.9118800E+02  0.7816164E-02  0.1184000E+00
        -11   -1    0    0    0    0  0.00000000000E+00  0.00000000000E+00  0.45593999997E+02  0.45594000000E+02  0.51100000000E-03 0. -1.
         11   -1    0    0    0    0 -0.00000000000E+00 -0.00000000000E+00 -0.45593999997E+02  0.45594000000E+02  0.51100000000E-03 0.  1.
         23    2    1    2    0    0 -0.71054273576E-14  0.00000000000E+00  0.71054273576E-14  0.91188000000E+02  0.91188000000E+02 0.  0.
    9900012    2    3    3    0    0 -0.23013121573E+02 -0.11955936866E+02  0.34800502530E+02  0.47787272273E+02  0.20000005602E+02 0.  0.
        -12    1    3    3    0    0  0.23013121573E+02  0.11955936866E+02 -0.34800502530E+02  0.43400727727E+02  0.00000000000E+00 0.  1.
         11    1    4    4    0    0 -0.17732740264E+02 -0.79562416644E+01  0.22428052074E+02  0.29677758992E+02  0.51100000000E-03 0. -1.
        -11    1    4    4    0    0 -0.19694875311E+01 -0.27996673797E+01 -0.15434656083E+01  0.37549041156E+01  0.51100000000E-03 0.  1.
         12    1    4    4    0    0 -0.33108937778E+01 -0.12000278215E+01  0.13915916065E+02  0.14354609166E+02  0.00000000000E+00 0. -1.
</event>
<event>
 8    1  0.1164123E-009  0.9118800E+02  0.7816164E-02  0.1184000E+00
        -11   -1    0    0    0    0  0.00000000000E+00  0.00000000000E+00  0.45593999997E+02  0.45594000000E+02  0.51100000000E-03 0. -1.
         11   -1    0    0    0    0 -0.00000000000E+00 -0.00000000000E+00 -0.45593999997E+02  0.45594000000E+02  0.51100000000E-03 0.  1.
         23    2    1    2    0    0  0.88817841970E-15  0.88817841970E-15  0.71054273576E-14  0.91188000000E+02  0.91188000000E+02 0.  0.
    9900012    2    3    3    0    0 -0.47856790857E+00 -0.70870161574E+01 -0.42815515793E+02  0.47787271690E+02  0.20000002942E+02 0.  0.
         12    1    3    3    0    0  0.47856790857E+00  0.70870161574E+01  0.42815515793E+02  0.43400728310E+02  0.00000000000E+00 0. -1.
         11    1    4    4    0    0 -0.90826552592E+00 -0.69693588221E+00  0.41124203379E+00  0.12164646156E+01  0.51100000000E-03 0. -1.
        -11    1    4    4    0    0  0.71670170717E+01 -0.75683432283E+01 -0.24081370443E+02  0.26240395493E+02  0.51100000000E-03 0.  1.
         12    1    4    4    0    0 -0.67373194544E+01  0.11782629531E+01 -0.19145387383E+02  0.20330411581E+02  0.00000000000E+00 0. -1.
</event>
<event>
 8    1  0.1164123E-009  0.9118800E+02  0.7816164E-02  0.1184000E+00
        -11   -1    0    0    0    0  0.00000000000E+00  0.00000000000E+00  0.45593999997E+02  0.45594000000E+02  0.51100000000E-03 0. -1.
         11   -1    0    0    0    0 -0.00000000000E+00 -0.00000000000E+00 -0.45593999997E+02  0.45594000000E+02  0.51100000000E-03 0.  1.
         23    2    1    2    0    0  0.35527136788E-14 -0.35527136788E-14  0.00000000000E+00  0.91188000000E+02  0.91188000000E+02 0.  0.
    9900012    2    3    3    0    0 -0.27544439505E+02 -0.28690846155E+02 -0.17371318328E+02  0.47787268426E+02  0.19999988061E+02 0.  0.
         12    1    3    3    0    0  0.27544439505E+02  0.28690846155E+02  0.17371318328E+02  0.43400731574E+02  0.00000000000E+00 0. -1.
         11    1    4    4    0    0 -0.14798264405E+02 -0.19779056742E+02 -0.34048249473E+01  0.24935768449E+02  0.51100000000E-03 0. -1.
        -11    1    4    4    0    0 -0.55626711474E+01 -0.93248710925E+01 -0.90733947851E+01  0.14150018529E+02  0.51100000000E-03 0.  1.
         12    1    4    4    0    0 -0.71835039529E+01  0.41308167944E+00 -0.48930985955E+01  0.87014814475E+01  0.00000000000E+00 0. -1.
</event>
<event>
 8    1  0.1164123E-009  0.9118800E+02  0.7816164E-02  0.1184000E+00
        -11   -1    0    0    0    0  0.00000000000E+00  0.00000000000E+00  0.45593999997E+02  0.45594000000E+02  0.51100000000E-03 0. -1.
         11   -1    0    0    0    0 -0.00000000000E+00 -0.00000000000E+00 -0.45593999997E+02  0.45594000000E+02  0.51100000000E-03 0.  1.
         23    2    1    2    0    0  0.00000000000E+00  0.00000000000E+00  0.00000000000E+00  0.91188000000E+02  0.91188000000E+02 0.  0.
    9900012    2    3    3    0    0  0.23420053747E+02 -0.94610137145E+01 -0.35293253420E+02  0.47787269188E+02  0.19999991536E+02 0.  0.
         12    1    3    3    0    0 -0.23420053747E+02  0.94610137145E+01  0.35293253420E+02  0.43400730812E+02  0.00000000000E+00 0. -1.
         11    1    4    4    0    0 -0.48489674428E-01  0.39631040495E+01 -0.65273223008E+01  0.76363919252E+01  0.51100000000E-03 0. -1.
        -11    1    4    4    0    0  0.56184549406E+01 -0.51246665580E+01 -0.12423216500E+02  0.14565903739E+02  0.51100000000E-03 0.  1.
        -12    1    4    4    0    0  0.17850088481E+02 -0.82994512060E+01 -0.16342714619E+02  0.25584973524E+02  0.00000000000E+00 0.  1.
</event>
<event>
 8    1  0.1164123E-009  0.9118800E+02  0.7816164E-02  0.1184000E+00
        -11   -1    0    0    0    0  0.00000000000E+00  0.00000000000E+00  0.45593999997E+02  0.45594000000E+02  0.51100000000E-03 0.  1.
         11   -1    0    0    0    0 -0.00000000000E+00 -0.00000000000E+00 -0.45593999997E+02  0.45594000000E+02  0.51100000000E-03 0. -1.
         23    2    1    2    0    0  0.00000000000E+00  0.88817841970E-15  0.00000000000E+00  0.91188000000E+02  0.91188000000E+02 0.  0.
    9900012    2    3    3    0    0 -0.39233273225E+02 -0.44030447661E+01  0.18027404753E+02  0.47787264369E+02  0.19999969566E+02 0.  0.
        -12    1    3    3    0    0  0.39233273225E+02  0.44030447661E+01 -0.18027404753E+02  0.43400735631E+02  0.00000000000E+00 0.  1.
         11    1    4    4    0    0 -0.10512478459E+02 -0.33771947556E+00  0.49536007617E+01  0.11626023334E+02  0.51100000000E-03 0. -1.
        -11    1    4    4    0    0 -0.11586809024E+02 -0.10194150279E+02  0.47228865375E+01  0.16139408316E+02  0.51100000000E-03 0.  1.
        -12    1    4    4    0    0 -0.17133985741E+02  0.61288249884E+01  0.83509174539E+01  0.20021832719E+02  0.00000000000E+00 0.  1.
</event>
<event>
 8    1  0.1164123E-009  0.9118800E+02  0.7816164E-02  0.1184000E+00
        -11   -1    0    0    0    0  0.00000000000E+00  0.00000000000E+00  0.45593999997E+02  0.45594000000E+02  0.51100000000E-03 0. -1.
         11   -1    0    0    0    0 -0.00000000000E+00 -0.00000000000E+00 -0.45593999997E+02  0.45594000000E+02  0.51100000000E-03 0.  1.
         23    2    1    2    0    0  0.17763568394E-14 -0.17763568394E-14  0.00000000000E+00  0.91188000000E+02  0.91188000000E+02 0.  0.
    9900012    2    3    3    0    0  0.12630988113E+02 -0.15807189033E+02 -0.38395495975E+02  0.47787271930E+02  0.20000004037E+02 0.  0.
         12    1    3    3    0    0 -0.12630988113E+02  0.15807189033E+02  0.38395495975E+02  0.43400728070E+02  0.00000000000E+00 0. -1.
         11    1    4    4    0    0  0.95013890370E+01 -0.10729241180E+02 -0.24917189940E+02  0.28744727598E+02  0.51100000000E-03 0. -1.
        -11    1    4    4    0    0  0.46086935908E+01  0.16031498361E+01 -0.10502353158E+02  0.11580568558E+02  0.51100000000E-03 0.  1.
         12    1    4    4    0    0 -0.14790945148E+01 -0.66810976891E+01 -0.29759528773E+01  0.74619757734E+01  0.00000000000E+00 0. -1.
</event>
<event>
 8    1  0.1164123E-009  0.9118800E+02  0.7816164E-02  0.1184000E+00
        -11   -1    0    0    0    0  0.00000000000E+00  0.00000000000E+00  0.45593999997E+02  0.45594000000E+02  0.51100000000E-03 0. -1.
         11   -1    0    0    0    0 -0.00000000000E+00 -0.00000000000E+00 -0.45593999997E+02  0.45594000000E+02  0.51100000000E-03 0.  1.
         23    2    1    2    0    0 -0.35527136788E-14  0.00000000000E+00  0.35527136788E-14  0.91188000000E+02  0.91188000000E+02 0.  0.
    9900012    2    3    3    0    0  0.24056378185E+02  0.19407162803E+02 -0.30467620081E+02  0.47787272209E+02  0.20000005308E+02 0.  0.
         12    1    3    3    0    0 -0.24056378185E+02 -0.19407162803E+02  0.30467620081E+02  0.43400727791E+02  0.00000000000E+00 0. -1.
         11    1    4    4    0    0  0.82198741491E+01  0.14159391962E+02 -0.12426224453E+02  0.20553972030E+02  0.51100000000E-03 0. -1.
        -11    1    4    4    0    0 -0.15235042874E+01 -0.78049117047E+00 -0.39717421078E+00  0.17572647483E+01  0.51100000000E-03 0.  1.
        -12    1    4    4    0    0  0.17360008323E+02  0.60282620107E+01 -0.17644221417E+02  0.25476035430E+02  0.00000000000E+00 0.  1.
</event>
<event>
 8    1  0.1861895E-009  0.9118800E+02  0.7816164E-02  0.1184000E+00
        -11   -1    0    0    0    0  0.00000000000E+00  0.00000000000E+00  0.45593999997E+02  0.45594000000E+02  0.51100000000E-03 0. -1.
         11   -1    0    0    0    0 -0.00000000000E+00 -0.00000000000E+00 -0.45593999997E+02  0.45594000000E+02  0.51100000000E-03 0.  1.
         23    2    1    2    0    0  0.00000000000E+00  0.88817841970E-15  0.00000000000E+00  0.91188000000E+02  0.91188000000E+02 0.  0.
    9900012    2    3    3    0    0  0.29755704906E+02  0.62105438431E+01 -0.30978227314E+02  0.47787269628E+02  0.19999993542E+02 0.  0.
         12    1    3    3    0    0 -0.29755704906E+02 -0.62105438431E+01  0.30978227314E+02  0.43400730372E+02  0.00000000000E+00 0. -1.
         11    1    4    4    0    0  0.88104117042E+01 -0.39360663795E+01 -0.10342109449E+02  0.14144794133E+02  0.51100000000E-03 0. -1.
        -11    1    4    4    0    0  0.12334557356E+02 -0.35350375795E+00 -0.61513795105E+01  0.13787883820E+02  0.51100000000E-03 0.  1.
        -12    1    4    4    0    0  0.86107358461E+01  0.10500113981E+02 -0.14484738354E+02  0.19854591676E+02  0.00000000000E+00 0.  1.
</event>
<event>
 8    1  0.1164123E-009  0.9118800E+02  0.7816164E-02  0.1184000E+00
        -11   -1    0    0    0    0  0.00000000000E+00  0.00000000000E+00  0.45593999997E+02  0.45594000000E+02  0.51100000000E-03 0. -1.
         11   -1    0    0    0    0 -0.00000000000E+00 -0.00000000000E+00 -0.45593999997E+02  0.45594000000E+02  0.51100000000E-03 0.  1.
         23    2    1    2    0    0  0.00000000000E+00  0.00000000000E+00 -0.71054273576E-14  0.91188000000E+02  0.91188000000E+02 0.  0.
    9900012    2    3    3    0    0  0.16070820517E+02 -0.18094616376E+02  0.36026892943E+02  0.47787269257E+02  0.19999991849E+02 0.  0.
        -12    1    3    3    0    0 -0.16070820517E+02  0.18094616376E+02 -0.36026892943E+02  0.43400730743E+02  0.00000000000E+00 0.  1.
         11    1    4    4    0    0  0.16064411414E+01 -0.10085701181E+02  0.15438893535E+02  0.18511117074E+02  0.51100000000E-03 0. -1.
        -11    1    4    4    0    0 -0.19969636252E+00 -0.58388600862E+01  0.43113386527E+01  0.72608406526E+01  0.51100000000E-03 0.  1.
         12    1    4    4    0    0  0.14664075738E+02 -0.21700551088E+01  0.16276660756E+02  0.22015311530E+02  0.00000000000E+00 0. -1.
</event>
<event>
 8    1  0.1164123E-009  0.9118800E+02  0.7816164E-02  0.1184000E+00
        -11   -1    0    0    0    0  0.00000000000E+00  0.00000000000E+00  0.45593999997E+02  0.45594000000E+02  0.51100000000E-03 0. -1.
         11   -1    0    0    0    0 -0.00000000000E+00 -0.00000000000E+00 -0.45593999997E+02  0.45594000000E+02  0.51100000000E-03 0.  1.
         23    2    1    2    0    0  0.00000000000E+00  0.35527136788E-14  0.00000000000E+00  0.91188000000E+02  0.91188000000E+02 0.  0.
    9900012    2    3    3    0    0 -0.29794141079E+02  0.20143539518E+02  0.24293434704E+02  0.47787262717E+02  0.19999962034E+02 0.  0.
        -12    1    3    3    0    0  0.29794141079E+02 -0.20143539518E+02 -0.24293434704E+02  0.43400737283E+02  0.00000000000E+00 0.  1.
         11    1    4    4    0    0  0.19002070060E+01  0.29704935380E+00 -0.77470551139E+00  0.20734497521E+01  0.51100000000E-03 0. -1.
        -11    1    4    4    0    0 -0.34821262987E+00 -0.14010697773E+00 -0.47723704869E+00  0.60715522115E+00  0.51100000000E-03 0.  1.
         12    1    4    4    0    0 -0.31346135455E+02  0.19986597142E+02  0.25545377264E+02  0.45106657744E+02  0.00000000000E+00 0. -1.
</event>
<event>
 8    1  0.1164123E-009  0.9118800E+02  0.7816164E-02  0.1184000E+00
        -11   -1    0    0    0    0  0.00000000000E+00  0.00000000000E+00  0.45593999997E+02  0.45594000000E+02  0.51100000000E-03 0. -1.
         11   -1    0    0    0    0 -0.00000000000E+00 -0.00000000000E+00 -0.45593999997E+02  0.45594000000E+02  0.51100000000E-03 0.  1.
         23    2    1    2    0    0  0.17763568394E-14  0.00000000000E+00  0.71054273576E-14  0.91188000000E+02  0.91188000000E+02 0.  0.
    9900012    2    3    3    0    0 -0.14929463386E+02 -0.46012471364E+01 -0.40491518116E+02  0.47787269689E+02  0.19999993822E+02 0.  0.
         12    1    3    3    0    0  0.14929463386E+02  0.46012471364E+01  0.40491518116E+02  0.43400730311E+02  0.00000000000E+00 0. -1.
         11    1    4    4    0    0 -0.67754998839E+01 -0.11983379095E+00 -0.22124303118E+02  0.23138853635E+02  0.51100000000E-03 0.  1.
        -11    1    4    4    0    0  0.24739347771E+01 -0.15309726767E+01 -0.11015058603E+02  0.11392793639E+02  0.51100000000E-03 0. -1.
         12    1    4    4    0    0 -0.10627898279E+02 -0.29504406687E+01 -0.73521563942E+01  0.13255622415E+02  0.00000000000E+00 0. -1.
</event>
<event>
 8    1  0.1164123E-009  0.9118800E+02  0.7816164E-02  0.1184000E+00
        -11   -1    0    0    0    0  0.00000000000E+00  0.00000000000E+00  0.45593999997E+02  0.45594000000E+02  0.51100000000E-03 0.  1.
         11   -1    0    0    0    0 -0.00000000000E+00 -0.00000000000E+00 -0.45593999997E+02  0.45594000000E+02  0.51100000000E-03 0. -1.
         23    2    1    2    0    0 -0.35527136788E-14  0.00000000000E+00 -0.88817841970E-15  0.91188000000E+02  0.91188000000E+02 0.  0.
    9900012    2    3    3    0    0  0.22905580675E+02  0.36128860507E+02  0.73254929106E+01  0.47787273808E+02  0.20000012599E+02 0.  0.
        -12    1    3    3    0    0 -0.22905580675E+02 -0.36128860507E+02 -0.73254929106E+01  0.43400726192E+02  0.00000000000E+00 0.  1.
         11    1    4    4    0    0  0.74845930978E+01  0.15947608788E+02  0.65424835057E+01  0.18792271033E+02  0.51100000000E-03 0. -1.
        -11    1    4    4    0    0  0.11617076778E+02  0.21772884674E+02 -0.47852706285E+00  0.24682867910E+02  0.51100000000E-03 0.  1.
        -12    1    4    4    0    0  0.38039107998E+01 -0.15916329537E+01  0.12615364678E+01  0.43121348647E+01  0.00000000000E+00 0.  1.
</event>
<event>
 8    1  0.1164123E-009  0.9118800E+02  0.7816164E-02  0.1184000E+00
        -11   -1    0    0    0    0  0.00000000000E+00  0.00000000000E+00  0.45593999997E+02  0.45594000000E+02  0.51100000000E-03 0. -1.
         11   -1    0    0    0    0 -0.00000000000E+00 -0.00000000000E+00 -0.45593999997E+02  0.45594000000E+02  0.51100000000E-03 0.  1.
         23    2    1    2    0    0  0.00000000000E+00  0.00000000000E+00  0.00000000000E+00  0.91188000000E+02  0.91188000000E+02 0.  0.
    9900012    2    3    3    0    0 -0.23368208252E+02 -0.26617119050E+02 -0.25081448630E+02  0.47787271333E+02  0.20000001317E+02 0.  0.
         12    1    3    3    0    0  0.23368208252E+02  0.26617119050E+02  0.25081448630E+02  0.43400728667E+02  0.00000000000E+00 0. -1.
         11    1    4    4    0    0 -0.13892068860E+00 -0.61944156010E+01 -0.71047403104E+01  0.94269517202E+01  0.51100000000E-03 0. -1.
        -11    1    4    4    0    0 -0.19259323356E+01 -0.97129765738E+01 -0.69010142088E+01  0.12069595132E+02  0.51100000000E-03 0.  1.
        -12    1    4    4    0    0 -0.21303355228E+02 -0.10709726875E+02 -0.11075694111E+02  0.26290724481E+02  0.00000000000E+00 0.  1.
</event>
<event>
 8    1  0.1164123E-009  0.9118800E+02  0.7816164E-02  0.1184000E+00
        -11   -1    0    0    0    0  0.00000000000E+00  0.00000000000E+00  0.45593999997E+02  0.45594000000E+02  0.51100000000E-03 0. -1.
         11   -1    0    0    0    0 -0.00000000000E+00 -0.00000000000E+00 -0.45593999997E+02  0.45594000000E+02  0.51100000000E-03 0.  1.
         23    2    1    2    0    0  0.17763568394E-14  0.00000000000E+00  0.00000000000E+00  0.91188000000E+02  0.91188000000E+02 0.  0.
    9900012    2    3    3    0    0  0.10203840684E+02  0.16858144574E+02  0.38669210604E+02  0.47787271298E+02  0.20000001155E+02 0.  0.
        -12    1    3    3    0    0 -0.10203840684E+02 -0.16858144574E+02 -0.38669210604E+02  0.43400728702E+02  0.00000000000E+00 0.  1.
         11    1    4    4    0    0  0.50297404484E+01  0.11564377159E+01  0.11261989418E+02  0.12388221950E+02  0.51100000000E-03 0. -1.
        -11    1    4    4    0    0  0.67207312586E+01  0.76858134702E+01  0.46443257574E+01  0.11216493184E+02  0.51100000000E-03 0.  1.
        -12    1    4    4    0    0 -0.15466310232E+01  0.80158933877E+01  0.22762895429E+02  0.24182556164E+02  0.00000000000E+00 0.  1.
</event>
<event>
 8    1  0.1164123E-009  0.9118800E+02  0.7816164E-02  0.1184000E+00
        -11   -1    0    0    0    0  0.00000000000E+00  0.00000000000E+00  0.45593999997E+02  0.45594000000E+02  0.51100000000E-03 0. -1.
         11   -1    0    0    0    0 -0.00000000000E+00 -0.00000000000E+00 -0.45593999997E+02  0.45594000000E+02  0.51100000000E-03 0.  1.
         23    2    1    2    0    0  0.00000000000E+00  0.00000000000E+00  0.00000000000E+00  0.91188000000E+02  0.91188000000E+02 0.  0.
    9900012    2    3    3    0    0 -0.37831171360E+02  0.99067717129E+01  0.18822375764E+02  0.47787268651E+02  0.19999989087E+02 0.  0.
        -12    1    3    3    0    0  0.37831171360E+02 -0.99067717129E+01 -0.18822375764E+02  0.43400731349E+02  0.00000000000E+00 0.  1.
         11    1    4    4    0    0  0.58972148348E+00  0.80603813946E+00 -0.42019362113E+00  0.10835275034E+01  0.51100000000E-03 0. -1.
        -11    1    4    4    0    0 -0.87080498715E+01 -0.30816664048E+01  0.92480978791E+01  0.13071117590E+02  0.51100000000E-03 0.  1.
         12    1    4    4    0    0 -0.29712842972E+02  0.12182399978E+02  0.99944715063E+01  0.33632623558E+02  0.00000000000E+00 0. -1.
</event>
<event>
 8    1  0.1164123E-009  0.9118800E+02  0.7816164E-02  0.1184000E+00
        -11   -1    0    0    0    0  0.00000000000E+00  0.00000000000E+00  0.45593999997E+02  0.45594000000E+02  0.51100000000E-03 0. -1.
         11   -1    0    0    0    0 -0.00000000000E+00 -0.00000000000E+00 -0.45593999997E+02  0.45594000000E+02  0.51100000000E-03 0.  1.
         23    2    1    2    0    0  0.00000000000E+00 -0.17763568394E-14 -0.71054273576E-14  0.91188000000E+02  0.91188000000E+02 0.  0.
    9900012    2    3    3    0    0  0.89219495143E+01 -0.12225858216E+02  0.40676220608E+02  0.47787219878E+02  0.19999766710E+02 0.  0.
        -12    1    3    3    0    0 -0.89219495143E+01  0.12225858216E+02 -0.40676220608E+02  0.43400780122E+02  0.00000000000E+00 0.  1.
         11    1    4    4    0    0  0.79735198352E+01 -0.65974204164E+01  0.14898779096E+02  0.18140468394E+02  0.51100000000E-03 0. -1.
        -11    1    4    4    0    0  0.42580094671E+01  0.19825122359E+01  0.34532282192E+01  0.58297328226E+01  0.51100000000E-03 0.  1.
        -12    1    4    4    0    0 -0.33095797880E+01 -0.76109500354E+01  0.22324213292E+02  0.23817018662E+02  0.00000000000E+00 0.  1.
</event>
<event>
 8    1  0.1164123E-009  0.9118800E+02  0.7816164E-02  0.1184000E+00
        -11   -1    0    0    0    0  0.00000000000E+00  0.00000000000E+00  0.45593999997E+02  0.45594000000E+02  0.51100000000E-03 0. -1.
         11   -1    0    0    0    0 -0.00000000000E+00 -0.00000000000E+00 -0.45593999997E+02  0.45594000000E+02  0.51100000000E-03 0.  1.
         23    2    1    2    0    0 -0.35527136788E-14 -0.88817841970E-15  0.00000000000E+00  0.91188000000E+02  0.91188000000E+02 0.  0.
    9900012    2    3    3    0    0 -0.14076428897E+02 -0.60942714033E+01  0.40599700459E+02  0.47787289501E+02  0.20000084152E+02 0.  0.
        -12    1    3    3    0    0  0.14076428897E+02  0.60942714033E+01 -0.40599700459E+02  0.43400710499E+02  0.00000000000E+00 0.  1.
         11    1    4    4    0    0 -0.22630911103E+01 -0.58274709131E+00  0.10495244078E+00  0.23392714297E+01  0.51100000000E-03 0. -1.
        -11    1    4    4    0    0 -0.62882589857E+01 -0.13409010584E+01  0.26152309290E+01  0.69411562288E+01  0.51100000000E-03 0.  1.
         12    1    4    4    0    0 -0.55250788010E+01 -0.41706232536E+01  0.37879517089E+02  0.38506861843E+02  0.00000000000E+00 0. -1.
</event>
<event>
 8    1  0.1164123E-009  0.9118800E+02  0.7816164E-02  0.1184000E+00
        -11   -1    0    0    0    0  0.00000000000E+00  0.00000000000E+00  0.45593999997E+02  0.45594000000E+02  0.51100000000E-03 0. -1.
         11   -1    0    0    0    0 -0.00000000000E+00 -0.00000000000E+00 -0.45593999997E+02  0.45594000000E+02  0.51100000000E-03 0.  1.
         23    2    1    2    0    0 -0.17763568394E-14  0.00000000000E+00 -0.71054273576E-14  0.91188000000E+02  0.91188000000E+02 0.  0.
    9900012    2    3    3    0    0 -0.15641127088E+02  0.15831861114E+02 -0.37260310582E+02  0.47787269273E+02  0.19999991925E+02 0.  0.
         12    1    3    3    0    0  0.15641127088E+02 -0.15831861114E+02  0.37260310582E+02  0.43400730727E+02  0.00000000000E+00 0. -1.
         11    1    4    4    0    0 -0.96248871847E+01 -0.41793496935E+00 -0.12125513674E+02  0.15486807453E+02  0.51100000000E-03 0.  1.
        -11    1    4    4    0    0  0.81099704859E+00 -0.19611517802E+00  0.58432976703E+00  0.10186358101E+01  0.51100000000E-03 0. -1.
         12    1    4    4    0    0 -0.68272369523E+01  0.16445911261E+02 -0.25719126675E+02  0.31281826011E+02  0.00000000000E+00 0. -1.
</event>
<event>
 8    1  0.1164123E-009  0.9118800E+02  0.7816164E-02  0.1184000E+00
        -11   -1    0    0    0    0  0.00000000000E+00  0.00000000000E+00  0.45593999997E+02  0.45594000000E+02  0.51100000000E-03 0. -1.
         11   -1    0    0    0    0 -0.00000000000E+00 -0.00000000000E+00 -0.45593999997E+02  0.45594000000E+02  0.51100000000E-03 0.  1.
         23    2    1    2    0    0  0.00000000000E+00  0.00000000000E+00  0.00000000000E+00  0.91188000000E+02  0.91188000000E+02 0.  0.
    9900012    2    3    3    0    0 -0.25468153437E+02 -0.11002951490E+02 -0.33375613040E+02  0.47787270435E+02  0.19999997222E+02 0.  0.
         12    1    3    3    0    0  0.25468153437E+02  0.11002951490E+02  0.33375613040E+02  0.43400729565E+02  0.00000000000E+00 0. -1.
         11    1    4    4    0    0 -0.31611193646E+00  0.12905874557E-01  0.14365095277E+01  0.14709361653E+01  0.51100000000E-03 0. -1.
        -11    1    4    4    0    0 -0.68136953127E-01  0.17221625786E+01 -0.51681246932E+01  0.54479353610E+01  0.51100000000E-03 0.  1.
         12    1    4    4    0    0 -0.25083904547E+02 -0.12738019943E+02 -0.29643997874E+02  0.40868398909E+02  0.00000000000E+00 0. -1.
</event>
<event>
 8    1  0.1164123E-009  0.9118800E+02  0.7816164E-02  0.1184000E+00
        -11   -1    0    0    0    0  0.00000000000E+00  0.00000000000E+00  0.45593999997E+02  0.45594000000E+02  0.51100000000E-03 0. -1.
         11   -1    0    0    0    0 -0.00000000000E+00 -0.00000000000E+00 -0.45593999997E+02  0.45594000000E+02  0.51100000000E-03 0.  1.
         23    2    1    2    0    0 -0.35527136788E-14  0.00000000000E+00  0.00000000000E+00  0.91188000000E+02  0.91188000000E+02 0.  0.
    9900012    2    3    3    0    0  0.20567536467E+02  0.37905238271E+02  0.48777529384E+01  0.47787272835E+02  0.20000008166E+02 0.  0.
        -12    1    3    3    0    0 -0.20567536467E+02 -0.37905238271E+02 -0.48777529384E+01  0.43400727165E+02  0.00000000000E+00 0.  1.
         11    1    4    4    0    0 -0.13067375674E+01  0.63065512052E+01  0.63053970369E+00  0.64713006230E+01  0.51100000000E-03 0.  1.
        -11    1    4    4    0    0  0.57626906765E+01  0.19550942621E+02  0.56442241705E+01  0.21149591673E+02  0.51100000000E-03 0. -1.
        -12    1    4    4    0    0  0.16111583358E+02  0.12047744445E+02 -0.13970109358E+01  0.20166380539E+02  0.00000000000E+00 0.  1.
</event>
<event>
 8    1  0.1301020E-009  0.9118800E+02  0.7816164E-02  0.1184000E+00
        -11   -1    0    0    0    0  0.00000000000E+00  0.00000000000E+00  0.45593999997E+02  0.45594000000E+02  0.51100000000E-03 0. -1.
         11   -1    0    0    0    0 -0.00000000000E+00 -0.00000000000E+00 -0.45593999997E+02  0.45594000000E+02  0.51100000000E-03 0.  1.
         23    2    1    2    0    0  0.00000000000E+00  0.00000000000E+00  0.00000000000E+00  0.91188000000E+02  0.91188000000E+02 0.  0.
    9900012    2    3    3    0    0  0.13070486463E+02 -0.36716671362E+02 -0.19096374909E+02  0.47787272967E+02  0.20000008768E+02 0.  0.
         12    1    3    3    0    0 -0.13070486463E+02  0.36716671362E+02  0.19096374909E+02  0.43400727033E+02  0.00000000000E+00 0. -1.
         11    1    4    4    0    0 -0.70965218363E+00  0.10625230774E+01 -0.12817723803E+01  0.18098348565E+01  0.51100000000E-03 0. -1.
        -11    1    4    4    0    0  0.22558804793E+01 -0.11485940667E+02  0.84885196768E+00  0.11736114334E+02  0.51100000000E-03 0.  1.
        -12    1    4    4    0    0  0.11524258167E+02 -0.26293253773E+02 -0.18663454496E+02  0.34241323777E+02  0.00000000000E+00 0.  1.
</event>
<event>
 8    1  0.1164123E-009  0.9118800E+02  0.7816164E-02  0.1184000E+00
        -11   -1    0    0    0    0  0.00000000000E+00  0.00000000000E+00  0.45593999997E+02  0.45594000000E+02  0.51100000000E-03 0. -1.
         11   -1    0    0    0    0 -0.00000000000E+00 -0.00000000000E+00 -0.45593999997E+02  0.45594000000E+02  0.51100000000E-03 0.  1.
         23    2    1    2    0    0  0.35527136788E-14  0.00000000000E+00  0.00000000000E+00  0.91188000000E+02  0.91188000000E+02 0.  0.
    9900012    2    3    3    0    0 -0.20978393588E+02 -0.32614500652E+02 -0.19489096459E+02  0.47787268081E+02  0.19999986489E+02 0.  0.
         12    1    3    3    0    0  0.20978393588E+02  0.32614500652E+02  0.19489096459E+02  0.43400731919E+02  0.00000000000E+00 0. -1.
         11    1    4    4    0    0  0.81695805059E+00 -0.34935307920E+01 -0.23633783473E+00  0.35955574929E+01  0.51100000000E-03 0. -1.
        -11    1    4    4    0    0 -0.18513692307E+02 -0.26929942094E+02 -0.10068694373E+02  0.34195865111E+02  0.51100000000E-03 0.  1.
        -12    1    4    4    0    0 -0.32816593313E+01 -0.21910277660E+01 -0.91840642516E+01  0.99958454777E+01  0.00000000000E+00 0.  1.
</event>
<event>
 8    1  0.1164123E-009  0.9118800E+02  0.7816164E-02  0.1184000E+00
        -11   -1    0    0    0    0  0.00000000000E+00  0.00000000000E+00  0.45593999997E+02  0.45594000000E+02  0.51100000000E-03 0. -1.
         11   -1    0    0    0    0 -0.00000000000E+00 -0.00000000000E+00 -0.45593999997E+02  0.45594000000E+02  0.51100000000E-03 0.  1.
         23    2    1    2    0    0  0.88817841970E-15  0.71054273576E-14 -0.35527136788E-14  0.91188000000E+02  0.91188000000E+02 0.  0.
    9900012    2    3    3    0    0  0.29600885541E+01  0.30006440095E+02 -0.31216576737E+02  0.47787271496E+02  0.20000002060E+02 0.  0.
         12    1    3    3    0    0 -0.29600885541E+01 -0.30006440095E+02  0.31216576737E+02  0.43400728504E+02  0.00000000000E+00 0. -1.
         11    1    4    4    0    0 -0.62989251058E+01  0.13380380132E+02 -0.11057461654E+02  0.18465602846E+02  0.51100000000E-03 0. -1.
        -11    1    4    4    0    0  0.22177572074E+01  0.65333062750E+01 -0.16485643238E+01  0.70936804625E+01  0.51100000000E-03 0.  1.
         12    1    4    4    0    0  0.70412564525E+01  0.10092753688E+02 -0.18510550760E+02  0.22227988188E+02  0.00000000000E+00 0. -1.
</event>
<event>
 8    1  0.1164123E-009  0.9118800E+02  0.7816164E-02  0.1184000E+00
        -11   -1    0    0    0    0  0.00000000000E+00  0.00000000000E+00  0.45593999997E+02  0.45594000000E+02  0.51100000000E-03 0. -1.
         11   -1    0    0    0    0 -0.00000000000E+00 -0.00000000000E+00 -0.45593999997E+02  0.45594000000E+02  0.51100000000E-03 0.  1.
         23    2    1    2    0    0 -0.71054273576E-14  0.44408920985E-15  0.00000000000E+00  0.91188000000E+02  0.91188000000E+02 0.  0.
    9900012    2    3    3    0    0  0.41338045569E+02  0.32942074229E+01  0.12803835295E+02  0.47787262538E+02  0.19999961215E+02 0.  0.
        -12    1    3    3    0    0 -0.41338045569E+02 -0.32942074229E+01 -0.12803835295E+02  0.43400737462E+02  0.00000000000E+00 0.  1.
         11    1    4    4    0    0  0.20926021727E+01  0.19870873589E+01 -0.26272253702E+01  0.39025393569E+01  0.51100000000E-03 0. -1.
        -11    1    4    4    0    0  0.14026276611E+01 -0.20989770112E+01  0.29695628833E+01  0.38976111695E+01  0.51100000000E-03 0.  1.
         12    1    4    4    0    0  0.37842815735E+02  0.34060970752E+01  0.12461497782E+02  0.39987112011E+02  0.00000000000E+00 0. -1.
</event>
<event>
 8    1  0.1164123E-009  0.9118800E+02  0.7816164E-02  0.1184000E+00
        -11   -1    0    0    0    0  0.00000000000E+00  0.00000000000E+00  0.45593999997E+02  0.45594000000E+02  0.51100000000E-03 0. -1.
         11   -1    0    0    0    0 -0.00000000000E+00 -0.00000000000E+00 -0.45593999997E+02  0.45594000000E+02  0.51100000000E-03 0.  1.
         23    2    1    2    0    0  0.88817841970E-15 -0.35527136788E-14  0.00000000000E+00  0.91188000000E+02  0.91188000000E+02 0.  0.
    9900012    2    3    3    0    0  0.66082751289E+01  0.25414493508E+02  0.34555135978E+02  0.47787271862E+02  0.20000003728E+02 0.  0.
        -12    1    3    3    0    0 -0.66082751289E+01 -0.25414493508E+02 -0.34555135978E+02  0.43400728138E+02  0.00000000000E+00 0.  1.
         11    1    4    4    0    0  0.58148429951E+01  0.55362125712E+01  0.40344239363E+01  0.89854674587E+01  0.51100000000E-03 0. -1.
        -11    1    4    4    0    0  0.41385467382E+00  0.50096379536E+01  0.20133583552E+00  0.50307339919E+01  0.51100000000E-03 0.  1.
        -12    1    4    4    0    0  0.37957745992E+00  0.14868642984E+02  0.30319376206E+02  0.33771070411E+02  0.00000000000E+00 0.  1.
</event>
<event>
 8    1  0.1164123E-009  0.9118800E+02  0.7816164E-02  0.1184000E+00
        -11   -1    0    0    0    0  0.00000000000E+00  0.00000000000E+00  0.45593999997E+02  0.45594000000E+02  0.51100000000E-03 0. -1.
         11   -1    0    0    0    0 -0.00000000000E+00 -0.00000000000E+00 -0.45593999997E+02  0.45594000000E+02  0.51100000000E-03 0.  1.
         23    2    1    2    0    0  0.00000000000E+00  0.13322676296E-14  0.00000000000E+00  0.91188000000E+02  0.91188000000E+02 0.  0.
    9900012    2    3    3    0    0  0.11194332832E+01 -0.27364124720E+01 -0.43299907876E+02  0.47787272976E+02  0.20000008808E+02 0.  0.
         12    1    3    3    0    0 -0.11194332832E+01  0.27364124720E+01  0.43299907876E+02  0.43400727024E+02  0.00000000000E+00 0. -1.
         11    1    4    4    0    0 -0.96646681948E+00  0.15438308729E+01 -0.85048732245E+00  0.20101743268E+01  0.51100000000E-03 0. -1.
        -11    1    4    4    0    0  0.62036075325E+01 -0.75692041560E+01 -0.15602372772E+02  0.18417698943E+02  0.51100000000E-03 0.  1.
        -12    1    4    4    0    0 -0.41177074298E+01  0.32889608111E+01 -0.26847047782E+02  0.27359399706E+02  0.00000000000E+00 0.  1.
</event>
<event>
 8    1  0.1164123E-009  0.9118800E+02  0.7816164E-02  0.1184000E+00
        -11   -1    0    0    0    0  0.00000000000E+00  0.00000000000E+00  0.45593999997E+02  0.45594000000E+02  0.51100000000E-03 0. -1.
         11   -1    0    0    0    0 -0.00000000000E+00 -0.00000000000E+00 -0.45593999997E+02  0.45594000000E+02  0.51100000000E-03 0.  1.
         23    2    1    2    0    0  0.00000000000E+00 -0.35527136788E-14 -0.71054273576E-14  0.91188000000E+02  0.91188000000E+02 0.  0.
    9900012    2    3    3    0    0  0.19368460356E+02 -0.11222694765E+02 -0.37182484547E+02  0.47787270842E+02  0.19999999077E+02 0.  0.
         12    1    3    3    0    0 -0.19368460356E+02  0.11222694765E+02  0.37182484547E+02  0.43400729158E+02  0.00000000000E+00 0. -1.
         11    1    4    4    0    0  0.34367982938E+01 -0.91071617188E+01 -0.15394881976E+02  0.18214125519E+02  0.51100000000E-03 0. -1.
        -11    1    4    4    0    0 -0.90583021084E+00 -0.10098331856E+01 -0.70198146728E+01  0.71496915832E+01  0.51100000000E-03 0.  1.
        -12    1    4    4    0    0  0.16837492273E+02 -0.11056998602E+01 -0.14767787898E+02  0.22423453740E+02  0.00000000000E+00 0.  1.
</event>
<event>
 8    1  0.1164123E-009  0.9118800E+02  0.7816164E-02  0.1184000E+00
        -11   -1    0    0    0    0  0.00000000000E+00  0.00000000000E+00  0.45593999997E+02  0.45594000000E+02  0.51100000000E-03 0. -1.
         11   -1    0    0    0    0 -0.00000000000E+00 -0.00000000000E+00 -0.45593999997E+02  0.45594000000E+02  0.51100000000E-03 0.  1.
         23    2    1    2    0    0  0.00000000000E+00  0.00000000000E+00  0.00000000000E+00  0.91188000000E+02  0.91188000000E+02 0.  0.
    9900012    2    3    3    0    0 -0.16496261070E+02 -0.16901692206E+02 -0.36411937685E+02  0.47787273800E+02  0.20000012564E+02 0.  0.
         12    1    3    3    0    0  0.16496261070E+02  0.16901692206E+02  0.36411937685E+02  0.43400726200E+02  0.00000000000E+00 0. -1.
         11    1    4    4    0    0 -0.10686111349E+01  0.47482038259E+00 -0.10682545378E+02  0.10746355669E+02  0.51100000000E-03 0. -1.
        -11    1    4    4    0    0 -0.52795315361E+01 -0.11823874811E+02 -0.20723248057E+02  0.24436253376E+02  0.51100000000E-03 0.  1.
         12    1    4    4    0    0 -0.10148118399E+02 -0.55526377773E+01 -0.50061442507E+01  0.12604664755E+02  0.00000000000E+00 0. -1.
</event>
<event>
 8    1  0.1164123E-009  0.9118800E+02  0.7816164E-02  0.1184000E+00
        -11   -1    0    0    0    0  0.00000000000E+00  0.00000000000E+00  0.45593999997E+02  0.45594000000E+02  0.51100000000E-03 0. -1.
         11   -1    0    0    0    0 -0.00000000000E+00 -0.00000000000E+00 -0.45593999997E+02  0.45594000000E+02  0.51100000000E-03 0.  1.
         23    2    1    2    0    0 -0.35527136788E-14  0.17763568394E-14  0.35527136788E-14  0.91188000000E+02  0.91188000000E+02 0.  0.
    9900012    2    3    3    0    0 -0.29774166751E+02 -0.15924932053E+02 -0.27267538072E+02  0.47787273057E+02  0.20000009178E+02 0.  0.
         12    1    3    3    0    0  0.29774166751E+02  0.15924932053E+02  0.27267538072E+02  0.43400726943E+02  0.00000000000E+00 0. -1.
         11    1    4    4    0    0 -0.71594923549E+01  0.39191297599E+00 -0.59572012736E+01  0.93220262731E+01  0.51100000000E-03 0. -1.
        -11    1    4    4    0    0 -0.16236791240E+02 -0.12421639876E+02 -0.23032049022E+02  0.30796197970E+02  0.51100000000E-03 0.  1.
         12    1    4    4    0    0 -0.63778831563E+01 -0.38952051529E+01  0.17217122236E+01  0.76690488145E+01  0.00000000000E+00 0. -1.
</event>
<event>
 8    1  0.1164123E-009  0.9118800E+02  0.7816164E-02  0.1184000E+00
        -11   -1    0    0    0    0  0.00000000000E+00  0.00000000000E+00  0.45593999997E+02  0.45594000000E+02  0.51100000000E-03 0. -1.
         11   -1    0    0    0    0 -0.00000000000E+00 -0.00000000000E+00 -0.45593999997E+02  0.45594000000E+02  0.51100000000E-03 0.  1.
         23    2    1    2    0    0  0.44408920985E-15 -0.71054273576E-14  0.00000000000E+00  0.91188000000E+02  0.91188000000E+02 0.  0.
    9900012    2    3    3    0    0 -0.23165979079E+01  0.40814534824E+02  0.14574995227E+02  0.47787269999E+02  0.19999995232E+02 0.  0.
        -12    1    3    3    0    0  0.23165979079E+01 -0.40814534824E+02 -0.14574995227E+02  0.43400730001E+02  0.00000000000E+00 0.  1.
         11    1    4    4    0    0 -0.36392486146E+00  0.95259913405E+01 -0.20490516633E+01  0.97506699926E+01  0.51100000000E-03 0. -1.
        -11    1    4    4    0    0  0.27368574282E+01  0.41084271390E+01 -0.13467991610E+01  0.51169747293E+01  0.51100000000E-03 0.  1.
        -12    1    4    4    0    0 -0.46895304746E+01  0.27180116345E+02  0.17970846051E+02  0.32919625277E+02  0.00000000000E+00 0.  1.
</event>
<event>
 8    1  0.1164123E-009  0.9118800E+02  0.7816164E-02  0.1184000E+00
        -11   -1    0    0    0    0  0.00000000000E+00  0.00000000000E+00  0.45593999997E+02  0.45594000000E+02  0.51100000000E-03 0. -1.
         11   -1    0    0    0    0 -0.00000000000E+00 -0.00000000000E+00 -0.45593999997E+02  0.45594000000E+02  0.51100000000E-03 0.  1.
         23    2    1    2    0    0  0.00000000000E+00 -0.17763568394E-14  0.00000000000E+00  0.91188000000E+02  0.91188000000E+02 0.  0.
    9900012    2    3    3    0    0  0.34197460386E+02 -0.85649153347E+01 -0.25314015579E+02  0.47787268943E+02  0.19999990417E+02 0.  0.
         12    1    3    3    0    0 -0.34197460386E+02  0.85649153347E+01  0.25314015579E+02  0.43400731057E+02  0.00000000000E+00 0. -1.
         11    1    4    4    0    0  0.28931118472E+00  0.15309234526E+01  0.90415821091E+00  0.18013688992E+01  0.51100000000E-03 0. -1.
        -11    1    4    4    0    0  0.39847354375E+01 -0.42545881254E+01 -0.96835669699E+01  0.11302703488E+02  0.51100000000E-03 0.  1.
        -12    1    4    4    0    0  0.29923413764E+02 -0.58412506620E+01 -0.16534606820E+02  0.34683196555E+02  0.00000000000E+00 0.  1.
</event>
<event>
 8    1  0.1164123E-009  0.9118800E+02  0.7816164E-02  0.1184000E+00
        -11   -1    0    0    0    0  0.00000000000E+00  0.00000000000E+00  0.45593999997E+02  0.45594000000E+02  0.51100000000E-03 0. -1.
         11   -1    0    0    0    0 -0.00000000000E+00 -0.00000000000E+00 -0.45593999997E+02  0.45594000000E+02  0.51100000000E-03 0.  1.
         23    2    1    2    0    0 -0.71054273576E-14  0.13322676296E-14  0.00000000000E+00  0.91188000000E+02  0.91188000000E+02 0.  0.
    9900012    2    3    3    0    0  0.33890485081E+02  0.17550630859E+01  0.27055107895E+02  0.47787261658E+02  0.19999957203E+02 0.  0.
        -12    1    3    3    0    0 -0.33890485081E+02 -0.17550630859E+01 -0.27055107895E+02  0.43400738342E+02  0.00000000000E+00 0.  1.
         11    1    4    4    0    0  0.15422754560E+02 -0.33796436105E+01  0.85885149689E+01  0.17973478761E+02  0.51100000000E-03 0. -1.
        -11    1    4    4    0    0  0.19442181246E+01 -0.40489273275E+01  0.31988508594E+01  0.55142038139E+01  0.51100000000E-03 0.  1.
         12    1    4    4    0    0  0.16523512396E+02  0.91836340239E+01  0.15267742067E+02  0.24299579083E+02  0.00000000000E+00 0. -1.
</event>
<event>
 8    1  0.1164123E-009  0.9118800E+02  0.7816164E-02  0.1184000E+00
        -11   -1    0    0    0    0  0.00000000000E+00  0.00000000000E+00  0.45593999997E+02  0.45594000000E+02  0.51100000000E-03 0. -1.
         11   -1    0    0    0    0 -0.00000000000E+00 -0.00000000000E+00 -0.45593999997E+02  0.45594000000E+02  0.51100000000E-03 0.  1.
         23    2    1    2    0    0  0.17763568394E-14  0.00000000000E+00  0.00000000000E+00  0.91188000000E+02  0.91188000000E+02 0.  0.
    9900012    2    3    3    0    0 -0.15439923013E+02  0.35232478877E+02 -0.20097375958E+02  0.47787270618E+02  0.19999998055E+02 0.  0.
         12    1    3    3    0    0  0.15439923013E+02 -0.35232478877E+02  0.20097375958E+02  0.43400729382E+02  0.00000000000E+00 0. -1.
         11    1    4    4    0    0 -0.35385504427E+01  0.10243307688E+01 -0.68636099150E+01  0.77897197694E+01  0.51100000000E-03 0. -1.
        -11    1    4    4    0    0 -0.41479708677E+01  0.16651023129E+02 -0.11646890538E+02  0.20739148802E+02  0.51100000000E-03 0.  1.
         12    1    4    4    0    0 -0.77534017030E+01  0.17557124980E+02 -0.15868755049E+01  0.19258402046E+02  0.00000000000E+00 0. -1.
</event>
<event>
 8    1  0.1164123E-009  0.9118800E+02  0.7816164E-02  0.1184000E+00
        -11   -1    0    0    0    0  0.00000000000E+00  0.00000000000E+00  0.45593999997E+02  0.45594000000E+02  0.51100000000E-03 0.  1.
         11   -1    0    0    0    0 -0.00000000000E+00 -0.00000000000E+00 -0.45593999997E+02  0.45594000000E+02  0.51100000000E-03 0. -1.
         23    2    1    2    0    0  0.00000000000E+00  0.17763568394E-14  0.00000000000E+00  0.91188000000E+02  0.91188000000E+02 0.  0.
    9900012    2    3    3    0    0 -0.41418628000E+02  0.12330637040E+02  0.40094554883E+01  0.47787273179E+02  0.20000009733E+02 0.  0.
        -12    1    3    3    0    0  0.41418628000E+02 -0.12330637040E+02 -0.40094554883E+01  0.43400726821E+02  0.00000000000E+00 0.  1.
         11    1    4    4    0    0 -0.11806691119E+02 -0.17740851998E+01 -0.13515185334E+01  0.12015487342E+02  0.51100000000E-03 0. -1.
        -11    1    4    4    0    0 -0.14861320225E+02  0.32973829678E-01  0.80738117755E+00  0.14883272178E+02  0.51100000000E-03 0.  1.
        -12    1    4    4    0    0 -0.14750616657E+02  0.14071748410E+02  0.45535928442E+01  0.20888513659E+02  0.00000000000E+00 0.  1.
</event>
<event>
 8    1  0.1164123E-009  0.9118800E+02  0.7816164E-02  0.1184000E+00
        -11   -1    0    0    0    0  0.00000000000E+00  0.00000000000E+00  0.45593999997E+02  0.45594000000E+02  0.51100000000E-03 0.  1.
         11   -1    0    0    0    0 -0.00000000000E+00 -0.00000000000E+00 -0.45593999997E+02  0.45594000000E+02  0.51100000000E-03 0. -1.
         23    2    1    2    0    0  0.00000000000E+00  0.00000000000E+00  0.17763568394E-14  0.91188000000E+02  0.91188000000E+02 0.  0.
    9900012    2    3    3    0    0 -0.24720101493E+02  0.34773919323E+02 -0.79570347642E+01  0.47787270914E+02  0.19999999406E+02 0.  0.
        -12    1    3    3    0    0  0.24720101493E+02 -0.34773919323E+02  0.79570347642E+01  0.43400729086E+02  0.00000000000E+00 0.  1.
         11    1    4    4    0    0 -0.11773891603E+02  0.15278586054E+02 -0.19485191662E+01  0.19387017369E+02  0.51100000000E-03 0. -1.
        -11    1    4    4    0    0 -0.84389099658E+00  0.58719080492E+01  0.44261804981E+01  0.74015221553E+01  0.51100000000E-03 0.  1.
         12    1    4    4    0    0 -0.12102318894E+02  0.13623425221E+02 -0.10434696096E+02  0.20998731390E+02  0.00000000000E+00 0. -1.
</event>
<event>
 8    1  0.1164123E-009  0.9118800E+02  0.7816164E-02  0.1184000E+00
        -11   -1    0    0    0    0  0.00000000000E+00  0.00000000000E+00  0.45593999997E+02  0.45594000000E+02  0.51100000000E-03 0. -1.
         11   -1    0    0    0    0 -0.00000000000E+00 -0.00000000000E+00 -0.45593999997E+02  0.45594000000E+02  0.51100000000E-03 0.  1.
         23    2    1    2    0    0  0.00000000000E+00  0.00000000000E+00  0.00000000000E+00  0.91188000000E+02  0.91188000000E+02 0.  0.
    9900012    2    3    3    0    0  0.42934665191E+02  0.56610172895E+01 -0.28619373665E+01  0.47787271005E+02  0.19999999821E+02 0.  0.
        -12    1    3    3    0    0 -0.42934665191E+02 -0.56610172895E+01  0.28619373665E+01  0.43400728995E+02  0.00000000000E+00 0.  1.
         11    1    4    4    0    0  0.19685484988E+02  0.64155686938E+01  0.18592000545E+01  0.20787844188E+02  0.51100000000E-03 0. -1.
        -11    1    4    4    0    0  0.73731914822E+01 -0.26941974904E+01  0.39697276814E+01  0.87966693058E+01  0.51100000000E-03 0.  1.
        -12    1    4    4    0    0  0.15875988721E+02  0.19396460861E+01 -0.86908651024E+01  0.18202757511E+02  0.00000000000E+00 0.  1.
</event>
<event>
 8    1  0.1164123E-009  0.9118800E+02  0.7816164E-02  0.1184000E+00
        -11   -1    0    0    0    0  0.00000000000E+00  0.00000000000E+00  0.45593999997E+02  0.45594000000E+02  0.51100000000E-03 0. -1.
         11   -1    0    0    0    0 -0.00000000000E+00 -0.00000000000E+00 -0.45593999997E+02  0.45594000000E+02  0.51100000000E-03 0.  1.
         23    2    1    2    0    0  0.00000000000E+00 -0.13322676296E-14  0.00000000000E+00  0.91188000000E+02  0.91188000000E+02 0.  0.
    9900012    2    3    3    0    0 -0.14923414408E+02 -0.28503021335E+01  0.40654528998E+02  0.47787271344E+02  0.20000001364E+02 0.  0.
        -12    1    3    3    0    0  0.14923414408E+02  0.28503021335E+01 -0.40654528998E+02  0.43400728656E+02  0.00000000000E+00 0.  1.
         11    1    4    4    0    0 -0.26148149079E+01  0.73837958041E+01  0.85313008107E+01  0.11581916563E+02  0.51100000000E-03 0. -1.
        -11    1    4    4    0    0 -0.54349579522E+00  0.40680854009E+00  0.56035768094E+00  0.88027374118E+00  0.51100000000E-03 0.  1.
         12    1    4    4    0    0 -0.11765103705E+02 -0.10640906478E+02  0.31562870507E+02  0.35325081040E+02  0.00000000000E+00 0. -1.
</event>
<event>
 8    1  0.1164123E-009  0.9118800E+02  0.7816164E-02  0.1184000E+00
        -11   -1    0    0    0    0  0.00000000000E+00  0.00000000000E+00  0.45593999997E+02  0.45594000000E+02  0.51100000000E-03 0. -1.
         11   -1    0    0    0    0 -0.00000000000E+00 -0.00000000000E+00 -0.45593999997E+02  0.45594000000E+02  0.51100000000E-03 0.  1.
         23    2    1    2    0    0  0.22204460493E-15  0.00000000000E+00 -0.71054273576E-14  0.91188000000E+02  0.91188000000E+02 0.  0.
    9900012    2    3    3    0    0 -0.14252288526E+01  0.93952627380E+01  0.42347572103E+02  0.47787319104E+02  0.20000219121E+02 0.  0.
        -12    1    3    3    0    0  0.14252288526E+01 -0.93952627380E+01 -0.42347572103E+02  0.43400680896E+02  0.00000000000E+00 0.  1.
         11    1    4    4    0    0 -0.94999562892E+00  0.66921649631E+01  0.13784934854E+02  0.15352914797E+02  0.51100000000E-03 0. -1.
        -11    1    4    4    0    0 -0.71793851192E+01  0.37147193679E+00  0.20333749781E+02  0.21567172798E+02  0.51100000000E-03 0.  1.
        -12    1    4    4    0    0  0.67041518955E+01  0.23316258381E+01  0.82288874691E+01  0.10867231509E+02  0.00000000000E+00 0.  1.
</event>
<event>
 8    1  0.1164123E-009  0.9118800E+02  0.7816164E-02  0.1184000E+00
        -11   -1    0    0    0    0  0.00000000000E+00  0.00000000000E+00  0.45593999997E+02  0.45594000000E+02  0.51100000000E-03 0. -1.
         11   -1    0    0    0    0 -0.00000000000E+00 -0.00000000000E+00 -0.45593999997E+02  0.45594000000E+02  0.51100000000E-03 0.  1.
         23    2    1    2    0    0 -0.11102230246E-15  0.00000000000E+00  0.00000000000E+00  0.91188000000E+02  0.91188000000E+02 0.  0.
    9900012    2    3    3    0    0  0.68419289152E+00  0.41220672902E+02  0.13565038944E+02  0.47787282540E+02  0.20000052415E+02 0.  0.
        -12    1    3    3    0    0 -0.68419289152E+00 -0.41220672902E+02 -0.13565038944E+02  0.43400717460E+02  0.00000000000E+00 0.  1.
         11    1    4    4    0    0  0.32729459748E+01  0.19213445139E+02  0.19810853555E+01  0.19590644423E+02  0.51100000000E-03 0. -1.
        -11    1    4    4    0    0 -0.27272152095E+01  0.18523457974E+01 -0.20323916704E+01  0.38729193014E+01  0.51100000000E-03 0.  1.
         12    1    4    4    0    0  0.13846212617E+00  0.20154881966E+02  0.13616345259E+02  0.24323718816E+02  0.00000000000E+00 0. -1.
</event>
<event>
 8    1  0.1164123E-009  0.9118800E+02  0.7816164E-02  0.1184000E+00
        -11   -1    0    0    0    0  0.00000000000E+00  0.00000000000E+00  0.45593999997E+02  0.45594000000E+02  0.51100000000E-03 0. -1.
         11   -1    0    0    0    0 -0.00000000000E+00 -0.00000000000E+00 -0.45593999997E+02  0.45594000000E+02  0.51100000000E-03 0.  1.
         23    2    1    2    0    0 -0.11102230246E-15 -0.71054273576E-14  0.00000000000E+00  0.91188000000E+02  0.91188000000E+02 0.  0.
    9900012    2    3    3    0    0 -0.75777812315E+00 -0.37315911645E+02 -0.22148851620E+02  0.47787272844E+02  0.20000008206E+02 0.  0.
         12    1    3    3    0    0  0.75777812315E+00  0.37315911645E+02  0.22148851620E+02  0.43400727156E+02  0.00000000000E+00 0. -1.
         11    1    4    4    0    0  0.36947239020E+01 -0.22221754071E+02 -0.87922545126E+01  0.24181833644E+02  0.51100000000E-03 0. -1.
        -11    1    4    4    0    0 -0.25501229404E+01 -0.79272794340E+01  0.14185292943E-02  0.83273578348E+01  0.51100000000E-03 0.  1.
         12    1    4    4    0    0 -0.19023790848E+01 -0.71668781397E+01 -0.13358015637E+02  0.15278081366E+02  0.00000000000E+00 0. -1.
</event>
<event>
 8    1  0.1164123E-009  0.9118800E+02  0.7816164E-02  0.1184000E+00
        -11   -1    0    0    0    0  0.00000000000E+00  0.00000000000E+00  0.45593999997E+02  0.45594000000E+02  0.51100000000E-03 0. -1.
         11   -1    0    0    0    0 -0.00000000000E+00 -0.00000000000E+00 -0.45593999997E+02  0.45594000000E+02  0.51100000000E-03 0.  1.
         23    2    1    2    0    0  0.00000000000E+00 -0.35527136788E-14 -0.35527136788E-14  0.91188000000E+02  0.91188000000E+02 0.  0.
    9900012    2    3    3    0    0 -0.43751868134E+01  0.30675012809E+02  0.30389548026E+02  0.47787270746E+02  0.19999998641E+02 0.  0.
        -12    1    3    3    0    0  0.43751868134E+01 -0.30675012809E+02 -0.30389548026E+02  0.43400729254E+02  0.00000000000E+00 0.  1.
         11    1    4    4    0    0 -0.60681004107E+01  0.63018423871E+01  0.60276427229E+01  0.10623913456E+02  0.51100000000E-03 0. -1.
        -11    1    4    4    0    0  0.61800276030E+00 -0.26036471908E+00 -0.13697565161E+01  0.15251066760E+01  0.51100000000E-03 0.  1.
        -12    1    4    4    0    0  0.10749108370E+01  0.24633535141E+02  0.25731661820E+02  0.35638250614E+02  0.00000000000E+00 0.  1.
</event>
<event>
 8    1  0.1164123E-009  0.9118800E+02  0.7816164E-02  0.1184000E+00
        -11   -1    0    0    0    0  0.00000000000E+00  0.00000000000E+00  0.45593999997E+02  0.45594000000E+02  0.51100000000E-03 0. -1.
         11   -1    0    0    0    0 -0.00000000000E+00 -0.00000000000E+00 -0.45593999997E+02  0.45594000000E+02  0.51100000000E-03 0.  1.
         23    2    1    2    0    0  0.22204460493E-15  0.00000000000E+00  0.00000000000E+00  0.91188000000E+02  0.91188000000E+02 0.  0.
    9900012    2    3    3    0    0  0.10176903694E+01  0.35132477009E+02 -0.25461676944E+02  0.47787266973E+02  0.19999981436E+02 0.  0.
         12    1    3    3    0    0 -0.10176903694E+01 -0.35132477009E+02  0.25461676944E+02  0.43400733027E+02  0.00000000000E+00 0. -1.
         11    1    4    4    0    0 -0.46892565291E+01  0.51415330765E+01 -0.13025776548E+02  0.14768051467E+02  0.51100000000E-03 0. -1.
        -11    1    4    4    0    0  0.18344841984E+01  0.63554866068E+01 -0.32160053074E+01  0.73552860367E+01  0.51100000000E-03 0.  1.
         12    1    4    4    0    0  0.38724627001E+01  0.23635457326E+02 -0.92198950878E+01  0.25663929469E+02  0.00000000000E+00 0. -1.
</event>
<event>
 8    1  0.1164123E-009  0.9118800E+02  0.7816164E-02  0.1184000E+00
        -11   -1    0    0    0    0  0.00000000000E+00  0.00000000000E+00  0.45593999997E+02  0.45594000000E+02  0.51100000000E-03 0. -1.
         11   -1    0    0    0    0 -0.00000000000E+00 -0.00000000000E+00 -0.45593999997E+02  0.45594000000E+02  0.51100000000E-03 0.  1.
         23    2    1    2    0    0  0.00000000000E+00  0.00000000000E+00  0.71054273576E-14  0.91188000000E+02  0.91188000000E+02 0.  0.
    9900012    2    3    3    0    0  0.90216985701E+01 -0.20066855446E+02  0.37410605444E+02  0.47787272676E+02  0.20000007439E+02 0.  0.
        -12    1    3    3    0    0 -0.90216985701E+01  0.20066855446E+02 -0.37410605444E+02  0.43400727324E+02  0.00000000000E+00 0.  1.
         11    1    4    4    0    0 -0.22818123728E+01 -0.47553466154E+01  0.13979681036E+01  0.54565835664E+01  0.51100000000E-03 0. -1.
        -11    1    4    4    0    0 -0.57831330429E+00 -0.85621259269E+01  0.14128463034E+02  0.16530514651E+02  0.51100000000E-03 0.  1.
         12    1    4    4    0    0  0.11881824247E+02 -0.67493829041E+01  0.21884174306E+02  0.25800174458E+02  0.00000000000E+00 0. -1.
</event>
<event>
 8    1  0.1164123E-009  0.9118800E+02  0.7816164E-02  0.1184000E+00
        -11   -1    0    0    0    0  0.00000000000E+00  0.00000000000E+00  0.45593999997E+02  0.45594000000E+02  0.51100000000E-03 0. -1.
         11   -1    0    0    0    0 -0.00000000000E+00 -0.00000000000E+00 -0.45593999997E+02  0.45594000000E+02  0.51100000000E-03 0.  1.
         23    2    1    2    0    0  0.00000000000E+00  0.17763568394E-14  0.00000000000E+00  0.91188000000E+02  0.91188000000E+02 0.  0.
    9900012    2    3    3    0    0 -0.14707509416E+02 -0.97288554821E+01  0.39656752183E+02  0.47787315029E+02  0.20000200542E+02 0.  0.
        -12    1    3    3    0    0  0.14707509416E+02  0.97288554821E+01 -0.39656752183E+02  0.43400684971E+02  0.00000000000E+00 0.  1.
         11    1    4    4    0    0 -0.12419560526E+02  0.15249492909E+01  0.23486055348E+02  0.26611383843E+02  0.51100000000E-03 0. -1.
        -11    1    4    4    0    0 -0.42229082199E+01 -0.29650096946E+01  0.60019663218E+01  0.79150386172E+01  0.51100000000E-03 0.  1.
         12    1    4    4    0    0  0.19349593291E+01 -0.82887950784E+01  0.10168730514E+02  0.13260892569E+02  0.00000000000E+00 0. -1.
</event>
<event>
 8    1  0.1164123E-009  0.9118800E+02  0.7816164E-02  0.1184000E+00
        -11   -1    0    0    0    0  0.00000000000E+00  0.00000000000E+00  0.45593999997E+02  0.45594000000E+02  0.51100000000E-03 0.  1.
         11   -1    0    0    0    0 -0.00000000000E+00 -0.00000000000E+00 -0.45593999997E+02  0.45594000000E+02  0.51100000000E-03 0. -1.
         23    2    1    2    0    0  0.00000000000E+00 -0.35527136788E-14  0.35527136788E-14  0.91188000000E+02  0.91188000000E+02 0.  0.
    9900012    2    3    3    0    0 -0.34413979903E+02 -0.16195662688E+02  0.20904588814E+02  0.47787270327E+02  0.19999996729E+02 0.  0.
        -12    1    3    3    0    0  0.34413979903E+02  0.16195662688E+02 -0.20904588814E+02  0.43400729673E+02  0.00000000000E+00 0.  1.
         11    1    4    4    0    0 -0.11596980287E+02 -0.55779236861E+00  0.22736736578E+01  0.11830920348E+02  0.51100000000E-03 0. -1.
        -11    1    4    4    0    0 -0.24366930207E+02 -0.13481781538E+02  0.15573220182E+02  0.31906596626E+02  0.51100000000E-03 0.  1.
        -12    1    4    4    0    0  0.15499305910E+01 -0.21560887815E+01  0.30576949743E+01  0.40497533538E+01  0.00000000000E+00 0.  1.
</event>
<event>
 8    1  0.1164123E-009  0.9118800E+02  0.7816164E-02  0.1184000E+00
        -11   -1    0    0    0    0  0.00000000000E+00  0.00000000000E+00  0.45593999997E+02  0.45594000000E+02  0.51100000000E-03 0. -1.
         11   -1    0    0    0    0 -0.00000000000E+00 -0.00000000000E+00 -0.45593999997E+02  0.45594000000E+02  0.51100000000E-03 0.  1.
         23    2    1    2    0    0  0.17763568394E-14  0.00000000000E+00 -0.71054273576E-14  0.91188000000E+02  0.91188000000E+02 0.  0.
    9900012    2    3    3    0    0  0.95878030831E+01 -0.24288995319E+02  0.34666146620E+02  0.47787274395E+02  0.20000015277E+02 0.  0.
        -12    1    3    3    0    0 -0.95878030831E+01  0.24288995319E+02 -0.34666146620E+02  0.43400725605E+02  0.00000000000E+00 0.  1.
         11    1    4    4    0    0  0.37646381824E+00 -0.22889812508E+00  0.11470680910E+01  0.12287737077E+01  0.51100000000E-03 0. -1.
        -11    1    4    4    0    0  0.82789887310E+01 -0.27190337244E+02  0.32413720184E+02  0.43110385643E+02  0.51100000000E-03 0.  1.
        -12    1    4    4    0    0  0.93235053386E+00  0.31302400504E+01  0.11053583454E+01  0.34481150449E+01  0.00000000000E+00 0.  1.
</event>
<event>
 8    1  0.1164123E-009  0.9118800E+02  0.7816164E-02  0.1184000E+00
        -11   -1    0    0    0    0  0.00000000000E+00  0.00000000000E+00  0.45593999997E+02  0.45594000000E+02  0.51100000000E-03 0. -1.
         11   -1    0    0    0    0 -0.00000000000E+00 -0.00000000000E+00 -0.45593999997E+02  0.45594000000E+02  0.51100000000E-03 0.  1.
         23    2    1    2    0    0  0.00000000000E+00  0.00000000000E+00  0.00000000000E+00  0.91188000000E+02  0.91188000000E+02 0.  0.
    9900012    2    3    3    0    0  0.18200635357E+02 -0.10731683276E+02  0.37910303750E+02  0.47787270931E+02  0.19999999482E+02 0.  0.
        -12    1    3    3    0    0 -0.18200635357E+02  0.10731683276E+02 -0.37910303750E+02  0.43400729069E+02  0.00000000000E+00 0.  1.
         11    1    4    4    0    0 -0.17330479569E+01 -0.53886537383E+01  0.93582159068E+01  0.10936967109E+02  0.51100000000E-03 0.  1.
        -11    1    4    4    0    0  0.23489009279E+01  0.29116983666E+01  0.61522525081E+01  0.72003843044E+01  0.51100000000E-03 0. -1.
         12    1    4    4    0    0  0.17584782386E+02 -0.82547279038E+01  0.22399835335E+02  0.29649919517E+02  0.00000000000E+00 0. -1.
</event>
<event>
 8    1  0.1309455E-009  0.9118800E+02  0.7816164E-02  0.1184000E+00
        -11   -1    0    0    0    0  0.00000000000E+00  0.00000000000E+00  0.45593999997E+02  0.45594000000E+02  0.51100000000E-03 0. -1.
         11   -1    0    0    0    0 -0.00000000000E+00 -0.00000000000E+00 -0.45593999997E+02  0.45594000000E+02  0.51100000000E-03 0.  1.
         23    2    1    2    0    0  0.88817841970E-15  0.35527136788E-14  0.00000000000E+00  0.91188000000E+02  0.91188000000E+02 0.  0.
    9900012    2    3    3    0    0  0.52323537477E+01  0.20761848007E+02 -0.37751711040E+02  0.47787267922E+02  0.19999985764E+02 0.  0.
         12    1    3    3    0    0 -0.52323537477E+01 -0.20761848007E+02  0.37751711040E+02  0.43400732078E+02  0.00000000000E+00 0. -1.
         11    1    4    4    0    0 -0.37990215451E+01  0.13787733171E+01 -0.40309333317E+01  0.57080648512E+01  0.51100000000E-03 0. -1.
        -11    1    4    4    0    0 -0.15982890506E+01  0.25324315333E+01 -0.97159972390E-01  0.29961938659E+01  0.51100000000E-03 0.  1.
        -12    1    4    4    0    0  0.10629664343E+02  0.16850643157E+02 -0.33623617736E+02  0.39083009205E+02  0.00000000000E+00 0.  1.
</event>
<event>
 8    1  0.1164123E-009  0.9118800E+02  0.7816164E-02  0.1184000E+00
        -11   -1    0    0    0    0  0.00000000000E+00  0.00000000000E+00  0.45593999997E+02  0.45594000000E+02  0.51100000000E-03 0. -1.
         11   -1    0    0    0    0 -0.00000000000E+00 -0.00000000000E+00 -0.45593999997E+02  0.45594000000E+02  0.51100000000E-03 0.  1.
         23    2    1    2    0    0  0.00000000000E+00 -0.88817841970E-15  0.00000000000E+00  0.91188000000E+02  0.91188000000E+02 0.  0.
    9900012    2    3    3    0    0  0.23027106248E+01 -0.62473269608E+01 -0.42886961202E+02  0.47787274067E+02  0.20000013780E+02 0.  0.
         12    1    3    3    0    0 -0.23027106248E+01  0.62473269608E+01  0.42886961202E+02  0.43400725933E+02  0.00000000000E+00 0. -1.
         11    1    4    4    0    0  0.25775004808E+01  0.23510842519E+00 -0.26041496499E+02  0.26169797952E+02  0.51100000000E-03 0. -1.
        -11    1    4    4    0    0 -0.23350353200E+01 -0.87988914456E+00 -0.15230454469E+02  0.15433513484E+02  0.51100000000E-03 0.  1.
         12    1    4    4    0    0  0.20602454640E+01 -0.56025462415E+01 -0.16150102338E+01  0.61839626305E+01  0.00000000000E+00 0. -1.
</event>
<event>
 8    1  0.1164123E-009  0.9118800E+02  0.7816164E-02  0.1184000E+00
        -11   -1    0    0    0    0  0.00000000000E+00  0.00000000000E+00  0.45593999997E+02  0.45594000000E+02  0.51100000000E-03 0. -1.
         11   -1    0    0    0    0 -0.00000000000E+00 -0.00000000000E+00 -0.45593999997E+02  0.45594000000E+02  0.51100000000E-03 0.  1.
         23    2    1    2    0    0  0.00000000000E+00  0.00000000000E+00  0.00000000000E+00  0.91188000000E+02  0.91188000000E+02 0.  0.
    9900012    2    3    3    0    0  0.40418816903E+02 -0.94116371964E+01 -0.12702892729E+02  0.47787272376E+02  0.20000006073E+02 0.  0.
         12    1    3    3    0    0 -0.40418816903E+02  0.94116371964E+01  0.12702892729E+02  0.43400727624E+02  0.00000000000E+00 0. -1.
         11    1    4    4    0    0  0.11693834648E+01  0.12753191595E+01  0.23098226699E+01  0.28860314748E+01  0.51100000000E-03 0. -1.
        -11    1    4    4    0    0  0.13033143965E+02 -0.10323855614E+01  0.23004860014E+00  0.13075992665E+02  0.51100000000E-03 0.  1.
        -12    1    4    4    0    0  0.26216289473E+02 -0.96545707945E+01 -0.15242763999E+02  0.31825248236E+02  0.00000000000E+00 0.  1.
</event>
<event>
 8    1  0.1164123E-009  0.9118800E+02  0.7816164E-02  0.1184000E+00
        -11   -1    0    0    0    0  0.00000000000E+00  0.00000000000E+00  0.45593999997E+02  0.45594000000E+02  0.51100000000E-03 0. -1.
         11   -1    0    0    0    0 -0.00000000000E+00 -0.00000000000E+00 -0.45593999997E+02  0.45594000000E+02  0.51100000000E-03 0.  1.
         23    2    1    2    0    0 -0.71054273576E-14  0.00000000000E+00 -0.35527136788E-14  0.91188000000E+02  0.91188000000E+02 0.  0.
    9900012    2    3    3    0    0  0.37408240536E+02  0.20057178227E+02  0.90529757773E+01  0.47787271564E+02  0.20000002367E+02 0.  0.
        -12    1    3    3    0    0 -0.37408240536E+02 -0.20057178227E+02 -0.90529757773E+01  0.43400728436E+02  0.00000000000E+00 0.  1.
         11    1    4    4    0    0  0.29068344084E+01  0.16570045946E+01  0.72467847477E+01  0.79819320935E+01  0.51100000000E-03 0.  1.
        -11    1    4    4    0    0  0.13484591778E+02  0.48500729288E+01  0.34679512619E+01  0.14743951609E+02  0.51100000000E-03 0. -1.
         12    1    4    4    0    0  0.21016814349E+02  0.13550100703E+02 -0.16617602323E+01  0.25061387861E+02  0.00000000000E+00 0. -1.
</event>
<event>
 8    1  0.1164123E-009  0.9118800E+02  0.7816164E-02  0.1184000E+00
        -11   -1    0    0    0    0  0.00000000000E+00  0.00000000000E+00  0.45593999997E+02  0.45594000000E+02  0.51100000000E-03 0. -1.
         11   -1    0    0    0    0 -0.00000000000E+00 -0.00000000000E+00 -0.45593999997E+02  0.45594000000E+02  0.51100000000E-03 0.  1.
         23    2    1    2    0    0  0.35527136788E-14  0.88817841970E-15  0.00000000000E+00  0.91188000000E+02  0.91188000000E+02 0.  0.
    9900012    2    3    3    0    0 -0.21494168613E+02 -0.62882838360E+01  0.37176352397E+02  0.47787274482E+02  0.20000015675E+02 0.  0.
        -12    1    3    3    0    0  0.21494168613E+02  0.62882838360E+01 -0.37176352397E+02  0.43400725518E+02  0.00000000000E+00 0.  1.
         11    1    4    4    0    0 -0.12758530698E+01 -0.28808815824E+01  0.10886513993E+00  0.31526388355E+01  0.51100000000E-03 0. -1.
        -11    1    4    4    0    0  0.21205480619E+01  0.51957624583E+00  0.32556455188E+01  0.39199376989E+01  0.51100000000E-03 0.  1.
         12    1    4    4    0    0 -0.22338863605E+02 -0.39269784995E+01  0.33811841738E+02  0.40714697948E+02  0.00000000000E+00 0. -1.
</event>
<event>
 8    1  0.1164123E-009  0.9118800E+02  0.7816164E-02  0.1184000E+00
        -11   -1    0    0    0    0  0.00000000000E+00  0.00000000000E+00  0.45593999997E+02  0.45594000000E+02  0.51100000000E-03 0. -1.
         11   -1    0    0    0    0 -0.00000000000E+00 -0.00000000000E+00 -0.45593999997E+02  0.45594000000E+02  0.51100000000E-03 0.  1.
         23    2    1    2    0    0  0.00000000000E+00  0.00000000000E+00  0.71054273576E-14  0.91188000000E+02  0.91188000000E+02 0.  0.
    9900012    2    3    3    0    0 -0.97454915417E+01  0.16855580797E+02  0.38788391164E+02  0.47787256937E+02  0.19999935677E+02 0.  0.
        -12    1    3    3    0    0  0.97454915417E+01 -0.16855580797E+02 -0.38788391164E+02  0.43400743063E+02  0.00000000000E+00 0.  1.
         11    1    4    4    0    0 -0.22409413956E+01  0.36141330048E+01  0.51026616124E+01  0.66423588812E+01  0.51100000000E-03 0. -1.
        -11    1    4    4    0    0 -0.10677525098E+02  0.16581949647E+01  0.10679198589E+02  0.15192249193E+02  0.51100000000E-03 0.  1.
         12    1    4    4    0    0  0.31729749518E+01  0.11583252827E+02  0.23006530962E+02  0.25952648863E+02  0.00000000000E+00 0. -1.
</event>
<event>
 8    1  0.1164123E-009  0.9118800E+02  0.7816164E-02  0.1184000E+00
        -11   -1    0    0    0    0  0.00000000000E+00  0.00000000000E+00  0.45593999997E+02  0.45594000000E+02  0.51100000000E-03 0. -1.
         11   -1    0    0    0    0 -0.00000000000E+00 -0.00000000000E+00 -0.45593999997E+02  0.45594000000E+02  0.51100000000E-03 0.  1.
         23    2    1    2    0    0  0.00000000000E+00  0.00000000000E+00 -0.71054273576E-14  0.91188000000E+02  0.91188000000E+02 0.  0.
    9900012    2    3    3    0    0 -0.17770396705E+02 -0.19618957202E+02 -0.34393790553E+02  0.47787270635E+02  0.19999998135E+02 0.  0.
         12    1    3    3    0    0  0.17770396705E+02  0.19618957202E+02  0.34393790553E+02  0.43400729365E+02  0.00000000000E+00 0. -1.
         11    1    4    4    0    0 -0.60563326405E+01 -0.13010925096E+02 -0.16614617822E+02  0.21954700238E+02  0.51100000000E-03 0. -1.
        -11    1    4    4    0    0 -0.17657435324E+01 -0.61761644698E+01 -0.12626507538E+01  0.65465368683E+01  0.51100000000E-03 0.  1.
         12    1    4    4    0    0 -0.99483205325E+01 -0.43186763666E+00 -0.16516521977E+02  0.19286033529E+02  0.00000000000E+00 0. -1.
</event>
<event>
 8    1  0.1164123E-009  0.9118800E+02  0.7816164E-02  0.1184000E+00
        -11   -1    0    0    0    0  0.00000000000E+00  0.00000000000E+00  0.45593999997E+02  0.45594000000E+02  0.51100000000E-03 0. -1.
         11   -1    0    0    0    0 -0.00000000000E+00 -0.00000000000E+00 -0.45593999997E+02  0.45594000000E+02  0.51100000000E-03 0.  1.
         23    2    1    2    0    0  0.71054273576E-14  0.17763568394E-14 -0.35527136788E-14  0.91188000000E+02  0.91188000000E+02 0.  0.
    9900012    2    3    3    0    0 -0.33726732451E+02 -0.14086360520E+02  0.23403103103E+02  0.47787271096E+02  0.20000000235E+02 0.  0.
        -12    1    3    3    0    0  0.33726732451E+02  0.14086360520E+02 -0.23403103103E+02  0.43400728904E+02  0.00000000000E+00 0.  1.
         11    1    4    4    0    0  0.27185311187E-01 -0.12126244112E+00 -0.93474790232E+00  0.94297270522E+00  0.51100000000E-03 0. -1.
        -11    1    4    4    0    0 -0.61881109286E+00  0.15742434477E+01  0.53558392639E+01  0.56165989783E+01  0.51100000000E-03 0.  1.
         12    1    4    4    0    0 -0.33135106670E+02 -0.15539341527E+02  0.18982011741E+02  0.41227699412E+02  0.00000000000E+00 0. -1.
</event>
<event>
 8    1  0.1164123E-009  0.9118800E+02  0.7816164E-02  0.1184000E+00
        -11   -1    0    0    0    0  0.00000000000E+00  0.00000000000E+00  0.45593999997E+02  0.45594000000E+02  0.51100000000E-03 0. -1.
         11   -1    0    0    0    0 -0.00000000000E+00 -0.00000000000E+00 -0.45593999997E+02  0.45594000000E+02  0.51100000000E-03 0.  1.
         23    2    1    2    0    0  0.00000000000E+00  0.00000000000E+00 -0.35527136788E-14  0.91188000000E+02  0.91188000000E+02 0.  0.
    9900012    2    3    3    0    0  0.36708227029E+02  0.10848106097E+02  0.20456002898E+02  0.47787269683E+02  0.19999993792E+02 0.  0.
        -12    1    3    3    0    0 -0.36708227029E+02 -0.10848106097E+02 -0.20456002898E+02  0.43400730317E+02  0.00000000000E+00 0.  1.
         11    1    4    4    0    0  0.10339829148E+02  0.51869027718E+01  0.87364361219E+01  0.14496252742E+02  0.51100000000E-03 0. -1.
        -11    1    4    4    0    0  0.10060899282E+02  0.50257153009E+01  0.12672687150E+02  0.16943332273E+02  0.51100000000E-03 0.  1.
         12    1    4    4    0    0  0.16307498598E+02  0.63548802435E+00 -0.95312037394E+00  0.16347684668E+02  0.00000000000E+00 0. -1.
</event>
<event>
 8    1  0.1164123E-009  0.9118800E+02  0.7816164E-02  0.1184000E+00
        -11   -1    0    0    0    0  0.00000000000E+00  0.00000000000E+00  0.45593999997E+02  0.45594000000E+02  0.51100000000E-03 0. -1.
         11   -1    0    0    0    0 -0.00000000000E+00 -0.00000000000E+00 -0.45593999997E+02  0.45594000000E+02  0.51100000000E-03 0.  1.
         23    2    1    2    0    0  0.00000000000E+00  0.00000000000E+00  0.00000000000E+00  0.91188000000E+02  0.91188000000E+02 0.  0.
    9900012    2    3    3    0    0  0.60890347977E+01 -0.19320184970E+02  0.38383294096E+02  0.47787272383E+02  0.20000006103E+02 0.  0.
        -12    1    3    3    0    0 -0.60890347977E+01  0.19320184970E+02 -0.38383294096E+02  0.43400727617E+02  0.00000000000E+00 0.  1.
         11    1    4    4    0    0 -0.22980024576E+01 -0.13183098962E+00  0.14706530179E+02  0.14885571029E+02  0.51100000000E-03 0. -1.
        -11    1    4    4    0    0  0.25679162577E+00 -0.32503124289E-01  0.47964027745E+01  0.48033819574E+01  0.51100000000E-03 0.  1.
        -12    1    4    4    0    0  0.81302456296E+01 -0.19155850856E+02  0.18880361142E+02  0.28098319396E+02  0.00000000000E+00 0.  1.
</event>
<event>
 8    1  0.1164123E-009  0.9118800E+02  0.7816164E-02  0.1184000E+00
        -11   -1    0    0    0    0  0.00000000000E+00  0.00000000000E+00  0.45593999997E+02  0.45594000000E+02  0.51100000000E-03 0.  1.
         11   -1    0    0    0    0 -0.00000000000E+00 -0.00000000000E+00 -0.45593999997E+02  0.45594000000E+02  0.51100000000E-03 0. -1.
         23    2    1    2    0    0  0.71054273576E-14 -0.35527136788E-14  0.00000000000E+00  0.91188000000E+02  0.91188000000E+02 0.  0.
    9900012    2    3    3    0    0 -0.35741773125E+02 -0.24291177579E+02  0.40109606893E+01  0.47787268901E+02  0.19999990227E+02 0.  0.
        -12    1    3    3    0    0  0.35741773125E+02  0.24291177579E+02 -0.40109606893E+01  0.43400731099E+02  0.00000000000E+00 0.  1.
         11    1    4    4    0    0 -0.13182708887E+02 -0.49245535618E+01 -0.35022644828E+01  0.14501755003E+02  0.51100000000E-03 0. -1.
        -11    1    4    4    0    0 -0.39039497197E-01  0.79829795740E+00  0.25243819952E+01  0.26478875411E+01  0.51100000000E-03 0.  1.
         12    1    4    4    0    0 -0.22520024740E+02 -0.20164921975E+02  0.49888431768E+01  0.30637626357E+02  0.00000000000E+00 0. -1.
</event>
<event>
 8    1  0.1164123E-009  0.9118800E+02  0.7816164E-02  0.1184000E+00
        -11   -1    0    0    0    0  0.00000000000E+00  0.00000000000E+00  0.45593999997E+02  0.45594000000E+02  0.51100000000E-03 0.  1.
         11   -1    0    0    0    0 -0.00000000000E+00 -0.00000000000E+00 -0.45593999997E+02  0.45594000000E+02  0.51100000000E-03 0. -1.
         23    2    1    2    0    0  0.00000000000E+00  0.35527136788E-14  0.00000000000E+00  0.91188000000E+02  0.91188000000E+02 0.  0.
    9900012    2    3    3    0    0 -0.28307693604E+02 -0.23975659601E+02 -0.22526994227E+02  0.47787271442E+02  0.20000001812E+02 0.  0.
         12    1    3    3    0    0  0.28307693604E+02  0.23975659601E+02  0.22526994227E+02  0.43400728558E+02  0.00000000000E+00 0. -1.
         11    1    4    4    0    0 -0.57655845849E+01 -0.52692041811E+01 -0.18814288315E+01  0.80340682731E+01  0.51100000000E-03 0.  1.
        -11    1    4    4    0    0 -0.21692595324E+01 -0.78791911946E+01  0.85455461292E+00  0.82169096775E+01  0.51100000000E-03 0. -1.
         12    1    4    4    0    0 -0.20372849487E+02 -0.10827264225E+02 -0.21500120008E+02  0.31536293491E+02  0.00000000000E+00 0. -1.
</event>
<event>
 8    1  0.1164123E-009  0.9118800E+02  0.7816164E-02  0.1184000E+00
        -11   -1    0    0    0    0  0.00000000000E+00  0.00000000000E+00  0.45593999997E+02  0.45594000000E+02  0.51100000000E-03 0. -1.
         11   -1    0    0    0    0 -0.00000000000E+00 -0.00000000000E+00 -0.45593999997E+02  0.45594000000E+02  0.51100000000E-03 0.  1.
         23    2    1    2    0    0  0.00000000000E+00  0.00000000000E+00  0.35527136788E-14  0.91188000000E+02  0.91188000000E+02 0.  0.
    9900012    2    3    3    0    0  0.26605092149E+02  0.25503445548E+02  0.22920874827E+02  0.47787272289E+02  0.20000005674E+02 0.  0.
        -12    1    3    3    0    0 -0.26605092149E+02 -0.25503445548E+02 -0.22920874827E+02  0.43400727711E+02  0.00000000000E+00 0.  1.
         11    1    4    4    0    0  0.98241183886E+00 -0.76557400809E+00  0.85256209742E+00  0.15093372632E+01  0.51100000000E-03 0.  1.
        -11    1    4    4    0    0  0.10480634267E+02  0.23900910671E+01  0.12364329010E+02  0.16383920840E+02  0.51100000000E-03 0. -1.
         12    1    4    4    0    0  0.15142046043E+02  0.23878928489E+02  0.97039837187E+01  0.29894014186E+02  0.00000000000E+00 0. -1.
</event>
<event>
 8    1  0.1164123E-009  0.9118800E+02  0.7816164E-02  0.1184000E+00
        -11   -1    0    0    0    0  0.00000000000E+00  0.00000000000E+00  0.45593999997E+02  0.45594000000E+02  0.51100000000E-03 0. -1.
         11   -1    0    0    0    0 -0.00000000000E+00 -0.00000000000E+00 -0.45593999997E+02  0.45594000000E+02  0.51100000000E-03 0.  1.
         23    2    1    2    0    0  0.00000000000E+00  0.22204460493E-15  0.00000000000E+00  0.91188000000E+02  0.91188000000E+02 0.  0.
    9900012    2    3    3    0    0 -0.94084571519E+01  0.11482409969E+01 -0.42353109079E+02  0.47787269914E+02  0.19999994845E+02 0.  0.
         12    1    3    3    0    0  0.94084571519E+01 -0.11482409969E+01  0.42353109079E+02  0.43400730086E+02  0.00000000000E+00 0. -1.
         11    1    4    4    0    0 -0.58869132366E+01  0.18178439915E+01 -0.55941879632E+01  0.83219735316E+01  0.51100000000E-03 0. -1.
        -11    1    4    4    0    0 -0.12270528739E+01 -0.54596299250E+01 -0.58198434585E+01  0.80736482346E+01  0.51100000000E-03 0.  1.
         12    1    4    4    0    0 -0.22944910413E+01  0.47900269304E+01 -0.30939077657E+02  0.31391648148E+02  0.00000000000E+00 0. -1.
</event>
<event>
 8    1  0.1164123E-009  0.9118800E+02  0.7816164E-02  0.1184000E+00
        -11   -1    0    0    0    0  0.00000000000E+00  0.00000000000E+00  0.45593999997E+02  0.45594000000E+02  0.51100000000E-03 0. -1.
         11   -1    0    0    0    0 -0.00000000000E+00 -0.00000000000E+00 -0.45593999997E+02  0.45594000000E+02  0.51100000000E-03 0.  1.
         23    2    1    2    0    0  0.00000000000E+00  0.35527136788E-14  0.71054273576E-14  0.91188000000E+02  0.91188000000E+02 0.  0.
    9900012    2    3    3    0    0 -0.11167577403E+02  0.20074857032E+02  0.36822662630E+02  0.47787272436E+02  0.20000006345E+02 0.  0.
        -12    1    3    3    0    0  0.11167577403E+02 -0.20074857032E+02 -0.36822662630E+02  0.43400727564E+02  0.00000000000E+00 0.  1.
         11    1    4    4    0    0 -0.14219284541E+02  0.19720192075E+02  0.36406007362E+02  0.43777521637E+02  0.51100000000E-03 0. -1.
        -11    1    4    4    0    0  0.12811936052E+01  0.10283290406E+01  0.11208269129E+01  0.19887611469E+01  0.51100000000E-03 0.  1.
         12    1    4    4    0    0  0.17705135333E+01 -0.67366408327E+00 -0.70417164519E+00  0.20209896523E+01  0.00000000000E+00 0. -1.
</event>
<event>
 8    1  0.1164123E-009  0.9118800E+02  0.7816164E-02  0.1184000E+00
        -11   -1    0    0    0    0  0.00000000000E+00  0.00000000000E+00  0.45593999997E+02  0.45594000000E+02  0.51100000000E-03 0. -1.
         11   -1    0    0    0    0 -0.00000000000E+00 -0.00000000000E+00 -0.45593999997E+02  0.45594000000E+02  0.51100000000E-03 0.  1.
         23    2    1    2    0    0  0.35527136788E-14  0.00000000000E+00  0.35527136788E-14  0.91188000000E+02  0.91188000000E+02 0.  0.
    9900012    2    3    3    0    0  0.19738075158E+02  0.22786992963E+02  0.31221541814E+02  0.47787270369E+02  0.19999996921E+02 0.  0.
        -12    1    3    3    0    0 -0.19738075158E+02 -0.22786992963E+02 -0.31221541814E+02  0.43400729631E+02  0.00000000000E+00 0.  1.
         11    1    4    4    0    0  0.33376777425E+01 -0.15316367091E+01  0.41234155844E+01  0.55216446884E+01  0.51100000000E-03 0. -1.
        -11    1    4    4    0    0  0.32563997414E+01  0.16791277824E+01 -0.10642393894E+01  0.38152608200E+01  0.51100000000E-03 0.  1.
         12    1    4    4    0    0  0.13143997674E+02  0.22639501890E+02  0.28162365619E+02  0.38450364861E+02  0.00000000000E+00 0. -1.
</event>
<event>
 8    1  0.1182113E-009  0.9118800E+02  0.7816164E-02  0.1184000E+00
        -11   -1    0    0    0    0  0.00000000000E+00  0.00000000000E+00  0.45593999997E+02  0.45594000000E+02  0.51100000000E-03 0. -1.
         11   -1    0    0    0    0 -0.00000000000E+00 -0.00000000000E+00 -0.45593999997E+02  0.45594000000E+02  0.51100000000E-03 0.  1.
         23    2    1    2    0    0  0.00000000000E+00  0.00000000000E+00  0.00000000000E+00  0.91188000000E+02  0.91188000000E+02 0.  0.
    9900012    2    3    3    0    0 -0.21934828616E+02 -0.11714187095E+02 -0.35570554944E+02  0.47787271150E+02  0.20000000481E+02 0.  0.
         12    1    3    3    0    0  0.21934828616E+02  0.11714187095E+02  0.35570554944E+02  0.43400728850E+02  0.00000000000E+00 0. -1.
         11    1    4    4    0    0 -0.23011740674E+01  0.10958887482E+01 -0.37119154414E+00  0.25756858621E+01  0.51100000000E-03 0. -1.
        -11    1    4    4    0    0 -0.26304329175E+01 -0.10670172706E+02 -0.10913010167E+02  0.15487593553E+02  0.51100000000E-03 0.  1.
        -12    1    4    4    0    0 -0.17003221632E+02 -0.21399031369E+01 -0.24286353233E+02  0.29723991734E+02  0.00000000000E+00 0.  1.
</event>
<event>
 8    1  0.1164123E-009  0.9118800E+02  0.7816164E-02  0.1184000E+00
        -11   -1    0    0    0    0  0.00000000000E+00  0.00000000000E+00  0.45593999997E+02  0.45594000000E+02  0.51100000000E-03 0. -1.
         11   -1    0    0    0    0 -0.00000000000E+00 -0.00000000000E+00 -0.45593999997E+02  0.45594000000E+02  0.51100000000E-03 0.  1.
         23    2    1    2    0    0  0.35527136788E-14  0.00000000000E+00 -0.14210854715E-13  0.91188000000E+02  0.91188000000E+02 0.  0.
    9900012    2    3    3    0    0 -0.23683348571E+02 -0.19388036950E+01  0.36317544796E+02  0.47787262457E+02  0.19999960847E+02 0.  0.
        -12    1    3    3    0    0  0.23683348571E+02  0.19388036950E+01 -0.36317544796E+02  0.43400737543E+02  0.00000000000E+00 0.  1.
         11    1    4    4    0    0 -0.84635406400E+01 -0.15167162483E+01  0.17969536901E+02  0.19920748104E+02  0.51100000000E-03 0. -1.
        -11    1    4    4    0    0 -0.17234502612E+02  0.68185045934E+00  0.18812614905E+02  0.25522685598E+02  0.51100000000E-03 0.  1.
        -12    1    4    4    0    0  0.20146946809E+01 -0.11039379060E+01 -0.46460701013E+00  0.23438287547E+01  0.00000000000E+00 0.  1.
</event>
<event>
 8    1  0.1164123E-009  0.9118800E+02  0.7816164E-02  0.1184000E+00
        -11   -1    0    0    0    0  0.00000000000E+00  0.00000000000E+00  0.45593999997E+02  0.45594000000E+02  0.51100000000E-03 0. -1.
         11   -1    0    0    0    0 -0.00000000000E+00 -0.00000000000E+00 -0.45593999997E+02  0.45594000000E+02  0.51100000000E-03 0.  1.
         23    2    1    2    0    0  0.00000000000E+00 -0.35527136788E-14  0.35527136788E-14  0.91188000000E+02  0.91188000000E+02 0.  0.
    9900012    2    3    3    0    0 -0.23277768513E+02  0.18615051109E+02  0.31547539995E+02  0.47787286705E+02  0.20000071402E+02 0.  0.
        -12    1    3    3    0    0  0.23277768513E+02 -0.18615051109E+02 -0.31547539995E+02  0.43400713295E+02  0.00000000000E+00 0.  1.
         11    1    4    4    0    0 -0.44856437749E+01 -0.24838503316E+01  0.11031658108E+02  0.12165031583E+02  0.51100000000E-03 0. -1.
        -11    1    4    4    0    0 -0.49601181825E+01  0.18344723520E+01  0.50270969113E+01  0.72965584224E+01  0.51100000000E-03 0.  1.
         12    1    4    4    0    0 -0.13832006556E+02  0.19264429089E+02  0.15488784976E+02  0.28325696700E+02  0.00000000000E+00 0. -1.
</event>
<event>
 8    1  0.1164123E-009  0.9118800E+02  0.7816164E-02  0.1184000E+00
        -11   -1    0    0    0    0  0.00000000000E+00  0.00000000000E+00  0.45593999997E+02  0.45594000000E+02  0.51100000000E-03 0. -1.
         11   -1    0    0    0    0 -0.00000000000E+00 -0.00000000000E+00 -0.45593999997E+02  0.45594000000E+02  0.51100000000E-03 0.  1.
         23    2    1    2    0    0  0.00000000000E+00  0.17763568394E-14  0.35527136788E-14  0.91188000000E+02  0.91188000000E+02 0.  0.
    9900012    2    3    3    0    0  0.25739791945E+02 -0.15600477811E+02 -0.31268383311E+02  0.47787267377E+02  0.19999983279E+02 0.  0.
         12    1    3    3    0    0 -0.25739791945E+02  0.15600477811E+02  0.31268383311E+02  0.43400732623E+02  0.00000000000E+00 0. -1.
         11    1    4    4    0    0  0.30356817176E+00 -0.31864743116E+01 -0.10000390207E+02  0.10500170319E+02  0.51100000000E-03 0. -1.
        -11    1    4    4    0    0  0.49754512416E+01 -0.29170387992E+01 -0.11173133930E+02  0.12573907607E+02  0.51100000000E-03 0.  1.
        -12    1    4    4    0    0  0.20460772532E+02 -0.94969647004E+01 -0.10094859174E+02  0.24713189451E+02  0.00000000000E+00 0.  1.
</event>
<event>
 8    1  0.1164123E-009  0.9118800E+02  0.7816164E-02  0.1184000E+00
        -11   -1    0    0    0    0  0.00000000000E+00  0.00000000000E+00  0.45593999997E+02  0.45594000000E+02  0.51100000000E-03 0. -1.
         11   -1    0    0    0    0 -0.00000000000E+00 -0.00000000000E+00 -0.45593999997E+02  0.45594000000E+02  0.51100000000E-03 0.  1.
         23    2    1    2    0    0  0.35527136788E-14  0.17763568394E-14  0.00000000000E+00  0.91188000000E+02  0.91188000000E+02 0.  0.
    9900012    2    3    3    0    0  0.21261523607E+02  0.72809119089E+01 -0.37128957011E+02  0.47787268289E+02  0.19999987437E+02 0.  0.
         12    1    3    3    0    0 -0.21261523607E+02 -0.72809119089E+01  0.37128957011E+02  0.43400731711E+02  0.00000000000E+00 0. -1.
         11    1    4    4    0    0  0.93705193314E+01  0.70097831086E+01 -0.84885976711E+01  0.14456831688E+02  0.51100000000E-03 0. -1.
        -11    1    4    4    0    0  0.96494748882E+01  0.30647222617E+01 -0.95868109556E+01  0.13943164372E+02  0.51100000000E-03 0.  1.
        -12    1    4    4    0    0  0.22415293870E+01 -0.27935934614E+01 -0.19053548385E+02  0.19387272229E+02  0.00000000000E+00 0.  1.
</event>
<event>
 8    1  0.1164123E-009  0.9118800E+02  0.7816164E-02  0.1184000E+00
        -11   -1    0    0    0    0  0.00000000000E+00  0.00000000000E+00  0.45593999997E+02  0.45594000000E+02  0.51100000000E-03 0. -1.
         11   -1    0    0    0    0 -0.00000000000E+00 -0.00000000000E+00 -0.45593999997E+02  0.45594000000E+02  0.51100000000E-03 0.  1.
         23    2    1    2    0    0  0.00000000000E+00 -0.35527136788E-14  0.00000000000E+00  0.91188000000E+02  0.91188000000E+02 0.  0.
    9900012    2    3    3    0    0  0.18935055354E+02 -0.16609920054E+02  0.35343988227E+02  0.47787271098E+02  0.20000000242E+02 0.  0.
        -12    1    3    3    0    0 -0.18935055354E+02  0.16609920054E+02 -0.35343988227E+02  0.43400728902E+02  0.00000000000E+00 0.  1.
         11    1    4    4    0    0  0.62873783647E+01 -0.61641182672E+01  0.17730911443E+02  0.19796785132E+02  0.51100000000E-03 0. -1.
        -11    1    4    4    0    0 -0.30828598312E+01 -0.31070942626E+01  0.40261768760E+01  0.59471135850E+01  0.51100000000E-03 0.  1.
        -12    1    4    4    0    0  0.15730536820E+02 -0.73387075238E+01  0.13586899909E+02  0.22043372381E+02  0.00000000000E+00 0.  1.
</event>
<event>
 8    1  0.1164123E-009  0.9118800E+02  0.7816164E-02  0.1184000E+00
        -11   -1    0    0    0    0  0.00000000000E+00  0.00000000000E+00  0.45593999997E+02  0.45594000000E+02  0.51100000000E-03 0. -1.
         11   -1    0    0    0    0 -0.00000000000E+00 -0.00000000000E+00 -0.45593999997E+02  0.45594000000E+02  0.51100000000E-03 0.  1.
         23    2    1    2    0    0  0.00000000000E+00  0.00000000000E+00  0.00000000000E+00  0.91188000000E+02  0.91188000000E+02 0.  0.
    9900012    2    3    3    0    0  0.32262159207E+02 -0.31649069041E+01 -0.28857581216E+02  0.47787267909E+02  0.19999985706E+02 0.  0.
         12    1    3    3    0    0 -0.32262159207E+02  0.31649069041E+01  0.28857581216E+02  0.43400732091E+02  0.00000000000E+00 0. -1.
         11    1    4    4    0    0  0.30238599792E+01  0.22413145937E+01  0.22619103756E+01  0.43912935555E+01  0.51100000000E-03 0. -1.
        -11    1    4    4    0    0  0.41018672944E+01  0.36451710719E+00 -0.22813496910E+01  0.47077324368E+01  0.51100000000E-03 0.  1.
        -12    1    4    4    0    0  0.25136431933E+02 -0.57707386050E+01 -0.28838141900E+02  0.38688241917E+02  0.00000000000E+00 0.  1.
</event>
<event>
 8    1  0.1164123E-009  0.9118800E+02  0.7816164E-02  0.1184000E+00
        -11   -1    0    0    0    0  0.00000000000E+00  0.00000000000E+00  0.45593999997E+02  0.45594000000E+02  0.51100000000E-03 0. -1.
         11   -1    0    0    0    0 -0.00000000000E+00 -0.00000000000E+00 -0.45593999997E+02  0.45594000000E+02  0.51100000000E-03 0.  1.
         23    2    1    2    0    0  0.17763568394E-14  0.17763568394E-14  0.00000000000E+00  0.91188000000E+02  0.91188000000E+02 0.  0.
    9900012    2    3    3    0    0 -0.75777480935E+01  0.13009626361E+02  0.40705652291E+02  0.47787276819E+02  0.20000026326E+02 0.  0.
        -12    1    3    3    0    0  0.75777480935E+01 -0.13009626361E+02 -0.40705652291E+02  0.43400723181E+02  0.00000000000E+00 0.  1.
         11    1    4    4    0    0 -0.70407775445E+01  0.10231915829E+02  0.23831761144E+02  0.26874104440E+02  0.51100000000E-03 0. -1.
        -11    1    4    4    0    0  0.30588963222E+01  0.64933284330E+01  0.94852001997E+01  0.11894922612E+02  0.51100000000E-03 0.  1.
        -12    1    4    4    0    0 -0.35958668713E+01 -0.37156179008E+01  0.73886909472E+01  0.90182497666E+01  0.00000000000E+00 0.  1.
</event>
<event>
 8    1  0.1164123E-009  0.9118800E+02  0.7816164E-02  0.1184000E+00
        -11   -1    0    0    0    0  0.00000000000E+00  0.00000000000E+00  0.45593999997E+02  0.45594000000E+02  0.51100000000E-03 0. -1.
         11   -1    0    0    0    0 -0.00000000000E+00 -0.00000000000E+00 -0.45593999997E+02  0.45594000000E+02  0.51100000000E-03 0.  1.
         23    2    1    2    0    0  0.44408920985E-15  0.71054273576E-14 -0.17763568394E-14  0.91188000000E+02  0.91188000000E+02 0.  0.
    9900012    2    3    3    0    0  0.26159728168E+01  0.40382287605E+02 -0.15686007668E+02  0.47787270714E+02  0.19999998494E+02 0.  0.
         12    1    3    3    0    0 -0.26159728168E+01 -0.40382287605E+02  0.15686007668E+02  0.43400729286E+02  0.00000000000E+00 0. -1.
         11    1    4    4    0    0  0.72042519591E+01  0.15223751270E+02  0.10904128319E+01  0.16877584230E+02  0.51100000000E-03 0.  1.
        -11    1    4    4    0    0 -0.12655955471E+01  0.13789356739E+01 -0.62947220276E+00  0.19746977482E+01  0.51100000000E-03 0. -1.
        -12    1    4    4    0    0 -0.33226835953E+01  0.23779600661E+02 -0.16146948297E+02  0.28934988736E+02  0.00000000000E+00 0.  1.
</event>
<event>
 8    1  0.1343318E-009  0.9118800E+02  0.7816164E-02  0.1184000E+00
        -11   -1    0    0    0    0  0.00000000000E+00  0.00000000000E+00  0.45593999997E+02  0.45594000000E+02  0.51100000000E-03 0. -1.
         11   -1    0    0    0    0 -0.00000000000E+00 -0.00000000000E+00 -0.45593999997E+02  0.45594000000E+02  0.51100000000E-03 0.  1.
         23    2    1    2    0    0  0.00000000000E+00  0.35527136788E-14  0.00000000000E+00  0.91188000000E+02  0.91188000000E+02 0.  0.
    9900012    2    3    3    0    0  0.11297298456E+02 -0.25332837670E+02 -0.33380231654E+02  0.47787291686E+02  0.20000094115E+02 0.  0.
         12    1    3    3    0    0 -0.11297298456E+02  0.25332837670E+02  0.33380231654E+02  0.43400708314E+02  0.00000000000E+00 0. -1.
         11    1    4    4    0    0  0.67896615610E+00  0.18848243499E+00 -0.10933461242E+02  0.10956144197E+02  0.51100000000E-03 0. -1.
        -11    1    4    4    0    0  0.70240582640E+01 -0.61616672954E+01 -0.91055655998E+01  0.13046641848E+02  0.51100000000E-03 0.  1.
        -12    1    4    4    0    0  0.35942740355E+01 -0.19359652810E+02 -0.13341204812E+02  0.23784505642E+02  0.00000000000E+00 0.  1.
</event>
<event>
 8    1  0.1164123E-009  0.9118800E+02  0.7816164E-02  0.1184000E+00
        -11   -1    0    0    0    0  0.00000000000E+00  0.00000000000E+00  0.45593999997E+02  0.45594000000E+02  0.51100000000E-03 0. -1.
         11   -1    0    0    0    0 -0.00000000000E+00 -0.00000000000E+00 -0.45593999997E+02  0.45594000000E+02  0.51100000000E-03 0.  1.
         23    2    1    2    0    0  0.00000000000E+00  0.00000000000E+00  0.00000000000E+00  0.91188000000E+02  0.91188000000E+02 0.  0.
    9900012    2    3    3    0    0  0.33787459004E+02  0.11007186528E+02  0.24917317917E+02  0.47787271050E+02  0.20000000027E+02 0.  0.
        -12    1    3    3    0    0 -0.33787459004E+02 -0.11007186528E+02 -0.24917317917E+02  0.43400728950E+02  0.00000000000E+00 0.  1.
         11    1    4    4    0    0  0.13090871228E+02  0.40376133109E+01  0.11156307293E+02  0.17667383039E+02  0.51100000000E-03 0. -1.
        -11    1    4    4    0    0  0.19836961644E+02  0.10511851700E+02  0.91523319489E+01  0.24243952932E+02  0.51100000000E-03 0.  1.
         12    1    4    4    0    0  0.85962613235E+00 -0.35422784823E+01  0.46086786746E+01  0.58759350796E+01  0.00000000000E+00 0. -1.
</event>
<event>
 8    1  0.1164123E-009  0.9118800E+02  0.7816164E-02  0.1184000E+00
        -11   -1    0    0    0    0  0.00000000000E+00  0.00000000000E+00  0.45593999997E+02  0.45594000000E+02  0.51100000000E-03 0. -1.
         11   -1    0    0    0    0 -0.00000000000E+00 -0.00000000000E+00 -0.45593999997E+02  0.45594000000E+02  0.51100000000E-03 0.  1.
         23    2    1    2    0    0  0.00000000000E+00  0.00000000000E+00  0.00000000000E+00  0.91188000000E+02  0.91188000000E+02 0.  0.
    9900012    2    3    3    0    0  0.37901213895E+02 -0.12638633461E+02 -0.16952467144E+02  0.47787271748E+02  0.20000003210E+02 0.  0.
         12    1    3    3    0    0 -0.37901213895E+02  0.12638633461E+02  0.16952467144E+02  0.43400728252E+02  0.00000000000E+00 0. -1.
         11    1    4    4    0    0  0.19026577345E+01  0.22462754869E+01  0.23677166212E+01  0.37778224253E+01  0.51100000000E-03 0. -1.
        -11    1    4    4    0    0  0.11719418478E+02 -0.32232783600E+01 -0.30109993732E+01  0.12521997058E+02  0.51100000000E-03 0.  1.
        -12    1    4    4    0    0  0.24279137683E+02 -0.11661630588E+02 -0.16309184392E+02  0.31487452265E+02  0.00000000000E+00 0.  1.
</event>
<event>
 8    1  0.1164123E-009  0.9118800E+02  0.7816164E-02  0.1184000E+00
        -11   -1    0    0    0    0  0.00000000000E+00  0.00000000000E+00  0.45593999997E+02  0.45594000000E+02  0.51100000000E-03 0. -1.
         11   -1    0    0    0    0 -0.00000000000E+00 -0.00000000000E+00 -0.45593999997E+02  0.45594000000E+02  0.51100000000E-03 0.  1.
         23    2    1    2    0    0  0.00000000000E+00  0.00000000000E+00  0.00000000000E+00  0.91188000000E+02  0.91188000000E+02 0.  0.
    9900012    2    3    3    0    0 -0.10610046149E+02  0.25074543039E+02 -0.33798190081E+02  0.47787269123E+02  0.19999991240E+02 0.  0.
         12    1    3    3    0    0  0.10610046149E+02 -0.25074543039E+02  0.33798190081E+02  0.43400730877E+02  0.00000000000E+00 0. -1.
         11    1    4    4    0    0  0.15077788703E+01  0.44493833890E+01 -0.72548485667E+01  0.86431034734E+01  0.51100000000E-03 0. -1.
        -11    1    4    4    0    0  0.22531208696E+01  0.45775856073E+01 -0.12308474378E+02  0.13324015364E+02  0.51100000000E-03 0.  1.
         12    1    4    4    0    0 -0.14370945889E+02  0.16047574042E+02 -0.14234867136E+02  0.25820150286E+02  0.00000000000E+00 0. -1.
</event>
<event>
 8    1  0.1164123E-009  0.9118800E+02  0.7816164E-02  0.1184000E+00
        -11   -1    0    0    0    0  0.00000000000E+00  0.00000000000E+00  0.45593999997E+02  0.45594000000E+02  0.51100000000E-03 0. -1.
         11   -1    0    0    0    0 -0.00000000000E+00 -0.00000000000E+00 -0.45593999997E+02  0.45594000000E+02  0.51100000000E-03 0.  1.
         23    2    1    2    0    0  0.00000000000E+00  0.00000000000E+00  0.00000000000E+00  0.91188000000E+02  0.91188000000E+02 0.  0.
    9900012    2    3    3    0    0  0.43005229046E+01 -0.27307702810E+02 -0.33457709943E+02  0.47787268616E+02  0.19999988928E+02 0.  0.
         12    1    3    3    0    0 -0.43005229046E+01  0.27307702810E+02  0.33457709943E+02  0.43400731384E+02  0.00000000000E+00 0. -1.
         11    1    4    4    0    0  0.62020468561E-01  0.27020770750E+01 -0.34926764759E+01  0.44163170497E+01  0.51100000000E-03 0. -1.
        -11    1    4    4    0    0  0.16281681228E+01 -0.40335052976E+01 -0.11732227931E+01  0.45051690762E+01  0.51100000000E-03 0.  1.
        -12    1    4    4    0    0  0.26103343132E+01 -0.25976274588E+02 -0.28791810674E+02  0.38865782490E+02  0.00000000000E+00 0.  1.
</event>
<event>
 8    1  0.1164123E-009  0.9118800E+02  0.7816164E-02  0.1184000E+00
        -11   -1    0    0    0    0  0.00000000000E+00  0.00000000000E+00  0.45593999997E+02  0.45594000000E+02  0.51100000000E-03 0. -1.
         11   -1    0    0    0    0 -0.00000000000E+00 -0.00000000000E+00 -0.45593999997E+02  0.45594000000E+02  0.51100000000E-03 0.  1.
         23    2    1    2    0    0  0.00000000000E+00  0.00000000000E+00  0.00000000000E+00  0.91188000000E+02  0.91188000000E+02 0.  0.
    9900012    2    3    3    0    0  0.28295753900E+02 -0.20052448625E+02  0.26093543722E+02  0.47787269492E+02  0.19999992924E+02 0.  0.
        -12    1    3    3    0    0 -0.28295753900E+02  0.20052448625E+02 -0.26093543722E+02  0.43400730508E+02  0.00000000000E+00 0.  1.
         11    1    4    4    0    0  0.11361726190E+02 -0.33011801900E+01  0.42131415287E+01  0.12559346101E+02  0.51100000000E-03 0. -1.
        -11    1    4    4    0    0  0.97563848725E+01 -0.15080358154E+01  0.39768839940E+01  0.10643158571E+02  0.51100000000E-03 0.  1.
         12    1    4    4    0    0  0.71776428368E+01 -0.15243232620E+02  0.17903518199E+02  0.24584764821E+02  0.00000000000E+00 0. -1.
</event>
<event>
 8    1  0.1871637E-009  0.9118800E+02  0.7816164E-02  0.1184000E+00
        -11   -1    0    0    0    0  0.00000000000E+00  0.00000000000E+00  0.45593999997E+02  0.45594000000E+02  0.51100000000E-03 0. -1.
         11   -1    0    0    0    0 -0.00000000000E+00 -0.00000000000E+00 -0.45593999997E+02  0.45594000000E+02  0.51100000000E-03 0.  1.
         23    2    1    2    0    0  0.00000000000E+00 -0.88817841970E-15  0.00000000000E+00  0.91188000000E+02  0.91188000000E+02 0.  0.
    9900012    2    3    3    0    0  0.11980823116E+02  0.67235992925E+01 -0.41168873980E+02  0.47787273108E+02  0.20000009407E+02 0.  0.
         12    1    3    3    0    0 -0.11980823116E+02 -0.67235992925E+01  0.41168873980E+02  0.43400726892E+02  0.00000000000E+00 0. -1.
         11    1    4    4    0    0  0.52926489210E-01  0.44721726662E+01 -0.19776671738E+01  0.48902246656E+01  0.51100000000E-03 0. -1.
        -11    1    4    4    0    0  0.28876413340E+01 -0.27594829211E+01 -0.23518250445E+01  0.46351159389E+01  0.51100000000E-03 0.  1.
        -12    1    4    4    0    0  0.90402552923E+01  0.50109095474E+01 -0.36839381762E+02  0.38261932503E+02  0.00000000000E+00 0.  1.
</event>
<event>
 8    1  0.1164123E-009  0.9118800E+02  0.7816164E-02  0.1184000E+00
        -11   -1    0    0    0    0  0.00000000000E+00  0.00000000000E+00  0.45593999997E+02  0.45594000000E+02  0.51100000000E-03 0. -1.
         11   -1    0    0    0    0 -0.00000000000E+00 -0.00000000000E+00 -0.45593999997E+02  0.45594000000E+02  0.51100000000E-03 0.  1.
         23    2    1    2    0    0  0.00000000000E+00  0.00000000000E+00  0.00000000000E+00  0.91188000000E+02  0.91188000000E+02 0.  0.
    9900012    2    3    3    0    0 -0.29001880366E+02 -0.13477869929E+02 -0.29340438321E+02  0.47787270012E+02  0.19999995293E+02 0.  0.
         12    1    3    3    0    0  0.29001880366E+02  0.13477869929E+02  0.29340438321E+02  0.43400729988E+02  0.00000000000E+00 0. -1.
         11    1    4    4    0    0  0.54453398938E+00 -0.39026576611E+00  0.15202610370E-01  0.67011641844E+00  0.51100000000E-03 0. -1.
        -11    1    4    4    0    0 -0.60018953340E+01 -0.85073459155E+00 -0.16607173353E+02  0.17678933904E+02  0.51100000000E-03 0.  1.
        -12    1    4    4    0    0 -0.23544519021E+02 -0.12236869572E+02 -0.12748467578E+02  0.29438219689E+02  0.00000000000E+00 0.  1.
</event>
<event>
 8    1  0.1164123E-009  0.9118800E+02  0.7816164E-02  0.1184000E+00
        -11   -1    0    0    0    0  0.00000000000E+00  0.00000000000E+00  0.45593999997E+02  0.45594000000E+02  0.51100000000E-03 0. -1.
         11   -1    0    0    0    0 -0.00000000000E+00 -0.00000000000E+00 -0.45593999997E+02  0.45594000000E+02  0.51100000000E-03 0.  1.
         23    2    1    2    0    0  0.00000000000E+00  0.00000000000E+00 -0.88817841970E-15  0.91188000000E+02  0.91188000000E+02 0.  0.
    9900012    2    3    3    0    0  0.42881460264E+02 -0.40938698189E+01  0.52956169021E+01  0.47787274628E+02  0.20000016338E+02 0.  0.
        -12    1    3    3    0    0 -0.42881460264E+02  0.40938698189E+01 -0.52956169021E+01  0.43400725372E+02  0.00000000000E+00 0.  1.
         11    1    4    4    0    0  0.19627684293E+02 -0.64967081789E+01 -0.14013131466E+01  0.20722376472E+02  0.51100000000E-03 0. -1.
        -11    1    4    4    0    0  0.18248330618E+02 -0.17027253484E+01  0.85921358627E+00  0.18347727167E+02  0.51100000000E-03 0.  1.
         12    1    4    4    0    0  0.50054453537E+01  0.41055637084E+01  0.58377164625E+01  0.87171709889E+01  0.00000000000E+00 0. -1.
</event>
<event>
 8    1  0.1164123E-009  0.9118800E+02  0.7816164E-02  0.1184000E+00
        -11   -1    0    0    0    0  0.00000000000E+00  0.00000000000E+00  0.45593999997E+02  0.45594000000E+02  0.51100000000E-03 0. -1.
         11   -1    0    0    0    0 -0.00000000000E+00 -0.00000000000E+00 -0.45593999997E+02  0.45594000000E+02  0.51100000000E-03 0.  1.
         23    2    1    2    0    0 -0.17763568394E-14  0.00000000000E+00  0.35527136788E-14  0.91188000000E+02  0.91188000000E+02 0.  0.
    9900012    2    3    3    0    0 -0.13851030502E+02  0.28330125107E+02  0.29819075614E+02  0.47787259165E+02  0.19999945838E+02 0.  0.
        -12    1    3    3    0    0  0.13851030502E+02 -0.28330125107E+02 -0.29819075614E+02  0.43400740835E+02  0.00000000000E+00 0.  1.
         11    1    4    4    0    0 -0.12912014893E+01 -0.15686013127E+01  0.30509629154E+01  0.36655267475E+01  0.51100000000E-03 0.  1.
        -11    1    4    4    0    0 -0.63105532032E+00  0.83467398293E+01  0.92830272809E+00  0.84218788172E+01  0.51100000000E-03 0. -1.
         12    1    4    4    0    0 -0.11928773692E+02  0.21551986591E+02  0.25839809970E+02  0.35699853601E+02  0.00000000000E+00 0. -1.
</event>
<event>
 8    1  0.1164123E-009  0.9118800E+02  0.7816164E-02  0.1184000E+00
        -11   -1    0    0    0    0  0.00000000000E+00  0.00000000000E+00  0.45593999997E+02  0.45594000000E+02  0.51100000000E-03 0. -1.
         11   -1    0    0    0    0 -0.00000000000E+00 -0.00000000000E+00 -0.45593999997E+02  0.45594000000E+02  0.51100000000E-03 0.  1.
         23    2    1    2    0    0  0.00000000000E+00 -0.17763568394E-14  0.00000000000E+00  0.91188000000E+02  0.91188000000E+02 0.  0.
    9900012    2    3    3    0    0 -0.34460510357E+02 -0.11291841873E+02  0.23845138836E+02  0.47787272898E+02  0.20000008449E+02 0.  0.
        -12    1    3    3    0    0  0.34460510357E+02  0.11291841873E+02 -0.23845138836E+02  0.43400727102E+02  0.00000000000E+00 0.  1.
         11    1    4    4    0    0 -0.14356427677E+02 -0.55094855197E+01  0.86033074359E+01  0.17620395723E+02  0.51100000000E-03 0. -1.
        -11    1    4    4    0    0 -0.93616710566E+01 -0.13028211237E+01  0.15913158757E+02  0.18508561526E+02  0.51100000000E-03 0.  1.
        -12    1    4    4    0    0 -0.10742411623E+02 -0.44795352297E+01 -0.67132735755E+00  0.11658315649E+02  0.00000000000E+00 0.  1.
</event>
<event>
 8    1  0.1164123E-009  0.9118800E+02  0.7816164E-02  0.1184000E+00
        -11   -1    0    0    0    0  0.00000000000E+00  0.00000000000E+00  0.45593999997E+02  0.45594000000E+02  0.51100000000E-03 0. -1.
         11   -1    0    0    0    0 -0.00000000000E+00 -0.00000000000E+00 -0.45593999997E+02  0.45594000000E+02  0.51100000000E-03 0.  1.
         23    2    1    2    0    0  0.17763568394E-14  0.00000000000E+00 -0.35527136788E-14  0.91188000000E+02  0.91188000000E+02 0.  0.
    9900012    2    3    3    0    0  0.86547985748E+01 -0.29838244739E+02 -0.30305068419E+02  0.47787267756E+02  0.19999985006E+02 0.  0.
         12    1    3    3    0    0 -0.86547985748E+01  0.29838244739E+02  0.30305068419E+02  0.43400732244E+02  0.00000000000E+00 0. -1.
         11    1    4    4    0    0  0.41333076368E+01 -0.13829422279E+01 -0.21560805648E+01  0.48626582123E+01  0.51100000000E-03 0.  1.
        -11    1    4    4    0    0 -0.46861643748E+01 -0.17211024553E+02 -0.14511721756E+02  0.22994990135E+02  0.51100000000E-03 0. -1.
         12    1    4    4    0    0  0.92076553127E+01 -0.11244277958E+02 -0.13637266098E+02  0.19929619409E+02  0.00000000000E+00 0. -1.
</event>
<event>
 8    1  0.1164123E-009  0.9118800E+02  0.7816164E-02  0.1184000E+00
        -11   -1    0    0    0    0  0.00000000000E+00  0.00000000000E+00  0.45593999997E+02  0.45594000000E+02  0.51100000000E-03 0. -1.
         11   -1    0    0    0    0 -0.00000000000E+00 -0.00000000000E+00 -0.45593999997E+02  0.45594000000E+02  0.51100000000E-03 0.  1.
         23    2    1    2    0    0 -0.35527136788E-14  0.00000000000E+00  0.35527136788E-14  0.91188000000E+02  0.91188000000E+02 0.  0.
    9900012    2    3    3    0    0  0.26869819062E+02 -0.22849007442E+02 -0.25289501992E+02  0.47787271567E+02  0.20000002384E+02 0.  0.
         12    1    3    3    0    0 -0.26869819062E+02  0.22849007442E+02  0.25289501992E+02  0.43400728433E+02  0.00000000000E+00 0. -1.
         11    1    4    4    0    0  0.14559943638E+02 -0.13179282211E+02 -0.38414519109E+01  0.20011051731E+02  0.51100000000E-03 0. -1.
        -11    1    4    4    0    0 -0.14439893162E-01 -0.33720242699E+01 -0.69941823605E+01  0.77646212619E+01  0.51100000000E-03 0.  1.
        -12    1    4    4    0    0  0.12324315317E+02 -0.62977009609E+01 -0.14453867720E+02  0.20011598574E+02  0.00000000000E+00 0.  1.
</event>
<event>
 8    1  0.1164123E-009  0.9118800E+02  0.7816164E-02  0.1184000E+00
        -11   -1    0    0    0    0  0.00000000000E+00  0.00000000000E+00  0.45593999997E+02  0.45594000000E+02  0.51100000000E-03 0. -1.
         11   -1    0    0    0    0 -0.00000000000E+00 -0.00000000000E+00 -0.45593999997E+02  0.45594000000E+02  0.51100000000E-03 0.  1.
         23    2    1    2    0    0  0.00000000000E+00  0.00000000000E+00  0.00000000000E+00  0.91188000000E+02  0.91188000000E+02 0.  0.
    9900012    2    3    3    0    0 -0.12450509190E+02 -0.41425646357E+02 -0.35388994744E+01  0.47787272303E+02  0.20000005737E+02 0.  0.
        -12    1    3    3    0    0  0.12450509190E+02  0.41425646357E+02  0.35388994744E+01  0.43400727697E+02  0.00000000000E+00 0.  1.
         11    1    4    4    0    0  0.12196614104E+01 -0.76337631945E+01 -0.30952132724E+01  0.83272000053E+01  0.51100000000E-03 0. -1.
        -11    1    4    4    0    0 -0.54078226840E+00 -0.19441966358E+02  0.30849356970E+01  0.19692621203E+02  0.51100000000E-03 0.  1.
         12    1    4    4    0    0 -0.13129388332E+02 -0.14349916804E+02 -0.35286218990E+01  0.19767451095E+02  0.00000000000E+00 0. -1.
</event>
<event>
 8    1  0.1164123E-009  0.9118800E+02  0.7816164E-02  0.1184000E+00
        -11   -1    0    0    0    0  0.00000000000E+00  0.00000000000E+00  0.45593999997E+02  0.45594000000E+02  0.51100000000E-03 0. -1.
         11   -1    0    0    0    0 -0.00000000000E+00 -0.00000000000E+00 -0.45593999997E+02  0.45594000000E+02  0.51100000000E-03 0.  1.
         23    2    1    2    0    0  0.00000000000E+00  0.00000000000E+00  0.00000000000E+00  0.91188000000E+02  0.91188000000E+02 0.  0.
    9900012    2    3    3    0    0 -0.17935073813E+02 -0.72703099427E+01 -0.38847127743E+02  0.47787267135E+02  0.19999982176E+02 0.  0.
         12    1    3    3    0    0  0.17935073813E+02  0.72703099427E+01  0.38847127743E+02  0.43400732865E+02  0.00000000000E+00 0. -1.
         11    1    4    4    0    0  0.17313371824E+01  0.43157421484E+00  0.11599548162E+01  0.21282105579E+01  0.51100000000E-03 0. -1.
        -11    1    4    4    0    0 -0.58199204281E+01 -0.44489285528E+01 -0.94763318311E+01  0.11977700292E+02  0.51100000000E-03 0.  1.
         12    1    4    4    0    0 -0.13846490567E+02 -0.32529556047E+01 -0.30530750728E+02  0.33681356285E+02  0.00000000000E+00 0. -1.
</event>
<event>
 8    1  0.1164123E-009  0.9118800E+02  0.7816164E-02  0.1184000E+00
        -11   -1    0    0    0    0  0.00000000000E+00  0.00000000000E+00  0.45593999997E+02  0.45594000000E+02  0.51100000000E-03 0. -1.
         11   -1    0    0    0    0 -0.00000000000E+00 -0.00000000000E+00 -0.45593999997E+02  0.45594000000E+02  0.51100000000E-03 0.  1.
         23    2    1    2    0    0  0.71054273576E-14  0.00000000000E+00  0.00000000000E+00  0.91188000000E+02  0.91188000000E+02 0.  0.
    9900012    2    3    3    0    0 -0.32161942494E+02  0.11167894247E+02 -0.26916728220E+02  0.47787278059E+02  0.20000031980E+02 0.  0.
         12    1    3    3    0    0  0.32161942494E+02 -0.11167894247E+02  0.26916728220E+02  0.43400721941E+02  0.00000000000E+00 0. -1.
         11    1    4    4    0    0 -0.71186200201E+01  0.62929921108E+01 -0.11764522149E+02  0.15122185105E+02  0.51100000000E-03 0. -1.
        -11    1    4    4    0    0 -0.20872948462E+02  0.46796683262E+01 -0.17708291170E+02  0.27769819041E+02  0.51100000000E-03 0.  1.
         12    1    4    4    0    0 -0.41703740123E+01  0.19523381038E+00  0.25560850990E+01  0.48952739123E+01  0.00000000000E+00 0. -1.
</event>
<event>
 8    1  0.1164123E-009  0.9118800E+02  0.7816164E-02  0.1184000E+00
        -11   -1    0    0    0    0  0.00000000000E+00  0.00000000000E+00  0.45593999997E+02  0.45594000000E+02  0.51100000000E-03 0. -1.
         11   -1    0    0    0    0 -0.00000000000E+00 -0.00000000000E+00 -0.45593999997E+02  0.45594000000E+02  0.51100000000E-03 0.  1.
         23    2    1    2    0    0  0.35527136788E-14  0.00000000000E+00 -0.17763568394E-14  0.91188000000E+02  0.91188000000E+02 0.  0.
    9900012    2    3    3    0    0 -0.19500843648E+02  0.36460852914E+02  0.13188882362E+02  0.47787270557E+02  0.19999997777E+02 0.  0.
        -12    1    3    3    0    0  0.19500843648E+02 -0.36460852914E+02 -0.13188882362E+02  0.43400729443E+02  0.00000000000E+00 0.  1.
         11    1    4    4    0    0 -0.18252820661E+02  0.24421916630E+02  0.40928726251E+01  0.30762754762E+02  0.51100000000E-03 0. -1.
        -11    1    4    4    0    0 -0.42743436231E+01  0.57844085456E+01  0.30432581166E+01  0.78096616992E+01  0.51100000000E-03 0.  1.
        -12    1    4    4    0    0  0.30263206359E+01  0.62545277387E+01  0.60527516207E+01  0.92148540958E+01  0.00000000000E+00 0.  1.
</event>
<event>
 8    1  0.1164123E-009  0.9118800E+02  0.7816164E-02  0.1184000E+00
        -11   -1    0    0    0    0  0.00000000000E+00  0.00000000000E+00  0.45593999997E+02  0.45594000000E+02  0.51100000000E-03 0. -1.
         11   -1    0    0    0    0 -0.00000000000E+00 -0.00000000000E+00 -0.45593999997E+02  0.45594000000E+02  0.51100000000E-03 0.  1.
         23    2    1    2    0    0  0.00000000000E+00  0.00000000000E+00  0.00000000000E+00  0.91188000000E+02  0.91188000000E+02 0.  0.
    9900012    2    3    3    0    0 -0.16548886170E+02 -0.36629860704E+01 -0.39954222415E+02  0.47787274324E+02  0.20000014953E+02 0.  0.
         12    1    3    3    0    0  0.16548886170E+02  0.36629860704E+01  0.39954222415E+02  0.43400725676E+02  0.00000000000E+00 0. -1.
         11    1    4    4    0    0 -0.12092393342E+02  0.15220972037E+01 -0.23024561849E+02  0.26051357071E+02  0.51100000000E-03 0. -1.
        -11    1    4    4    0    0 -0.16005765760E+01  0.37213485748E+01 -0.70515468143E+01  0.81323178323E+01  0.51100000000E-03 0.  1.
        -12    1    4    4    0    0 -0.28559162519E+01 -0.89064318488E+01 -0.98781137516E+01  0.13603599421E+02  0.00000000000E+00 0.  1.
</event>
<event>
 8    1  0.1164123E-009  0.9118800E+02  0.7816164E-02  0.1184000E+00
        -11   -1    0    0    0    0  0.00000000000E+00  0.00000000000E+00  0.45593999997E+02  0.45594000000E+02  0.51100000000E-03 0. -1.
         11   -1    0    0    0    0 -0.00000000000E+00 -0.00000000000E+00 -0.45593999997E+02  0.45594000000E+02  0.51100000000E-03 0.  1.
         23    2    1    2    0    0  0.00000000000E+00  0.00000000000E+00  0.00000000000E+00  0.91188000000E+02  0.91188000000E+02 0.  0.
    9900012    2    3    3    0    0 -0.18142619092E+02 -0.11485459136E+02  0.37716748944E+02  0.47787267864E+02  0.19999985497E+02 0.  0.
        -12    1    3    3    0    0  0.18142619092E+02  0.11485459136E+02 -0.37716748944E+02  0.43400732136E+02  0.00000000000E+00 0.  1.
         11    1    4    4    0    0 -0.91180980989E+01 -0.10483357009E+02  0.14006727831E+02  0.19728885217E+02  0.51100000000E-03 0. -1.
        -11    1    4    4    0    0  0.23816249358E+01 -0.19750562582E+01  0.25881019166E+01  0.40337645382E+01  0.51100000000E-03 0.  1.
        -12    1    4    4    0    0 -0.11406145928E+02  0.97295413186E+00  0.21121919197E+02  0.24024618108E+02  0.00000000000E+00 0.  1.
</event>
<event>
 8    1  0.1164123E-009  0.9118800E+02  0.7816164E-02  0.1184000E+00
        -11   -1    0    0    0    0  0.00000000000E+00  0.00000000000E+00  0.45593999997E+02  0.45594000000E+02  0.51100000000E-03 0. -1.
         11   -1    0    0    0    0 -0.00000000000E+00 -0.00000000000E+00 -0.45593999997E+02  0.45594000000E+02  0.51100000000E-03 0.  1.
         23    2    1    2    0    0  0.00000000000E+00  0.00000000000E+00  0.00000000000E+00  0.91188000000E+02  0.91188000000E+02 0.  0.
    9900012    2    3    3    0    0  0.56932131335E+01  0.17153051189E+02 -0.39458628646E+02  0.47787271717E+02  0.20000003066E+02 0.  0.
         12    1    3    3    0    0 -0.56932131335E+01 -0.17153051189E+02  0.39458628646E+02  0.43400728283E+02  0.00000000000E+00 0. -1.
         11    1    4    4    0    0 -0.41946983179E+01  0.47214184919E+01 -0.20187635389E+01  0.66304368665E+01  0.51100000000E-03 0. -1.
        -11    1    4    4    0    0  0.36257159276E+01  0.42066963102E+01 -0.65736371298E+01  0.86055107466E+01  0.51100000000E-03 0.  1.
        -12    1    4    4    0    0  0.62621955237E+01  0.82249363868E+01 -0.30866227978E+02  0.32551324104E+02  0.00000000000E+00 0.  1.
</event>
<event>
 8    1  0.1164123E-009  0.9118800E+02  0.7816164E-02  0.1184000E+00
        -11   -1    0    0    0    0  0.00000000000E+00  0.00000000000E+00  0.45593999997E+02  0.45594000000E+02  0.51100000000E-03 0. -1.
         11   -1    0    0    0    0 -0.00000000000E+00 -0.00000000000E+00 -0.45593999997E+02  0.45594000000E+02  0.51100000000E-03 0.  1.
         23    2    1    2    0    0  0.17763568394E-14  0.00000000000E+00 -0.17763568394E-14  0.91188000000E+02  0.91188000000E+02 0.  0.
    9900012    2    3    3    0    0 -0.14333185817E+02 -0.37938730710E+02  0.15454325037E+02  0.47787266529E+02  0.19999979410E+02 0.  0.
        -12    1    3    3    0    0  0.14333185817E+02  0.37938730710E+02 -0.15454325037E+02  0.43400733471E+02  0.00000000000E+00 0.  1.
         11    1    4    4    0    0 -0.11855373613E+02 -0.15173091960E+02  0.32721231580E+01  0.19531497469E+02  0.51100000000E-03 0. -1.
        -11    1    4    4    0    0 -0.60121243821E+01 -0.66461098120E+01  0.36331728759E+01  0.96703857537E+01  0.51100000000E-03 0.  1.
        -12    1    4    4    0    0  0.35343121789E+01 -0.16119528937E+02  0.85490290027E+01  0.18585383306E+02  0.00000000000E+00 0.  1.
</event>
<event>
 8    1  0.1164123E-009  0.9118800E+02  0.7816164E-02  0.1184000E+00
        -11   -1    0    0    0    0  0.00000000000E+00  0.00000000000E+00  0.45593999997E+02  0.45594000000E+02  0.51100000000E-03 0. -1.
         11   -1    0    0    0    0 -0.00000000000E+00 -0.00000000000E+00 -0.45593999997E+02  0.45594000000E+02  0.51100000000E-03 0.  1.
         23    2    1    2    0    0 -0.35527136788E-14 -0.22204460493E-15  0.00000000000E+00  0.91188000000E+02  0.91188000000E+02 0.  0.
    9900012    2    3    3    0    0 -0.27887875841E+02  0.16230206810E+01  0.33215290292E+02  0.47787270464E+02  0.19999997355E+02 0.  0.
        -12    1    3    3    0    0  0.27887875841E+02 -0.16230206810E+01 -0.33215290292E+02  0.43400729536E+02  0.00000000000E+00 0.  1.
         11    1    4    4    0    0 -0.37628201079E+01  0.32414548255E+00 -0.13294197948E+01  0.40039034342E+01  0.51100000000E-03 0. -1.
        -11    1    4    4    0    0  0.23157830170E+00  0.22586783307E+01  0.15011093022E+01  0.27218717290E+01  0.51100000000E-03 0.  1.
        -12    1    4    4    0    0 -0.24356634035E+02 -0.95980313217E+00  0.33043600784E+02  0.41061495301E+02  0.00000000000E+00 0.  1.
</event>
<event>
 8    1  0.1164123E-009  0.9118800E+02  0.7816164E-02  0.1184000E+00
        -11   -1    0    0    0    0  0.00000000000E+00  0.00000000000E+00  0.45593999997E+02  0.45594000000E+02  0.51100000000E-03 0.  1.
         11   -1    0    0    0    0 -0.00000000000E+00 -0.00000000000E+00 -0.45593999997E+02  0.45594000000E+02  0.51100000000E-03 0. -1.
         23    2    1    2    0    0  0.00000000000E+00  0.00000000000E+00  0.88817841970E-15  0.91188000000E+02  0.91188000000E+02 0.  0.
    9900012    2    3    3    0    0 -0.11414802383E+02 -0.41381013438E+02 -0.63982035314E+01  0.47787274257E+02  0.20000014647E+02 0.  0.
        -12    1    3    3    0    0  0.11414802383E+02  0.41381013438E+02  0.63982035314E+01  0.43400725743E+02  0.00000000000E+00 0.  1.
         11    1    4    4    0    0  0.14019672916E+01 -0.52483362543E+01 -0.35339370983E+01  0.64806834054E+01  0.51100000000E-03 0. -1.
        -11    1    4    4    0    0 -0.47245774396E+01 -0.92044196264E+00 -0.18667422477E+01  0.51627097797E+01  0.51100000000E-03 0.  1.
         12    1    4    4    0    0 -0.80921922347E+01 -0.35212235221E+02 -0.99752418544E+00  0.36143881072E+02  0.00000000000E+00 0. -1.
</event>
<event>
 8    1  0.1164123E-009  0.9118800E+02  0.7816164E-02  0.1184000E+00
        -11   -1    0    0    0    0  0.00000000000E+00  0.00000000000E+00  0.45593999997E+02  0.45594000000E+02  0.51100000000E-03 0. -1.
         11   -1    0    0    0    0 -0.00000000000E+00 -0.00000000000E+00 -0.45593999997E+02  0.45594000000E+02  0.51100000000E-03 0.  1.
         23    2    1    2    0    0  0.00000000000E+00  0.00000000000E+00  0.00000000000E+00  0.91188000000E+02  0.91188000000E+02 0.  0.
    9900012    2    3    3    0    0  0.32788979000E+02 -0.29194573197E+01  0.28283967494E+02  0.47787271987E+02  0.20000004295E+02 0.  0.
        -12    1    3    3    0    0 -0.32788979000E+02  0.29194573197E+01 -0.28283967494E+02  0.43400728013E+02  0.00000000000E+00 0.  1.
         11    1    4    4    0    0 -0.15005089152E+01 -0.19814664928E+01 -0.20107511231E+00  0.24936254588E+01  0.51100000000E-03 0.  1.
        -11    1    4    4    0    0  0.57046148388E+01 -0.71057669485E-01  0.91149321697E+01  0.10753123656E+02  0.51100000000E-03 0. -1.
        -12    1    4    4    0    0  0.28584873077E+02 -0.86693315736E+00  0.19370110436E+02  0.34540522871E+02  0.00000000000E+00 0.  1.
</event>
<event>
 8    1  0.1164123E-009  0.9118800E+02  0.7816164E-02  0.1184000E+00
        -11   -1    0    0    0    0  0.00000000000E+00  0.00000000000E+00  0.45593999997E+02  0.45594000000E+02  0.51100000000E-03 0. -1.
         11   -1    0    0    0    0 -0.00000000000E+00 -0.00000000000E+00 -0.45593999997E+02  0.45594000000E+02  0.51100000000E-03 0.  1.
         23    2    1    2    0    0 -0.35527136788E-14  0.00000000000E+00  0.00000000000E+00  0.91188000000E+02  0.91188000000E+02 0.  0.
    9900012    2    3    3    0    0 -0.14902388294E+02 -0.20081334773E+02  0.35472270774E+02  0.47787272160E+02  0.20000005087E+02 0.  0.
        -12    1    3    3    0    0  0.14902388294E+02  0.20081334773E+02 -0.35472270774E+02  0.43400727840E+02  0.00000000000E+00 0.  1.
         11    1    4    4    0    0 -0.99010807511E+01 -0.11569603234E+02  0.12713755381E+02  0.19837507282E+02  0.51100000000E-03 0. -1.
        -11    1    4    4    0    0 -0.39840669411E+01 -0.57742972895E+00  0.21761860548E+00  0.40315719765E+01  0.51100000000E-03 0.  1.
         12    1    4    4    0    0 -0.10172406018E+01 -0.79343018108E+01  0.22540896788E+02  0.23918192901E+02  0.00000000000E+00 0. -1.
</event>
<event>
 8    1  0.1164123E-009  0.9118800E+02  0.7816164E-02  0.1184000E+00
        -11   -1    0    0    0    0  0.00000000000E+00  0.00000000000E+00  0.45593999997E+02  0.45594000000E+02  0.51100000000E-03 0. -1.
         11   -1    0    0    0    0 -0.00000000000E+00 -0.00000000000E+00 -0.45593999997E+02  0.45594000000E+02  0.51100000000E-03 0.  1.
         23    2    1    2    0    0  0.35527136788E-14  0.35527136788E-14  0.71054273576E-14  0.91188000000E+02  0.91188000000E+02 0.  0.
    9900012    2    3    3    0    0 -0.22340413652E+02 -0.14684382841E+02 -0.34189158470E+02  0.47787265692E+02  0.19999975596E+02 0.  0.
         12    1    3    3    0    0  0.22340413652E+02  0.14684382841E+02  0.34189158470E+02  0.43400734308E+02  0.00000000000E+00 0. -1.
         11    1    4    4    0    0 -0.13014717370E+02 -0.13421169853E+02 -0.19962769363E+02  0.27350006021E+02  0.51100000000E-03 0. -1.
        -11    1    4    4    0    0 -0.70361161739E+00 -0.57280661464E+00 -0.11254884107E+02  0.11291394655E+02  0.51100000000E-03 0.  1.
        -12    1    4    4    0    0 -0.86220846646E+01 -0.69040637393E+00 -0.29715049995E+01  0.91458650157E+01  0.00000000000E+00 0.  1.
</event>
<event>
 8    1  0.1164123E-009  0.9118800E+02  0.7816164E-02  0.1184000E+00
        -11   -1    0    0    0    0  0.00000000000E+00  0.00000000000E+00  0.45593999997E+02  0.45594000000E+02  0.51100000000E-03 0. -1.
         11   -1    0    0    0    0 -0.00000000000E+00 -0.00000000000E+00 -0.45593999997E+02  0.45594000000E+02  0.51100000000E-03 0.  1.
         23    2    1    2    0    0  0.00000000000E+00 -0.44408920985E-15  0.00000000000E+00  0.91188000000E+02  0.91188000000E+02 0.  0.
    9900012    2    3    3    0    0  0.10207477599E+02 -0.89305469801E+00 -0.42173847035E+02  0.47787268216E+02  0.19999987105E+02 0.  0.
         12    1    3    3    0    0 -0.10207477599E+02  0.89305469801E+00  0.42173847035E+02  0.43400731784E+02  0.00000000000E+00 0. -1.
         11    1    4    4    0    0  0.72851324787E+01 -0.42805348961E+01 -0.14835797246E+02  0.17073283645E+02  0.51100000000E-03 0. -1.
        -11    1    4    4    0    0 -0.13312206164E+01 -0.43345966001E+01 -0.14081606957E+02  0.14793665224E+02  0.51100000000E-03 0.  1.
        -12    1    4    4    0    0  0.42535657366E+01  0.77220767982E+01 -0.13256442833E+02  0.15920319348E+02  0.00000000000E+00 0.  1.
</event>
<event>
 8    1  0.1164123E-009  0.9118800E+02  0.7816164E-02  0.1184000E+00
        -11   -1    0    0    0    0  0.00000000000E+00  0.00000000000E+00  0.45593999997E+02  0.45594000000E+02  0.51100000000E-03 0. -1.
         11   -1    0    0    0    0 -0.00000000000E+00 -0.00000000000E+00 -0.45593999997E+02  0.45594000000E+02  0.51100000000E-03 0.  1.
         23    2    1    2    0    0  0.17763568394E-14  0.35527136788E-14  0.00000000000E+00  0.91188000000E+02  0.91188000000E+02 0.  0.
    9900012    2    3    3    0    0  0.14104200336E+02  0.21706755621E+02 -0.34835501002E+02  0.47787264559E+02  0.19999970432E+02 0.  0.
         12    1    3    3    0    0 -0.14104200336E+02 -0.21706755621E+02  0.34835501002E+02  0.43400735441E+02  0.00000000000E+00 0. -1.
         11    1    4    4    0    0  0.17198106844E+01  0.15009281380E+02 -0.15029274195E+02  0.21309982624E+02  0.51100000000E-03 0.  1.
        -11    1    4    4    0    0  0.10206620049E+02  0.93257794054E+01 -0.13594762821E+02  0.19389760977E+02  0.51100000000E-03 0. -1.
         12    1    4    4    0    0  0.21777696026E+01 -0.26283051644E+01 -0.62114639863E+01  0.70875209582E+01  0.00000000000E+00 0. -1.
</event>
<event>
 8    1  0.1164123E-009  0.9118800E+02  0.7816164E-02  0.1184000E+00
        -11   -1    0    0    0    0  0.00000000000E+00  0.00000000000E+00  0.45593999997E+02  0.45594000000E+02  0.51100000000E-03 0. -1.
         11   -1    0    0    0    0 -0.00000000000E+00 -0.00000000000E+00 -0.45593999997E+02  0.45594000000E+02  0.51100000000E-03 0.  1.
         23    2    1    2    0    0  0.00000000000E+00 -0.17763568394E-14  0.00000000000E+00  0.91188000000E+02  0.91188000000E+02 0.  0.
    9900012    2    3    3    0    0 -0.36600713401E+02  0.11229407488E+02  0.20442883906E+02  0.47787270555E+02  0.19999997768E+02 0.  0.
        -12    1    3    3    0    0  0.36600713401E+02 -0.11229407488E+02 -0.20442883906E+02  0.43400729445E+02  0.00000000000E+00 0.  1.
         11    1    4    4    0    0 -0.26206542571E+02  0.10663138108E+02  0.20957053893E+02  0.35209139381E+02  0.51100000000E-03 0. -1.
        -11    1    4    4    0    0 -0.89512152073E+01  0.25268708030E+01  0.14966490764E+01  0.94206840761E+01  0.51100000000E-03 0.  1.
         12    1    4    4    0    0 -0.14429556230E+01 -0.19606014233E+01 -0.20108190633E+01  0.31574470979E+01  0.00000000000E+00 0. -1.
</event>
<event>
 8    1  0.1164123E-009  0.9118800E+02  0.7816164E-02  0.1184000E+00
        -11   -1    0    0    0    0  0.00000000000E+00  0.00000000000E+00  0.45593999997E+02  0.45594000000E+02  0.51100000000E-03 0.  1.
         11   -1    0    0    0    0 -0.00000000000E+00 -0.00000000000E+00 -0.45593999997E+02  0.45594000000E+02  0.51100000000E-03 0. -1.
         23    2    1    2    0    0  0.00000000000E+00  0.71054273576E-14  0.00000000000E+00  0.91188000000E+02  0.91188000000E+02 0.  0.
    9900012    2    3    3    0    0  0.23590835516E+02  0.32242662739E+02  0.16956016357E+02  0.47787270610E+02  0.19999998021E+02 0.  0.
        -12    1    3    3    0    0 -0.23590835516E+02 -0.32242662739E+02 -0.16956016357E+02  0.43400729390E+02  0.00000000000E+00 0.  1.
         11    1    4    4    0    0  0.22925579576E+01  0.48827632005E+01  0.14627722304E+01  0.55889982394E+01  0.51100000000E-03 0. -1.
        -11    1    4    4    0    0  0.10043323074E+02  0.13400655936E+02 -0.23394701622E+01  0.16909140687E+02  0.51100000000E-03 0.  1.
         12    1    4    4    0    0  0.11254954484E+02  0.13959243603E+02  0.17832714289E+02  0.25289131684E+02  0.00000000000E+00 0. -1.
</event>
<event>
 8    1  0.1164123E-009  0.9118800E+02  0.7816164E-02  0.1184000E+00
        -11   -1    0    0    0    0  0.00000000000E+00  0.00000000000E+00  0.45593999997E+02  0.45594000000E+02  0.51100000000E-03 0. -1.
         11   -1    0    0    0    0 -0.00000000000E+00 -0.00000000000E+00 -0.45593999997E+02  0.45594000000E+02  0.51100000000E-03 0.  1.
         23    2    1    2    0    0  0.00000000000E+00  0.44408920985E-15  0.00000000000E+00  0.91188000000E+02  0.91188000000E+02 0.  0.
    9900012    2    3    3    0    0  0.14964320374E+02 -0.37994785371E+01  0.40561746415E+02  0.47787283490E+02  0.20000056743E+02 0.  0.
        -12    1    3    3    0    0 -0.14964320374E+02  0.37994785371E+01 -0.40561746415E+02  0.43400716510E+02  0.00000000000E+00 0.  1.
         11    1    4    4    0    0  0.88820790230E+01  0.47568019415E+00  0.12402590280E+02  0.15262432484E+02  0.51100000000E-03 0. -1.
        -11    1    4    4    0    0 -0.12498133899E+01  0.25611418909E+01  0.23930307734E+00  0.28598509610E+01  0.51100000000E-03 0.  1.
         12    1    4    4    0    0  0.73320547405E+01 -0.68363006222E+01  0.27919853057E+02  0.29665000045E+02  0.00000000000E+00 0. -1.
</event>
<event>
 8    1  0.1164123E-009  0.9118800E+02  0.7816164E-02  0.1184000E+00
        -11   -1    0    0    0    0  0.00000000000E+00  0.00000000000E+00  0.45593999997E+02  0.45594000000E+02  0.51100000000E-03 0. -1.
         11   -1    0    0    0    0 -0.00000000000E+00 -0.00000000000E+00 -0.45593999997E+02  0.45594000000E+02  0.51100000000E-03 0.  1.
         23    2    1    2    0    0  0.00000000000E+00  0.00000000000E+00  0.00000000000E+00  0.91188000000E+02  0.91188000000E+02 0.  0.
    9900012    2    3    3    0    0  0.13668176184E+02 -0.46755309379E+01 -0.40926081208E+02  0.47787265527E+02  0.19999974846E+02 0.  0.
         12    1    3    3    0    0 -0.13668176184E+02  0.46755309379E+01  0.40926081208E+02  0.43400734473E+02  0.00000000000E+00 0. -1.
         11    1    4    4    0    0  0.39262120186E+01  0.16696060483E+01 -0.15248469945E+02  0.15834094894E+02  0.51100000000E-03 0. -1.
        -11    1    4    4    0    0  0.12987304928E+02 -0.33465064770E+01 -0.13634622253E+02  0.19125169781E+02  0.51100000000E-03 0.  1.
         12    1    4    4    0    0 -0.32453407631E+01 -0.29986305091E+01 -0.12042989009E+02  0.12828000853E+02  0.00000000000E+00 0. -1.
</event>
<event>
 8    1  0.1164123E-009  0.9118800E+02  0.7816164E-02  0.1184000E+00
        -11   -1    0    0    0    0  0.00000000000E+00  0.00000000000E+00  0.45593999997E+02  0.45594000000E+02  0.51100000000E-03 0. -1.
         11   -1    0    0    0    0 -0.00000000000E+00 -0.00000000000E+00 -0.45593999997E+02  0.45594000000E+02  0.51100000000E-03 0.  1.
         23    2    1    2    0    0  0.00000000000E+00  0.00000000000E+00  0.00000000000E+00  0.91188000000E+02  0.91188000000E+02 0.  0.
    9900012    2    3    3    0    0  0.19062134427E+02 -0.19970114933E+02  0.33488098360E+02  0.47787271998E+02  0.20000004348E+02 0.  0.
        -12    1    3    3    0    0 -0.19062134427E+02  0.19970114933E+02 -0.33488098360E+02  0.43400728002E+02  0.00000000000E+00 0.  1.
         11    1    4    4    0    0 -0.19249890997E+01 -0.89590807617E+01  0.93509520526E+01  0.13092402976E+02  0.51100000000E-03 0. -1.
        -11    1    4    4    0    0  0.37861081341E+01  0.97103432218E+00  0.30186908770E+01  0.49386250445E+01  0.51100000000E-03 0.  1.
        -12    1    4    4    0    0  0.17201015393E+02 -0.11982068493E+02  0.21118455430E+02  0.29756243978E+02  0.00000000000E+00 0.  1.
</event>
<event>
 8    1  0.1164123E-009  0.9118800E+02  0.7816164E-02  0.1184000E+00
        -11   -1    0    0    0    0  0.00000000000E+00  0.00000000000E+00  0.45593999997E+02  0.45594000000E+02  0.51100000000E-03 0. -1.
         11   -1    0    0    0    0 -0.00000000000E+00 -0.00000000000E+00 -0.45593999997E+02  0.45594000000E+02  0.51100000000E-03 0.  1.
         23    2    1    2    0    0  0.88817841970E-15  0.00000000000E+00  0.17763568394E-14  0.91188000000E+02  0.91188000000E+02 0.  0.
    9900012    2    3    3    0    0  0.17028026265E+01 -0.42382984762E+02 -0.91872899826E+01  0.47787271534E+02  0.20000002232E+02 0.  0.
        -12    1    3    3    0    0 -0.17028026265E+01  0.42382984762E+02  0.91872899826E+01  0.43400728466E+02  0.00000000000E+00 0.  1.
         11    1    4    4    0    0 -0.51336730012E+01 -0.17750615959E+02 -0.53077923117E+01  0.19225286081E+02  0.51100000000E-03 0. -1.
        -11    1    4    4    0    0  0.36655348012E+00 -0.24252193910E+01 -0.48245557582E+01  0.54122443656E+01  0.51100000000E-03 0.  1.
         12    1    4    4    0    0  0.64699221476E+01 -0.22207149412E+02  0.94505808726E+00  0.23149741087E+02  0.00000000000E+00 0. -1.
</event>
<event>
 8    1  0.1164123E-009  0.9118800E+02  0.7816164E-02  0.1184000E+00
        -11   -1    0    0    0    0  0.00000000000E+00  0.00000000000E+00  0.45593999997E+02  0.45594000000E+02  0.51100000000E-03 0. -1.
         11   -1    0    0    0    0 -0.00000000000E+00 -0.00000000000E+00 -0.45593999997E+02  0.45594000000E+02  0.51100000000E-03 0.  1.
         23    2    1    2    0    0  0.00000000000E+00  0.00000000000E+00  0.35527136788E-14  0.91188000000E+02  0.91188000000E+02 0.  0.
    9900012    2    3    3    0    0 -0.20281386840E+02  0.26093317628E+02 -0.28132319526E+02  0.47787270987E+02  0.19999999736E+02 0.  0.
         12    1    3    3    0    0  0.20281386840E+02 -0.26093317628E+02  0.28132319526E+02  0.43400729013E+02  0.00000000000E+00 0. -1.
         11    1    4    4    0    0 -0.55684726511E+01  0.61787912223E+01 -0.89254573154E+01  0.12200374469E+02  0.51100000000E-03 0. -1.
        -11    1    4    4    0    0 -0.68713071403E+01  0.18698526705E+02 -0.19176972521E+02  0.27651510593E+02  0.51100000000E-03 0.  1.
         12    1    4    4    0    0 -0.78416070488E+01  0.12159997011E+01 -0.29889689575E-01  0.79353859247E+01  0.00000000000E+00 0. -1.
</event>
<event>
 8    1  0.1164123E-009  0.9118800E+02  0.7816164E-02  0.1184000E+00
        -11   -1    0    0    0    0  0.00000000000E+00  0.00000000000E+00  0.45593999997E+02  0.45594000000E+02  0.51100000000E-03 0. -1.
         11   -1    0    0    0    0 -0.00000000000E+00 -0.00000000000E+00 -0.45593999997E+02  0.45594000000E+02  0.51100000000E-03 0.  1.
         23    2    1    2    0    0 -0.88817841970E-15 -0.71054273576E-14 -0.35527136788E-14  0.91188000000E+02  0.91188000000E+02 0.  0.
    9900012    2    3    3    0    0 -0.72629413114E+01  0.38363360547E+02  0.18950619976E+02  0.47787265601E+02  0.19999975180E+02 0.  0.
        -12    1    3    3    0    0  0.72629413114E+01 -0.38363360547E+02 -0.18950619976E+02  0.43400734399E+02  0.00000000000E+00 0.  1.
         11    1    4    4    0    0 -0.94333790834E+00  0.42700785297E+00  0.35937283134E+01  0.37399338988E+01  0.51100000000E-03 0. -1.
        -11    1    4    4    0    0  0.23087429188E+01  0.17648853213E+01 -0.14401940622E+01  0.32433429144E+01  0.51100000000E-03 0.  1.
         12    1    4    4    0    0 -0.86283463218E+01  0.36171467372E+02  0.16797085725E+02  0.40803988787E+02  0.00000000000E+00 0. -1.
</event>
<event>
 8    1  0.1164123E-009  0.9118800E+02  0.7816164E-02  0.1184000E+00
        -11   -1    0    0    0    0  0.00000000000E+00  0.00000000000E+00  0.45593999997E+02  0.45594000000E+02  0.51100000000E-03 0. -1.
         11   -1    0    0    0    0 -0.00000000000E+00 -0.00000000000E+00 -0.45593999997E+02  0.45594000000E+02  0.51100000000E-03 0.  1.
         23    2    1    2    0    0  0.00000000000E+00  0.00000000000E+00  0.00000000000E+00  0.91188000000E+02  0.91188000000E+02 0.  0.
    9900012    2    3    3    0    0  0.37014160061E+01  0.35735233399E+02 -0.24349865734E+02  0.47787270193E+02  0.19999996118E+02 0.  0.
         12    1    3    3    0    0 -0.37014160061E+01 -0.35735233399E+02  0.24349865734E+02  0.43400729807E+02  0.00000000000E+00 0. -1.
         11    1    4    4    0    0 -0.40979308849E+00  0.55436010579E+01  0.16288853477E+01  0.57924701814E+01  0.51100000000E-03 0. -1.
        -11    1    4    4    0    0 -0.14295561865E+01  0.12503288067E+02 -0.17641576667E+02  0.21670280822E+02  0.51100000000E-03 0.  1.
         12    1    4    4    0    0  0.55407652811E+01  0.17688344274E+02 -0.83371744151E+01  0.20324519190E+02  0.00000000000E+00 0. -1.
</event>
<event>
 8    1  0.1164123E-009  0.9118800E+02  0.7816164E-02  0.1184000E+00
        -11   -1    0    0    0    0  0.00000000000E+00  0.00000000000E+00  0.45593999997E+02  0.45594000000E+02  0.51100000000E-03 0. -1.
         11   -1    0    0    0    0 -0.00000000000E+00 -0.00000000000E+00 -0.45593999997E+02  0.45594000000E+02  0.51100000000E-03 0.  1.
         23    2    1    2    0    0  0.00000000000E+00  0.17763568394E-14  0.00000000000E+00  0.91188000000E+02  0.91188000000E+02 0.  0.
    9900012    2    3    3    0    0 -0.41203457052E+02 -0.11365271856E+02  0.75318672069E+01  0.47787270732E+02  0.19999998574E+02 0.  0.
        -12    1    3    3    0    0  0.41203457052E+02  0.11365271856E+02 -0.75318672069E+01  0.43400729268E+02  0.00000000000E+00 0.  1.
         11    1    4    4    0    0 -0.76224637458E+01 -0.56916702265E+01  0.74857430736E+01  0.12105098643E+02  0.51100000000E-03 0. -1.
        -11    1    4    4    0    0 -0.54009170094E-01  0.89460291472E+00 -0.11968982722E+01  0.14952582053E+01  0.51100000000E-03 0.  1.
         12    1    4    4    0    0 -0.33526984136E+02 -0.65682045439E+01  0.12430224055E+01  0.34186913884E+02  0.00000000000E+00 0. -1.
</event>
<event>
 8    1  0.1164123E-009  0.9118800E+02  0.7816164E-02  0.1184000E+00
        -11   -1    0    0    0    0  0.00000000000E+00  0.00000000000E+00  0.45593999997E+02  0.45594000000E+02  0.51100000000E-03 0. -1.
         11   -1    0    0    0    0 -0.00000000000E+00 -0.00000000000E+00 -0.45593999997E+02  0.45594000000E+02  0.51100000000E-03 0.  1.
         23    2    1    2    0    0 -0.17763568394E-14  0.00000000000E+00  0.00000000000E+00  0.91188000000E+02  0.91188000000E+02 0.  0.
    9900012    2    3    3    0    0 -0.15792060562E+02  0.85250724561E+01 -0.39516543994E+02  0.47787270900E+02  0.19999999342E+02 0.  0.
         12    1    3    3    0    0  0.15792060562E+02 -0.85250724561E+01  0.39516543994E+02  0.43400729100E+02  0.00000000000E+00 0. -1.
         11    1    4    4    0    0 -0.40564098014E+01  0.22343217144E+01 -0.24157186160E+02  0.24597079043E+02  0.51100000000E-03 0. -1.
        -11    1    4    4    0    0 -0.10790370267E+01 -0.23391338916E+01 -0.61617498527E+01  0.66785499755E+01  0.51100000000E-03 0.  1.
         12    1    4    4    0    0 -0.10656613734E+02  0.86298846333E+01 -0.91976079813E+01  0.16511641882E+02  0.00000000000E+00 0. -1.
</event>
<event>
 8    1  0.1164123E-009  0.9118800E+02  0.7816164E-02  0.1184000E+00
        -11   -1    0    0    0    0  0.00000000000E+00  0.00000000000E+00  0.45593999997E+02  0.45594000000E+02  0.51100000000E-03 0. -1.
         11   -1    0    0    0    0 -0.00000000000E+00 -0.00000000000E+00 -0.45593999997E+02  0.45594000000E+02  0.51100000000E-03 0.  1.
         23    2    1    2    0    0  0.00000000000E+00  0.17763568394E-14  0.00000000000E+00  0.91188000000E+02  0.91188000000E+02 0.  0.
    9900012    2    3    3    0    0  0.27814455770E+02 -0.58832239606E+01  0.32792788153E+02  0.47787271564E+02  0.20000002367E+02 0.  0.
        -12    1    3    3    0    0 -0.27814455770E+02  0.58832239606E+01 -0.32792788153E+02  0.43400728436E+02  0.00000000000E+00 0.  1.
         11    1    4    4    0    0  0.15009977490E+02 -0.16563790415E+01  0.21887514388E+02  0.26591470477E+02  0.51100000000E-03 0. -1.
        -11    1    4    4    0    0  0.10681073789E+02 -0.81143427484E+01  0.98510953413E+01  0.16642475032E+02  0.51100000000E-03 0.  1.
         12    1    4    4    0    0  0.21234044916E+01  0.38874978292E+01  0.10541784237E+01  0.45533260543E+01  0.00000000000E+00 0. -1.
</event>
<event>
 8    1  0.1164123E-009  0.9118800E+02  0.7816164E-02  0.1184000E+00
        -11   -1    0    0    0    0  0.00000000000E+00  0.00000000000E+00  0.45593999997E+02  0.45594000000E+02  0.51100000000E-03 0. -1.
         11   -1    0    0    0    0 -0.00000000000E+00 -0.00000000000E+00 -0.45593999997E+02  0.45594000000E+02  0.51100000000E-03 0.  1.
         23    2    1    2    0    0 -0.71054273576E-14  0.00000000000E+00  0.00000000000E+00  0.91188000000E+02  0.91188000000E+02 0.  0.
    9900012    2    3    3    0    0  0.42100445993E+02  0.41000495886E+01  0.97142168384E+01  0.47787263045E+02  0.19999963527E+02 0.  0.
         12    1    3    3    0    0 -0.42100445993E+02 -0.41000495886E+01 -0.97142168384E+01  0.43400736955E+02  0.00000000000E+00 0. -1.
         11    1    4    4    0    0  0.22507195201E+01 -0.34208332396E+01 -0.37628789100E+00  0.41121078839E+01  0.51100000000E-03 0. -1.
        -11    1    4    4    0    0  0.55680271774E+01 -0.26289548506E+01  0.41674075215E+01  0.74351607895E+01  0.51100000000E-03 0.  1.
        -12    1    4    4    0    0  0.34281699296E+02  0.10149837679E+02  0.59230972079E+01  0.36239994372E+02  0.00000000000E+00 0.  1.
</event>
<event>
 8    1  0.1164123E-009  0.9118800E+02  0.7816164E-02  0.1184000E+00
        -11   -1    0    0    0    0  0.00000000000E+00  0.00000000000E+00  0.45593999997E+02  0.45594000000E+02  0.51100000000E-03 0. -1.
         11   -1    0    0    0    0 -0.00000000000E+00 -0.00000000000E+00 -0.45593999997E+02  0.45594000000E+02  0.51100000000E-03 0.  1.
         23    2    1    2    0    0  0.00000000000E+00  0.44408920985E-15  0.00000000000E+00  0.91188000000E+02  0.91188000000E+02 0.  0.
    9900012    2    3    3    0    0 -0.16181715048E+02 -0.20141448703E+01  0.40220873802E+02  0.47787269927E+02  0.19999994905E+02 0.  0.
        -12    1    3    3    0    0  0.16181715048E+02  0.20141448703E+01 -0.40220873802E+02  0.43400730073E+02  0.00000000000E+00 0.  1.
         11    1    4    4    0    0  0.40580367046E+01  0.82115005871E+00  0.27314737430E+01  0.49601308838E+01  0.51100000000E-03 0.  1.
        -11    1    4    4    0    0 -0.33005415393E+01  0.32878564575E-01  0.39830836415E+01  0.51729692643E+01  0.51100000000E-03 0. -1.
        -12    1    4    4    0    0 -0.16939210214E+02 -0.28681734935E+01  0.33506316418E+02  0.37654169779E+02  0.00000000000E+00 0.  1.
</event>
<event>
 8    1  0.1164123E-009  0.9118800E+02  0.7816164E-02  0.1184000E+00
        -11   -1    0    0    0    0  0.00000000000E+00  0.00000000000E+00  0.45593999997E+02  0.45594000000E+02  0.51100000000E-03 0. -1.
         11   -1    0    0    0    0 -0.00000000000E+00 -0.00000000000E+00 -0.45593999997E+02  0.45594000000E+02  0.51100000000E-03 0.  1.
         23    2    1    2    0    0 -0.35527136788E-14 -0.35527136788E-14  0.00000000000E+00  0.91188000000E+02  0.91188000000E+02 0.  0.
    9900012    2    3    3    0    0 -0.21466091015E+02 -0.25424793224E+02 -0.27864138391E+02  0.47787269796E+02  0.19999994307E+02 0.  0.
         12    1    3    3    0    0  0.21466091015E+02  0.25424793224E+02  0.27864138391E+02  0.43400730204E+02  0.00000000000E+00 0. -1.
         11    1    4    4    0    0  0.15275559383E+01 -0.71194192810E+00 -0.37209905469E+00  0.17259045226E+01  0.51100000000E-03 0. -1.
        -11    1    4    4    0    0 -0.13541369339E+02 -0.13028845335E+02 -0.57892759804E+01  0.19663041752E+02  0.51100000000E-03 0.  1.
        -12    1    4    4    0    0 -0.94522776148E+01 -0.11684005961E+02 -0.21702763356E+02  0.26398323521E+02  0.00000000000E+00 0.  1.
</event>
<event>
 8    1  0.1164123E-009  0.9118800E+02  0.7816164E-02  0.1184000E+00
        -11   -1    0    0    0    0  0.00000000000E+00  0.00000000000E+00  0.45593999997E+02  0.45594000000E+02  0.51100000000E-03 0. -1.
         11   -1    0    0    0    0 -0.00000000000E+00 -0.00000000000E+00 -0.45593999997E+02  0.45594000000E+02  0.51100000000E-03 0.  1.
         23    2    1    2    0    0  0.00000000000E+00  0.00000000000E+00  0.00000000000E+00  0.91188000000E+02  0.91188000000E+02 0.  0.
    9900012    2    3    3    0    0 -0.20026782307E+02  0.14079645545E+02 -0.35837337571E+02  0.47787271983E+02  0.20000004280E+02 0.  0.
         12    1    3    3    0    0  0.20026782307E+02 -0.14079645545E+02  0.35837337571E+02  0.43400728017E+02  0.00000000000E+00 0. -1.
         11    1    4    4    0    0  0.10953346355E+00  0.29732418691E+01 -0.58930604847E+01  0.66015397393E+01  0.51100000000E-03 0. -1.
        -11    1    4    4    0    0 -0.15248727979E+02  0.14394765309E+02 -0.28000917948E+02  0.34982629682E+02  0.51100000000E-03 0.  1.
         12    1    4    4    0    0 -0.48875877924E+01 -0.32883616330E+01 -0.19433591379E+01  0.62031025621E+01  0.00000000000E+00 0. -1.
</event>
<event>
 8    1  0.1164123E-009  0.9118800E+02  0.7816164E-02  0.1184000E+00
        -11   -1    0    0    0    0  0.00000000000E+00  0.00000000000E+00  0.45593999997E+02  0.45594000000E+02  0.51100000000E-03 0. -1.
         11   -1    0    0    0    0 -0.00000000000E+00 -0.00000000000E+00 -0.45593999997E+02  0.45594000000E+02  0.51100000000E-03 0.  1.
         23    2    1    2    0    0  0.00000000000E+00  0.88817841970E-15 -0.71054273576E-14  0.91188000000E+02  0.91188000000E+02 0.  0.
    9900012    2    3    3    0    0 -0.10951716033E+02  0.73853401303E+01 -0.41341752453E+02  0.47787264651E+02  0.19999970851E+02 0.  0.
         12    1    3    3    0    0  0.10951716033E+02 -0.73853401303E+01  0.41341752453E+02  0.43400735349E+02  0.00000000000E+00 0. -1.
         11    1    4    4    0    0  0.10284965908E+01 -0.22727458912E+01 -0.50299912466E+01  0.56146229905E+01  0.51100000000E-03 0. -1.
        -11    1    4    4    0    0  0.13029152088E+01  0.28897570373E+01 -0.19275835982E+02  0.19534741791E+02  0.51100000000E-03 0.  1.
         12    1    4    4    0    0 -0.13283127832E+02  0.67683289842E+01 -0.17035925224E+02  0.22637899869E+02  0.00000000000E+00 0. -1.
</event>
<event>
 8    1  0.1164123E-009  0.9118800E+02  0.7816164E-02  0.1184000E+00
        -11   -1    0    0    0    0  0.00000000000E+00  0.00000000000E+00  0.45593999997E+02  0.45594000000E+02  0.51100000000E-03 0. -1.
         11   -1    0    0    0    0 -0.00000000000E+00 -0.00000000000E+00 -0.45593999997E+02  0.45594000000E+02  0.51100000000E-03 0.  1.
         23    2    1    2    0    0  0.00000000000E+00  0.00000000000E+00  0.71054273576E-14  0.91188000000E+02  0.91188000000E+02 0.  0.
    9900012    2    3    3    0    0  0.12019798001E+02  0.14897969599E+02 -0.38951230053E+02  0.47787269997E+02  0.19999995224E+02 0.  0.
         12    1    3    3    0    0 -0.12019798001E+02 -0.14897969599E+02  0.38951230053E+02  0.43400730003E+02  0.00000000000E+00 0. -1.
         11    1    4    4    0    0 -0.67480020642E+00 -0.53618716669E+00  0.14794542637E+01  0.17122024343E+01  0.51100000000E-03 0. -1.
        -11    1    4    4    0    0  0.31985959995E+00  0.38846823967E+01 -0.15203579537E+02  0.15695282683E+02  0.51100000000E-03 0.  1.
         12    1    4    4    0    0  0.12374738607E+02  0.11549474369E+02 -0.25227104780E+02  0.30379784880E+02  0.00000000000E+00 0. -1.
</event>
<event>
 8    1  0.1164123E-009  0.9118800E+02  0.7816164E-02  0.1184000E+00
        -11   -1    0    0    0    0  0.00000000000E+00  0.00000000000E+00  0.45593999997E+02  0.45594000000E+02  0.51100000000E-03 0. -1.
         11   -1    0    0    0    0 -0.00000000000E+00 -0.00000000000E+00 -0.45593999997E+02  0.45594000000E+02  0.51100000000E-03 0.  1.
         23    2    1    2    0    0  0.00000000000E+00 -0.35527136788E-14  0.00000000000E+00  0.91188000000E+02  0.91188000000E+02 0.  0.
    9900012    2    3    3    0    0  0.23373547376E+02  0.16701108419E+02 -0.32532656265E+02  0.47787268866E+02  0.19999990067E+02 0.  0.
         12    1    3    3    0    0 -0.23373547376E+02 -0.16701108419E+02  0.32532656265E+02  0.43400731134E+02  0.00000000000E+00 0. -1.
         11    1    4    4    0    0  0.93389301298E+01 -0.25146617527E+01 -0.63945076373E+01  0.11594346376E+02  0.51100000000E-03 0. -1.
        -11    1    4    4    0    0 -0.53840811928E+00  0.15623458181E+01 -0.40858852535E+01  0.44074103875E+01  0.51100000000E-03 0.  1.
        -12    1    4    4    0    0  0.14573025365E+02  0.17653424353E+02 -0.22052263374E+02  0.31785512102E+02  0.00000000000E+00 0.  1.
</event>
<event>
 8    1  0.1164123E-009  0.9118800E+02  0.7816164E-02  0.1184000E+00
        -11   -1    0    0    0    0  0.00000000000E+00  0.00000000000E+00  0.45593999997E+02  0.45594000000E+02  0.51100000000E-03 0. -1.
         11   -1    0    0    0    0 -0.00000000000E+00 -0.00000000000E+00 -0.45593999997E+02  0.45594000000E+02  0.51100000000E-03 0.  1.
         23    2    1    2    0    0 -0.35527136788E-14  0.00000000000E+00  0.00000000000E+00  0.91188000000E+02  0.91188000000E+02 0.  0.
    9900012    2    3    3    0    0 -0.29564028333E+02 -0.19893030904E+02 -0.24776175191E+02  0.47787270664E+02  0.19999998266E+02 0.  0.
         12    1    3    3    0    0  0.29564028333E+02  0.19893030904E+02  0.24776175191E+02  0.43400729336E+02  0.00000000000E+00 0. -1.
         11    1    4    4    0    0 -0.12695470867E+02 -0.36940415885E+01 -0.36834612179E+01  0.13725480341E+02  0.51100000000E-03 0. -1.
        -11    1    4    4    0    0  0.28263919989E+00 -0.43123821907E+01  0.95928504213E-01  0.43226991122E+01  0.51100000000E-03 0.  1.
        -12    1    4    4    0    0 -0.17151196665E+02 -0.11886607125E+02 -0.21188642477E+02  0.29739091210E+02  0.00000000000E+00 0.  1.
</event>
<event>
 8    1  0.1178379E-009  0.9118800E+02  0.7816164E-02  0.1184000E+00
        -11   -1    0    0    0    0  0.00000000000E+00  0.00000000000E+00  0.45593999997E+02  0.45594000000E+02  0.51100000000E-03 0. -1.
         11   -1    0    0    0    0 -0.00000000000E+00 -0.00000000000E+00 -0.45593999997E+02  0.45594000000E+02  0.51100000000E-03 0.  1.
         23    2    1    2    0    0  0.00000000000E+00  0.35527136788E-14  0.35527136788E-14  0.91188000000E+02  0.91188000000E+02 0.  0.
    9900012    2    3    3    0    0  0.86715827952E+01 -0.30275022244E+02 -0.29863871482E+02  0.47787261067E+02  0.19999954509E+02 0.  0.
         12    1    3    3    0    0 -0.86715827952E+01  0.30275022244E+02  0.29863871482E+02  0.43400738933E+02  0.00000000000E+00 0. -1.
         11    1    4    4    0    0  0.41269793572E+01 -0.90833145541E+01 -0.33839243726E+00  0.99826385093E+01  0.51100000000E-03 0. -1.
        -11    1    4    4    0    0  0.43172169036E+00  0.97412400641E+00 -0.12877118633E+01  0.16713776658E+01  0.51100000000E-03 0.  1.
        -12    1    4    4    0    0  0.41128817477E+01 -0.22165831696E+02 -0.28237767181E+02  0.36133244892E+02  0.00000000000E+00 0.  1.
</event>
<event>
 8    1  0.1164123E-009  0.9118800E+02  0.7816164E-02  0.1184000E+00
        -11   -1    0    0    0    0  0.00000000000E+00  0.00000000000E+00  0.45593999997E+02  0.45594000000E+02  0.51100000000E-03 0. -1.
         11   -1    0    0    0    0 -0.00000000000E+00 -0.00000000000E+00 -0.45593999997E+02  0.45594000000E+02  0.51100000000E-03 0.  1.
         23    2    1    2    0    0  0.88817841970E-15 -0.33306690739E-15  0.00000000000E+00  0.91188000000E+02  0.91188000000E+02 0.  0.
    9900012    2    3    3    0    0 -0.84078768552E+00 -0.90833296810E+00  0.43383084135E+02  0.47787262889E+02  0.19999962817E+02 0.  0.
        -12    1    3    3    0    0  0.84078768552E+00  0.90833296810E+00 -0.43383084135E+02  0.43400737111E+02  0.00000000000E+00 0.  1.
         11    1    4    4    0    0 -0.57429130005E+01  0.19090248378E+01  0.86667740568E+01  0.10570638504E+02  0.51100000000E-03 0. -1.
        -11    1    4    4    0    0 -0.24768059666E+01  0.10278626386E+01  0.17164271006E+01  0.31838956725E+01  0.51100000000E-03 0.  1.
         12    1    4    4    0    0  0.73789312816E+01 -0.38452204444E+01  0.32999882978E+02  0.34032728713E+02  0.00000000000E+00 0. -1.
</event>
<event>
 8    1  0.1164123E-009  0.9118800E+02  0.7816164E-02  0.1184000E+00
        -11   -1    0    0    0    0  0.00000000000E+00  0.00000000000E+00  0.45593999997E+02  0.45594000000E+02  0.51100000000E-03 0. -1.
         11   -1    0    0    0    0 -0.00000000000E+00 -0.00000000000E+00 -0.45593999997E+02  0.45594000000E+02  0.51100000000E-03 0.  1.
         23    2    1    2    0    0  0.00000000000E+00 -0.35527136788E-14 -0.71054273576E-14  0.91188000000E+02  0.91188000000E+02 0.  0.
    9900012    2    3    3    0    0  0.20108980970E+02  0.24051618856E+02  0.30012871263E+02  0.47787263524E+02  0.19999965710E+02 0.  0.
        -12    1    3    3    0    0 -0.20108980970E+02 -0.24051618856E+02 -0.30012871263E+02  0.43400736476E+02  0.00000000000E+00 0.  1.
         11    1    4    4    0    0  0.49669318438E+01  0.83473119585E+01  0.10206500368E+02  0.14089736651E+02  0.51100000000E-03 0. -1.
        -11    1    4    4    0    0  0.20774311651E+01 -0.21929577190E+01  0.80828808581E+01  0.86288902548E+01  0.51100000000E-03 0.  1.
        -12    1    4    4    0    0  0.13064617961E+02  0.17897264617E+02  0.11723490037E+02  0.25068636618E+02  0.00000000000E+00 0.  1.
</event>
<event>
 8    1  0.1164123E-009  0.9118800E+02  0.7816164E-02  0.1184000E+00
        -11   -1    0    0    0    0  0.00000000000E+00  0.00000000000E+00  0.45593999997E+02  0.45594000000E+02  0.51100000000E-03 0. -1.
         11   -1    0    0    0    0 -0.00000000000E+00 -0.00000000000E+00 -0.45593999997E+02  0.45594000000E+02  0.51100000000E-03 0.  1.
         23    2    1    2    0    0  0.00000000000E+00  0.49960036108E-15  0.00000000000E+00  0.91188000000E+02  0.91188000000E+02 0.  0.
    9900012    2    3    3    0    0 -0.38404441545E+02 -0.38567564770E+00 -0.20213191965E+02  0.47787274136E+02  0.20000014097E+02 0.  0.
         12    1    3    3    0    0  0.38404441545E+02  0.38567564770E+00  0.20213191965E+02  0.43400725864E+02  0.00000000000E+00 0. -1.
         11    1    4    4    0    0 -0.15275755450E+02 -0.56754706848E+01 -0.25646402521E+01  0.16496576976E+02  0.51100000000E-03 0. -1.
        -11    1    4    4    0    0 -0.72071171831E+01  0.33538175684E+01 -0.73741630594E+00  0.79833835836E+01  0.51100000000E-03 0.  1.
         12    1    4    4    0    0 -0.15921568912E+02  0.19359774688E+01 -0.16911135407E+02  0.23307313576E+02  0.00000000000E+00 0. -1.
</event>
<event>
 8    1  0.1164123E-009  0.9118800E+02  0.7816164E-02  0.1184000E+00
        -11   -1    0    0    0    0  0.00000000000E+00  0.00000000000E+00  0.45593999997E+02  0.45594000000E+02  0.51100000000E-03 0. -1.
         11   -1    0    0    0    0 -0.00000000000E+00 -0.00000000000E+00 -0.45593999997E+02  0.45594000000E+02  0.51100000000E-03 0.  1.
         23    2    1    2    0    0  0.88817841970E-15  0.00000000000E+00 -0.71054273576E-14  0.91188000000E+02  0.91188000000E+02 0.  0.
    9900012    2    3    3    0    0  0.75210730697E+01 -0.25792800469E+01 -0.42666190808E+02  0.47787273465E+02  0.20000011035E+02 0.  0.
         12    1    3    3    0    0 -0.75210730697E+01  0.25792800469E+01  0.42666190808E+02  0.43400726535E+02  0.00000000000E+00 0. -1.
         11    1    4    4    0    0  0.81267714731E+01  0.37709162583E+01 -0.11285683345E+02  0.14409402237E+02  0.51100000000E-03 0. -1.
        -11    1    4    4    0    0  0.18384438785E+01 -0.16962021712E+01 -0.12576258245E+01  0.27997501094E+01  0.51100000000E-03 0.  1.
        -12    1    4    4    0    0 -0.24441422819E+01 -0.46539941339E+01 -0.30122881639E+02  0.30578121118E+02  0.00000000000E+00 0.  1.
</event>
<event>
 8    1  0.1164123E-009  0.9118800E+02  0.7816164E-02  0.1184000E+00
        -11   -1    0    0    0    0  0.00000000000E+00  0.00000000000E+00  0.45593999997E+02  0.45594000000E+02  0.51100000000E-03 0. -1.
         11   -1    0    0    0    0 -0.00000000000E+00 -0.00000000000E+00 -0.45593999997E+02  0.45594000000E+02  0.51100000000E-03 0.  1.
         23    2    1    2    0    0  0.00000000000E+00  0.00000000000E+00  0.71054273576E-14  0.91188000000E+02  0.91188000000E+02 0.  0.
    9900012    2    3    3    0    0 -0.23470972451E+02  0.22820738581E+02 -0.28494744811E+02  0.47787272598E+02  0.20000007083E+02 0.  0.
         12    1    3    3    0    0  0.23470972451E+02 -0.22820738581E+02  0.28494744811E+02  0.43400727402E+02  0.00000000000E+00 0. -1.
         11    1    4    4    0    0  0.63286500280E+00 -0.13339801920E+01 -0.94148512081E+00  0.17511184307E+01  0.51100000000E-03 0. -1.
        -11    1    4    4    0    0 -0.10859355491E+02  0.12122377258E+02 -0.21870260198E+02  0.27261436379E+02  0.51100000000E-03 0.  1.
        -12    1    4    4    0    0 -0.13244481963E+02  0.12032341515E+02 -0.56829994919E+01  0.18774717788E+02  0.00000000000E+00 0.  1.
</event>
<event>
 8    1  0.1164123E-009  0.9118800E+02  0.7816164E-02  0.1184000E+00
        -11   -1    0    0    0    0  0.00000000000E+00  0.00000000000E+00  0.45593999997E+02  0.45594000000E+02  0.51100000000E-03 0. -1.
         11   -1    0    0    0    0 -0.00000000000E+00 -0.00000000000E+00 -0.45593999997E+02  0.45594000000E+02  0.51100000000E-03 0.  1.
         23    2    1    2    0    0  0.00000000000E+00  0.17763568394E-14 -0.71054273576E-14  0.91188000000E+02  0.91188000000E+02 0.  0.
    9900012    2    3    3    0    0 -0.17325437566E+02  0.13020990160E+02  0.37601943644E+02  0.47787272616E+02  0.20000007167E+02 0.  0.
        -12    1    3    3    0    0  0.17325437566E+02 -0.13020990160E+02 -0.37601943644E+02  0.43400727384E+02  0.00000000000E+00 0.  1.
         11    1    4    4    0    0 -0.68352597744E+01 -0.10163558013E+01  0.71082094350E+01  0.99136470046E+01  0.51100000000E-03 0. -1.
        -11    1    4    4    0    0 -0.79144447690E+01  0.20387648290E+01  0.50026344265E+01  0.95823457199E+01  0.51100000000E-03 0.  1.
         12    1    4    4    0    0 -0.25757330224E+01  0.11998581132E+02  0.25491099783E+02  0.28291279892E+02  0.00000000000E+00 0. -1.
</event>
<event>
 8    1  0.1164123E-009  0.9118800E+02  0.7816164E-02  0.1184000E+00
        -11   -1    0    0    0    0  0.00000000000E+00  0.00000000000E+00  0.45593999997E+02  0.45594000000E+02  0.51100000000E-03 0. -1.
         11   -1    0    0    0    0 -0.00000000000E+00 -0.00000000000E+00 -0.45593999997E+02  0.45594000000E+02  0.51100000000E-03 0.  1.
         23    2    1    2    0    0 -0.35527136788E-14  0.00000000000E+00 -0.71054273576E-14  0.91188000000E+02  0.91188000000E+02 0.  0.
    9900012    2    3    3    0    0 -0.20529148620E+02  0.20811760131E+02 -0.32078777511E+02  0.47787271096E+02  0.20000000233E+02 0.  0.
         12    1    3    3    0    0  0.20529148620E+02 -0.20811760131E+02  0.32078777511E+02  0.43400728904E+02  0.00000000000E+00 0. -1.
         11    1    4    4    0    0  0.18061009319E+01  0.62638778477E+01 -0.40777802227E+01  0.76893730611E+01  0.51100000000E-03 0. -1.
        -11    1    4    4    0    0 -0.26771744295E+01 -0.52701096666E+00 -0.73712644283E+01  0.78600599882E+01  0.51100000000E-03 0.  1.
         12    1    4    4    0    0 -0.19658075123E+02  0.15074893250E+02 -0.20629732860E+02  0.32237838046E+02  0.00000000000E+00 0. -1.
</event>
<event>
 8    1  0.1164123E-009  0.9118800E+02  0.7816164E-02  0.1184000E+00
        -11   -1    0    0    0    0  0.00000000000E+00  0.00000000000E+00  0.45593999997E+02  0.45594000000E+02  0.51100000000E-03 0. -1.
         11   -1    0    0    0    0 -0.00000000000E+00 -0.00000000000E+00 -0.45593999997E+02  0.45594000000E+02  0.51100000000E-03 0.  1.
         23    2    1    2    0    0  0.13322676296E-14  0.00000000000E+00  0.00000000000E+00  0.91188000000E+02  0.91188000000E+02 0.  0.
    9900012    2    3    3    0    0 -0.37038155494E+01 -0.19458496947E+02 -0.38616990674E+02  0.47787270493E+02  0.19999997485E+02 0.  0.
         12    1    3    3    0    0  0.37038155494E+01  0.19458496947E+02  0.38616990674E+02  0.43400729507E+02  0.00000000000E+00 0. -1.
         11    1    4    4    0    0 -0.28238560214E+00  0.11383781107E+01 -0.31185667447E+01  0.33318321017E+01  0.51100000000E-03 0. -1.
        -11    1    4    4    0    0  0.53289772061E+01 -0.64814447920E+01 -0.20208110310E+02  0.21880924277E+02  0.51100000000E-03 0.  1.
         12    1    4    4    0    0 -0.87504071533E+01 -0.14115430265E+02 -0.15290313619E+02  0.22574514115E+02  0.00000000000E+00 0. -1.
</event>
<event>
 8    1  0.1164123E-009  0.9118800E+02  0.7816164E-02  0.1184000E+00
        -11   -1    0    0    0    0  0.00000000000E+00  0.00000000000E+00  0.45593999997E+02  0.45594000000E+02  0.51100000000E-03 0. -1.
         11   -1    0    0    0    0 -0.00000000000E+00 -0.00000000000E+00 -0.45593999997E+02  0.45594000000E+02  0.51100000000E-03 0.  1.
         23    2    1    2    0    0  0.00000000000E+00  0.00000000000E+00  0.00000000000E+00  0.91188000000E+02  0.91188000000E+02 0.  0.
    9900012    2    3    3    0    0 -0.85917110272E+01  0.81238727754E+01  0.41758934094E+02  0.47787269777E+02  0.19999994221E+02 0.  0.
        -12    1    3    3    0    0  0.85917110272E+01 -0.81238727754E+01 -0.41758934094E+02  0.43400730223E+02  0.00000000000E+00 0.  1.
         11    1    4    4    0    0  0.40644834439E+00 -0.28910711499E+01  0.41551707233E+01  0.50782808756E+01  0.51100000000E-03 0.  1.
        -11    1    4    4    0    0 -0.14662434868E+00  0.89959675053E+01  0.91106161074E+01  0.12804384256E+02  0.51100000000E-03 0. -1.
         12    1    4    4    0    0 -0.88515350229E+01  0.20189764200E+01  0.28493147263E+02  0.29904604645E+02  0.00000000000E+00 0. -1.
</event>
<event>
 8    1  0.1164123E-009  0.9118800E+02  0.7816164E-02  0.1184000E+00
        -11   -1    0    0    0    0  0.00000000000E+00  0.00000000000E+00  0.45593999997E+02  0.45594000000E+02  0.51100000000E-03 0. -1.
         11   -1    0    0    0    0 -0.00000000000E+00 -0.00000000000E+00 -0.45593999997E+02  0.45594000000E+02  0.51100000000E-03 0.  1.
         23    2    1    2    0    0 -0.35527136788E-14  0.88817841970E-15  0.35527136788E-14  0.91188000000E+02  0.91188000000E+02 0.  0.
    9900012    2    3    3    0    0  0.30107112826E+02  0.27804707716E+01 -0.31136059940E+02  0.47787268566E+02  0.19999988701E+02 0.  0.
         12    1    3    3    0    0 -0.30107112826E+02 -0.27804707716E+01  0.31136059940E+02  0.43400731434E+02  0.00000000000E+00 0. -1.
         11    1    4    4    0    0  0.15465627585E+02  0.89534046572E+01 -0.10393132701E+02  0.20672839649E+02  0.51100000000E-03 0. -1.
        -11    1    4    4    0    0  0.68284962823E+00 -0.22772027439E+01 -0.89817930265E+00  0.25413898309E+01  0.51100000000E-03 0.  1.
        -12    1    4    4    0    0  0.13958635612E+02 -0.38957311417E+01 -0.19844747936E+02  0.24573039086E+02  0.00000000000E+00 0.  1.
</event>
<event>
 8    1  0.1164123E-009  0.9118800E+02  0.7816164E-02  0.1184000E+00
        -11   -1    0    0    0    0  0.00000000000E+00  0.00000000000E+00  0.45593999997E+02  0.45594000000E+02  0.51100000000E-03 0. -1.
         11   -1    0    0    0    0 -0.00000000000E+00 -0.00000000000E+00 -0.45593999997E+02  0.45594000000E+02  0.51100000000E-03 0.  1.
         23    2    1    2    0    0  0.00000000000E+00  0.00000000000E+00 -0.35527136788E-14  0.91188000000E+02  0.91188000000E+02 0.  0.
    9900012    2    3    3    0    0  0.31016467702E+02  0.54156759418E+01  0.29870929638E+02  0.47787271296E+02  0.20000001147E+02 0.  0.
        -12    1    3    3    0    0 -0.31016467702E+02 -0.54156759418E+01 -0.29870929638E+02  0.43400728704E+02  0.00000000000E+00 0.  1.
         11    1    4    4    0    0  0.26011011886E+02  0.56643777304E+01  0.25907281593E+02  0.37146267029E+02  0.51100000000E-03 0. -1.
        -11    1    4    4    0    0  0.57195296891E+01 -0.16275999039E+01  0.57514943721E+01  0.82729552812E+01  0.51100000000E-03 0.  1.
        -12    1    4    4    0    0 -0.71407387353E+00  0.13788981153E+01 -0.17878463270E+01  0.23680489857E+01  0.00000000000E+00 0.  1.
</event>
<event>
 8    1  0.1164123E-009  0.9118800E+02  0.7816164E-02  0.1184000E+00
        -11   -1    0    0    0    0  0.00000000000E+00  0.00000000000E+00  0.45593999997E+02  0.45594000000E+02  0.51100000000E-03 0. -1.
         11   -1    0    0    0    0 -0.00000000000E+00 -0.00000000000E+00 -0.45593999997E+02  0.45594000000E+02  0.51100000000E-03 0.  1.
         23    2    1    2    0    0  0.00000000000E+00  0.88817841970E-15 -0.71054273576E-14  0.91188000000E+02  0.91188000000E+02 0.  0.
    9900012    2    3    3    0    0  0.13050095685E+01  0.60118566341E+01 -0.42962521300E+02  0.47787266059E+02  0.19999977269E+02 0.  0.
         12    1    3    3    0    0 -0.13050095685E+01 -0.60118566341E+01  0.42962521300E+02  0.43400733941E+02  0.00000000000E+00 0. -1.
         11    1    4    4    0    0  0.57804271006E+01  0.29706192859E+01 -0.12024178236E+02  0.13668166626E+02  0.51100000000E-03 0. -1.
        -11    1    4    4    0    0  0.10514478819E+01  0.67176249781E+01 -0.95419152429E+01  0.11716662270E+02  0.51100000000E-03 0.  1.
        -12    1    4    4    0    0 -0.55268654139E+01 -0.36763876299E+01 -0.21396427821E+02  0.22402437162E+02  0.00000000000E+00 0.  1.
</event>
<event>
 8    1  0.1164123E-009  0.9118800E+02  0.7816164E-02  0.1184000E+00
        -11   -1    0    0    0    0  0.00000000000E+00  0.00000000000E+00  0.45593999997E+02  0.45594000000E+02  0.51100000000E-03 0. -1.
         11   -1    0    0    0    0 -0.00000000000E+00 -0.00000000000E+00 -0.45593999997E+02  0.45594000000E+02  0.51100000000E-03 0.  1.
         23    2    1    2    0    0  0.17763568394E-14  0.17763568394E-14  0.00000000000E+00  0.91188000000E+02  0.91188000000E+02 0.  0.
    9900012    2    3    3    0    0  0.10853908074E+02  0.12581078736E+02 -0.40094044925E+02  0.47787270731E+02  0.19999998573E+02 0.  0.
         12    1    3    3    0    0 -0.10853908074E+02 -0.12581078736E+02  0.40094044925E+02  0.43400729269E+02  0.00000000000E+00 0. -1.
         11    1    4    4    0    0  0.11413132047E+00 -0.56004200073E+00 -0.99952351355E+01  0.10011563248E+02  0.51100000000E-03 0. -1.
        -11    1    4    4    0    0  0.89981501245E+00  0.52666201387E+01 -0.22353263206E+02  0.22982935647E+02  0.51100000000E-03 0.  1.
         12    1    4    4    0    0  0.98399617406E+01  0.78745005977E+01 -0.77455465832E+01  0.14792771836E+02  0.00000000000E+00 0. -1.
</event>
<event>
 8    1  0.1164123E-009  0.9118800E+02  0.7816164E-02  0.1184000E+00
        -11   -1    0    0    0    0  0.00000000000E+00  0.00000000000E+00  0.45593999997E+02  0.45594000000E+02  0.51100000000E-03 0. -1.
         11   -1    0    0    0    0 -0.00000000000E+00 -0.00000000000E+00 -0.45593999997E+02  0.45594000000E+02  0.51100000000E-03 0.  1.
         23    2    1    2    0    0  0.77715611724E-15  0.17763568394E-14  0.00000000000E+00  0.91188000000E+02  0.91188000000E+02 0.  0.
    9900012    2    3    3    0    0 -0.63539213435E+00 -0.95924771240E+01  0.42322618821E+02  0.47787269541E+02  0.19999993144E+02 0.  0.
        -12    1    3    3    0    0  0.63539213435E+00  0.95924771240E+01 -0.42322618821E+02  0.43400730459E+02  0.00000000000E+00 0.  1.
         11    1    4    4    0    0  0.21029336957E+01  0.74182429787E-01  0.75643823502E+01  0.78516058079E+01  0.51100000000E-03 0. -1.
        -11    1    4    4    0    0 -0.96615426580E+01 -0.53947350487E+01  0.15641762666E+02  0.19160201260E+02  0.51100000000E-03 0.  1.
        -12    1    4    4    0    0  0.69232168280E+01 -0.42719245051E+01  0.19116473805E+02  0.20775462472E+02  0.00000000000E+00 0.  1.
</event>
<event>
 8    1  0.1164123E-009  0.9118800E+02  0.7816164E-02  0.1184000E+00
        -11   -1    0    0    0    0  0.00000000000E+00  0.00000000000E+00  0.45593999997E+02  0.45594000000E+02  0.51100000000E-03 0. -1.
         11   -1    0    0    0    0 -0.00000000000E+00 -0.00000000000E+00 -0.45593999997E+02  0.45594000000E+02  0.51100000000E-03 0.  1.
         23    2    1    2    0    0  0.00000000000E+00  0.44408920985E-15  0.14210854715E-13  0.91188000000E+02  0.91188000000E+02 0.  0.
    9900012    2    3    3    0    0 -0.92415168619E+01  0.33972572685E+01 -0.42269093359E+02  0.47787271386E+02  0.20000001556E+02 0.  0.
         12    1    3    3    0    0  0.92415168619E+01 -0.33972572685E+01  0.42269093359E+02  0.43400728614E+02  0.00000000000E+00 0. -1.
         11    1    4    4    0    0 -0.48190538281E+01  0.22806110514E+01 -0.38992747259E+02  0.39355543518E+02  0.51100000000E-03 0. -1.
        -11    1    4    4    0    0 -0.34104370463E+01  0.25099797797E+01 -0.46055196558E+01  0.62563480484E+01  0.51100000000E-03 0.  1.
         12    1    4    4    0    0 -0.10120259875E+01 -0.13933335626E+01  0.13291735557E+01  0.21753798191E+01  0.00000000000E+00 0. -1.
</event>
<event>
 8    1  0.1164123E-009  0.9118800E+02  0.7816164E-02  0.1184000E+00
        -11   -1    0    0    0    0  0.00000000000E+00  0.00000000000E+00  0.45593999997E+02  0.45594000000E+02  0.51100000000E-03 0. -1.
         11   -1    0    0    0    0 -0.00000000000E+00 -0.00000000000E+00 -0.45593999997E+02  0.45594000000E+02  0.51100000000E-03 0.  1.
         23    2    1    2    0    0  0.00000000000E+00  0.17763568394E-14  0.00000000000E+00  0.91188000000E+02  0.91188000000E+02 0.  0.
    9900012    2    3    3    0    0 -0.27669113639E+01  0.98827905927E+01  0.42169871394E+02  0.47787269571E+02  0.19999993281E+02 0.  0.
        -12    1    3    3    0    0  0.27669113639E+01 -0.98827905927E+01 -0.42169871394E+02  0.43400730429E+02  0.00000000000E+00 0.  1.
         11    1    4    4    0    0  0.42237473938E+01  0.46812270790E+01  0.98733325023E+01  0.11714803625E+02  0.51100000000E-03 0. -1.
        -11    1    4    4    0    0  0.50699228375E+00 -0.40685003460E+01  0.71342372841E+01  0.82284310854E+01  0.51100000000E-03 0.  1.
        -12    1    4    4    0    0 -0.74976510415E+01  0.92700638596E+01  0.25162301608E+02  0.27844034860E+02  0.00000000000E+00 0.  1.
</event>
<event>
 8    1  0.1164123E-009  0.9118800E+02  0.7816164E-02  0.1184000E+00
        -11   -1    0    0    0    0  0.00000000000E+00  0.00000000000E+00  0.45593999997E+02  0.45594000000E+02  0.51100000000E-03 0. -1.
         11   -1    0    0    0    0 -0.00000000000E+00 -0.00000000000E+00 -0.45593999997E+02  0.45594000000E+02  0.51100000000E-03 0.  1.
         23    2    1    2    0    0  0.35527136788E-14 -0.17763568394E-14  0.00000000000E+00  0.91188000000E+02  0.91188000000E+02 0.  0.
    9900012    2    3    3    0    0 -0.26034356919E+02  0.10907664653E+02  0.32967522738E+02  0.47787280606E+02  0.20000043597E+02 0.  0.
        -12    1    3    3    0    0  0.26034356919E+02 -0.10907664653E+02 -0.32967522738E+02  0.43400719394E+02  0.00000000000E+00 0.  1.
         11    1    4    4    0    0 -0.23515317711E+02  0.97588364375E+01  0.31131710979E+02  0.40216768697E+02  0.51100000000E-03 0. -1.
        -11    1    4    4    0    0 -0.20654774898E+01  0.33778925688E+01  0.30445551089E+01  0.49945641991E+01  0.51100000000E-03 0.  1.
        -12    1    4    4    0    0 -0.45356171841E+00 -0.22290643535E+01 -0.12087433491E+01  0.25759477107E+01  0.00000000000E+00 0.  1.
</event>
<event>
 8    1  0.1164123E-009  0.9118800E+02  0.7816164E-02  0.1184000E+00
        -11   -1    0    0    0    0  0.00000000000E+00  0.00000000000E+00  0.45593999997E+02  0.45594000000E+02  0.51100000000E-03 0. -1.
         11   -1    0    0    0    0 -0.00000000000E+00 -0.00000000000E+00 -0.45593999997E+02  0.45594000000E+02  0.51100000000E-03 0.  1.
         23    2    1    2    0    0  0.35527136788E-14  0.35527136788E-14  0.00000000000E+00  0.91188000000E+02  0.91188000000E+02 0.  0.
    9900012    2    3    3    0    0  0.29060534351E+02 -0.24160703134E+02 -0.21339381911E+02  0.47787268981E+02  0.19999990590E+02 0.  0.
         12    1    3    3    0    0 -0.29060534351E+02  0.24160703134E+02  0.21339381911E+02  0.43400731019E+02  0.00000000000E+00 0. -1.
         11    1    4    4    0    0  0.99326166867E+01 -0.38340299007E+01 -0.71853003006E+01  0.12844656484E+02  0.51100000000E-03 0. -1.
        -11    1    4    4    0    0  0.20515664274E+02 -0.14119757399E+02 -0.81726515066E+01  0.26211681795E+02  0.51100000000E-03 0.  1.
         12    1    4    4    0    0 -0.13877466099E+01 -0.62069158350E+01 -0.59814301033E+01  0.87309307016E+01  0.00000000000E+00 0. -1.
</event>
<event>
 8    1  0.1164123E-009  0.9118800E+02  0.7816164E-02  0.1184000E+00
        -11   -1    0    0    0    0  0.00000000000E+00  0.00000000000E+00  0.45593999997E+02  0.45594000000E+02  0.51100000000E-03 0. -1.
         11   -1    0    0    0    0 -0.00000000000E+00 -0.00000000000E+00 -0.45593999997E+02  0.45594000000E+02  0.51100000000E-03 0.  1.
         23    2    1    2    0    0  0.00000000000E+00 -0.35527136788E-14 -0.71054273576E-14  0.91188000000E+02  0.91188000000E+02 0.  0.
    9900012    2    3    3    0    0  0.51335286313E+00 -0.20761394832E+02 -0.38109370458E+02  0.47787272319E+02  0.20000005813E+02 0.  0.
         12    1    3    3    0    0 -0.51335286313E+00  0.20761394832E+02  0.38109370458E+02  0.43400727681E+02  0.00000000000E+00 0. -1.
         11    1    4    4    0    0 -0.13724131571E+01 -0.63167871084E+01 -0.43171049826E+01  0.77732048049E+01  0.51100000000E-03 0. -1.
        -11    1    4    4    0    0  0.13425095441E+01 -0.17629542058E+02 -0.24786280515E+02  0.30446063573E+02  0.51100000000E-03 0.  1.
        -12    1    4    4    0    0  0.54325647618E+00  0.31849343353E+01 -0.90059849606E+01  0.95680039418E+01  0.00000000000E+00 0.  1.
</event>
<event>
 8    1  0.1164123E-009  0.9118800E+02  0.7816164E-02  0.1184000E+00
        -11   -1    0    0    0    0  0.00000000000E+00  0.00000000000E+00  0.45593999997E+02  0.45594000000E+02  0.51100000000E-03 0. -1.
         11   -1    0    0    0    0 -0.00000000000E+00 -0.00000000000E+00 -0.45593999997E+02  0.45594000000E+02  0.51100000000E-03 0.  1.
         23    2    1    2    0    0  0.00000000000E+00  0.88817841970E-15 -0.71054273576E-14  0.91188000000E+02  0.91188000000E+02 0.  0.
    9900012    2    3    3    0    0 -0.44056548180E+01 -0.60827244661E+01 -0.42745918663E+02  0.47787275425E+02  0.20000019971E+02 0.  0.
         12    1    3    3    0    0  0.44056548180E+01  0.60827244661E+01  0.42745918663E+02  0.43400724575E+02  0.00000000000E+00 0. -1.
         11    1    4    4    0    0 -0.21749470740E+00 -0.19057957761E+00  0.52971140639E+00  0.60350555783E+00  0.51100000000E-03 0. -1.
        -11    1    4    4    0    0  0.55222781738E+01 -0.94823061767E+00 -0.27147288143E+02  0.27719486851E+02  0.51100000000E-03 0.  1.
        -12    1    4    4    0    0 -0.97104382843E+01 -0.49439142708E+01 -0.16128341927E+02  0.19464283015E+02  0.00000000000E+00 0.  1.
</event>
<event>
 8    1  0.1164123E-009  0.9118800E+02  0.7816164E-02  0.1184000E+00
        -11   -1    0    0    0    0  0.00000000000E+00  0.00000000000E+00  0.45593999997E+02  0.45594000000E+02  0.51100000000E-03 0.  1.
         11   -1    0    0    0    0 -0.00000000000E+00 -0.00000000000E+00 -0.45593999997E+02  0.45594000000E+02  0.51100000000E-03 0. -1.
         23    2    1    2    0    0  0.00000000000E+00 -0.35527136788E-14  0.00000000000E+00  0.91188000000E+02  0.91188000000E+02 0.  0.
    9900012    2    3    3    0    0 -0.20151737931E+02  0.30333550880E+02 -0.23609456546E+02  0.47787270870E+02  0.19999999206E+02 0.  0.
         12    1    3    3    0    0  0.20151737931E+02 -0.30333550880E+02  0.23609456546E+02  0.43400729130E+02  0.00000000000E+00 0. -1.
         11    1    4    4    0    0 -0.29618910033E+01 -0.11123510129E+01 -0.24295480624E+01  0.39890885099E+01  0.51100000000E-03 0. -1.
        -11    1    4    4    0    0 -0.13652647670E+01 -0.69430730221E+00  0.84029243029E+00  0.17470266579E+01  0.51100000000E-03 0.  1.
         12    1    4    4    0    0 -0.15824582161E+02  0.32140209195E+02 -0.22020200914E+02  0.42051155702E+02  0.00000000000E+00 0. -1.
</event>
<event>
 8    1  0.1164123E-009  0.9118800E+02  0.7816164E-02  0.1184000E+00
        -11   -1    0    0    0    0  0.00000000000E+00  0.00000000000E+00  0.45593999997E+02  0.45594000000E+02  0.51100000000E-03 0. -1.
         11   -1    0    0    0    0 -0.00000000000E+00 -0.00000000000E+00 -0.45593999997E+02  0.45594000000E+02  0.51100000000E-03 0.  1.
         23    2    1    2    0    0  0.00000000000E+00  0.00000000000E+00  0.00000000000E+00  0.91188000000E+02  0.91188000000E+02 0.  0.
    9900012    2    3    3    0    0 -0.14985588719E+02  0.10415058306E+02  0.39377428251E+02  0.47787272305E+02  0.20000005749E+02 0.  0.
        -12    1    3    3    0    0  0.14985588719E+02 -0.10415058306E+02 -0.39377428251E+02  0.43400727695E+02  0.00000000000E+00 0.  1.
         11    1    4    4    0    0  0.84731436835E+00 -0.19955088321E+01  0.98163864393E+00  0.23798344115E+01  0.51100000000E-03 0. -1.
        -11    1    4    4    0    0 -0.88983113519E+00  0.70003514787E+01  0.57644311735E+01  0.91118267811E+01  0.51100000000E-03 0.  1.
         12    1    4    4    0    0 -0.14943071952E+02  0.54102156590E+01  0.32631358433E+02  0.36295611113E+02  0.00000000000E+00 0. -1.
</event>
<event>
 8    1  0.1164123E-009  0.9118800E+02  0.7816164E-02  0.1184000E+00
        -11   -1    0    0    0    0  0.00000000000E+00  0.00000000000E+00  0.45593999997E+02  0.45594000000E+02  0.51100000000E-03 0.  1.
         11   -1    0    0    0    0 -0.00000000000E+00 -0.00000000000E+00 -0.45593999997E+02  0.45594000000E+02  0.51100000000E-03 0. -1.
         23    2    1    2    0    0  0.00000000000E+00  0.00000000000E+00 -0.88817841970E-15  0.91188000000E+02  0.91188000000E+02 0.  0.
    9900012    2    3    3    0    0  0.21303494942E+02 -0.37587899443E+02  0.41151067644E+01  0.47787272069E+02  0.20000004672E+02 0.  0.
         12    1    3    3    0    0 -0.21303494942E+02  0.37587899443E+02 -0.41151067644E+01  0.43400727931E+02  0.00000000000E+00 0. -1.
         11    1    4    4    0    0  0.40280457130E+01 -0.76838581737E+01  0.52420641968E+01  0.10136373415E+02  0.51100000000E-03 0. -1.
        -11    1    4    4    0    0  0.14314008782E+02 -0.29134270749E+02  0.29037804645E+01  0.32590313296E+02  0.51100000000E-03 0.  1.
        -12    1    4    4    0    0  0.29614404468E+01 -0.76977052004E+00 -0.40307378969E+01  0.50605853582E+01  0.00000000000E+00 0.  1.
</event>
<event>
 8    1  0.1164123E-009  0.9118800E+02  0.7816164E-02  0.1184000E+00
        -11   -1    0    0    0    0  0.00000000000E+00  0.00000000000E+00  0.45593999997E+02  0.45594000000E+02  0.51100000000E-03 0. -1.
         11   -1    0    0    0    0 -0.00000000000E+00 -0.00000000000E+00 -0.45593999997E+02  0.45594000000E+02  0.51100000000E-03 0.  1.
         23    2    1    2    0    0  0.00000000000E+00  0.00000000000E+00  0.00000000000E+00  0.91188000000E+02  0.91188000000E+02 0.  0.
    9900012    2    3    3    0    0 -0.27397115589E+02 -0.15549647469E+02 -0.29853476019E+02  0.47787268330E+02  0.19999987626E+02 0.  0.
         12    1    3    3    0    0  0.27397115589E+02  0.15549647469E+02  0.29853476019E+02  0.43400731670E+02  0.00000000000E+00 0. -1.
         11    1    4    4    0    0 -0.11026902175E+02 -0.77209042516E+01 -0.17569784977E+02  0.22133736206E+02  0.51100000000E-03 0.  1.
        -11    1    4    4    0    0  0.17000675876E+01 -0.30869105419E+01 -0.36476992991E+01  0.50719776157E+01  0.51100000000E-03 0. -1.
         12    1    4    4    0    0 -0.18070281002E+02 -0.47418326760E+01 -0.86359917428E+01  0.20581554509E+02  0.00000000000E+00 0. -1.
</event>
<event>
 8    1  0.1164123E-009  0.9118800E+02  0.7816164E-02  0.1184000E+00
        -11   -1    0    0    0    0  0.00000000000E+00  0.00000000000E+00  0.45593999997E+02  0.45594000000E+02  0.51100000000E-03 0. -1.
         11   -1    0    0    0    0 -0.00000000000E+00 -0.00000000000E+00 -0.45593999997E+02  0.45594000000E+02  0.51100000000E-03 0.  1.
         23    2    1    2    0    0  0.00000000000E+00  0.00000000000E+00  0.00000000000E+00  0.91188000000E+02  0.91188000000E+02 0.  0.
    9900012    2    3    3    0    0 -0.25552627940E+02 -0.98375405231E+01  0.33673568654E+02  0.47787271618E+02  0.20000002615E+02 0.  0.
        -12    1    3    3    0    0  0.25552627940E+02  0.98375405231E+01 -0.33673568654E+02  0.43400728382E+02  0.00000000000E+00 0.  1.
         11    1    4    4    0    0 -0.59559161604E+01  0.17063746317E+01  0.63524300678E+01  0.88734446368E+01  0.51100000000E-03 0. -1.
        -11    1    4    4    0    0  0.18474743313E+01 -0.39045741685E+01  0.78422180204E+01  0.89531695272E+01  0.51100000000E-03 0.  1.
        -12    1    4    4    0    0 -0.21444186111E+02 -0.76393409863E+01  0.19478920565E+02  0.29960657454E+02  0.00000000000E+00 0.  1.
</event>
<event>
 8    1  0.1164123E-009  0.9118800E+02  0.7816164E-02  0.1184000E+00
        -11   -1    0    0    0    0  0.00000000000E+00  0.00000000000E+00  0.45593999997E+02  0.45594000000E+02  0.51100000000E-03 0. -1.
         11   -1    0    0    0    0 -0.00000000000E+00 -0.00000000000E+00 -0.45593999997E+02  0.45594000000E+02  0.51100000000E-03 0.  1.
         23    2    1    2    0    0  0.00000000000E+00  0.00000000000E+00  0.35527136788E-14  0.91188000000E+02  0.91188000000E+02 0.  0.
    9900012    2    3    3    0    0 -0.29520227262E+02 -0.22253031659E+02  0.22737250400E+02  0.47787265083E+02  0.19999972818E+02 0.  0.
        -12    1    3    3    0    0  0.29520227262E+02  0.22253031659E+02 -0.22737250400E+02  0.43400734917E+02  0.00000000000E+00 0.  1.
         11    1    4    4    0    0 -0.22557117203E+01 -0.12765295558E+02  0.88758609259E+01  0.15710566937E+02  0.51100000000E-03 0.  1.
        -11    1    4    4    0    0 -0.10638139764E+02 -0.28934554716E+01  0.58080322724E+01  0.12460952666E+02  0.51100000000E-03 0. -1.
        -12    1    4    4    0    0 -0.16626375778E+02 -0.65942806298E+01  0.80533572016E+01  0.19615745480E+02  0.00000000000E+00 0.  1.
</event>
<event>
 8    1  0.1164123E-009  0.9118800E+02  0.7816164E-02  0.1184000E+00
        -11   -1    0    0    0    0  0.00000000000E+00  0.00000000000E+00  0.45593999997E+02  0.45594000000E+02  0.51100000000E-03 0. -1.
         11   -1    0    0    0    0 -0.00000000000E+00 -0.00000000000E+00 -0.45593999997E+02  0.45594000000E+02  0.51100000000E-03 0.  1.
         23    2    1    2    0    0  0.00000000000E+00  0.00000000000E+00  0.00000000000E+00  0.91188000000E+02  0.91188000000E+02 0.  0.
    9900012    2    3    3    0    0 -0.20911712376E+02  0.31067723724E+02  0.21934447718E+02  0.47787272258E+02  0.20000005532E+02 0.  0.
        -12    1    3    3    0    0  0.20911712376E+02 -0.31067723724E+02 -0.21934447718E+02  0.43400727742E+02  0.00000000000E+00 0.  1.
         11    1    4    4    0    0 -0.37469722873E+01  0.12561502558E+02  0.15567760990E+02  0.20351568253E+02  0.51100000000E-03 0. -1.
        -11    1    4    4    0    0 -0.46062383276E+01  0.29125847101E+01  0.49524051425E+01  0.73638915106E+01  0.51100000000E-03 0.  1.
        -12    1    4    4    0    0 -0.12558501761E+02  0.15593636456E+02  0.14142815846E+01  0.20071812494E+02  0.00000000000E+00 0.  1.
</event>
<event>
 8    1  0.1164123E-009  0.9118800E+02  0.7816164E-02  0.1184000E+00
        -11   -1    0    0    0    0  0.00000000000E+00  0.00000000000E+00  0.45593999997E+02  0.45594000000E+02  0.51100000000E-03 0. -1.
         11   -1    0    0    0    0 -0.00000000000E+00 -0.00000000000E+00 -0.45593999997E+02  0.45594000000E+02  0.51100000000E-03 0.  1.
         23    2    1    2    0    0  0.00000000000E+00  0.00000000000E+00  0.00000000000E+00  0.91188000000E+02  0.91188000000E+02 0.  0.
    9900012    2    3    3    0    0  0.19489835484E+02 -0.38393383958E+02 -0.54513958597E+01  0.47787270332E+02  0.19999996751E+02 0.  0.
         12    1    3    3    0    0 -0.19489835484E+02  0.38393383958E+02  0.54513958597E+01  0.43400729668E+02  0.00000000000E+00 0. -1.
         11    1    4    4    0    0  0.10841568164E+01 -0.50015140541E+00 -0.22833171199E+01  0.25766421486E+01  0.51100000000E-03 0. -1.
        -11    1    4    4    0    0  0.58991380910E+01 -0.17097873152E+02  0.63140956096E+01  0.19157371954E+02  0.51100000000E-03 0.  1.
        -12    1    4    4    0    0  0.12506540577E+02 -0.20795359400E+02 -0.94821743494E+01  0.26053256229E+02  0.00000000000E+00 0.  1.
</event>
<event>
 8    1  0.1164123E-009  0.9118800E+02  0.7816164E-02  0.1184000E+00
        -11   -1    0    0    0    0  0.00000000000E+00  0.00000000000E+00  0.45593999997E+02  0.45594000000E+02  0.51100000000E-03 0. -1.
         11   -1    0    0    0    0 -0.00000000000E+00 -0.00000000000E+00 -0.45593999997E+02  0.45594000000E+02  0.51100000000E-03 0.  1.
         23    2    1    2    0    0  0.00000000000E+00 -0.33306690739E-15 -0.71054273576E-14  0.91188000000E+02  0.91188000000E+02 0.  0.
    9900012    2    3    3    0    0  0.13719200338E+02 -0.73798548681E+00 -0.41168698325E+02  0.47787276477E+02  0.20000024771E+02 0.  0.
         12    1    3    3    0    0 -0.13719200338E+02  0.73798548681E+00  0.41168698325E+02  0.43400723523E+02  0.00000000000E+00 0. -1.
         11    1    4    4    0    0  0.24729763238E+01  0.20095488814E+01 -0.11397282954E+02  0.11834354972E+02  0.51100000000E-03 0. -1.
        -11    1    4    4    0    0  0.21302616202E+01 -0.33046951786E+01 -0.25621319693E+02  0.25921247036E+02  0.51100000000E-03 0.  1.
         12    1    4    4    0    0  0.91159623936E+01  0.55716081045E+00 -0.41500956774E+01  0.10031674470E+02  0.00000000000E+00 0. -1.
</event>
<event>
 8    1  0.1164123E-009  0.9118800E+02  0.7816164E-02  0.1184000E+00
        -11   -1    0    0    0    0  0.00000000000E+00  0.00000000000E+00  0.45593999997E+02  0.45594000000E+02  0.51100000000E-03 0. -1.
         11   -1    0    0    0    0 -0.00000000000E+00 -0.00000000000E+00 -0.45593999997E+02  0.45594000000E+02  0.51100000000E-03 0.  1.
         23    2    1    2    0    0  0.00000000000E+00  0.00000000000E+00  0.00000000000E+00  0.91188000000E+02  0.91188000000E+02 0.  0.
    9900012    2    3    3    0    0 -0.12364906151E+02 -0.29023546680E+02 -0.29805458563E+02  0.47787279658E+02  0.20000039275E+02 0.  0.
         12    1    3    3    0    0  0.12364906151E+02  0.29023546680E+02  0.29805458563E+02  0.43400720342E+02  0.00000000000E+00 0. -1.
         11    1    4    4    0    0 -0.51843083467E+01  0.95910285879E-02 -0.16634628093E+01  0.54446536897E+01  0.51100000000E-03 0. -1.
        -11    1    4    4    0    0 -0.54307920601E+00 -0.72565234446E+01 -0.17420958076E+01  0.74824438247E+01  0.51100000000E-03 0.  1.
         12    1    4    4    0    0 -0.66375185985E+01 -0.21776614264E+02 -0.26399899946E+02  0.34860182144E+02  0.00000000000E+00 0. -1.
</event>
<event>
 8    1  0.1164123E-009  0.9118800E+02  0.7816164E-02  0.1184000E+00
        -11   -1    0    0    0    0  0.00000000000E+00  0.00000000000E+00  0.45593999997E+02  0.45594000000E+02  0.51100000000E-03 0.  1.
         11   -1    0    0    0    0 -0.00000000000E+00 -0.00000000000E+00 -0.45593999997E+02  0.45594000000E+02  0.51100000000E-03 0. -1.
         23    2    1    2    0    0  0.00000000000E+00 -0.35527136788E-14  0.00000000000E+00  0.91188000000E+02  0.91188000000E+02 0.  0.
    9900012    2    3    3    0    0  0.17794073154E+02  0.25696614616E+02  0.30111101514E+02  0.47787268709E+02  0.19999989354E+02 0.  0.
        -12    1    3    3    0    0 -0.17794073154E+02 -0.25696614616E+02 -0.30111101514E+02  0.43400731291E+02  0.00000000000E+00 0.  1.
         11    1    4    4    0    0  0.91325981702E+01  0.66994238394E+01  0.31776769877E+01  0.11763683965E+02  0.51100000000E-03 0. -1.
        -11    1    4    4    0    0  0.15098431223E+01 -0.14777069172E+01  0.14591752881E+01  0.25675741021E+01  0.51100000000E-03 0.  1.
         12    1    4    4    0    0  0.71516318619E+01  0.20474897694E+02  0.25474249239E+02  0.33456010643E+02  0.00000000000E+00 0. -1.
</event>
<event>
 8    1  0.1164123E-009  0.9118800E+02  0.7816164E-02  0.1184000E+00
        -11   -1    0    0    0    0  0.00000000000E+00  0.00000000000E+00  0.45593999997E+02  0.45594000000E+02  0.51100000000E-03 0. -1.
         11   -1    0    0    0    0 -0.00000000000E+00 -0.00000000000E+00 -0.45593999997E+02  0.45594000000E+02  0.51100000000E-03 0.  1.
         23    2    1    2    0    0  0.00000000000E+00  0.71054273576E-14  0.17763568394E-14  0.91188000000E+02  0.91188000000E+02 0.  0.
    9900012    2    3    3    0    0 -0.15716004844E+02  0.39044670003E+02  0.10589828510E+02  0.47787268073E+02  0.19999986453E+02 0.  0.
        -12    1    3    3    0    0  0.15716004844E+02 -0.39044670003E+02 -0.10589828510E+02  0.43400731927E+02  0.00000000000E+00 0.  1.
         11    1    4    4    0    0 -0.43502789734E+01  0.32381964099E+01  0.34635352705E+01  0.64348208962E+01  0.51100000000E-03 0. -1.
        -11    1    4    4    0    0 -0.15805726754E+01 -0.10145318817E+01  0.22683174314E+01  0.29449531663E+01  0.51100000000E-03 0.  1.
        -12    1    4    4    0    0 -0.97851531948E+01  0.36821005475E+02  0.48579758081E+01  0.38407494011E+02  0.00000000000E+00 0.  1.
</event>
<event>
 8    1  0.1164123E-009  0.9118800E+02  0.7816164E-02  0.1184000E+00
        -11   -1    0    0    0    0  0.00000000000E+00  0.00000000000E+00  0.45593999997E+02  0.45594000000E+02  0.51100000000E-03 0. -1.
         11   -1    0    0    0    0 -0.00000000000E+00 -0.00000000000E+00 -0.45593999997E+02  0.45594000000E+02  0.51100000000E-03 0.  1.
         23    2    1    2    0    0 -0.30531133177E-15  0.00000000000E+00  0.00000000000E+00  0.91188000000E+02  0.91188000000E+02 0.  0.
    9900012    2    3    3    0    0  0.14194630723E+00  0.35557206510E+02 -0.24885495184E+02  0.47787274729E+02  0.20000016799E+02 0.  0.
         12    1    3    3    0    0 -0.14194630723E+00 -0.35557206510E+02  0.24885495184E+02  0.43400725271E+02  0.00000000000E+00 0. -1.
         11    1    4    4    0    0 -0.37004232247E+01  0.13360174417E+02 -0.59314208640E+01  0.15078764745E+02  0.51100000000E-03 0. -1.
        -11    1    4    4    0    0 -0.52467585463E+01  0.10646402507E+02 -0.71402585595E+01  0.13851269044E+02  0.51100000000E-03 0.  1.
        -12    1    4    4    0    0  0.90891280782E+01  0.11550629586E+02 -0.11813815760E+02  0.18857240940E+02  0.00000000000E+00 0.  1.
</event>
<event>
 8    1  0.1164123E-009  0.9118800E+02  0.7816164E-02  0.1184000E+00
        -11   -1    0    0    0    0  0.00000000000E+00  0.00000000000E+00  0.45593999997E+02  0.45594000000E+02  0.51100000000E-03 0. -1.
         11   -1    0    0    0    0 -0.00000000000E+00 -0.00000000000E+00 -0.45593999997E+02  0.45594000000E+02  0.51100000000E-03 0.  1.
         23    2    1    2    0    0 -0.44408920985E-15 -0.11102230246E-14  0.00000000000E+00  0.91188000000E+02  0.91188000000E+02 0.  0.
    9900012    2    3    3    0    0 -0.38531185405E+01 -0.13293120297E+01  0.43208899817E+02  0.47787278619E+02  0.20000034535E+02 0.  0.
        -12    1    3    3    0    0  0.38531185405E+01  0.13293120297E+01 -0.43208899817E+02  0.43400721381E+02  0.00000000000E+00 0.  1.
         11    1    4    4    0    0 -0.22716229097E+01  0.19025201953E+01  0.44202728842E+01  0.53215285745E+01  0.51100000000E-03 0. -1.
        -11    1    4    4    0    0 -0.25327472630E+01 -0.89240298215E+01  0.12586761278E+02  0.15635845889E+02  0.51100000000E-03 0.  1.
         12    1    4    4    0    0  0.95125163213E+00  0.56921975965E+01  0.26201865655E+02  0.26829904155E+02  0.00000000000E+00 0. -1.
</event>
<event>
 8    1  0.1164123E-009  0.9118800E+02  0.7816164E-02  0.1184000E+00
        -11   -1    0    0    0    0  0.00000000000E+00  0.00000000000E+00  0.45593999997E+02  0.45594000000E+02  0.51100000000E-03 0. -1.
         11   -1    0    0    0    0 -0.00000000000E+00 -0.00000000000E+00 -0.45593999997E+02  0.45594000000E+02  0.51100000000E-03 0.  1.
         23    2    1    2    0    0  0.00000000000E+00  0.88817841970E-15  0.35527136788E-14  0.91188000000E+02  0.91188000000E+02 0.  0.
    9900012    2    3    3    0    0 -0.35563642407E+02  0.72455031222E+01  0.23798174077E+02  0.47787273438E+02  0.20000010911E+02 0.  0.
        -12    1    3    3    0    0  0.35563642407E+02 -0.72455031222E+01 -0.23798174077E+02  0.43400726562E+02  0.00000000000E+00 0.  1.
         11    1    4    4    0    0 -0.86545207696E+01  0.78500604762E+01  0.10656602012E+02  0.15814150180E+02  0.51100000000E-03 0. -1.
        -11    1    4    4    0    0 -0.39792984457E+01 -0.37103963637E+00  0.72798926152E+01  0.83047771362E+01  0.51100000000E-03 0.  1.
         12    1    4    4    0    0 -0.22929823192E+02 -0.23351771761E+00  0.58616794498E+01  0.23668346121E+02  0.00000000000E+00 0. -1.
</event>
<event>
 8    1  0.1164123E-009  0.9118800E+02  0.7816164E-02  0.1184000E+00
        -11   -1    0    0    0    0  0.00000000000E+00  0.00000000000E+00  0.45593999997E+02  0.45594000000E+02  0.51100000000E-03 0. -1.
         11   -1    0    0    0    0 -0.00000000000E+00 -0.00000000000E+00 -0.45593999997E+02  0.45594000000E+02  0.51100000000E-03 0.  1.
         23    2    1    2    0    0  0.00000000000E+00  0.00000000000E+00 -0.35527136788E-14  0.91188000000E+02  0.91188000000E+02 0.  0.
    9900012    2    3    3    0    0  0.34616551555E+02 -0.19061145827E+02 -0.17944090834E+02  0.47787270540E+02  0.19999997700E+02 0.  0.
         12    1    3    3    0    0 -0.34616551555E+02  0.19061145827E+02  0.17944090834E+02  0.43400729460E+02  0.00000000000E+00 0. -1.
         11    1    4    4    0    0  0.75591774184E+01 -0.75202335396E+01 -0.10867150245E+02  0.15224652063E+02  0.51100000000E-03 0. -1.
        -11    1    4    4    0    0  0.55231324208E+01 -0.12017965166E+01 -0.65736940352E+01  0.86696459060E+01  0.51100000000E-03 0.  1.
         12    1    4    4    0    0  0.21534241716E+02 -0.10339115771E+02 -0.50324655444E+00  0.23892972571E+02  0.00000000000E+00 0. -1.
</event>
<event>
 8    1  0.1164123E-009  0.9118800E+02  0.7816164E-02  0.1184000E+00
        -11   -1    0    0    0    0  0.00000000000E+00  0.00000000000E+00  0.45593999997E+02  0.45594000000E+02  0.51100000000E-03 0. -1.
         11   -1    0    0    0    0 -0.00000000000E+00 -0.00000000000E+00 -0.45593999997E+02  0.45594000000E+02  0.51100000000E-03 0.  1.
         23    2    1    2    0    0  0.00000000000E+00  0.35527136788E-14 -0.35527136788E-14  0.91188000000E+02  0.91188000000E+02 0.  0.
    9900012    2    3    3    0    0 -0.29496730876E+02 -0.25736404992E+02  0.18740418804E+02  0.47787274531E+02  0.20000015896E+02 0.  0.
        -12    1    3    3    0    0  0.29496730876E+02  0.25736404992E+02 -0.18740418804E+02  0.43400725469E+02  0.00000000000E+00 0.  1.
         11    1    4    4    0    0 -0.16584104997E+02 -0.84634299833E+01  0.11985447884E+02  0.22143015758E+02  0.51100000000E-03 0. -1.
        -11    1    4    4    0    0 -0.69516942409E+01 -0.11477815653E+02  0.99839301878E+01  0.16725584212E+02  0.51100000000E-03 0.  1.
        -12    1    4    4    0    0 -0.59609316381E+01 -0.57951593558E+01 -0.32289592680E+01  0.89186745600E+01  0.00000000000E+00 0.  1.
</event>
<event>
 8    1  0.1164123E-009  0.9118800E+02  0.7816164E-02  0.1184000E+00
        -11   -1    0    0    0    0  0.00000000000E+00  0.00000000000E+00  0.45593999997E+02  0.45594000000E+02  0.51100000000E-03 0. -1.
         11   -1    0    0    0    0 -0.00000000000E+00 -0.00000000000E+00 -0.45593999997E+02  0.45594000000E+02  0.51100000000E-03 0.  1.
         23    2    1    2    0    0  0.00000000000E+00  0.71054273576E-14  0.35527136788E-14  0.91188000000E+02  0.91188000000E+02 0.  0.
    9900012    2    3    3    0    0  0.13241926074E+02  0.33767376557E+02 -0.23833572835E+02  0.47787268211E+02  0.19999987082E+02 0.  0.
         12    1    3    3    0    0 -0.13241926074E+02 -0.33767376557E+02  0.23833572835E+02  0.43400731789E+02  0.00000000000E+00 0. -1.
         11    1    4    4    0    0  0.53951368565E+01  0.93342974065E+01 -0.35568139474E+01  0.11352864638E+02  0.51100000000E-03 0. -1.
        -11    1    4    4    0    0  0.59865878243E+01  0.18166034804E+02 -0.22498308771E+02  0.29529950086E+02  0.51100000000E-03 0.  1.
        -12    1    4    4    0    0  0.18602013932E+01  0.62670443471E+01  0.22215498829E+01  0.69044534870E+01  0.00000000000E+00 0.  1.
</event>
<event>
 8    1  0.1164123E-009  0.9118800E+02  0.7816164E-02  0.1184000E+00
        -11   -1    0    0    0    0  0.00000000000E+00  0.00000000000E+00  0.45593999997E+02  0.45594000000E+02  0.51100000000E-03 0. -1.
         11   -1    0    0    0    0 -0.00000000000E+00 -0.00000000000E+00 -0.45593999997E+02  0.45594000000E+02  0.51100000000E-03 0.  1.
         23    2    1    2    0    0  0.00000000000E+00  0.00000000000E+00 -0.35527136788E-14  0.91188000000E+02  0.91188000000E+02 0.  0.
    9900012    2    3    3    0    0  0.35453734822E+02  0.10045236659E+02  0.22929224955E+02  0.47787269023E+02  0.19999990782E+02 0.  0.
        -12    1    3    3    0    0 -0.35453734822E+02 -0.10045236659E+02 -0.22929224955E+02  0.43400730977E+02  0.00000000000E+00 0.  1.
         11    1    4    4    0    0  0.81698288116E+01 -0.18061534461E+01  0.26750493748E+01  0.87843145721E+01  0.51100000000E-03 0. -1.
        -11    1    4    4    0    0  0.17929452842E+02  0.85414225698E+01  0.44668075007E+01  0.20356167327E+02  0.51100000000E-03 0.  1.
         12    1    4    4    0    0  0.93544531676E+01  0.33099675352E+01  0.15787368080E+02  0.18646787123E+02  0.00000000000E+00 0. -1.
</event>
<event>
 8    1  0.1164123E-009  0.9118800E+02  0.7816164E-02  0.1184000E+00
        -11   -1    0    0    0    0  0.00000000000E+00  0.00000000000E+00  0.45593999997E+02  0.45594000000E+02  0.51100000000E-03 0. -1.
         11   -1    0    0    0    0 -0.00000000000E+00 -0.00000000000E+00 -0.45593999997E+02  0.45594000000E+02  0.51100000000E-03 0.  1.
         23    2    1    2    0    0 -0.17763568394E-14  0.00000000000E+00  0.00000000000E+00  0.91188000000E+02  0.91188000000E+02 0.  0.
    9900012    2    3    3    0    0  0.72872350492E+01 -0.50280564011E+01 -0.42488089241E+02  0.47787275660E+02  0.20000021046E+02 0.  0.
         12    1    3    3    0    0 -0.72872350492E+01  0.50280564011E+01  0.42488089241E+02  0.43400724340E+02  0.00000000000E+00 0. -1.
         11    1    4    4    0    0  0.27131789195E+01 -0.16407710411E+01  0.10312074606E+01  0.33341953371E+01  0.51100000000E-03 0. -1.
        -11    1    4    4    0    0 -0.15269583172E+01  0.74016243140E+00 -0.79508177781E+01  0.81298798103E+01  0.51100000000E-03 0.  1.
         12    1    4    4    0    0  0.61010144469E+01 -0.41274477914E+01 -0.35568478924E+02  0.36323200513E+02  0.00000000000E+00 0. -1.
</event>
<event>
 8    1  0.1164123E-009  0.9118800E+02  0.7816164E-02  0.1184000E+00
        -11   -1    0    0    0    0  0.00000000000E+00  0.00000000000E+00  0.45593999997E+02  0.45594000000E+02  0.51100000000E-03 0. -1.
         11   -1    0    0    0    0 -0.00000000000E+00 -0.00000000000E+00 -0.45593999997E+02  0.45594000000E+02  0.51100000000E-03 0.  1.
         23    2    1    2    0    0  0.00000000000E+00 -0.71054273576E-14  0.35527136788E-14  0.91188000000E+02  0.91188000000E+02 0.  0.
    9900012    2    3    3    0    0 -0.45214744438E+01 -0.32922043675E+02  0.27916276778E+02  0.47787271895E+02  0.20000003878E+02 0.  0.
        -12    1    3    3    0    0  0.45214744438E+01  0.32922043675E+02 -0.27916276778E+02  0.43400728105E+02  0.00000000000E+00 0.  1.
         11    1    4    4    0    0 -0.33154378390E+01 -0.48173206536E+01 -0.78354654725E+00  0.59002247242E+01  0.51100000000E-03 0. -1.
        -11    1    4    4    0    0  0.28236289289E+01 -0.91178147654E+00  0.35676525038E+01  0.46402985290E+01  0.51100000000E-03 0.  1.
         12    1    4    4    0    0 -0.40296655338E+01 -0.27192941545E+02  0.25132170822E+02  0.37246748642E+02  0.00000000000E+00 0. -1.
</event>
<event>
 8    1  0.1164123E-009  0.9118800E+02  0.7816164E-02  0.1184000E+00
        -11   -1    0    0    0    0  0.00000000000E+00  0.00000000000E+00  0.45593999997E+02  0.45594000000E+02  0.51100000000E-03 0.  1.
         11   -1    0    0    0    0 -0.00000000000E+00 -0.00000000000E+00 -0.45593999997E+02  0.45594000000E+02  0.51100000000E-03 0. -1.
         23    2    1    2    0    0  0.00000000000E+00  0.00000000000E+00  0.00000000000E+00  0.91188000000E+02  0.91188000000E+02 0.  0.
    9900012    2    3    3    0    0  0.35491350215E+02  0.15726340870E+02 -0.19407982489E+02  0.47787268191E+02  0.19999986992E+02 0.  0.
         12    1    3    3    0    0 -0.35491350215E+02 -0.15726340870E+02  0.19407982489E+02  0.43400731809E+02  0.00000000000E+00 0. -1.
         11    1    4    4    0    0  0.18781291578E+01  0.48659927406E+01 -0.10220590937E+01  0.53150596928E+01  0.51100000000E-03 0. -1.
        -11    1    4    4    0    0  0.31431116065E+01  0.26018587745E+01 -0.84375459757E+01  0.93723530667E+01  0.51100000000E-03 0.  1.
        -12    1    4    4    0    0  0.30470109450E+02  0.82584893550E+01 -0.99483774195E+01  0.33099855432E+02  0.00000000000E+00 0.  1.
</event>
<event>
 8    1  0.1164123E-009  0.9118800E+02  0.7816164E-02  0.1184000E+00
        -11   -1    0    0    0    0  0.00000000000E+00  0.00000000000E+00  0.45593999997E+02  0.45594000000E+02  0.51100000000E-03 0. -1.
         11   -1    0    0    0    0 -0.00000000000E+00 -0.00000000000E+00 -0.45593999997E+02  0.45594000000E+02  0.51100000000E-03 0.  1.
         23    2    1    2    0    0  0.00000000000E+00  0.00000000000E+00  0.00000000000E+00  0.91188000000E+02  0.91188000000E+02 0.  0.
    9900012    2    3    3    0    0  0.24767030381E+02 -0.20507826518E+02  0.29148699954E+02  0.47787268999E+02  0.19999990675E+02 0.  0.
        -12    1    3    3    0    0 -0.24767030381E+02  0.20507826518E+02 -0.29148699954E+02  0.43400731001E+02  0.00000000000E+00 0.  1.
         11    1    4    4    0    0 -0.85266852952E+00 -0.54039263367E+01  0.10694067127E+01  0.55743245736E+01  0.51100000000E-03 0. -1.
        -11    1    4    4    0    0  0.56586948267E+01 -0.28029816679E+01  0.10003184331E+01  0.63936038821E+01  0.51100000000E-03 0.  1.
         12    1    4    4    0    0  0.19961004084E+02 -0.12300918513E+02  0.27078974808E+02  0.35819340544E+02  0.00000000000E+00 0. -1.
</event>
<event>
 8    1  0.1164123E-009  0.9118800E+02  0.7816164E-02  0.1184000E+00
        -11   -1    0    0    0    0  0.00000000000E+00  0.00000000000E+00  0.45593999997E+02  0.45594000000E+02  0.51100000000E-03 0. -1.
         11   -1    0    0    0    0 -0.00000000000E+00 -0.00000000000E+00 -0.45593999997E+02  0.45594000000E+02  0.51100000000E-03 0.  1.
         23    2    1    2    0    0  0.00000000000E+00  0.00000000000E+00 -0.71054273576E-14  0.91188000000E+02  0.91188000000E+02 0.  0.
    9900012    2    3    3    0    0 -0.30935368031E+01 -0.47406830703E+01  0.43029981537E+02  0.47787270087E+02  0.19999995635E+02 0.  0.
        -12    1    3    3    0    0  0.30935368031E+01  0.47406830703E+01 -0.43029981537E+02  0.43400729913E+02  0.00000000000E+00 0.  1.
         11    1    4    4    0    0  0.11399837557E+01 -0.72191938513E+01  0.18030376276E+02  0.19455353806E+02  0.51100000000E-03 0. -1.
        -11    1    4    4    0    0 -0.50797471099E+01  0.25708285314E+01  0.32300055744E+01  0.65456799731E+01  0.51100000000E-03 0.  1.
         12    1    4    4    0    0  0.84622655115E+00 -0.92317750351E-01  0.21769599687E+02  0.21786236308E+02  0.00000000000E+00 0. -1.
</event>
<event>
 8    1  0.1164123E-009  0.9118800E+02  0.7816164E-02  0.1184000E+00
        -11   -1    0    0    0    0  0.00000000000E+00  0.00000000000E+00  0.45593999997E+02  0.45594000000E+02  0.51100000000E-03 0. -1.
         11   -1    0    0    0    0 -0.00000000000E+00 -0.00000000000E+00 -0.45593999997E+02  0.45594000000E+02  0.51100000000E-03 0.  1.
         23    2    1    2    0    0  0.00000000000E+00  0.00000000000E+00  0.88817841970E-15  0.91188000000E+02  0.91188000000E+02 0.  0.
    9900012    2    3    3    0    0 -0.20915949499E+02 -0.37402756263E+02 -0.68688106635E+01  0.47787266372E+02  0.19999978695E+02 0.  0.
         12    1    3    3    0    0  0.20915949499E+02  0.37402756263E+02  0.68688106635E+01  0.43400733628E+02  0.00000000000E+00 0. -1.
         11    1    4    4    0    0  0.33081096994E+00 -0.84556215087E+01 -0.25934542561E+00  0.84660635072E+01  0.51100000000E-03 0. -1.
        -11    1    4    4    0    0 -0.59909957681E+01 -0.13741747344E+02  0.37014786471E+01  0.15441133210E+02  0.51100000000E-03 0.  1.
         12    1    4    4    0    0 -0.15255764701E+02 -0.15205387410E+02 -0.10310943885E+02  0.23880069655E+02  0.00000000000E+00 0. -1.
</event>
<event>
 8    1  0.1164123E-009  0.9118800E+02  0.7816164E-02  0.1184000E+00
        -11   -1    0    0    0    0  0.00000000000E+00  0.00000000000E+00  0.45593999997E+02  0.45594000000E+02  0.51100000000E-03 0.  1.
         11   -1    0    0    0    0 -0.00000000000E+00 -0.00000000000E+00 -0.45593999997E+02  0.45594000000E+02  0.51100000000E-03 0. -1.
         23    2    1    2    0    0 -0.71054273576E-14 -0.17763568394E-14  0.00000000000E+00  0.91188000000E+02  0.91188000000E+02 0.  0.
    9900012    2    3    3    0    0  0.39687208255E+02 -0.15019617453E+02  0.91082379784E+01  0.47787269515E+02  0.19999993027E+02 0.  0.
        -12    1    3    3    0    0 -0.39687208255E+02  0.15019617453E+02 -0.91082379784E+01  0.43400730485E+02  0.00000000000E+00 0.  1.
         11    1    4    4    0    0  0.78453089254E+01  0.92287138159E+00  0.52529525579E+01  0.94865206772E+01  0.51100000000E-03 0. -1.
        -11    1    4    4    0    0 -0.65628372483E+00 -0.12652275804E+01 -0.16927269588E+01  0.22128791147E+01  0.51100000000E-03 0.  1.
        -12    1    4    4    0    0  0.32498183055E+02 -0.14677261255E+02  0.55480123793E+01  0.36087869723E+02  0.00000000000E+00 0.  1.
</event>
<event>
 8    1  0.1164123E-009  0.9118800E+02  0.7816164E-02  0.1184000E+00
        -11   -1    0    0    0    0  0.00000000000E+00  0.00000000000E+00  0.45593999997E+02  0.45594000000E+02  0.51100000000E-03 0. -1.
         11   -1    0    0    0    0 -0.00000000000E+00 -0.00000000000E+00 -0.45593999997E+02  0.45594000000E+02  0.51100000000E-03 0.  1.
         23    2    1    2    0    0 -0.17763568394E-14 -0.17763568394E-14  0.00000000000E+00  0.91188000000E+02  0.91188000000E+02 0.  0.
    9900012    2    3    3    0    0  0.62360708030E+01 -0.12470892438E+02  0.41100017756E+02  0.47787271933E+02  0.20000004050E+02 0.  0.
        -12    1    3    3    0    0 -0.62360708030E+01  0.12470892438E+02 -0.41100017756E+02  0.43400728067E+02  0.00000000000E+00 0.  1.
         11    1    4    4    0    0 -0.16636586482E+01 -0.54808293444E+01  0.17499794443E+02  0.18413311930E+02  0.51100000000E-03 0. -1.
        -11    1    4    4    0    0 -0.19772663712E+01 -0.59642601668E+01  0.41345489094E+01  0.75217336157E+01  0.51100000000E-03 0.  1.
         12    1    4    4    0    0  0.98769958223E+01 -0.10258029264E+01  0.19465674403E+02  0.21852226387E+02  0.00000000000E+00 0. -1.
</event>
<event>
 8    1  0.1164123E-009  0.9118800E+02  0.7816164E-02  0.1184000E+00
        -11   -1    0    0    0    0  0.00000000000E+00  0.00000000000E+00  0.45593999997E+02  0.45594000000E+02  0.51100000000E-03 0. -1.
         11   -1    0    0    0    0 -0.00000000000E+00 -0.00000000000E+00 -0.45593999997E+02  0.45594000000E+02  0.51100000000E-03 0.  1.
         23    2    1    2    0    0  0.00000000000E+00 -0.35527136788E-14  0.00000000000E+00  0.91188000000E+02  0.91188000000E+02 0.  0.
    9900012    2    3    3    0    0 -0.36010376339E+02  0.21877139947E+02  0.10405125386E+02  0.47787273155E+02  0.20000009623E+02 0.  0.
        -12    1    3    3    0    0  0.36010376339E+02 -0.21877139947E+02 -0.10405125386E+02  0.43400726845E+02  0.00000000000E+00 0.  1.
         11    1    4    4    0    0 -0.51476534865E+01  0.12896701339E+01 -0.94392290675E+00  0.53900441729E+01  0.51100000000E-03 0. -1.
        -11    1    4    4    0    0 -0.22344602892E+01 -0.27770909332E+01  0.26312246330E+01  0.44303939064E+01  0.51100000000E-03 0.  1.
         12    1    4    4    0    0 -0.28628262564E+02  0.23364560747E+02  0.87178236597E+01  0.37966835076E+02  0.00000000000E+00 0. -1.
</event>
<event>
 8    1  0.1164123E-009  0.9118800E+02  0.7816164E-02  0.1184000E+00
        -11   -1    0    0    0    0  0.00000000000E+00  0.00000000000E+00  0.45593999997E+02  0.45594000000E+02  0.51100000000E-03 0.  1.
         11   -1    0    0    0    0 -0.00000000000E+00 -0.00000000000E+00 -0.45593999997E+02  0.45594000000E+02  0.51100000000E-03 0. -1.
         23    2    1    2    0    0  0.71054273576E-14  0.00000000000E+00  0.00000000000E+00  0.91188000000E+02  0.91188000000E+02 0.  0.
    9900012    2    3    3    0    0 -0.39164982156E+02  0.16282390382E+02 -0.91983926064E+01  0.47787280071E+02  0.20000041155E+02 0.  0.
        -12    1    3    3    0    0  0.39164982156E+02 -0.16282390382E+02  0.91983926064E+01  0.43400719929E+02  0.00000000000E+00 0.  1.
         11    1    4    4    0    0 -0.14620025560E+02  0.60938550760E+01  0.15748264543E+01  0.15917295489E+02  0.51100000000E-03 0.  1.
        -11    1    4    4    0    0 -0.18267690431E+02  0.88764878120E+01 -0.11976946010E+01  0.20345393144E+02  0.51100000000E-03 0. -1.
        -12    1    4    4    0    0 -0.62772661647E+01  0.13120474939E+01 -0.95755244598E+01  0.11524591438E+02  0.00000000000E+00 0.  1.
</event>
<event>
 8    1  0.1280238E-009  0.9118800E+02  0.7816164E-02  0.1184000E+00
        -11   -1    0    0    0    0  0.00000000000E+00  0.00000000000E+00  0.45593999997E+02  0.45594000000E+02  0.51100000000E-03 0. -1.
         11   -1    0    0    0    0 -0.00000000000E+00 -0.00000000000E+00 -0.45593999997E+02  0.45594000000E+02  0.51100000000E-03 0.  1.
         23    2    1    2    0    0  0.44408920985E-15  0.00000000000E+00  0.00000000000E+00  0.91188000000E+02  0.91188000000E+02 0.  0.
    9900012    2    3    3    0    0  0.26337540305E+01 -0.32337287244E+02 -0.28826839168E+02  0.47787268865E+02  0.19999990065E+02 0.  0.
         12    1    3    3    0    0 -0.26337540305E+01  0.32337287244E+02  0.28826839168E+02  0.43400731135E+02  0.00000000000E+00 0. -1.
         11    1    4    4    0    0  0.78942200799E+01 -0.66591253671E+01 -0.78124142001E+01  0.12949767458E+02  0.51100000000E-03 0. -1.
        -11    1    4    4    0    0 -0.17474530669E+01 -0.73363464406E+01 -0.12478960617E+01  0.76441360636E+01  0.51100000000E-03 0.  1.
        -12    1    4    4    0    0 -0.35130129825E+01 -0.18341815437E+02 -0.19766528906E+02  0.27193365344E+02  0.00000000000E+00 0.  1.
</event>
<event>
 8    1  0.1164123E-009  0.9118800E+02  0.7816164E-02  0.1184000E+00
        -11   -1    0    0    0    0  0.00000000000E+00  0.00000000000E+00  0.45593999997E+02  0.45594000000E+02  0.51100000000E-03 0. -1.
         11   -1    0    0    0    0 -0.00000000000E+00 -0.00000000000E+00 -0.45593999997E+02  0.45594000000E+02  0.51100000000E-03 0.  1.
         23    2    1    2    0    0  0.17763568394E-14  0.00000000000E+00 -0.71054273576E-14  0.91188000000E+02  0.91188000000E+02 0.  0.
    9900012    2    3    3    0    0  0.12441953891E+02 -0.22746224396E+02 -0.34805609690E+02  0.47787269513E+02  0.19999993019E+02 0.  0.
         12    1    3    3    0    0 -0.12441953891E+02  0.22746224396E+02  0.34805609690E+02  0.43400730487E+02  0.00000000000E+00 0. -1.
         11    1    4    4    0    0  0.54263212748E+01 -0.28341314162E+01 -0.15854271058E+02  0.16995151500E+02  0.51100000000E-03 0. -1.
        -11    1    4    4    0    0  0.33274546216E+01 -0.12699734816E+02 -0.18492069464E+02  0.22678444655E+02  0.51100000000E-03 0.  1.
         12    1    4    4    0    0  0.36881779950E+01 -0.72123581639E+01 -0.45926916833E+00  0.81136733590E+01  0.00000000000E+00 0. -1.
</event>
<event>
 8    1  0.1164123E-009  0.9118800E+02  0.7816164E-02  0.1184000E+00
        -11   -1    0    0    0    0  0.00000000000E+00  0.00000000000E+00  0.45593999997E+02  0.45594000000E+02  0.51100000000E-03 0. -1.
         11   -1    0    0    0    0 -0.00000000000E+00 -0.00000000000E+00 -0.45593999997E+02  0.45594000000E+02  0.51100000000E-03 0.  1.
         23    2    1    2    0    0  0.00000000000E+00 -0.35527136788E-14  0.00000000000E+00  0.91188000000E+02  0.91188000000E+02 0.  0.
    9900012    2    3    3    0    0  0.24775109460E+02  0.27037181391E+02  0.23212243251E+02  0.47787268864E+02  0.19999990061E+02 0.  0.
        -12    1    3    3    0    0 -0.24775109460E+02 -0.27037181391E+02 -0.23212243251E+02  0.43400731136E+02  0.00000000000E+00 0.  1.
         11    1    4    4    0    0  0.83320210488E+01  0.15346101885E+01  0.47262185198E+01  0.97012754288E+01  0.51100000000E-03 0. -1.
        -11    1    4    4    0    0  0.80304001769E+01  0.25498742612E+01  0.75194779508E+01  0.11292994938E+02  0.51100000000E-03 0.  1.
         12    1    4    4    0    0  0.84126882346E+01  0.22952696941E+02  0.10966546781E+02  0.26792998498E+02  0.00000000000E+00 0. -1.
</event>
<event>
 8    1  0.1164123E-009  0.9118800E+02  0.7816164E-02  0.1184000E+00
        -11   -1    0    0    0    0  0.00000000000E+00  0.00000000000E+00  0.45593999997E+02  0.45594000000E+02  0.51100000000E-03 0. -1.
         11   -1    0    0    0    0 -0.00000000000E+00 -0.00000000000E+00 -0.45593999997E+02  0.45594000000E+02  0.51100000000E-03 0.  1.
         23    2    1    2    0    0 -0.22204460493E-15  0.11102230246E-15  0.71054273576E-14  0.91188000000E+02  0.91188000000E+02 0.  0.
    9900012    2    3    3    0    0  0.14922161284E+01  0.19387677463E+00  0.43374638178E+02  0.47787268045E+02  0.19999986325E+02 0.  0.
        -12    1    3    3    0    0 -0.14922161284E+01 -0.19387677463E+00 -0.43374638178E+02  0.43400731955E+02  0.00000000000E+00 0.  1.
         11    1    4    4    0    0  0.34614857864E+01 -0.85394042342E+00  0.37250723267E+02  0.37420949778E+02  0.51100000000E-03 0. -1.
        -11    1    4    4    0    0  0.17717233123E+01  0.32680888967E+01  0.42022088178E+01  0.56105229472E+01  0.51100000000E-03 0.  1.
         12    1    4    4    0    0 -0.37409929703E+01 -0.22202716987E+01  0.19217060927E+01  0.47557953201E+01  0.00000000000E+00 0. -1.
</event>
<event>
 8    1  0.1164123E-009  0.9118800E+02  0.7816164E-02  0.1184000E+00
        -11   -1    0    0    0    0  0.00000000000E+00  0.00000000000E+00  0.45593999997E+02  0.45594000000E+02  0.51100000000E-03 0. -1.
         11   -1    0    0    0    0 -0.00000000000E+00 -0.00000000000E+00 -0.45593999997E+02  0.45594000000E+02  0.51100000000E-03 0.  1.
         23    2    1    2    0    0  0.77715611724E-15  0.00000000000E+00  0.00000000000E+00  0.91188000000E+02  0.91188000000E+02 0.  0.
    9900012    2    3    3    0    0 -0.76661082963E+00  0.13451804226E+02 -0.41256319181E+02  0.47787278791E+02  0.20000035321E+02 0.  0.
         12    1    3    3    0    0  0.76661082963E+00 -0.13451804226E+02  0.41256319181E+02  0.43400721209E+02  0.00000000000E+00 0. -1.
         11    1    4    4    0    0  0.38771032102E+01  0.11732117799E+01 -0.49029445272E+01  0.63598129281E+01  0.51100000000E-03 0. -1.
        -11    1    4    4    0    0  0.96610199076E+00  0.55119198550E+01 -0.30160586999E+02  0.30675325946E+02  0.51100000000E-03 0.  1.
         12    1    4    4    0    0 -0.56098160306E+01  0.67666725913E+01 -0.61927876545E+01  0.10752139917E+02  0.00000000000E+00 0. -1.
</event>
<event>
 8    1  0.1164123E-009  0.9118800E+02  0.7816164E-02  0.1184000E+00
        -11   -1    0    0    0    0  0.00000000000E+00  0.00000000000E+00  0.45593999997E+02  0.45594000000E+02  0.51100000000E-03 0. -1.
         11   -1    0    0    0    0 -0.00000000000E+00 -0.00000000000E+00 -0.45593999997E+02  0.45594000000E+02  0.51100000000E-03 0.  1.
         23    2    1    2    0    0  0.00000000000E+00 -0.17763568394E-14  0.35527136788E-14  0.91188000000E+02  0.91188000000E+02 0.  0.
    9900012    2    3    3    0    0 -0.34863822626E+02  0.11560473182E+02 -0.23119094576E+02  0.47787271869E+02  0.20000003759E+02 0.  0.
         12    1    3    3    0    0  0.34863822626E+02 -0.11560473182E+02  0.23119094576E+02  0.43400728131E+02  0.00000000000E+00 0. -1.
         11    1    4    4    0    0 -0.18743169753E+02 -0.41714274357E+00 -0.19427842662E+02  0.26998546095E+02  0.51100000000E-03 0. -1.
        -11    1    4    4    0    0 -0.55721591468E+01  0.19514456676E+01 -0.11686724170E+01  0.60185457737E+01  0.51100000000E-03 0.  1.
         12    1    4    4    0    0 -0.10548493726E+02  0.10026170258E+02 -0.25225794975E+01  0.14770180001E+02  0.00000000000E+00 0. -1.
</event>
<event>
 8    1  0.1164123E-009  0.9118800E+02  0.7816164E-02  0.1184000E+00
        -11   -1    0    0    0    0  0.00000000000E+00  0.00000000000E+00  0.45593999997E+02  0.45594000000E+02  0.51100000000E-03 0.  1.
         11   -1    0    0    0    0 -0.00000000000E+00 -0.00000000000E+00 -0.45593999997E+02  0.45594000000E+02  0.51100000000E-03 0. -1.
         23    2    1    2    0    0  0.17763568394E-14  0.00000000000E+00  0.00000000000E+00  0.91188000000E+02  0.91188000000E+02 0.  0.
    9900012    2    3    3    0    0  0.12632716579E+02  0.40129639494E+02  0.10660644950E+02  0.47787275987E+02  0.20000022534E+02 0.  0.
        -12    1    3    3    0    0 -0.12632716579E+02 -0.40129639494E+02 -0.10660644950E+02  0.43400724013E+02  0.00000000000E+00 0.  1.
         11    1    4    4    0    0  0.52150253817E+01  0.10956425160E+02  0.19258770548E+01  0.12286120002E+02  0.51100000000E-03 0. -1.
        -11    1    4    4    0    0  0.11488041682E+01  0.18687205212E+02  0.12738181765E+02  0.22644925802E+02  0.51100000000E-03 0.  1.
        -12    1    4    4    0    0  0.62688870291E+01  0.10486009122E+02 -0.40034138690E+01  0.12856230182E+02  0.00000000000E+00 0.  1.
</event>
<event>
 8    1  0.1164123E-009  0.9118800E+02  0.7816164E-02  0.1184000E+00
        -11   -1    0    0    0    0  0.00000000000E+00  0.00000000000E+00  0.45593999997E+02  0.45594000000E+02  0.51100000000E-03 0. -1.
         11   -1    0    0    0    0 -0.00000000000E+00 -0.00000000000E+00 -0.45593999997E+02  0.45594000000E+02  0.51100000000E-03 0.  1.
         23    2    1    2    0    0  0.35527136788E-14  0.00000000000E+00  0.00000000000E+00  0.91188000000E+02  0.91188000000E+02 0.  0.
    9900012    2    3    3    0    0 -0.18359883360E+02  0.74105099938E+01 -0.38621525824E+02  0.47787271523E+02  0.20000002184E+02 0.  0.
         12    1    3    3    0    0  0.18359883360E+02 -0.74105099938E+01  0.38621525824E+02  0.43400728477E+02  0.00000000000E+00 0. -1.
         11    1    4    4    0    0 -0.70406774476E+01  0.24241939911E+01 -0.33301774416E+00  0.74537746482E+01  0.51100000000E-03 0. -1.
        -11    1    4    4    0    0 -0.19223011116E+01  0.21052642491E+01 -0.84680158033E+01  0.89350249596E+01  0.51100000000E-03 0.  1.
        -12    1    4    4    0    0 -0.93969048010E+01  0.28810517537E+01 -0.29820492276E+02  0.31398471916E+02  0.00000000000E+00 0.  1.
</event>
<event>
 8    1  0.1164123E-009  0.9118800E+02  0.7816164E-02  0.1184000E+00
        -11   -1    0    0    0    0  0.00000000000E+00  0.00000000000E+00  0.45593999997E+02  0.45594000000E+02  0.51100000000E-03 0. -1.
         11   -1    0    0    0    0 -0.00000000000E+00 -0.00000000000E+00 -0.45593999997E+02  0.45594000000E+02  0.51100000000E-03 0.  1.
         23    2    1    2    0    0  0.17763568394E-14  0.00000000000E+00  0.00000000000E+00  0.91188000000E+02  0.91188000000E+02 0.  0.
    9900012    2    3    3    0    0 -0.12202270726E+02  0.19286965720E+02  0.36915316977E+02  0.47787273220E+02  0.20000009917E+02 0.  0.
        -12    1    3    3    0    0  0.12202270726E+02 -0.19286965720E+02 -0.36915316977E+02  0.43400726780E+02  0.00000000000E+00 0.  1.
         11    1    4    4    0    0 -0.54501198248E+01  0.10850477494E+02  0.15921980126E+02  0.20023639013E+02  0.51100000000E-03 0. -1.
        -11    1    4    4    0    0 -0.96150201646E+01  0.78662141077E+01  0.21470858766E+02  0.24805719372E+02  0.51100000000E-03 0.  1.
        -12    1    4    4    0    0  0.28628692634E+01  0.57027411847E+00 -0.47752191429E+00  0.29579148345E+01  0.00000000000E+00 0.  1.
</event>
<event>
 8    1  0.1164123E-009  0.9118800E+02  0.7816164E-02  0.1184000E+00
        -11   -1    0    0    0    0  0.00000000000E+00  0.00000000000E+00  0.45593999997E+02  0.45594000000E+02  0.51100000000E-03 0. -1.
         11   -1    0    0    0    0 -0.00000000000E+00 -0.00000000000E+00 -0.45593999997E+02  0.45594000000E+02  0.51100000000E-03 0.  1.
         23    2    1    2    0    0  0.00000000000E+00  0.00000000000E+00  0.00000000000E+00  0.91188000000E+02  0.91188000000E+02 0.  0.
    9900012    2    3    3    0    0  0.39265476877E+02 -0.11378119595E+02 -0.14573397072E+02  0.47787272102E+02  0.20000004821E+02 0.  0.
         12    1    3    3    0    0 -0.39265476877E+02  0.11378119595E+02  0.14573397072E+02  0.43400727898E+02  0.00000000000E+00 0. -1.
         11    1    4    4    0    0  0.10645546375E+02 -0.71791510733E+01 -0.27952343943E+01  0.13140822019E+02  0.51100000000E-03 0. -1.
        -11    1    4    4    0    0  0.25904435919E+02 -0.23950783670E+01 -0.41408089746E+01  0.26342408771E+02  0.51100000000E-03 0.  1.
         12    1    4    4    0    0  0.27154945832E+01 -0.18038901552E+01 -0.76373537027E+01  0.83040413115E+01  0.00000000000E+00 0. -1.
</event>
<event>
 8    1  0.1164123E-009  0.9118800E+02  0.7816164E-02  0.1184000E+00
        -11   -1    0    0    0    0  0.00000000000E+00  0.00000000000E+00  0.45593999997E+02  0.45594000000E+02  0.51100000000E-03 0. -1.
         11   -1    0    0    0    0 -0.00000000000E+00 -0.00000000000E+00 -0.45593999997E+02  0.45594000000E+02  0.51100000000E-03 0.  1.
         23    2    1    2    0    0  0.00000000000E+00  0.00000000000E+00  0.00000000000E+00  0.91188000000E+02  0.91188000000E+02 0.  0.
    9900012    2    3    3    0    0  0.15337990507E+02 -0.22233754095E+02 -0.33971010582E+02  0.47787270352E+02  0.19999996845E+02 0.  0.
         12    1    3    3    0    0 -0.15337990507E+02  0.22233754095E+02  0.33971010582E+02  0.43400729648E+02  0.00000000000E+00 0. -1.
         11    1    4    4    0    0 -0.10095324557E+01 -0.25776201787E+00 -0.36790615985E+01  0.38237535935E+01  0.51100000000E-03 0. -1.
        -11    1    4    4    0    0 -0.28550044043E+01 -0.49699007072E+01 -0.28530808670E+01  0.64024240630E+01  0.51100000000E-03 0.  1.
        -12    1    4    4    0    0  0.19202527367E+02 -0.17006091370E+02 -0.27438868117E+02  0.37561092696E+02  0.00000000000E+00 0.  1.
</event>
<event>
 8    1  0.1164123E-009  0.9118800E+02  0.7816164E-02  0.1184000E+00
        -11   -1    0    0    0    0  0.00000000000E+00  0.00000000000E+00  0.45593999997E+02  0.45594000000E+02  0.51100000000E-03 0. -1.
         11   -1    0    0    0    0 -0.00000000000E+00 -0.00000000000E+00 -0.45593999997E+02  0.45594000000E+02  0.51100000000E-03 0.  1.
         23    2    1    2    0    0  0.44408920985E-15  0.88817841970E-15  0.00000000000E+00  0.91188000000E+02  0.91188000000E+02 0.  0.
    9900012    2    3    3    0    0 -0.25408417150E+01 -0.25103632174E+01 -0.43253502721E+02  0.47787270769E+02  0.19999998746E+02 0.  0.
         12    1    3    3    0    0  0.25408417150E+01  0.25103632174E+01  0.43253502721E+02  0.43400729231E+02  0.00000000000E+00 0. -1.
         11    1    4    4    0    0  0.89636967747E+00 -0.19699390769E+01 -0.25582850134E+01  0.33509641950E+01  0.51100000000E-03 0. -1.
        -11    1    4    4    0    0 -0.82627549678E+00  0.82761358805E+01 -0.23637620717E+02  0.25058217609E+02  0.51100000000E-03 0.  1.
        -12    1    4    4    0    0 -0.26109358957E+01 -0.88165600210E+01 -0.17057596991E+02  0.19378088965E+02  0.00000000000E+00 0.  1.
</event>
<event>
 8    1  0.1164123E-009  0.9118800E+02  0.7816164E-02  0.1184000E+00
        -11   -1    0    0    0    0  0.00000000000E+00  0.00000000000E+00  0.45593999997E+02  0.45594000000E+02  0.51100000000E-03 0. -1.
         11   -1    0    0    0    0 -0.00000000000E+00 -0.00000000000E+00 -0.45593999997E+02  0.45594000000E+02  0.51100000000E-03 0.  1.
         23    2    1    2    0    0 -0.35527136788E-14  0.00000000000E+00  0.00000000000E+00  0.91188000000E+02  0.91188000000E+02 0.  0.
    9900012    2    3    3    0    0 -0.19088783965E+02  0.16324966362E+02  0.35394028282E+02  0.47787269154E+02  0.19999991380E+02 0.  0.
        -12    1    3    3    0    0  0.19088783965E+02 -0.16324966362E+02 -0.35394028282E+02  0.43400730846E+02  0.00000000000E+00 0.  1.
         11    1    4    4    0    0 -0.13415632160E+02  0.17396637234E+02  0.21654025913E+02  0.30846701797E+02  0.51100000000E-03 0. -1.
        -11    1    4    4    0    0  0.43752743741E+00  0.39485050209E+00 -0.86172069076E+00  0.10439827525E+01  0.51100000000E-03 0.  1.
         12    1    4    4    0    0 -0.61106792425E+01 -0.14665213743E+01  0.14601723060E+02  0.15896584604E+02  0.00000000000E+00 0. -1.
</event>
<event>
 8    1  0.1164123E-009  0.9118800E+02  0.7816164E-02  0.1184000E+00
        -11   -1    0    0    0    0  0.00000000000E+00  0.00000000000E+00  0.45593999997E+02  0.45594000000E+02  0.51100000000E-03 0. -1.
         11   -1    0    0    0    0 -0.00000000000E+00 -0.00000000000E+00 -0.45593999997E+02  0.45594000000E+02  0.51100000000E-03 0.  1.
         23    2    1    2    0    0 -0.35527136788E-14  0.00000000000E+00  0.00000000000E+00  0.91188000000E+02  0.91188000000E+02 0.  0.
    9900012    2    3    3    0    0 -0.13209345709E+02 -0.13414800564E+01  0.41319934569E+02  0.47787269872E+02  0.19999994655E+02 0.  0.
        -12    1    3    3    0    0  0.13209345709E+02  0.13414800564E+01 -0.41319934569E+02  0.43400730128E+02  0.00000000000E+00 0.  1.
         11    1    4    4    0    0 -0.13526421144E+02 -0.27700750992E+01  0.16063346804E+02  0.21181796331E+02  0.51100000000E-03 0. -1.
        -11    1    4    4    0    0 -0.33049073324E+01 -0.14662413622E+00  0.51958232739E+01  0.61595852837E+01  0.51100000000E-03 0.  1.
        -12    1    4    4    0    0  0.36219827673E+01  0.15752191790E+01  0.20060764492E+02  0.20445888257E+02  0.00000000000E+00 0.  1.
</event>
<event>
 8    1  0.1164123E-009  0.9118800E+02  0.7816164E-02  0.1184000E+00
        -11   -1    0    0    0    0  0.00000000000E+00  0.00000000000E+00  0.45593999997E+02  0.45594000000E+02  0.51100000000E-03 0. -1.
         11   -1    0    0    0    0 -0.00000000000E+00 -0.00000000000E+00 -0.45593999997E+02  0.45594000000E+02  0.51100000000E-03 0.  1.
         23    2    1    2    0    0  0.00000000000E+00  0.00000000000E+00  0.00000000000E+00  0.91188000000E+02  0.91188000000E+02 0.  0.
    9900012    2    3    3    0    0  0.12812170990E+02  0.20118741074E+02  0.36258895453E+02  0.47787274576E+02  0.20000016102E+02 0.  0.
        -12    1    3    3    0    0 -0.12812170990E+02 -0.20118741074E+02 -0.36258895453E+02  0.43400725424E+02  0.00000000000E+00 0.  1.
         11    1    4    4    0    0  0.90523365019E+01  0.86743607955E+01  0.25797642269E+02  0.28682881275E+02  0.51100000000E-03 0. -1.
        -11    1    4    4    0    0 -0.83437159835E+00  0.10827675454E+02  0.50421723249E+01  0.11973229878E+02  0.51100000000E-03 0.  1.
         12    1    4    4    0    0  0.45942060862E+01  0.61670482414E+00  0.54190808595E+01  0.71311634229E+01  0.00000000000E+00 0. -1.
</event>
<event>
 8    1  0.1164123E-009  0.9118800E+02  0.7816164E-02  0.1184000E+00
        -11   -1    0    0    0    0  0.00000000000E+00  0.00000000000E+00  0.45593999997E+02  0.45594000000E+02  0.51100000000E-03 0. -1.
         11   -1    0    0    0    0 -0.00000000000E+00 -0.00000000000E+00 -0.45593999997E+02  0.45594000000E+02  0.51100000000E-03 0.  1.
         23    2    1    2    0    0  0.00000000000E+00  0.00000000000E+00  0.00000000000E+00  0.91188000000E+02  0.91188000000E+02 0.  0.
    9900012    2    3    3    0    0  0.34751009303E+02 -0.19944819269E+02  0.16679186307E+02  0.47787265915E+02  0.19999976613E+02 0.  0.
        -12    1    3    3    0    0 -0.34751009303E+02  0.19944819269E+02 -0.16679186307E+02  0.43400734085E+02  0.00000000000E+00 0.  1.
         11    1    4    4    0    0  0.41545121872E+01 -0.19928329778E+01 -0.20884079681E+01  0.50589329797E+01  0.51100000000E-03 0. -1.
        -11    1    4    4    0    0  0.87688421111E+00 -0.31239552541E+01  0.66034455975E+01  0.73575482580E+01  0.51100000000E-03 0.  1.
        -12    1    4    4    0    0  0.29719612904E+02 -0.14828031037E+02  0.12164148678E+02  0.35370784677E+02  0.00000000000E+00 0.  1.
</event>
<event>
 8    1  0.1164123E-009  0.9118800E+02  0.7816164E-02  0.1184000E+00
        -11   -1    0    0    0    0  0.00000000000E+00  0.00000000000E+00  0.45593999997E+02  0.45594000000E+02  0.51100000000E-03 0. -1.
         11   -1    0    0    0    0 -0.00000000000E+00 -0.00000000000E+00 -0.45593999997E+02  0.45594000000E+02  0.51100000000E-03 0.  1.
         23    2    1    2    0    0  0.35527136788E-14  0.00000000000E+00 -0.71054273576E-14  0.91188000000E+02  0.91188000000E+02 0.  0.
    9900012    2    3    3    0    0  0.17581333824E+02  0.17693397480E+02 -0.35517099660E+02  0.47787262890E+02  0.19999962820E+02 0.  0.
         12    1    3    3    0    0 -0.17581333824E+02 -0.17693397480E+02  0.35517099660E+02  0.43400737110E+02  0.00000000000E+00 0. -1.
         11    1    4    4    0    0  0.11201339272E+02  0.89378286669E+01 -0.90597832744E+01  0.16953892061E+02  0.51100000000E-03 0.  1.
        -11    1    4    4    0    0  0.64526344948E+01 -0.48471290169E+00 -0.90491256562E+01  0.11124662418E+02  0.51100000000E-03 0. -1.
        -12    1    4    4    0    0 -0.72639943079E-01  0.92402817151E+01 -0.17408190730E+02  0.19708708411E+02  0.00000000000E+00 0.  1.
</event>
<event>
 8    1  0.1164123E-009  0.9118800E+02  0.7816164E-02  0.1184000E+00
        -11   -1    0    0    0    0  0.00000000000E+00  0.00000000000E+00  0.45593999997E+02  0.45594000000E+02  0.51100000000E-03 0. -1.
         11   -1    0    0    0    0 -0.00000000000E+00 -0.00000000000E+00 -0.45593999997E+02  0.45594000000E+02  0.51100000000E-03 0.  1.
         23    2    1    2    0    0  0.00000000000E+00  0.35527136788E-14 -0.71054273576E-14  0.91188000000E+02  0.91188000000E+02 0.  0.
    9900012    2    3    3    0    0  0.11064125303E+02  0.23924951515E+02 -0.34479063470E+02  0.47787262777E+02  0.19999962306E+02 0.  0.
         12    1    3    3    0    0 -0.11064125303E+02 -0.23924951515E+02  0.34479063470E+02  0.43400737223E+02  0.00000000000E+00 0. -1.
         11    1    4    4    0    0  0.10203649230E+01  0.10337581645E+02 -0.13128401507E+02  0.16741017449E+02  0.51100000000E-03 0. -1.
        -11    1    4    4    0    0  0.40444275548E+01  0.14106004726E+02 -0.20115443538E+02  0.24899153250E+02  0.51100000000E-03 0.  1.
         12    1    4    4    0    0  0.59993328253E+01 -0.51863485582E+00 -0.12352184254E+01  0.61470920784E+01  0.00000000000E+00 0. -1.
</event>
<event>
 8    1  0.1164123E-009  0.9118800E+02  0.7816164E-02  0.1184000E+00
        -11   -1    0    0    0    0  0.00000000000E+00  0.00000000000E+00  0.45593999997E+02  0.45594000000E+02  0.51100000000E-03 0. -1.
         11   -1    0    0    0    0 -0.00000000000E+00 -0.00000000000E+00 -0.45593999997E+02  0.45594000000E+02  0.51100000000E-03 0.  1.
         23    2    1    2    0    0  0.00000000000E+00 -0.35527136788E-14  0.00000000000E+00  0.91188000000E+02  0.91188000000E+02 0.  0.
    9900012    2    3    3    0    0  0.19386669963E+02  0.21151383649E+02  0.32563765966E+02  0.47787275854E+02  0.20000021928E+02 0.  0.
        -12    1    3    3    0    0 -0.19386669963E+02 -0.21151383649E+02 -0.32563765966E+02  0.43400724146E+02  0.00000000000E+00 0.  1.
         11    1    4    4    0    0  0.23535976479E+01  0.12713459956E+02  0.85371786886E+01  0.15493705372E+02  0.51100000000E-03 0. -1.
        -11    1    4    4    0    0  0.22847429408E+01  0.62263602030E+01  0.65958444188E+01  0.93537572954E+01  0.51100000000E-03 0.  1.
        -12    1    4    4    0    0  0.14748329375E+02  0.22115634899E+01  0.17430742858E+02  0.22939813186E+02  0.00000000000E+00 0.  1.
</event>
<event>
 8    1  0.1164123E-009  0.9118800E+02  0.7816164E-02  0.1184000E+00
        -11   -1    0    0    0    0  0.00000000000E+00  0.00000000000E+00  0.45593999997E+02  0.45594000000E+02  0.51100000000E-03 0. -1.
         11   -1    0    0    0    0 -0.00000000000E+00 -0.00000000000E+00 -0.45593999997E+02  0.45594000000E+02  0.51100000000E-03 0.  1.
         23    2    1    2    0    0  0.35527136788E-14  0.35527136788E-14  0.00000000000E+00  0.91188000000E+02  0.91188000000E+02 0.  0.
    9900012    2    3    3    0    0  0.21871258868E+02  0.24792726168E+02 -0.28117468328E+02  0.47787271198E+02  0.20000000702E+02 0.  0.
         12    1    3    3    0    0 -0.21871258868E+02 -0.24792726168E+02  0.28117468328E+02  0.43400728802E+02  0.00000000000E+00 0. -1.
         11    1    4    4    0    0  0.11007597586E+02  0.32531727610E+01 -0.20327352549E+01  0.11656858518E+02  0.51100000000E-03 0. -1.
        -11    1    4    4    0    0  0.39571518775E+01  0.27800398862E+01 -0.68800220649E+01  0.84096597212E+01  0.51100000000E-03 0.  1.
         12    1    4    4    0    0  0.69065094040E+01  0.18759513521E+02 -0.19204711009E+02  0.27720752959E+02  0.00000000000E+00 0. -1.
</event>
<event>
 8    1  0.1164123E-009  0.9118800E+02  0.7816164E-02  0.1184000E+00
        -11   -1    0    0    0    0  0.00000000000E+00  0.00000000000E+00  0.45593999997E+02  0.45594000000E+02  0.51100000000E-03 0. -1.
         11   -1    0    0    0    0 -0.00000000000E+00 -0.00000000000E+00 -0.45593999997E+02  0.45594000000E+02  0.51100000000E-03 0.  1.
         23    2    1    2    0    0  0.00000000000E+00  0.88817841970E-15  0.00000000000E+00  0.91188000000E+02  0.91188000000E+02 0.  0.
    9900012    2    3    3    0    0 -0.26965921756E+02  0.47756041105E+01 -0.33669809721E+02  0.47787269391E+02  0.19999992460E+02 0.  0.
         12    1    3    3    0    0  0.26965921756E+02 -0.47756041105E+01  0.33669809721E+02  0.43400730609E+02  0.00000000000E+00 0. -1.
         11    1    4    4    0    0 -0.99411269940E+01  0.68041346274E+01 -0.15296221450E+02  0.19470404332E+02  0.51100000000E-03 0.  1.
        -11    1    4    4    0    0 -0.14732881537E+02  0.37336787880E+01 -0.11498203941E+02  0.19057986510E+02  0.51100000000E-03 0. -1.
         12    1    4    4    0    0 -0.22919132254E+01 -0.57622093049E+01 -0.68753843293E+01  0.92588785488E+01  0.00000000000E+00 0. -1.
</event>
<event>
 8    1  0.1164123E-009  0.9118800E+02  0.7816164E-02  0.1184000E+00
        -11   -1    0    0    0    0  0.00000000000E+00  0.00000000000E+00  0.45593999997E+02  0.45594000000E+02  0.51100000000E-03 0. -1.
         11   -1    0    0    0    0 -0.00000000000E+00 -0.00000000000E+00 -0.45593999997E+02  0.45594000000E+02  0.51100000000E-03 0.  1.
         23    2    1    2    0    0  0.17763568394E-14 -0.17763568394E-14  0.71054273576E-14  0.91188000000E+02  0.91188000000E+02 0.  0.
    9900012    2    3    3    0    0  0.10113528190E+02 -0.12345209819E+02  0.40360074010E+02  0.47787271526E+02  0.20000002197E+02 0.  0.
        -12    1    3    3    0    0 -0.10113528190E+02  0.12345209819E+02 -0.40360074010E+02  0.43400728474E+02  0.00000000000E+00 0.  1.
         11    1    4    4    0    0  0.37597642633E+01 -0.42947677114E+01  0.25488657759E+02  0.26119964235E+02  0.51100000000E-03 0. -1.
        -11    1    4    4    0    0 -0.10352232302E+01 -0.64099618778E+01  0.21047982111E+01  0.68256482610E+01  0.51100000000E-03 0.  1.
         12    1    4    4    0    0  0.73889871569E+01 -0.16404802295E+01  0.12766618041E+02  0.14841659031E+02  0.00000000000E+00 0. -1.
</event>
<event>
 8    1  0.1164123E-009  0.9118800E+02  0.7816164E-02  0.1184000E+00
        -11   -1    0    0    0    0  0.00000000000E+00  0.00000000000E+00  0.45593999997E+02  0.45594000000E+02  0.51100000000E-03 0. -1.
         11   -1    0    0    0    0 -0.00000000000E+00 -0.00000000000E+00 -0.45593999997E+02  0.45594000000E+02  0.51100000000E-03 0.  1.
         23    2    1    2    0    0  0.00000000000E+00 -0.35527136788E-14  0.00000000000E+00  0.91188000000E+02  0.91188000000E+02 0.  0.
    9900012    2    3    3    0    0  0.82759111120E+01 -0.25355324161E+02  0.34237988681E+02  0.47787273774E+02  0.20000012444E+02 0.  0.
        -12    1    3    3    0    0 -0.82759111120E+01  0.25355324161E+02 -0.34237988681E+02  0.43400726226E+02  0.00000000000E+00 0.  1.
         11    1    4    4    0    0  0.29341406397E+01 -0.11478383967E+02  0.10306070728E+02  0.15702788730E+02  0.51100000000E-03 0. -1.
        -11    1    4    4    0    0  0.78924696424E+01 -0.10469276327E+02  0.74879712053E+01  0.15098560756E+02  0.51100000000E-03 0.  1.
         12    1    4    4    0    0 -0.25506991701E+01 -0.34076638680E+01  0.16443946747E+02  0.16985924288E+02  0.00000000000E+00 0. -1.
</event>
<event>
 8    1  0.1164123E-009  0.9118800E+02  0.7816164E-02  0.1184000E+00
        -11   -1    0    0    0    0  0.00000000000E+00  0.00000000000E+00  0.45593999997E+02  0.45594000000E+02  0.51100000000E-03 0. -1.
         11   -1    0    0    0    0 -0.00000000000E+00 -0.00000000000E+00 -0.45593999997E+02  0.45594000000E+02  0.51100000000E-03 0.  1.
         23    2    1    2    0    0  0.00000000000E+00  0.00000000000E+00  0.00000000000E+00  0.91188000000E+02  0.91188000000E+02 0.  0.
    9900012    2    3    3    0    0 -0.80545757513E+01  0.94633460764E+01 -0.41583555650E+02  0.47787271781E+02  0.20000003357E+02 0.  0.
         12    1    3    3    0    0  0.80545757513E+01 -0.94633460764E+01  0.41583555650E+02  0.43400728219E+02  0.00000000000E+00 0. -1.
         11    1    4    4    0    0 -0.68262782442E+00  0.34827939915E-01  0.14472215436E+00  0.69866908845E+00  0.51100000000E-03 0. -1.
        -11    1    4    4    0    0 -0.16021954465E+01  0.14104559375E+02 -0.30282475745E+02  0.33444490771E+02  0.51100000000E-03 0.  1.
         12    1    4    4    0    0 -0.57697524803E+01 -0.46760412389E+01 -0.11445802059E+02  0.13644111922E+02  0.00000000000E+00 0. -1.
</event>
<event>
 8    1  0.1164123E-009  0.9118800E+02  0.7816164E-02  0.1184000E+00
        -11   -1    0    0    0    0  0.00000000000E+00  0.00000000000E+00  0.45593999997E+02  0.45594000000E+02  0.51100000000E-03 0. -1.
         11   -1    0    0    0    0 -0.00000000000E+00 -0.00000000000E+00 -0.45593999997E+02  0.45594000000E+02  0.51100000000E-03 0.  1.
         23    2    1    2    0    0 -0.71054273576E-14 -0.17763568394E-14  0.00000000000E+00  0.91188000000E+02  0.91188000000E+02 0.  0.
    9900012    2    3    3    0    0 -0.33045363545E+02  0.14603929944E+02  0.24048954478E+02  0.47787273818E+02  0.20000012644E+02 0.  0.
        -12    1    3    3    0    0  0.33045363545E+02 -0.14603929944E+02 -0.24048954478E+02  0.43400726182E+02  0.00000000000E+00 0.  1.
         11    1    4    4    0    0 -0.28991959019E+02  0.92338669802E+01  0.18706184133E+02  0.35717213109E+02  0.51100000000E-03 0. -1.
        -11    1    4    4    0    0 -0.56145451802E+01  0.31265758657E+01  0.42084502544E+00  0.64401634313E+01  0.51100000000E-03 0.  1.
        -12    1    4    4    0    0  0.15611406541E+01  0.22434870980E+01  0.49219253202E+01  0.56298972778E+01  0.00000000000E+00 0.  1.
</event>
<event>
 8    1  0.1164123E-009  0.9118800E+02  0.7816164E-02  0.1184000E+00
        -11   -1    0    0    0    0  0.00000000000E+00  0.00000000000E+00  0.45593999997E+02  0.45594000000E+02  0.51100000000E-03 0. -1.
         11   -1    0    0    0    0 -0.00000000000E+00 -0.00000000000E+00 -0.45593999997E+02  0.45594000000E+02  0.51100000000E-03 0.  1.
         23    2    1    2    0    0  0.00000000000E+00  0.00000000000E+00 -0.88817841970E-15  0.91188000000E+02  0.91188000000E+02 0.  0.
    9900012    2    3    3    0    0 -0.29861984215E+02  0.30922330937E+02  0.59745183987E+01  0.47787268187E+02  0.19999986972E+02 0.  0.
        -12    1    3    3    0    0  0.29861984215E+02 -0.30922330937E+02 -0.59745183987E+01  0.43400731813E+02  0.00000000000E+00 0.  1.
         11    1    4    4    0    0 -0.13465863882E+02  0.16058480569E+02 -0.46949188837E+01  0.21476651319E+02  0.51100000000E-03 0. -1.
        -11    1    4    4    0    0  0.83337947559E+00  0.30023465206E+01  0.17173869935E+01  0.35578117328E+01  0.51100000000E-03 0.  1.
         12    1    4    4    0    0 -0.17229499808E+02  0.11861503847E+02  0.89520502889E+01  0.22752805135E+02  0.00000000000E+00 0. -1.
</event>
<event>
 8    1  0.1164123E-009  0.9118800E+02  0.7816164E-02  0.1184000E+00
        -11   -1    0    0    0    0  0.00000000000E+00  0.00000000000E+00  0.45593999997E+02  0.45594000000E+02  0.51100000000E-03 0.  1.
         11   -1    0    0    0    0 -0.00000000000E+00 -0.00000000000E+00 -0.45593999997E+02  0.45594000000E+02  0.51100000000E-03 0. -1.
         23    2    1    2    0    0  0.00000000000E+00  0.35527136788E-14  0.17763568394E-14  0.91188000000E+02  0.91188000000E+02 0.  0.
    9900012    2    3    3    0    0 -0.28651831077E+02  0.29767100495E+02  0.13289680335E+02  0.47787270751E+02  0.19999998663E+02 0.  0.
        -12    1    3    3    0    0  0.28651831077E+02 -0.29767100495E+02 -0.13289680335E+02  0.43400729249E+02  0.00000000000E+00 0.  1.
         11    1    4    4    0    0 -0.81865318700E+01  0.61549101994E+01 -0.48754893503E+01  0.11343395448E+02  0.51100000000E-03 0. -1.
        -11    1    4    4    0    0 -0.11057741240E+01  0.29361871775E+01  0.28759141494E+01  0.42561501395E+01  0.51100000000E-03 0.  1.
         12    1    4    4    0    0 -0.19359525083E+02  0.20676003118E+02  0.15289255536E+02  0.32187725164E+02  0.00000000000E+00 0. -1.
</event>
<event>
 8    1  0.1164123E-009  0.9118800E+02  0.7816164E-02  0.1184000E+00
        -11   -1    0    0    0    0  0.00000000000E+00  0.00000000000E+00  0.45593999997E+02  0.45594000000E+02  0.51100000000E-03 0. -1.
         11   -1    0    0    0    0 -0.00000000000E+00 -0.00000000000E+00 -0.45593999997E+02  0.45594000000E+02  0.51100000000E-03 0.  1.
         23    2    1    2    0    0  0.00000000000E+00  0.00000000000E+00  0.00000000000E+00  0.91188000000E+02  0.91188000000E+02 0.  0.
    9900012    2    3    3    0    0  0.73738998450E+01  0.59889493417E+01  0.42348330593E+02  0.47787274002E+02  0.20000013485E+02 0.  0.
        -12    1    3    3    0    0 -0.73738998450E+01 -0.59889493417E+01 -0.42348330593E+02  0.43400725998E+02  0.00000000000E+00 0.  1.
         11    1    4    4    0    0  0.30930177000E+01  0.11857436908E+02  0.18200844879E+02  0.21941657255E+02  0.51100000000E-03 0. -1.
        -11    1    4    4    0    0  0.20973884216E+01 -0.16970665946E+01  0.24540494259E+01  0.36471128394E+01  0.51100000000E-03 0.  1.
         12    1    4    4    0    0  0.21834937234E+01 -0.41714209717E+01  0.21693436288E+02  0.22198503908E+02  0.00000000000E+00 0. -1.
</event>
<event>
 8    1  0.1164123E-009  0.9118800E+02  0.7816164E-02  0.1184000E+00
        -11   -1    0    0    0    0  0.00000000000E+00  0.00000000000E+00  0.45593999997E+02  0.45594000000E+02  0.51100000000E-03 0. -1.
         11   -1    0    0    0    0 -0.00000000000E+00 -0.00000000000E+00 -0.45593999997E+02  0.45594000000E+02  0.51100000000E-03 0.  1.
         23    2    1    2    0    0 -0.88817841970E-15  0.17763568394E-14  0.00000000000E+00  0.91188000000E+02  0.91188000000E+02 0.  0.
    9900012    2    3    3    0    0 -0.51864672008E+01  0.73257472289E+01  0.42462421266E+02  0.47787271501E+02  0.20000002083E+02 0.  0.
        -12    1    3    3    0    0  0.51864672008E+01 -0.73257472289E+01 -0.42462421266E+02  0.43400728499E+02  0.00000000000E+00 0.  1.
         11    1    4    4    0    0 -0.32850290696E+01  0.10883482458E+02  0.33124742218E+02  0.35021281440E+02  0.51100000000E-03 0. -1.
        -11    1    4    4    0    0 -0.22116898882E+01 -0.70162441232E+00  0.96044162169E+01  0.98807216389E+01  0.51100000000E-03 0.  1.
        -12    1    4    4    0    0  0.31025175695E+00 -0.28561108170E+01 -0.26673716951E+00  0.28852684224E+01  0.00000000000E+00 0.  1.
</event>
<event>
 8    1  0.1164123E-009  0.9118800E+02  0.7816164E-02  0.1184000E+00
        -11   -1    0    0    0    0  0.00000000000E+00  0.00000000000E+00  0.45593999997E+02  0.45594000000E+02  0.51100000000E-03 0. -1.
         11   -1    0    0    0    0 -0.00000000000E+00 -0.00000000000E+00 -0.45593999997E+02  0.45594000000E+02  0.51100000000E-03 0.  1.
         23    2    1    2    0    0  0.17763568394E-14  0.00000000000E+00  0.00000000000E+00  0.91188000000E+02  0.91188000000E+02 0.  0.
    9900012    2    3    3    0    0 -0.73448825011E+01  0.84976013240E+01 -0.41922150619E+02  0.47787271438E+02  0.20000001794E+02 0.  0.
         12    1    3    3    0    0  0.73448825011E+01 -0.84976013240E+01  0.41922150619E+02  0.43400728562E+02  0.00000000000E+00 0. -1.
         11    1    4    4    0    0 -0.60610875635E+01  0.99632458946E+01 -0.20236669919E+02  0.23356495047E+02  0.51100000000E-03 0. -1.
        -11    1    4    4    0    0 -0.37975740393E+01  0.64618858566E+00 -0.20623478464E+02  0.20980157113E+02  0.51100000000E-03 0.  1.
        -12    1    4    4    0    0  0.25137791017E+01 -0.21118331563E+01 -0.10620022357E+01  0.34506192778E+01  0.00000000000E+00 0.  1.
</event>
<event>
 8    1  0.1164123E-009  0.9118800E+02  0.7816164E-02  0.1184000E+00
        -11   -1    0    0    0    0  0.00000000000E+00  0.00000000000E+00  0.45593999997E+02  0.45594000000E+02  0.51100000000E-03 0. -1.
         11   -1    0    0    0    0 -0.00000000000E+00 -0.00000000000E+00 -0.45593999997E+02  0.45594000000E+02  0.51100000000E-03 0.  1.
         23    2    1    2    0    0  0.00000000000E+00  0.00000000000E+00 -0.71054273576E-14  0.91188000000E+02  0.91188000000E+02 0.  0.
    9900012    2    3    3    0    0  0.92012258445E+01 -0.20545033926E+02 -0.37106096007E+02  0.47787270317E+02  0.19999996685E+02 0.  0.
         12    1    3    3    0    0 -0.92012258445E+01  0.20545033926E+02  0.37106096007E+02  0.43400729683E+02  0.00000000000E+00 0. -1.
         11    1    4    4    0    0  0.27844270985E+00 -0.38171311322E+01 -0.59513641878E+01  0.70757866263E+01  0.51100000000E-03 0. -1.
        -11    1    4    4    0    0  0.26774701668E+01 -0.15386949329E+02 -0.30530482069E+02  0.34293401578E+02  0.51100000000E-03 0.  1.
         12    1    4    4    0    0  0.62453129679E+01 -0.13409534653E+01 -0.62424975027E+00  0.64180821133E+01  0.00000000000E+00 0. -1.
</event>
<event>
 8    1  0.1164123E-009  0.9118800E+02  0.7816164E-02  0.1184000E+00
        -11   -1    0    0    0    0  0.00000000000E+00  0.00000000000E+00  0.45593999997E+02  0.45594000000E+02  0.51100000000E-03 0. -1.
         11   -1    0    0    0    0 -0.00000000000E+00 -0.00000000000E+00 -0.45593999997E+02  0.45594000000E+02  0.51100000000E-03 0.  1.
         23    2    1    2    0    0  0.00000000000E+00 -0.35527136788E-14 -0.71054273576E-14  0.91188000000E+02  0.91188000000E+02 0.  0.
    9900012    2    3    3    0    0 -0.15651569945E+02  0.21241242693E+02  0.34459557874E+02  0.47787272336E+02  0.20000005888E+02 0.  0.
        -12    1    3    3    0    0  0.15651569945E+02 -0.21241242693E+02 -0.34459557874E+02  0.43400727664E+02  0.00000000000E+00 0.  1.
         11    1    4    4    0    0 -0.28918045841E+01  0.78417109680E+01  0.11325898000E+02  0.14075898921E+02  0.51100000000E-03 0. -1.
        -11    1    4    4    0    0 -0.11379827082E+02  0.16585068936E+01  0.16628979231E+02  0.20218161639E+02  0.51100000000E-03 0.  1.
         12    1    4    4    0    0 -0.13799382786E+01  0.11741024832E+02  0.65046806425E+01  0.13493211775E+02  0.00000000000E+00 0. -1.
</event>
<event>
 8    1  0.1164123E-009  0.9118800E+02  0.7816164E-02  0.1184000E+00
        -11   -1    0    0    0    0  0.00000000000E+00  0.00000000000E+00  0.45593999997E+02  0.45594000000E+02  0.51100000000E-03 0. -1.
         11   -1    0    0    0    0 -0.00000000000E+00 -0.00000000000E+00 -0.45593999997E+02  0.45594000000E+02  0.51100000000E-03 0.  1.
         23    2    1    2    0    0  0.88817841970E-15  0.00000000000E+00  0.00000000000E+00  0.91188000000E+02  0.91188000000E+02 0.  0.
    9900012    2    3    3    0    0 -0.79481038662E+01 -0.18185430554E+02  0.38597164016E+02  0.47787270633E+02  0.19999998125E+02 0.  0.
        -12    1    3    3    0    0  0.79481038662E+01  0.18185430554E+02 -0.38597164016E+02  0.43400729367E+02  0.00000000000E+00 0.  1.
         11    1    4    4    0    0 -0.24134746123E+01 -0.11988812155E+02  0.12769141858E+02  0.17680708714E+02  0.51100000000E-03 0.  1.
        -11    1    4    4    0    0  0.35106667752E+01 -0.47011224864E+01  0.67748586639E+01  0.89623682146E+01  0.51100000000E-03 0. -1.
        -12    1    4    4    0    0 -0.90452960291E+01 -0.14954959131E+01  0.19053163494E+02  0.21144193704E+02  0.00000000000E+00 0.  1.
</event>
<event>
 8    1  0.1164123E-009  0.9118800E+02  0.7816164E-02  0.1184000E+00
        -11   -1    0    0    0    0  0.00000000000E+00  0.00000000000E+00  0.45593999997E+02  0.45594000000E+02  0.51100000000E-03 0. -1.
         11   -1    0    0    0    0 -0.00000000000E+00 -0.00000000000E+00 -0.45593999997E+02  0.45594000000E+02  0.51100000000E-03 0.  1.
         23    2    1    2    0    0  0.00000000000E+00  0.00000000000E+00  0.71054273576E-14  0.91188000000E+02  0.91188000000E+02 0.  0.
    9900012    2    3    3    0    0  0.91853073728E+01  0.31822275252E+02 -0.28046324386E+02  0.47787269760E+02  0.19999994145E+02 0.  0.
         12    1    3    3    0    0 -0.91853073728E+01 -0.31822275252E+02  0.28046324386E+02  0.43400730240E+02  0.00000000000E+00 0. -1.
         11    1    4    4    0    0 -0.29481664344E+01  0.12410496441E+01 -0.35656790098E+01  0.47901937963E+01  0.51100000000E-03 0. -1.
        -11    1    4    4    0    0  0.43593056110E+01  0.20864673417E+02 -0.21342673059E+02  0.30163684055E+02  0.51100000000E-03 0.  1.
         12    1    4    4    0    0  0.77741681962E+01  0.97165521911E+01 -0.31379723173E+01  0.12833391909E+02  0.00000000000E+00 0. -1.
</event>
<event>
 8    1  0.1164123E-009  0.9118800E+02  0.7816164E-02  0.1184000E+00
        -11   -1    0    0    0    0  0.00000000000E+00  0.00000000000E+00  0.45593999997E+02  0.45594000000E+02  0.51100000000E-03 0. -1.
         11   -1    0    0    0    0 -0.00000000000E+00 -0.00000000000E+00 -0.45593999997E+02  0.45594000000E+02  0.51100000000E-03 0.  1.
         23    2    1    2    0    0  0.00000000000E+00  0.71054273576E-14  0.35527136788E-14  0.91188000000E+02  0.91188000000E+02 0.  0.
    9900012    2    3    3    0    0  0.18322634354E+02  0.27367511109E+02  0.28265239642E+02  0.47787269983E+02  0.19999995161E+02 0.  0.
        -12    1    3    3    0    0 -0.18322634354E+02 -0.27367511109E+02 -0.28265239642E+02  0.43400730017E+02  0.00000000000E+00 0.  1.
         11    1    4    4    0    0  0.63730568832E+01  0.21937720254E+02  0.22351652064E+02  0.31960534636E+02  0.51100000000E-03 0. -1.
        -11    1    4    4    0    0 -0.82163463953E+00  0.12848003881E+00  0.53985849873E+00  0.99148275881E+00  0.51100000000E-03 0.  1.
        -12    1    4    4    0    0  0.12771212110E+02  0.53013108161E+01  0.53737290793E+01  0.14835252588E+02  0.00000000000E+00 0.  1.
</event>
<event>
 8    1  0.1164123E-009  0.9118800E+02  0.7816164E-02  0.1184000E+00
        -11   -1    0    0    0    0  0.00000000000E+00  0.00000000000E+00  0.45593999997E+02  0.45594000000E+02  0.51100000000E-03 0. -1.
         11   -1    0    0    0    0 -0.00000000000E+00 -0.00000000000E+00 -0.45593999997E+02  0.45594000000E+02  0.51100000000E-03 0.  1.
         23    2    1    2    0    0  0.00000000000E+00  0.35527136788E-14 -0.35527136788E-14  0.91188000000E+02  0.91188000000E+02 0.  0.
    9900012    2    3    3    0    0  0.85919556805E+01 -0.28688206813E+02  0.31413177459E+02  0.47787278455E+02  0.20000033789E+02 0.  0.
        -12    1    3    3    0    0 -0.85919556805E+01  0.28688206813E+02 -0.31413177459E+02  0.43400721545E+02  0.00000000000E+00 0.  1.
         11    1    4    4    0    0  0.20739519020E+01 -0.65653480841E+01  0.34448232668E+01  0.76988232580E+01  0.51100000000E-03 0. -1.
        -11    1    4    4    0    0  0.92062134570E+00 -0.15800957895E+02  0.27378194093E+02  0.31624094076E+02  0.51100000000E-03 0.  1.
        -12    1    4    4    0    0  0.55973824328E+01 -0.63219008335E+01  0.59016009893E+00  0.84643611212E+01  0.00000000000E+00 0.  1.
</event>
<event>
 8    1  0.1164123E-009  0.9118800E+02  0.7816164E-02  0.1184000E+00
        -11   -1    0    0    0    0  0.00000000000E+00  0.00000000000E+00  0.45593999997E+02  0.45594000000E+02  0.51100000000E-03 0. -1.
         11   -1    0    0    0    0 -0.00000000000E+00 -0.00000000000E+00 -0.45593999997E+02  0.45594000000E+02  0.51100000000E-03 0.  1.
         23    2    1    2    0    0  0.00000000000E+00  0.13877787808E-15 -0.17763568394E-14  0.91188000000E+02  0.91188000000E+02 0.  0.
    9900012    2    3    3    0    0  0.40657928379E+02 -0.23877313264E+00  0.15182209959E+02  0.47787266689E+02  0.19999980141E+02 0.  0.
        -12    1    3    3    0    0 -0.40657928379E+02  0.23877313264E+00 -0.15182209959E+02  0.43400733311E+02  0.00000000000E+00 0.  1.
         11    1    4    4    0    0  0.11175894593E+02 -0.89233512613E+00 -0.64871716517E+00  0.11230214430E+02  0.51100000000E-03 0.  1.
        -11    1    4    4    0    0  0.27934373121E+02  0.32425668517E+01  0.97412775922E+01  0.29761316014E+02  0.51100000000E-03 0. -1.
        -12    1    4    4    0    0  0.15476606655E+01 -0.25890048582E+01  0.60896495320E+01  0.67957362451E+01  0.00000000000E+00 0.  1.
</event>
<event>
 8    1  0.1164123E-009  0.9118800E+02  0.7816164E-02  0.1184000E+00
        -11   -1    0    0    0    0  0.00000000000E+00  0.00000000000E+00  0.45593999997E+02  0.45594000000E+02  0.51100000000E-03 0. -1.
         11   -1    0    0    0    0 -0.00000000000E+00 -0.00000000000E+00 -0.45593999997E+02  0.45594000000E+02  0.51100000000E-03 0.  1.
         23    2    1    2    0    0  0.11102230246E-14  0.00000000000E+00  0.00000000000E+00  0.91188000000E+02  0.91188000000E+02 0.  0.
    9900012    2    3    3    0    0 -0.13852726503E+01  0.39270960973E+02  0.18425413180E+02  0.47787271816E+02  0.20000003516E+02 0.  0.
        -12    1    3    3    0    0  0.13852726503E+01 -0.39270960973E+02 -0.18425413180E+02  0.43400728184E+02  0.00000000000E+00 0.  1.
         11    1    4    4    0    0 -0.47080631921E+01  0.11190713254E+02  0.15065899897E+01  0.12233876565E+02  0.51100000000E-03 0. -1.
        -11    1    4    4    0    0 -0.36198362355E+01  0.51815663332E+01  0.12829224285E+00  0.63220489715E+01  0.51100000000E-03 0.  1.
        -12    1    4    4    0    0  0.69426267773E+01  0.22898681386E+02  0.16790530947E+02  0.29231346279E+02  0.00000000000E+00 0.  1.
</event>
<event>
 8    1  0.1164123E-009  0.9118800E+02  0.7816164E-02  0.1184000E+00
        -11   -1    0    0    0    0  0.00000000000E+00  0.00000000000E+00  0.45593999997E+02  0.45594000000E+02  0.51100000000E-03 0. -1.
         11   -1    0    0    0    0 -0.00000000000E+00 -0.00000000000E+00 -0.45593999997E+02  0.45594000000E+02  0.51100000000E-03 0.  1.
         23    2    1    2    0    0 -0.35527136788E-14  0.00000000000E+00 -0.35527136788E-14  0.91188000000E+02  0.91188000000E+02 0.  0.
    9900012    2    3    3    0    0  0.25271447052E+02  0.20130187042E+02  0.28978502875E+02  0.47787261580E+02  0.19999956850E+02 0.  0.
        -12    1    3    3    0    0 -0.25271447052E+02 -0.20130187042E+02 -0.28978502875E+02  0.43400738420E+02  0.00000000000E+00 0.  1.
         11    1    4    4    0    0  0.52607097759E+01  0.13603590304E+02  0.16374272726E+02  0.21928281831E+02  0.51100000000E-03 0. -1.
        -11    1    4    4    0    0  0.72939716745E+01  0.61280710317E+01  0.32439042653E+01  0.10063706698E+02  0.51100000000E-03 0.  1.
         12    1    4    4    0    0  0.12716765602E+02  0.39852570659E+00  0.93603258842E+01  0.15795273052E+02  0.00000000000E+00 0. -1.
</event>
<event>
 8    1  0.1164123E-009  0.9118800E+02  0.7816164E-02  0.1184000E+00
        -11   -1    0    0    0    0  0.00000000000E+00  0.00000000000E+00  0.45593999997E+02  0.45594000000E+02  0.51100000000E-03 0. -1.
         11   -1    0    0    0    0 -0.00000000000E+00 -0.00000000000E+00 -0.45593999997E+02  0.45594000000E+02  0.51100000000E-03 0.  1.
         23    2    1    2    0    0  0.17763568394E-14  0.00000000000E+00  0.00000000000E+00  0.91188000000E+02  0.91188000000E+02 0.  0.
    9900012    2    3    3    0    0  0.14603428836E+02  0.18718535437E+02  0.36331518114E+02  0.47787275223E+02  0.20000019051E+02 0.  0.
        -12    1    3    3    0    0 -0.14603428836E+02 -0.18718535437E+02 -0.36331518114E+02  0.43400724777E+02  0.00000000000E+00 0.  1.
         11    1    4    4    0    0  0.47022612624E+01 -0.55112937021E+00  0.40686658899E+01  0.62425192789E+01  0.51100000000E-03 0. -1.
        -11    1    4    4    0    0  0.69631697494E+01  0.12919662803E+02  0.89173227635E+01  0.17173295124E+02  0.51100000000E-03 0.  1.
         12    1    4    4    0    0  0.29379978245E+01  0.63500020048E+01  0.23345529461E+02  0.24371460820E+02  0.00000000000E+00 0. -1.
</event>
<event>
 8    1  0.1164123E-009  0.9118800E+02  0.7816164E-02  0.1184000E+00
        -11   -1    0    0    0    0  0.00000000000E+00  0.00000000000E+00  0.45593999997E+02  0.45594000000E+02  0.51100000000E-03 0. -1.
         11   -1    0    0    0    0 -0.00000000000E+00 -0.00000000000E+00 -0.45593999997E+02  0.45594000000E+02  0.51100000000E-03 0.  1.
         23    2    1    2    0    0 -0.88817841970E-15  0.00000000000E+00  0.00000000000E+00  0.91188000000E+02  0.91188000000E+02 0.  0.
    9900012    2    3    3    0    0  0.52480274034E+01 -0.54713083327E+01  0.42733438999E+02  0.47787264808E+02  0.19999971565E+02 0.  0.
        -12    1    3    3    0    0 -0.52480274034E+01  0.54713083327E+01 -0.42733438999E+02  0.43400735192E+02  0.00000000000E+00 0.  1.
         11    1    4    4    0    0  0.41607162439E+01 -0.60303317211E+01  0.62710975909E+01  0.96438128136E+01  0.51100000000E-03 0. -1.
        -11    1    4    4    0    0  0.16702944479E+01 -0.42347801154E+01  0.74408790560E+01  0.87229540613E+01  0.51100000000E-03 0.  1.
         12    1    4    4    0    0 -0.58298328831E+00  0.47938035038E+01  0.29021462352E+02  0.29420497933E+02  0.00000000000E+00 0. -1.
</event>
<event>
 8    1  0.1164123E-009  0.9118800E+02  0.7816164E-02  0.1184000E+00
        -11   -1    0    0    0    0  0.00000000000E+00  0.00000000000E+00  0.45593999997E+02  0.45594000000E+02  0.51100000000E-03 0. -1.
         11   -1    0    0    0    0 -0.00000000000E+00 -0.00000000000E+00 -0.45593999997E+02  0.45594000000E+02  0.51100000000E-03 0.  1.
         23    2    1    2    0    0  0.71054273576E-14  0.00000000000E+00  0.00000000000E+00  0.91188000000E+02  0.91188000000E+02 0.  0.
    9900012    2    3    3    0    0 -0.36574676336E+02 -0.18812217389E+02  0.13857002910E+02  0.47787274178E+02  0.20000014289E+02 0.  0.
        -12    1    3    3    0    0  0.36574676336E+02  0.18812217389E+02 -0.13857002910E+02  0.43400725822E+02  0.00000000000E+00 0.  1.
         11    1    4    4    0    0 -0.73974737601E+01  0.18076384796E+01  0.26328997492E+01  0.80574398077E+01  0.51100000000E-03 0. -1.
        -11    1    4    4    0    0 -0.17078391125E+02 -0.40491532056E+01  0.61056371173E+01  0.18583484333E+02  0.51100000000E-03 0.  1.
        -12    1    4    4    0    0 -0.12098811452E+02 -0.16570702663E+02  0.51184660432E+01  0.21146350038E+02  0.00000000000E+00 0.  1.
</event>
<event>
 8    1  0.1164123E-009  0.9118800E+02  0.7816164E-02  0.1184000E+00
        -11   -1    0    0    0    0  0.00000000000E+00  0.00000000000E+00  0.45593999997E+02  0.45594000000E+02  0.51100000000E-03 0. -1.
         11   -1    0    0    0    0 -0.00000000000E+00 -0.00000000000E+00 -0.45593999997E+02  0.45594000000E+02  0.51100000000E-03 0.  1.
         23    2    1    2    0    0  0.44408920985E-15  0.35527136788E-14  0.00000000000E+00  0.91188000000E+02  0.91188000000E+02 0.  0.
    9900012    2    3    3    0    0  0.37375773037E+01  0.12160024274E+02  0.41494426057E+02  0.47787273413E+02  0.20000010800E+02 0.  0.
        -12    1    3    3    0    0 -0.37375773037E+01 -0.12160024274E+02 -0.41494426057E+02  0.43400726587E+02  0.00000000000E+00 0.  1.
         11    1    4    4    0    0  0.26437849553E+01  0.21825696821E+01  0.23081933248E+01  0.41329125315E+01  0.51100000000E-03 0. -1.
        -11    1    4    4    0    0  0.30328475336E+01  0.12908650236E+02  0.37462208985E+02  0.39739759906E+02  0.51100000000E-03 0.  1.
        -12    1    4    4    0    0 -0.19390551852E+01 -0.29311956444E+01  0.17240237472E+01  0.39146009756E+01  0.00000000000E+00 0.  1.
</event>
<event>
 8    1  0.1164123E-009  0.9118800E+02  0.7816164E-02  0.1184000E+00
        -11   -1    0    0    0    0  0.00000000000E+00  0.00000000000E+00  0.45593999997E+02  0.45594000000E+02  0.51100000000E-03 0. -1.
         11   -1    0    0    0    0 -0.00000000000E+00 -0.00000000000E+00 -0.45593999997E+02  0.45594000000E+02  0.51100000000E-03 0.  1.
         23    2    1    2    0    0  0.00000000000E+00  0.00000000000E+00  0.00000000000E+00  0.91188000000E+02  0.91188000000E+02 0.  0.
    9900012    2    3    3    0    0 -0.17920579306E+02 -0.33991334313E+02 -0.20175870946E+02  0.47787265681E+02  0.19999975546E+02 0.  0.
         12    1    3    3    0    0  0.17920579306E+02  0.33991334313E+02  0.20175870946E+02  0.43400734319E+02  0.00000000000E+00 0. -1.
         11    1    4    4    0    0 -0.81436926476E+01 -0.10124359748E+02 -0.56956261190E+01  0.14186703189E+02  0.51100000000E-03 0.  1.
        -11    1    4    4    0    0 -0.42318258253E+01 -0.13836732389E+02  0.80969657107E+00  0.14492036497E+02  0.51100000000E-03 0. -1.
         12    1    4    4    0    0 -0.55450608327E+01 -0.10030242176E+02 -0.15289941398E+02  0.19108525995E+02  0.00000000000E+00 0. -1.
</event>
<event>
 8    1  0.1164123E-009  0.9118800E+02  0.7816164E-02  0.1184000E+00
        -11   -1    0    0    0    0  0.00000000000E+00  0.00000000000E+00  0.45593999997E+02  0.45594000000E+02  0.51100000000E-03 0. -1.
         11   -1    0    0    0    0 -0.00000000000E+00 -0.00000000000E+00 -0.45593999997E+02  0.45594000000E+02  0.51100000000E-03 0.  1.
         23    2    1    2    0    0  0.44408920985E-15  0.00000000000E+00  0.00000000000E+00  0.91188000000E+02  0.91188000000E+02 0.  0.
    9900012    2    3    3    0    0 -0.10063696807E+01 -0.14402821018E+02 -0.40928828717E+02  0.47787273585E+02  0.20000011582E+02 0.  0.
         12    1    3    3    0    0  0.10063696807E+01  0.14402821018E+02  0.40928828717E+02  0.43400726415E+02  0.00000000000E+00 0. -1.
         11    1    4    4    0    0 -0.32543965655E+01 -0.65706092780E+00 -0.45539131980E+01  0.56356855612E+01  0.51100000000E-03 0. -1.
        -11    1    4    4    0    0  0.24346756783E+01 -0.15940569203E+02 -0.36542738711E+02  0.39942472944E+02  0.51100000000E-03 0.  1.
        -12    1    4    4    0    0 -0.18664879356E+00  0.21948091120E+01  0.16782319165E+00  0.22091150794E+01  0.00000000000E+00 0.  1.
</event>
<event>
 8    1  0.1164123E-009  0.9118800E+02  0.7816164E-02  0.1184000E+00
        -11   -1    0    0    0    0  0.00000000000E+00  0.00000000000E+00  0.45593999997E+02  0.45594000000E+02  0.51100000000E-03 0. -1.
         11   -1    0    0    0    0 -0.00000000000E+00 -0.00000000000E+00 -0.45593999997E+02  0.45594000000E+02  0.51100000000E-03 0.  1.
         23    2    1    2    0    0  0.00000000000E+00 -0.35527136788E-14  0.00000000000E+00  0.91188000000E+02  0.91188000000E+02 0.  0.
    9900012    2    3    3    0    0 -0.17065444864E+02 -0.29298035698E+02  0.27092785350E+02  0.47787270488E+02  0.19999997462E+02 0.  0.
        -12    1    3    3    0    0  0.17065444864E+02  0.29298035698E+02 -0.27092785350E+02  0.43400729512E+02  0.00000000000E+00 0.  1.
         11    1    4    4    0    0  0.42641978736E+00 -0.18828861044E+00  0.59736584417E+01  0.59918179107E+01  0.51100000000E-03 0. -1.
        -11    1    4    4    0    0 -0.70757754671E+01 -0.30093047173E+01  0.67561058289E+01  0.10235598643E+02  0.51100000000E-03 0.  1.
         12    1    4    4    0    0 -0.10416089184E+02 -0.26100442371E+02  0.14363021079E+02  0.31559853934E+02  0.00000000000E+00 0. -1.
</event>
<event>
 8    1  0.1164123E-009  0.9118800E+02  0.7816164E-02  0.1184000E+00
        -11   -1    0    0    0    0  0.00000000000E+00  0.00000000000E+00  0.45593999997E+02  0.45594000000E+02  0.51100000000E-03 0. -1.
         11   -1    0    0    0    0 -0.00000000000E+00 -0.00000000000E+00 -0.45593999997E+02  0.45594000000E+02  0.51100000000E-03 0.  1.
         23    2    1    2    0    0  0.00000000000E+00  0.17763568394E-14  0.71054273576E-14  0.91188000000E+02  0.91188000000E+02 0.  0.
    9900012    2    3    3    0    0  0.25148538116E+02 -0.13459114379E+02 -0.32711259519E+02  0.47787271566E+02  0.20000002378E+02 0.  0.
         12    1    3    3    0    0 -0.25148538116E+02  0.13459114379E+02  0.32711259519E+02  0.43400728434E+02  0.00000000000E+00 0. -1.
         11    1    4    4    0    0  0.12023889502E+02 -0.99850862801E+01 -0.80672266717E+01  0.17588519358E+02  0.51100000000E-03 0. -1.
        -11    1    4    4    0    0  0.42054766581E+01 -0.28653373484E+01 -0.13747960042E+01  0.52712670541E+01  0.51100000000E-03 0.  1.
         12    1    4    4    0    0  0.89191719561E+01 -0.60869075054E+00 -0.23269236843E+02  0.24927485154E+02  0.00000000000E+00 0. -1.
</event>
<event>
 8    1  0.1164123E-009  0.9118800E+02  0.7816164E-02  0.1184000E+00
        -11   -1    0    0    0    0  0.00000000000E+00  0.00000000000E+00  0.45593999997E+02  0.45594000000E+02  0.51100000000E-03 0. -1.
         11   -1    0    0    0    0 -0.00000000000E+00 -0.00000000000E+00 -0.45593999997E+02  0.45594000000E+02  0.51100000000E-03 0.  1.
         23    2    1    2    0    0 -0.16098233857E-14  0.00000000000E+00  0.00000000000E+00  0.91188000000E+02  0.91188000000E+02 0.  0.
    9900012    2    3    3    0    0 -0.17806512282E+00  0.33323010525E+02  0.27805901824E+02  0.47787275192E+02  0.20000018911E+02 0.  0.
        -12    1    3    3    0    0  0.17806512282E+00 -0.33323010525E+02 -0.27805901824E+02  0.43400724808E+02  0.00000000000E+00 0.  1.
         11    1    4    4    0    0  0.58210750987E+01  0.10334981627E+02  0.12259109411E+02  0.17058209881E+02  0.51100000000E-03 0.  1.
        -11    1    4    4    0    0  0.28458197341E+01  0.68191207752E+01  0.77787161683E+01  0.10728817437E+02  0.51100000000E-03 0. -1.
        -12    1    4    4    0    0 -0.88449599556E+01  0.16168908123E+02  0.77680762440E+01  0.20000247874E+02  0.00000000000E+00 0.  1.
</event>
<event>
 8    1  0.1164123E-009  0.9118800E+02  0.7816164E-02  0.1184000E+00
        -11   -1    0    0    0    0  0.00000000000E+00  0.00000000000E+00  0.45593999997E+02  0.45594000000E+02  0.51100000000E-03 0. -1.
         11   -1    0    0    0    0 -0.00000000000E+00 -0.00000000000E+00 -0.45593999997E+02  0.45594000000E+02  0.51100000000E-03 0.  1.
         23    2    1    2    0    0 -0.71054273576E-14 -0.17763568394E-14  0.00000000000E+00  0.91188000000E+02  0.91188000000E+02 0.  0.
    9900012    2    3    3    0    0  0.37459514838E+02  0.11583240608E+02 -0.18607386100E+02  0.47787291108E+02  0.20000091477E+02 0.  0.
         12    1    3    3    0    0 -0.37459514838E+02 -0.11583240608E+02  0.18607386100E+02  0.43400708892E+02  0.00000000000E+00 0. -1.
         11    1    4    4    0    0  0.12277574368E+02 -0.27401423565E+00 -0.66417836738E+01  0.13961633385E+02  0.51100000000E-03 0. -1.
        -11    1    4    4    0    0  0.43568813909E-01 -0.25002585447E+01 -0.20225014370E+01  0.32161628310E+01  0.51100000000E-03 0.  1.
        -12    1    4    4    0    0  0.25138371656E+02  0.14357513389E+02 -0.99431009895E+01  0.30609494892E+02  0.00000000000E+00 0.  1.
</event>
<event>
 8    1  0.1164123E-009  0.9118800E+02  0.7816164E-02  0.1184000E+00
        -11   -1    0    0    0    0  0.00000000000E+00  0.00000000000E+00  0.45593999997E+02  0.45594000000E+02  0.51100000000E-03 0. -1.
         11   -1    0    0    0    0 -0.00000000000E+00 -0.00000000000E+00 -0.45593999997E+02  0.45594000000E+02  0.51100000000E-03 0.  1.
         23    2    1    2    0    0  0.00000000000E+00  0.00000000000E+00  0.00000000000E+00  0.91188000000E+02  0.91188000000E+02 0.  0.
    9900012    2    3    3    0    0 -0.28205829710E+02  0.18715757688E+02  0.27162022126E+02  0.47787264275E+02  0.19999969137E+02 0.  0.
        -12    1    3    3    0    0  0.28205829710E+02 -0.18715757688E+02 -0.27162022126E+02  0.43400735725E+02  0.00000000000E+00 0.  1.
         11    1    4    4    0    0 -0.11850174620E+02  0.23450523378E+01  0.38183596241E+01  0.12669087555E+02  0.51100000000E-03 0. -1.
        -11    1    4    4    0    0 -0.15641510183E+02  0.14136326017E+02  0.13583185928E+02  0.25079782581E+02  0.51100000000E-03 0.  1.
         12    1    4    4    0    0 -0.71414490664E+00  0.22343793327E+01  0.97604765743E+01  0.10038394140E+02  0.00000000000E+00 0. -1.
</event>
<event>
 8    1  0.1164123E-009  0.9118800E+02  0.7816164E-02  0.1184000E+00
        -11   -1    0    0    0    0  0.00000000000E+00  0.00000000000E+00  0.45593999997E+02  0.45594000000E+02  0.51100000000E-03 0.  1.
         11   -1    0    0    0    0 -0.00000000000E+00 -0.00000000000E+00 -0.45593999997E+02  0.45594000000E+02  0.51100000000E-03 0. -1.
         23    2    1    2    0    0  0.00000000000E+00  0.00000000000E+00  0.00000000000E+00  0.91188000000E+02  0.91188000000E+02 0.  0.
    9900012    2    3    3    0    0 -0.69621130116E+01  0.40294665568E+02 -0.14542769029E+02  0.47787271644E+02  0.20000002735E+02 0.  0.
         12    1    3    3    0    0  0.69621130116E+01 -0.40294665568E+02  0.14542769029E+02  0.43400728356E+02  0.00000000000E+00 0. -1.
         11    1    4    4    0    0 -0.58419097353E+01  0.35553231050E+01 -0.15843088999E+01  0.70198480531E+01  0.51100000000E-03 0. -1.
        -11    1    4    4    0    0 -0.18625366725E+01  0.36753245276E+01  0.18677026228E+01  0.45238663318E+01  0.51100000000E-03 0.  1.
         12    1    4    4    0    0  0.74233339620E+00  0.33064017935E+02 -0.14826162752E+02  0.36243557259E+02  0.00000000000E+00 0. -1.
</event>
<event>
 8    1  0.1164123E-009  0.9118800E+02  0.7816164E-02  0.1184000E+00
        -11   -1    0    0    0    0  0.00000000000E+00  0.00000000000E+00  0.45593999997E+02  0.45594000000E+02  0.51100000000E-03 0. -1.
         11   -1    0    0    0    0 -0.00000000000E+00 -0.00000000000E+00 -0.45593999997E+02  0.45594000000E+02  0.51100000000E-03 0.  1.
         23    2    1    2    0    0  0.00000000000E+00  0.00000000000E+00  0.71054273576E-14  0.91188000000E+02  0.91188000000E+02 0.  0.
    9900012    2    3    3    0    0  0.10656845588E+02 -0.21161143632E+02  0.36362909698E+02  0.47787267755E+02  0.19999985001E+02 0.  0.
        -12    1    3    3    0    0 -0.10656845588E+02  0.21161143632E+02 -0.36362909698E+02  0.43400732245E+02  0.00000000000E+00 0.  1.
         11    1    4    4    0    0  0.24850358252E+00 -0.39304958787E+01  0.14998578571E+02  0.15507027804E+02  0.51100000000E-03 0. -1.
        -11    1    4    4    0    0 -0.46724452665E+00 -0.12211330555E+02  0.10685209876E+02  0.16232948646E+02  0.51100000000E-03 0.  1.
        -12    1    4    4    0    0  0.10875586532E+02 -0.50193171979E+01  0.10679121251E+02  0.16047291306E+02  0.00000000000E+00 0.  1.
</event>
<event>
 8    1  0.1164123E-009  0.9118800E+02  0.7816164E-02  0.1184000E+00
        -11   -1    0    0    0    0  0.00000000000E+00  0.00000000000E+00  0.45593999997E+02  0.45594000000E+02  0.51100000000E-03 0. -1.
         11   -1    0    0    0    0 -0.00000000000E+00 -0.00000000000E+00 -0.45593999997E+02  0.45594000000E+02  0.51100000000E-03 0.  1.
         23    2    1    2    0    0  0.00000000000E+00  0.35527136788E-14  0.00000000000E+00  0.91188000000E+02  0.91188000000E+02 0.  0.
    9900012    2    3    3    0    0  0.36247562411E+02  0.19566731064E+02 -0.13670426283E+02  0.47787270743E+02  0.19999998627E+02 0.  0.
         12    1    3    3    0    0 -0.36247562411E+02 -0.19566731064E+02  0.13670426283E+02  0.43400729257E+02  0.00000000000E+00 0. -1.
         11    1    4    4    0    0  0.90847998905E+01  0.42501395894E+01 -0.75927182030E+01  0.12579612297E+02  0.51100000000E-03 0. -1.
        -11    1    4    4    0    0  0.28742801424E+02  0.12294293199E+02 -0.56887859709E+01  0.31775156413E+02  0.51100000000E-03 0.  1.
         12    1    4    4    0    0 -0.15800389036E+01  0.30222982755E+01 -0.38892210926E+00  0.34325020335E+01  0.00000000000E+00 0. -1.
</event>
<event>
 8    1  0.1164123E-009  0.9118800E+02  0.7816164E-02  0.1184000E+00
        -11   -1    0    0    0    0  0.00000000000E+00  0.00000000000E+00  0.45593999997E+02  0.45594000000E+02  0.51100000000E-03 0. -1.
         11   -1    0    0    0    0 -0.00000000000E+00 -0.00000000000E+00 -0.45593999997E+02  0.45594000000E+02  0.51100000000E-03 0.  1.
         23    2    1    2    0    0 -0.88817841970E-15  0.00000000000E+00 -0.71054273576E-14  0.91188000000E+02  0.91188000000E+02 0.  0.
    9900012    2    3    3    0    0 -0.40841596233E+01 -0.14491612633E+02 -0.40705465275E+02  0.47787284570E+02  0.20000061670E+02 0.  0.
         12    1    3    3    0    0  0.40841596233E+01  0.14491612633E+02  0.40705465275E+02  0.43400715430E+02  0.00000000000E+00 0. -1.
         11    1    4    4    0    0  0.22668851642E+01 -0.37000454186E+01 -0.39263331145E+01  0.58519395446E+01  0.51100000000E-03 0. -1.
        -11    1    4    4    0    0  0.17448779045E+01 -0.10465557791E+02 -0.12807658098E+02  0.16631554497E+02  0.51100000000E-03 0.  1.
         12    1    4    4    0    0 -0.80959226920E+01 -0.32600942389E+00 -0.23971474063E+02  0.25303790529E+02  0.00000000000E+00 0. -1.
</event>
