<event>
 7    1  0.7383168E-013  0.5930191E+02  0.7816164E-02  0.1266605E+00
        -11   -1    0    0    0    0  0.00000000000E+00  0.00000000000E+00  0.45593999997E+02  0.45594000000E+02  0.51100000000E-03 0. -1.
         11   -1    0    0    0    0 -0.00000000000E+00 -0.00000000000E+00 -0.45593999997E+02  0.45594000000E+02  0.51100000000E-03 0.  1.
    9900012    2    1    2    0    0  0.22747726677E+02 -0.12680626932E+02  0.18397424178E+02  0.59301912364E+02  0.49999942252E+02 0.  0.
        -12    1    1    2    0    0 -0.22747726677E+02  0.12680626932E+02 -0.18397424178E+02  0.31886087636E+02  0.00000000000E+00 0.  1.
         11    1    3    3    0    0  0.21964485690E+02 -0.13167858483E+02 -0.10375577479E+01  0.25630209812E+02  0.51100000000E-03 0. -1.
        -11    1    3    3    0    0  0.51311408592E+01  0.11533568477E+02  0.23078527619E+01  0.12832692350E+02  0.51100000000E-03 0.  1.
        -12    1    3    3    0    0 -0.43478998721E+01 -0.11046336926E+02  0.17127129164E+02  0.20839010201E+02  0.00000000000E+00 0.  1.
</event>
<event>
 7    1  0.7383168E-013  0.5930178E+02  0.7816164E-02  0.1266605E+00
        -11   -1    0    0    0    0  0.00000000000E+00  0.00000000000E+00  0.45593999997E+02  0.45594000000E+02  0.51100000000E-03 0.  1.
         11   -1    0    0    0    0 -0.00000000000E+00 -0.00000000000E+00 -0.45593999997E+02  0.45594000000E+02  0.51100000000E-03 0. -1.
    9900012    2    1    2    0    0  0.78294476126E+01 -0.18080139208E+02 -0.25070689217E+02  0.59301778186E+02  0.49999697544E+02 0.  0.
        -12    1    1    2    0    0 -0.78294476126E+01  0.18080139208E+02  0.25070689217E+02  0.31886221814E+02  0.00000000000E+00 0.  1.
         11    1    3    3    0    0  0.62356052863E+01  0.11437074474E+02  0.13303431937E+01  0.13094245266E+02  0.51100000000E-03 0. -1.
        -11    1    3    3    0    0  0.37134467470E+01  0.32865508548E+01 -0.24220776440E+01  0.55188371636E+01  0.51100000000E-03 0.  1.
        -12    1    3    3    0    0 -0.21196044207E+01 -0.32803764537E+02 -0.23978954767E+02  0.40688695757E+02  0.00000000000E+00 0.  1.
</event>
<event>
 7    1  0.7383168E-013  0.5930195E+02  0.7816164E-02  0.1266605E+00
        -11   -1    0    0    0    0  0.00000000000E+00  0.00000000000E+00  0.45593999997E+02  0.45594000000E+02  0.51100000000E-03 0.  1.
         11   -1    0    0    0    0 -0.00000000000E+00 -0.00000000000E+00 -0.45593999997E+02  0.45594000000E+02  0.51100000000E-03 0. -1.
    9900012    2    1    2    0    0 -0.17211404181E+02  0.22749270561E+02  0.14246352162E+02  0.59301948271E+02  0.50000007739E+02 0.  0.
        -12    1    1    2    0    0  0.17211404181E+02 -0.22749270561E+02 -0.14246352162E+02  0.31886051729E+02  0.00000000000E+00 0.  1.
         11    1    3    3    0    0 -0.18129731585E+02  0.61554368702E+01  0.85965712432E+01  0.20987558405E+02  0.51100000000E-03 0. -1.
        -11    1    3    3    0    0  0.52252237085E+01 -0.57644017096E+01 -0.84869940436E+01  0.11513485920E+02  0.51100000000E-03 0.  1.
         12    1    3    3    0    0 -0.43068963039E+01  0.22358235400E+02  0.14136774963E+02  0.26800903946E+02  0.00000000000E+00 0. -1.
</event>
<event>
 7    1  0.7383168E-013  0.5930193E+02  0.7816164E-02  0.1266605E+00
        -11   -1    0    0    0    0  0.00000000000E+00  0.00000000000E+00  0.45593999997E+02  0.45594000000E+02  0.51100000000E-03 0. -1.
         11   -1    0    0    0    0 -0.00000000000E+00 -0.00000000000E+00 -0.45593999997E+02  0.45594000000E+02  0.51100000000E-03 0.  1.
    9900012    2    1    2    0    0  0.23682157392E+02 -0.20739902255E+02 -0.50727963143E+01  0.59301931150E+02  0.49999976513E+02 0.  0.
        -12    1    1    2    0    0 -0.23682157392E+02  0.20739902255E+02  0.50727963143E+01  0.31886068850E+02  0.00000000000E+00 0.  1.
         11    1    3    3    0    0  0.16046620747E+02 -0.24998450426E+02 -0.76585001928E+01  0.30676850989E+02  0.51100000000E-03 0. -1.
        -11    1    3    3    0    0 -0.47735789087E+01 -0.33562101545E+01  0.10530511897E+02  0.12039222702E+02  0.51100000000E-03 0.  1.
        -12    1    3    3    0    0  0.12409115554E+02  0.76147583258E+01 -0.79448080187E+01  0.16585857459E+02  0.00000000000E+00 0.  1.
</event>
<event>
 7    1  0.7383168E-013  0.5930195E+02  0.7816164E-02  0.1266605E+00
        -11   -1    0    0    0    0  0.00000000000E+00  0.00000000000E+00  0.45593999997E+02  0.45594000000E+02  0.51100000000E-03 0.  1.
         11   -1    0    0    0    0 -0.00000000000E+00 -0.00000000000E+00 -0.45593999997E+02  0.45594000000E+02  0.51100000000E-03 0. -1.
    9900012    2    1    2    0    0  0.11414303855E+02 -0.98542104827E+01 -0.28094988496E+02  0.59301950145E+02  0.50000011157E+02 0.  0.
        -12    1    1    2    0    0 -0.11414303855E+02  0.98542104827E+01  0.28094988496E+02  0.31886049855E+02  0.00000000000E+00 0.  1.
         11    1    3    3    0    0 -0.80626911424E+01 -0.63501085299E+01  0.18381473376E+01  0.10426392123E+02  0.51100000000E-03 0. -1.
        -11    1    3    3    0    0 -0.58094503764E+00 -0.91140531431E+01  0.32533726538E+01  0.96947354640E+01  0.51100000000E-03 0.  1.
        -12    1    3    3    0    0  0.20057940035E+02  0.56099511902E+01 -0.33186508487E+02  0.39180822559E+02  0.00000000000E+00 0.  1.
</event>
<event>
 7    1  0.7383168E-013  0.5930192E+02  0.7816164E-02  0.1266605E+00
        -11   -1    0    0    0    0  0.00000000000E+00  0.00000000000E+00  0.45593999997E+02  0.45594000000E+02  0.51100000000E-03 0.  1.
         11   -1    0    0    0    0 -0.00000000000E+00 -0.00000000000E+00 -0.45593999997E+02  0.45594000000E+02  0.51100000000E-03 0. -1.
    9900012    2    1    2    0    0 -0.21051745238E+02 -0.20630967470E+02  0.12161802167E+02  0.59301917954E+02  0.49999952447E+02 0.  0.
        -12    1    1    2    0    0  0.21051745238E+02  0.20630967470E+02 -0.12161802167E+02  0.31886082046E+02  0.00000000000E+00 0.  1.
         11    1    3    3    0    0  0.72537963500E+01  0.45423699130E+01 -0.45413832081E+01  0.96889033238E+01  0.51100000000E-03 0. -1.
        -11    1    3    3    0    0 -0.14189122518E+02 -0.96733785915E+01 -0.64814422681E+01  0.18355232097E+02  0.51100000000E-03 0.  1.
        -12    1    3    3    0    0 -0.14116419071E+02 -0.15499958792E+02  0.23184627643E+02  0.31257782533E+02  0.00000000000E+00 0.  1.
</event>
<event>
 7    1  0.7383168E-013  0.5930195E+02  0.7816164E-02  0.1266605E+00
        -11   -1    0    0    0    0  0.00000000000E+00  0.00000000000E+00  0.45593999997E+02  0.45594000000E+02  0.51100000000E-03 0. -1.
         11   -1    0    0    0    0 -0.00000000000E+00 -0.00000000000E+00 -0.45593999997E+02  0.45594000000E+02  0.51100000000E-03 0.  1.
    9900012    2    1    2    0    0 -0.37895563966E+01  0.31489336055E+02  0.32834616553E+01  0.59301950647E+02  0.50000012072E+02 0.  0.
        -12    1    1    2    0    0  0.37895563966E+01 -0.31489336055E+02 -0.32834616553E+01  0.31886049353E+02  0.00000000000E+00 0.  1.
         11    1    3    3    0    0  0.37425140814E+01  0.15166891198E+02 -0.17969443620E+02  0.23810541878E+02  0.51100000000E-03 0.  1.
        -11    1    3    3    0    0  0.48321955372E+01  0.15109742478E+02  0.13635692094E+02  0.20918569038E+02  0.51100000000E-03 0. -1.
         12    1    3    3    0    0 -0.12364266015E+02  0.12127023797E+01  0.76172131814E+01  0.14572839730E+02  0.00000000000E+00 0. -1.
</event>
<event>
 7    1  0.7383168E-013  0.5930194E+02  0.7816164E-02  0.1266605E+00
        -11   -1    0    0    0    0  0.00000000000E+00  0.00000000000E+00  0.45593999997E+02  0.45594000000E+02  0.51100000000E-03 0.  1.
         11   -1    0    0    0    0 -0.00000000000E+00 -0.00000000000E+00 -0.45593999997E+02  0.45594000000E+02  0.51100000000E-03 0. -1.
    9900012    2    1    2    0    0  0.22288771414E+02 -0.20151678247E+02 -0.10669658529E+02  0.59301935952E+02  0.49999985272E+02 0.  0.
        -12    1    1    2    0    0 -0.22288771414E+02  0.20151678247E+02  0.10669658529E+02  0.31886064048E+02  0.00000000000E+00 0.  1.
         11    1    3    3    0    0 -0.35531906555E+00  0.26266449807E+01  0.12863266682E+01  0.29462097772E+01  0.51100000000E-03 0. -1.
        -11    1    3    3    0    0  0.24976736263E+02  0.52111294391E+01  0.75750962807E+00  0.25525811358E+02  0.51100000000E-03 0.  1.
         12    1    3    3    0    0 -0.23326457833E+01 -0.27989452667E+02 -0.12713494825E+02  0.30829914817E+02  0.00000000000E+00 0. -1.
</event>
<event>
 7    1  0.7383168E-013  0.5930196E+02  0.7816164E-02  0.1266605E+00
        -11   -1    0    0    0    0  0.00000000000E+00  0.00000000000E+00  0.45593999997E+02  0.45594000000E+02  0.51100000000E-03 0.  1.
         11   -1    0    0    0    0 -0.00000000000E+00 -0.00000000000E+00 -0.45593999997E+02  0.45594000000E+02  0.51100000000E-03 0. -1.
    9900012    2    1    2    0    0  0.78914165550E+00  0.14295304560E+02 -0.28491070880E+02  0.59301959216E+02  0.50000027699E+02 0.  0.
        -12    1    1    2    0    0 -0.78914165550E+00 -0.14295304560E+02  0.28491070880E+02  0.31886040784E+02  0.00000000000E+00 0.  1.
         11    1    3    3    0    0 -0.12706471520E+02 -0.54735077208E+01 -0.15553412007E+02  0.20816395716E+02  0.51100000000E-03 0.  1.
        -11    1    3    3    0    0  0.94072455194E+00  0.19019067208E+02 -0.16731439095E+02  0.25348588414E+02  0.51100000000E-03 0. -1.
        -12    1    3    3    0    0  0.12554888624E+02  0.74974507261E+00  0.37937802227E+01  0.13136975086E+02  0.00000000000E+00 0.  1.
</event>
<event>
 7    1  0.7383168E-013  0.5930194E+02  0.7816164E-02  0.1266605E+00
        -11   -1    0    0    0    0  0.00000000000E+00  0.00000000000E+00  0.45593999997E+02  0.45594000000E+02  0.51100000000E-03 0. -1.
         11   -1    0    0    0    0 -0.00000000000E+00 -0.00000000000E+00 -0.45593999997E+02  0.45594000000E+02  0.51100000000E-03 0.  1.
    9900012    2    1    2    0    0 -0.46729460858E+01 -0.31040208658E+02  0.56026716065E+01  0.59301938660E+02  0.49999990211E+02 0.  0.
        -12    1    1    2    0    0  0.46729460858E+01  0.31040208658E+02 -0.56026716065E+01  0.31886061340E+02  0.00000000000E+00 0.  1.
         11    1    3    3    0    0  0.79516185999E+01 -0.23092986006E+02  0.16870671338E+01  0.24481838918E+02  0.51100000000E-03 0. -1.
        -11    1    3    3    0    0  0.27963516599E+01 -0.16374382171E+02 -0.78168220841E+00  0.16629822651E+02  0.51100000000E-03 0.  1.
         12    1    3    3    0    0 -0.15420916346E+02  0.84271595183E+01  0.46972866811E+01  0.18190277091E+02  0.00000000000E+00 0. -1.
</event>
<event>
 7    1  0.7383168E-013  0.5930195E+02  0.7816164E-02  0.1266605E+00
        -11   -1    0    0    0    0  0.00000000000E+00  0.00000000000E+00  0.45593999997E+02  0.45594000000E+02  0.51100000000E-03 0.  1.
         11   -1    0    0    0    0 -0.00000000000E+00 -0.00000000000E+00 -0.45593999997E+02  0.45594000000E+02  0.51100000000E-03 0. -1.
    9900012    2    1    2    0    0  0.13590956476E+02  0.23543760514E+02 -0.16664249679E+02  0.59301953295E+02  0.50000016902E+02 0.  0.
        -12    1    1    2    0    0 -0.13590956476E+02 -0.23543760514E+02  0.16664249679E+02  0.31886046705E+02  0.00000000000E+00 0.  1.
         11    1    3    3    0    0  0.87645725010E+01  0.17385268880E+02  0.53553943732E+01  0.20192710425E+02  0.51100000000E-03 0. -1.
        -11    1    3    3    0    0  0.11936258953E+02  0.12994463538E+02 -0.33004518767E+01  0.17950580584E+02  0.51100000000E-03 0.  1.
        -12    1    3    3    0    0 -0.71098749780E+01 -0.68359719031E+01 -0.18719192176E+02  0.21158662287E+02  0.00000000000E+00 0.  1.
</event>
<event>
 7    1  0.7383168E-013  0.5930195E+02  0.7816164E-02  0.1266605E+00
        -11   -1    0    0    0    0  0.00000000000E+00  0.00000000000E+00  0.45593999997E+02  0.45594000000E+02  0.51100000000E-03 0.  1.
         11   -1    0    0    0    0 -0.00000000000E+00 -0.00000000000E+00 -0.45593999997E+02  0.45594000000E+02  0.51100000000E-03 0. -1.
    9900012    2    1    2    0    0  0.28237293680E+02 -0.12519054830E+02  0.79151012948E+01  0.59301947929E+02  0.50000007115E+02 0.  0.
        -12    1    1    2    0    0 -0.28237293680E+02  0.12519054830E+02 -0.79151012948E+01  0.31886052071E+02  0.00000000000E+00 0.  1.
         11    1    3    3    0    0  0.23053810699E+02 -0.17998834706E+02 -0.64984005216E+01  0.29961065537E+02  0.51100000000E-03 0. -1.
        -11    1    3    3    0    0  0.10181271738E+02  0.50490645228E+01 -0.25535455782E+01  0.11647829928E+02  0.51100000000E-03 0.  1.
        -12    1    3    3    0    0 -0.49977887574E+01  0.43071535347E+00  0.16967047395E+02  0.17693052463E+02  0.00000000000E+00 0.  1.
</event>
<event>
 7    1  0.7383168E-013  0.5930190E+02  0.7816164E-02  0.1266605E+00
        -11   -1    0    0    0    0  0.00000000000E+00  0.00000000000E+00  0.45593999997E+02  0.45594000000E+02  0.51100000000E-03 0.  1.
         11   -1    0    0    0    0 -0.00000000000E+00 -0.00000000000E+00 -0.45593999997E+02  0.45594000000E+02  0.51100000000E-03 0. -1.
    9900012    2    1    2    0    0 -0.24164489336E+02 -0.58700977127E+01  0.19958518663E+02  0.59301904923E+02  0.49999928683E+02 0.  0.
        -12    1    1    2    0    0  0.24164489336E+02  0.58700977127E+01 -0.19958518663E+02  0.31886095077E+02  0.00000000000E+00 0.  1.
         11    1    3    3    0    0 -0.15655585930E+02  0.89942610256E+01  0.97108822820E+01  0.20501105755E+02  0.51100000000E-03 0. -1.
        -11    1    3    3    0    0 -0.33436599022E+01  0.32056894407E+01  0.17914248486E+02  0.18503426855E+02  0.51100000000E-03 0.  1.
        -12    1    3    3    0    0 -0.51652435033E+01 -0.18070048179E+02 -0.76666121045E+01  0.20297372313E+02  0.00000000000E+00 0.  1.
</event>
<event>
 7    1  0.7383168E-013  0.5930196E+02  0.7816164E-02  0.1266605E+00
        -11   -1    0    0    0    0  0.00000000000E+00  0.00000000000E+00  0.45593999997E+02  0.45594000000E+02  0.51100000000E-03 0. -1.
         11   -1    0    0    0    0 -0.00000000000E+00 -0.00000000000E+00 -0.45593999997E+02  0.45594000000E+02  0.51100000000E-03 0.  1.
    9900012    2    1    2    0    0  0.39451251548E+01 -0.22648281277E+02  0.22095494465E+02  0.59301960219E+02  0.50000029529E+02 0.  0.
        -12    1    1    2    0    0 -0.39451251548E+01  0.22648281277E+02 -0.22095494465E+02  0.31886039781E+02  0.00000000000E+00 0.  1.
         11    1    3    3    0    0  0.41024372357E+01  0.40434801310E+01 -0.13180014310E+01  0.59090482208E+01  0.51100000000E-03 0. -1.
        -11    1    3    3    0    0  0.96214684395E+01  0.76182467216E+01  0.69146076385E+01  0.14086239282E+02  0.51100000000E-03 0.  1.
         12    1    3    3    0    0 -0.97787805203E+01 -0.34310008130E+02  0.16498888257E+02  0.39306672716E+02  0.00000000000E+00 0. -1.
</event>
<event>
 7    1  0.7383168E-013  0.5930195E+02  0.7816164E-02  0.1266605E+00
        -11   -1    0    0    0    0  0.00000000000E+00  0.00000000000E+00  0.45593999997E+02  0.45594000000E+02  0.51100000000E-03 0. -1.
         11   -1    0    0    0    0 -0.00000000000E+00 -0.00000000000E+00 -0.45593999997E+02  0.45594000000E+02  0.51100000000E-03 0.  1.
    9900012    2    1    2    0    0  0.28083696166E+02  0.95949695598E+01  0.11660320383E+02  0.59301945013E+02  0.50000001797E+02 0.  0.
        -12    1    1    2    0    0 -0.28083696166E+02 -0.95949695598E+01 -0.11660320383E+02  0.31886054987E+02  0.00000000000E+00 0.  1.
         11    1    3    3    0    0 -0.39912277471E+01  0.12954763994E+00  0.13166673534E+01  0.42047942519E+01  0.51100000000E-03 0. -1.
        -11    1    3    3    0    0  0.94354395475E+01  0.24399567667E+02  0.25970033407E+00  0.26161686993E+02  0.51100000000E-03 0.  1.
         12    1    3    3    0    0  0.22639484365E+02 -0.14934145747E+02  0.10083952696E+02  0.28935463768E+02  0.00000000000E+00 0. -1.
</event>
<event>
 7    1  0.7383168E-013  0.5930201E+02  0.7816164E-02  0.1266605E+00
        -11   -1    0    0    0    0  0.00000000000E+00  0.00000000000E+00  0.45593999997E+02  0.45594000000E+02  0.51100000000E-03 0. -1.
         11   -1    0    0    0    0 -0.00000000000E+00 -0.00000000000E+00 -0.45593999997E+02  0.45594000000E+02  0.51100000000E-03 0.  1.
    9900012    2    1    2    0    0  0.12684065044E+01 -0.30311883355E+02  0.98131181494E+01  0.59302009104E+02  0.50000118683E+02 0.  0.
        -12    1    1    2    0    0 -0.12684065044E+01  0.30311883355E+02 -0.98131181494E+01  0.31885990896E+02  0.00000000000E+00 0.  1.
         11    1    3    3    0    0  0.67012448697E+01 -0.22562716609E+02  0.19687955040E+02  0.30685476002E+02  0.51100000000E-03 0. -1.
        -11    1    3    3    0    0  0.51546050658E+01 -0.13516496928E+02 -0.31265159158E+01  0.14800025156E+02  0.51100000000E-03 0.  1.
         12    1    3    3    0    0 -0.10587443431E+02  0.57673301811E+01 -0.67483209750E+01  0.13816507946E+02  0.00000000000E+00 0. -1.
</event>
<event>
 7    1  0.7383168E-013  0.5930181E+02  0.7816164E-02  0.1266605E+00
        -11   -1    0    0    0    0  0.00000000000E+00  0.00000000000E+00  0.45593999997E+02  0.45594000000E+02  0.51100000000E-03 0.  1.
         11   -1    0    0    0    0 -0.00000000000E+00 -0.00000000000E+00 -0.45593999997E+02  0.45594000000E+02  0.51100000000E-03 0. -1.
    9900012    2    1    2    0    0 -0.30233401382E+02  0.10773242312E+01 -0.10075198963E+02  0.59301814578E+02  0.49999763915E+02 0.  0.
        -12    1    1    2    0    0  0.30233401382E+02 -0.10773242312E+01  0.10075198963E+02  0.31886185422E+02  0.00000000000E+00 0.  1.
         11    1    3    3    0    0  0.55990050423E+01  0.74671072938E+01 -0.83964239918E+01  0.12554142142E+02  0.51100000000E-03 0. -1.
        -11    1    3    3    0    0 -0.24782297667E+01  0.89412913919E+01 -0.36864940817E+01  0.99839147335E+01  0.51100000000E-03 0.  1.
        -12    1    3    3    0    0 -0.33354176657E+02 -0.15331074454E+02  0.20077191107E+01  0.36763757703E+02  0.00000000000E+00 0.  1.
</event>
<event>
 7    1  0.7383168E-013  0.5930189E+02  0.7816164E-02  0.1266605E+00
        -11   -1    0    0    0    0  0.00000000000E+00  0.00000000000E+00  0.45593999997E+02  0.45594000000E+02  0.51100000000E-03 0.  1.
         11   -1    0    0    0    0 -0.00000000000E+00 -0.00000000000E+00 -0.45593999997E+02  0.45594000000E+02  0.51100000000E-03 0. -1.
    9900012    2    1    2    0    0  0.15802775724E+02  0.21909760564E+02 -0.16939849257E+02  0.59301892972E+02  0.49999906886E+02 0.  0.
        -12    1    1    2    0    0 -0.15802775724E+02 -0.21909760564E+02  0.16939849257E+02  0.31886107028E+02  0.00000000000E+00 0.  1.
         11    1    3    3    0    0 -0.18783138655E+01 -0.36914460802E+01  0.50444369199E+01  0.65269580388E+01  0.51100000000E-03 0. -1.
        -11    1    3    3    0    0  0.12531881984E+02 -0.73508591655E+01 -0.51432804012E+01  0.15412220154E+02  0.51100000000E-03 0.  1.
         12    1    3    3    0    0  0.51492076050E+01  0.32952065810E+02 -0.16841005776E+02  0.37362714779E+02  0.00000000000E+00 0. -1.
</event>
<event>
 7    1  0.7383168E-013  0.5930194E+02  0.7816164E-02  0.1266605E+00
        -11   -1    0    0    0    0  0.00000000000E+00  0.00000000000E+00  0.45593999997E+02  0.45594000000E+02  0.51100000000E-03 0.  1.
         11   -1    0    0    0    0 -0.00000000000E+00 -0.00000000000E+00 -0.45593999997E+02  0.45594000000E+02  0.51100000000E-03 0. -1.
    9900012    2    1    2    0    0 -0.10278725581E+02 -0.29066397604E+02  0.81371496360E+01  0.59301939199E+02  0.49999991193E+02 0.  0.
        -12    1    1    2    0    0  0.10278725581E+02  0.29066397604E+02 -0.81371496360E+01  0.31886060801E+02  0.00000000000E+00 0.  1.
         11    1    3    3    0    0 -0.26997464212E+01 -0.23833020103E+02 -0.58422772951E+01  0.24686710640E+02  0.51100000000E-03 0. -1.
        -11    1    3    3    0    0  0.24008077923E+01 -0.96525942314E+01 -0.61662264069E+01  0.11702939879E+02  0.51100000000E-03 0.  1.
        -12    1    3    3    0    0 -0.99797869520E+01  0.44192167307E+01  0.20145653338E+02  0.22912288680E+02  0.00000000000E+00 0.  1.
</event>
<event>
 7    1  0.7383168E-013  0.5930195E+02  0.7816164E-02  0.1266605E+00
        -11   -1    0    0    0    0  0.00000000000E+00  0.00000000000E+00  0.45593999997E+02  0.45594000000E+02  0.51100000000E-03 0.  1.
         11   -1    0    0    0    0 -0.00000000000E+00 -0.00000000000E+00 -0.45593999997E+02  0.45594000000E+02  0.51100000000E-03 0. -1.
    9900012    2    1    2    0    0  0.29918278103E+02 -0.17348458969E+01 -0.10890694455E+02  0.59301948494E+02  0.50000008145E+02 0.  0.
        -12    1    1    2    0    0 -0.29918278103E+02  0.17348458969E+01  0.10890694455E+02  0.31886051506E+02  0.00000000000E+00 0.  1.
         11    1    3    3    0    0  0.22076855849E+02 -0.98155786004E+01  0.11613807900E+02  0.26806970766E+02  0.51100000000E-03 0. -1.
        -11    1    3    3    0    0  0.38993631632E+01 -0.23783891091E+01  0.24272512028E+01  0.51723608242E+01  0.51100000000E-03 0.  1.
        -12    1    3    3    0    0  0.39420590907E+01  0.10459121813E+02 -0.24931753558E+02  0.27322616903E+02  0.00000000000E+00 0.  1.
</event>
<event>
 7    1  0.7383168E-013  0.5930197E+02  0.7816164E-02  0.1266605E+00
        -11   -1    0    0    0    0  0.00000000000E+00  0.00000000000E+00  0.45593999997E+02  0.45594000000E+02  0.51100000000E-03 0. -1.
         11   -1    0    0    0    0 -0.00000000000E+00 -0.00000000000E+00 -0.45593999997E+02  0.45594000000E+02  0.51100000000E-03 0.  1.
    9900012    2    1    2    0    0 -0.29921762627E+02 -0.89449580817E+01  0.64338754762E+01  0.59301970027E+02  0.50000047417E+02 0.  0.
        -12    1    1    2    0    0  0.29921762627E+02  0.89449580817E+01 -0.64338754762E+01  0.31886029973E+02  0.00000000000E+00 0.  1.
         11    1    3    3    0    0 -0.86526712737E+00  0.72514455913E+01  0.14748498312E+02  0.16457531804E+02  0.51100000000E-03 0.  1.
        -11    1    3    3    0    0 -0.11534131524E+01  0.43157325655E+01 -0.68553030402E+01  0.81823645428E+01  0.51100000000E-03 0. -1.
         12    1    3    3    0    0 -0.27903082347E+02 -0.20512136238E+02 -0.14593197959E+01  0.34662073680E+02  0.00000000000E+00 0. -1.
</event>
<event>
 7    1  0.7383168E-013  0.5930193E+02  0.7816164E-02  0.1266605E+00
        -11   -1    0    0    0    0  0.00000000000E+00  0.00000000000E+00  0.45593999997E+02  0.45594000000E+02  0.51100000000E-03 0. -1.
         11   -1    0    0    0    0 -0.00000000000E+00 -0.00000000000E+00 -0.45593999997E+02  0.45594000000E+02  0.51100000000E-03 0.  1.
    9900012    2    1    2    0    0  0.26815934680E+02  0.10891056460E+02 -0.13379528187E+02  0.59301933481E+02  0.49999980766E+02 0.  0.
        -12    1    1    2    0    0 -0.26815934680E+02 -0.10891056460E+02  0.13379528187E+02  0.31886066519E+02  0.00000000000E+00 0.  1.
         11    1    3    3    0    0  0.40523075737E+01 -0.42935707334E+01 -0.86616583035E+00  0.59670922417E+01  0.51100000000E-03 0. -1.
        -11    1    3    3    0    0  0.20434001223E+02  0.14164848620E+02 -0.28112345128E+02  0.37529925276E+02  0.51100000000E-03 0.  1.
         12    1    3    3    0    0  0.23296258833E+01  0.10197785731E+01  0.15598982772E+02  0.15804915963E+02  0.00000000000E+00 0. -1.
</event>
<event>
 7    1  0.7383168E-013  0.5930190E+02  0.7816164E-02  0.1266605E+00
        -11   -1    0    0    0    0  0.00000000000E+00  0.00000000000E+00  0.45593999997E+02  0.45594000000E+02  0.51100000000E-03 0.  1.
         11   -1    0    0    0    0 -0.00000000000E+00 -0.00000000000E+00 -0.45593999997E+02  0.45594000000E+02  0.51100000000E-03 0. -1.
    9900012    2    1    2    0    0  0.16968116951E+02  0.15497257196E+02 -0.22105239336E+02  0.59301896764E+02  0.49999913802E+02 0.  0.
        -12    1    1    2    0    0 -0.16968116951E+02 -0.15497257196E+02  0.22105239336E+02  0.31886103236E+02  0.00000000000E+00 0.  1.
         11    1    3    3    0    0 -0.12428732298E+02 -0.38229519418E+01 -0.12123023619E+02  0.17777965294E+02  0.51100000000E-03 0. -1.
        -11    1    3    3    0    0  0.62434757048E+01 -0.32615213368E+01 -0.53637288039E+01  0.88537052836E+01  0.51100000000E-03 0.  1.
        -12    1    3    3    0    0  0.23153373544E+02  0.22581730475E+02 -0.46184869135E+01  0.32670226186E+02  0.00000000000E+00 0.  1.
</event>
<event>
 7    1  0.7383168E-013  0.5930196E+02  0.7816164E-02  0.1266605E+00
        -11   -1    0    0    0    0  0.00000000000E+00  0.00000000000E+00  0.45593999997E+02  0.45594000000E+02  0.51100000000E-03 0.  1.
         11   -1    0    0    0    0 -0.00000000000E+00 -0.00000000000E+00 -0.45593999997E+02  0.45594000000E+02  0.51100000000E-03 0. -1.
    9900012    2    1    2    0    0 -0.23779474801E+02 -0.51598274478E+01 -0.20606612935E+02  0.59301957007E+02  0.50000023671E+02 0.  0.
        -12    1    1    2    0    0  0.23779474801E+02  0.51598274478E+01  0.20606612935E+02  0.31886042993E+02  0.00000000000E+00 0.  1.
         11    1    3    3    0    0  0.45730131824E+01  0.74749711361E+01 -0.52583090895E+00  0.87786184253E+01  0.51100000000E-03 0.  1.
        -11    1    3    3    0    0  0.53980768042E+01  0.50265715797E+01  0.17947888849E+00  0.73782022175E+01  0.51100000000E-03 0. -1.
         12    1    3    3    0    0 -0.33750564788E+02 -0.17661370164E+02 -0.20260260915E+02  0.43145136364E+02  0.00000000000E+00 0. -1.
</event>
<event>
 7    1  0.7383168E-013  0.5930205E+02  0.7816164E-02  0.1266604E+00
        -11   -1    0    0    0    0  0.00000000000E+00  0.00000000000E+00  0.45593999997E+02  0.45594000000E+02  0.51100000000E-03 0.  1.
         11   -1    0    0    0    0 -0.00000000000E+00 -0.00000000000E+00 -0.45593999997E+02  0.45594000000E+02  0.51100000000E-03 0. -1.
    9900012    2    1    2    0    0 -0.67909504500E+01  0.26229173506E+01 -0.31043792325E+02  0.59302050973E+02  0.50000195042E+02 0.  0.
        -12    1    1    2    0    0  0.67909504500E+01 -0.26229173506E+01  0.31043792325E+02  0.31885949027E+02  0.00000000000E+00 0.  1.
         11    1    3    3    0    0  0.93036619161E-01  0.12845748489E+01  0.93413688614E+01  0.94297381098E+01  0.51100000000E-03 0. -1.
        -11    1    3    3    0    0 -0.59697605776E+01 -0.11650405218E+02 -0.31491349960E+02  0.34103886958E+02  0.51100000000E-03 0.  1.
         12    1    3    3    0    0 -0.91422649156E+00  0.12988747719E+02 -0.88938112265E+01  0.15768425905E+02  0.00000000000E+00 0. -1.
</event>
<event>
 7    1  0.7383168E-013  0.5930195E+02  0.7816164E-02  0.1266605E+00
        -11   -1    0    0    0    0  0.00000000000E+00  0.00000000000E+00  0.45593999997E+02  0.45594000000E+02  0.51100000000E-03 0.  1.
         11   -1    0    0    0    0 -0.00000000000E+00 -0.00000000000E+00 -0.45593999997E+02  0.45594000000E+02  0.51100000000E-03 0. -1.
    9900012    2    1    2    0    0  0.13858071455E+02  0.27232517514E+01 -0.28587728039E+02  0.59301946011E+02  0.50000003617E+02 0.  0.
        -12    1    1    2    0    0 -0.13858071455E+02 -0.27232517514E+01  0.28587728039E+02  0.31886053989E+02  0.00000000000E+00 0.  1.
         11    1    3    3    0    0  0.35516597302E+00 -0.10924309413E+01 -0.28881718849E+02  0.28904553831E+02  0.51100000000E-03 0. -1.
        -11    1    3    3    0    0 -0.35396771658E+01 -0.12745914346E+01 -0.94112102094E+01  0.10135323164E+02  0.51100000000E-03 0.  1.
        -12    1    3    3    0    0  0.17042582648E+02  0.50902741272E+01  0.97052010197E+01  0.20262069016E+02  0.00000000000E+00 0.  1.
</event>
<event>
 7    1  0.7383168E-013  0.5930196E+02  0.7816164E-02  0.1266605E+00
        -11   -1    0    0    0    0  0.00000000000E+00  0.00000000000E+00  0.45593999997E+02  0.45594000000E+02  0.51100000000E-03 0. -1.
         11   -1    0    0    0    0 -0.00000000000E+00 -0.00000000000E+00 -0.45593999997E+02  0.45594000000E+02  0.51100000000E-03 0.  1.
    9900012    2    1    2    0    0 -0.16294235345E+02  0.25530479121E+02  0.99705608450E+01  0.59301959901E+02  0.50000028949E+02 0.  0.
        -12    1    1    2    0    0  0.16294235345E+02 -0.25530479121E+02 -0.99705608450E+01  0.31886040099E+02  0.00000000000E+00 0.  1.
         11    1    3    3    0    0 -0.66299466551E+01  0.26346181800E+02  0.59037343283E+01  0.27801646846E+02  0.51100000000E-03 0. -1.
        -11    1    3    3    0    0 -0.49413569128E+01  0.14431648399E+02  0.25570530469E+01  0.15466997259E+02  0.51100000000E-03 0.  1.
        -12    1    3    3    0    0 -0.47229317769E+01 -0.15247351078E+02  0.15097734699E+01  0.16033315795E+02  0.00000000000E+00 0.  1.
</event>
<event>
 7    1  0.7383168E-013  0.5930194E+02  0.7816164E-02  0.1266605E+00
        -11   -1    0    0    0    0  0.00000000000E+00  0.00000000000E+00  0.45593999997E+02  0.45594000000E+02  0.51100000000E-03 0. -1.
         11   -1    0    0    0    0 -0.00000000000E+00 -0.00000000000E+00 -0.45593999997E+02  0.45594000000E+02  0.51100000000E-03 0.  1.
    9900012    2    1    2    0    0 -0.66227348978E+01  0.19044422767E+02  0.24701628223E+02  0.59301935757E+02  0.49999984916E+02 0.  0.
        -12    1    1    2    0    0  0.66227348978E+01 -0.19044422767E+02 -0.24701628223E+02  0.31886064243E+02  0.00000000000E+00 0.  1.
         11    1    3    3    0    0 -0.14014190436E+02 -0.25647008193E+01  0.12964318066E+02  0.19262626172E+02  0.51100000000E-03 0. -1.
        -11    1    3    3    0    0 -0.91757796404E+01 -0.53638490645E+00  0.78954767883E+01  0.12116979605E+02  0.51100000000E-03 0.  1.
        -12    1    3    3    0    0  0.16567235179E+02  0.22145508493E+02  0.38418333690E+01  0.27922329980E+02  0.00000000000E+00 0.  1.
</event>
<event>
 7    1  0.7383168E-013  0.5930194E+02  0.7816164E-02  0.1266605E+00
        -11   -1    0    0    0    0  0.00000000000E+00  0.00000000000E+00  0.45593999997E+02  0.45594000000E+02  0.51100000000E-03 0. -1.
         11   -1    0    0    0    0 -0.00000000000E+00 -0.00000000000E+00 -0.45593999997E+02  0.45594000000E+02  0.51100000000E-03 0.  1.
    9900012    2    1    2    0    0 -0.17926899514E+01  0.30283579944E+02  0.98189525162E+01  0.59301940664E+02  0.49999993865E+02 0.  0.
        -12    1    1    2    0    0  0.17926899514E+01 -0.30283579944E+02 -0.98189525162E+01  0.31886059336E+02  0.00000000000E+00 0.  1.
         11    1    3    3    0    0  0.36723144730E+01  0.87621375775E+01 -0.52880123750E+01  0.10873087126E+02  0.51100000000E-03 0. -1.
        -11    1    3    3    0    0 -0.89206460100E+01 -0.25846622421E+01 -0.98645657094E+01  0.13548729130E+02  0.51100000000E-03 0.  1.
         12    1    3    3    0    0  0.34556415856E+01  0.24106104608E+02  0.24971530601E+02  0.34880124408E+02  0.00000000000E+00 0. -1.
</event>
<event>
 7    1  0.7383168E-013  0.5930211E+02  0.7816164E-02  0.1266604E+00
        -11   -1    0    0    0    0  0.00000000000E+00  0.00000000000E+00  0.45593999997E+02  0.45594000000E+02  0.51100000000E-03 0.  1.
         11   -1    0    0    0    0 -0.00000000000E+00 -0.00000000000E+00 -0.45593999997E+02  0.45594000000E+02  0.51100000000E-03 0. -1.
    9900012    2    1    2    0    0  0.18367437364E+02 -0.20878252195E+02 -0.15602742315E+02  0.59302113815E+02  0.50000309651E+02 0.  0.
        -12    1    1    2    0    0 -0.18367437364E+02  0.20878252195E+02  0.15602742315E+02  0.31885886185E+02  0.00000000000E+00 0.  1.
         11    1    3    3    0    0  0.13880701267E+02 -0.11709431589E+02  0.99608892125E+01  0.20712411013E+02  0.51100000000E-03 0. -1.
        -11    1    3    3    0    0  0.43721492054E+01 -0.45839866354E+01  0.47583856019E+01  0.79228060651E+01  0.51100000000E-03 0.  1.
         12    1    3    3    0    0  0.11458689190E+00 -0.45848339702E+01 -0.30322017130E+02  0.30666896737E+02  0.00000000000E+00 0. -1.
</event>
<event>
 7    1  0.7383168E-013  0.5930196E+02  0.7816164E-02  0.1266605E+00
        -11   -1    0    0    0    0  0.00000000000E+00  0.00000000000E+00  0.45593999997E+02  0.45594000000E+02  0.51100000000E-03 0.  1.
         11   -1    0    0    0    0 -0.00000000000E+00 -0.00000000000E+00 -0.45593999997E+02  0.45594000000E+02  0.51100000000E-03 0. -1.
    9900012    2    1    2    0    0  0.24931947129E+02  0.46669974807E+00  0.19872082276E+02  0.59301961515E+02  0.50000031892E+02 0.  0.
        -12    1    1    2    0    0 -0.24931947129E+02 -0.46669974807E+00 -0.19872082276E+02  0.31886038485E+02  0.00000000000E+00 0.  1.
         11    1    3    3    0    0 -0.12489314290E+02  0.10350065502E+01  0.16812921511E+02  0.20969705290E+02  0.51100000000E-03 0. -1.
        -11    1    3    3    0    0  0.14935157353E+01 -0.11659196111E+01  0.14098629521E+01  0.23617094647E+01  0.51100000000E-03 0.  1.
         12    1    3    3    0    0  0.35927745683E+02  0.59761280891E+00  0.16492978135E+01  0.35970546760E+02  0.00000000000E+00 0. -1.
</event>
<event>
 7    1  0.7383168E-013  0.5930194E+02  0.7816164E-02  0.1266605E+00
        -11   -1    0    0    0    0  0.00000000000E+00  0.00000000000E+00  0.45593999997E+02  0.45594000000E+02  0.51100000000E-03 0. -1.
         11   -1    0    0    0    0 -0.00000000000E+00 -0.00000000000E+00 -0.45593999997E+02  0.45594000000E+02  0.51100000000E-03 0.  1.
    9900012    2    1    2    0    0 -0.10685232132E+02  0.15303967263E+02  0.25852184109E+02  0.59301936855E+02  0.49999986919E+02 0.  0.
        -12    1    1    2    0    0  0.10685232132E+02 -0.15303967263E+02 -0.25852184109E+02  0.31886063145E+02  0.00000000000E+00 0.  1.
         11    1    3    3    0    0  0.94581937464E+01  0.44080449127E+01  0.46989059943E+01  0.11444125423E+02  0.51100000000E-03 0. -1.
        -11    1    3    3    0    0  0.79311541891E+01  0.11107242341E+01  0.15708752282E+02  0.17632408049E+02  0.51100000000E-03 0.  1.
         12    1    3    3    0    0 -0.28074580067E+02  0.97851981159E+01  0.54445258324E+01  0.30225403383E+02  0.00000000000E+00 0. -1.
</event>
<event>
 7    1  0.7383168E-013  0.5930192E+02  0.7816164E-02  0.1266605E+00
        -11   -1    0    0    0    0  0.00000000000E+00  0.00000000000E+00  0.45593999997E+02  0.45594000000E+02  0.51100000000E-03 0.  1.
         11   -1    0    0    0    0 -0.00000000000E+00 -0.00000000000E+00 -0.45593999997E+02  0.45594000000E+02  0.51100000000E-03 0. -1.
    9900012    2    1    2    0    0  0.11871378499E+02 -0.10182181898E+02 -0.27786963574E+02  0.59301924664E+02  0.49999964686E+02 0.  0.
        -12    1    1    2    0    0 -0.11871378499E+02  0.10182181898E+02  0.27786963574E+02  0.31886075336E+02  0.00000000000E+00 0.  1.
         11    1    3    3    0    0  0.58267165284E+01 -0.38223091574E+01 -0.82966910768E+01  0.10834932205E+02  0.51100000000E-03 0. -1.
        -11    1    3    3    0    0  0.24816504418E+02 -0.54356699461E+01 -0.13323268370E+02  0.28686492982E+02  0.51100000000E-03 0.  1.
        -12    1    3    3    0    0 -0.18771842447E+02 -0.92420279423E+00 -0.61670041272E+01  0.19780499478E+02  0.00000000000E+00 0.  1.
</event>
<event>
 7    1  0.7383168E-013  0.5930197E+02  0.7816164E-02  0.1266605E+00
        -11   -1    0    0    0    0  0.00000000000E+00  0.00000000000E+00  0.45593999997E+02  0.45594000000E+02  0.51100000000E-03 0.  1.
         11   -1    0    0    0    0 -0.00000000000E+00 -0.00000000000E+00 -0.45593999997E+02  0.45594000000E+02  0.51100000000E-03 0. -1.
    9900012    2    1    2    0    0 -0.20981569227E+02  0.10159126220E+02 -0.21755111804E+02  0.59301968852E+02  0.50000045273E+02 0.  0.
        -12    1    1    2    0    0  0.20981569227E+02 -0.10159126220E+02  0.21755111804E+02  0.31886031148E+02  0.00000000000E+00 0.  1.
         11    1    3    3    0    0  0.75893927765E+00  0.96143287360E+00 -0.51278390542E+01  0.52721035294E+01  0.51100000000E-03 0. -1.
        -11    1    3    3    0    0  0.37569888188E+01  0.20455583938E+02 -0.15846214962E+02  0.26146671072E+02  0.51100000000E-03 0.  1.
        -12    1    3    3    0    0 -0.25497497324E+02 -0.11257890592E+02 -0.78105778715E+00  0.27883194251E+02  0.00000000000E+00 0.  1.
</event>
<event>
 7    1  0.7383168E-013  0.5930196E+02  0.7816164E-02  0.1266605E+00
        -11   -1    0    0    0    0  0.00000000000E+00  0.00000000000E+00  0.45593999997E+02  0.45594000000E+02  0.51100000000E-03 0.  1.
         11   -1    0    0    0    0 -0.00000000000E+00 -0.00000000000E+00 -0.45593999997E+02  0.45594000000E+02  0.51100000000E-03 0. -1.
    9900012    2    1    2    0    0  0.30531159096E+02 -0.29175991082E+01  0.87209698609E+01  0.59301962685E+02  0.50000034027E+02 0.  0.
        -12    1    1    2    0    0 -0.30531159096E+02  0.29175991082E+01 -0.87209698609E+01  0.31886037315E+02  0.00000000000E+00 0.  1.
         11    1    3    3    0    0 -0.60296068414E+01 -0.87035608340E+00  0.79742711737E-01  0.60926215651E+01  0.51100000000E-03 0. -1.
        -11    1    3    3    0    0  0.45839940574E+01 -0.16024342964E+02 -0.18474225515E+01  0.16769184217E+02  0.51100000000E-03 0.  1.
         12    1    3    3    0    0  0.31976771880E+02  0.13977099939E+02  0.10488649701E+02  0.36440156903E+02  0.00000000000E+00 0. -1.
</event>
<event>
 7    1  0.7383168E-013  0.5930196E+02  0.7816164E-02  0.1266605E+00
        -11   -1    0    0    0    0  0.00000000000E+00  0.00000000000E+00  0.45593999997E+02  0.45594000000E+02  0.51100000000E-03 0. -1.
         11   -1    0    0    0    0 -0.00000000000E+00 -0.00000000000E+00 -0.45593999997E+02  0.45594000000E+02  0.51100000000E-03 0.  1.
    9900012    2    1    2    0    0 -0.26056524156E+02  0.12315971112E+02  0.13641636813E+02  0.59301955239E+02  0.50000020447E+02 0.  0.
        -12    1    1    2    0    0  0.26056524156E+02 -0.12315971112E+02 -0.13641636813E+02  0.31886044761E+02  0.00000000000E+00 0.  1.
         11    1    3    3    0    0  0.18869383452E+01 -0.15255402032E+01  0.37384651561E+00  0.24551111397E+01  0.51100000000E-03 0. -1.
        -11    1    3    3    0    0  0.12220777601E+02  0.36835992443E+01  0.80508705342E+01  0.15090819235E+02  0.51100000000E-03 0.  1.
         12    1    3    3    0    0 -0.40164240103E+02  0.10157912071E+02  0.52169197631E+01  0.41756024864E+02  0.00000000000E+00 0. -1.
</event>
<event>
 7    1  0.7383168E-013  0.5930196E+02  0.7816164E-02  0.1266605E+00
        -11   -1    0    0    0    0  0.00000000000E+00  0.00000000000E+00  0.45593999997E+02  0.45594000000E+02  0.51100000000E-03 0. -1.
         11   -1    0    0    0    0 -0.00000000000E+00 -0.00000000000E+00 -0.45593999997E+02  0.45594000000E+02  0.51100000000E-03 0.  1.
    9900012    2    1    2    0    0  0.16544696612E+02  0.27105636725E+02  0.28770010930E+01  0.59301958171E+02  0.50000025794E+02 0.  0.
        -12    1    1    2    0    0 -0.16544696612E+02 -0.27105636725E+02 -0.28770010930E+01  0.31886041829E+02  0.00000000000E+00 0.  1.
         11    1    3    3    0    0 -0.54558447375E+01  0.15852592435E+02  0.83945142059E+01  0.18749367929E+02  0.51100000000E-03 0. -1.
        -11    1    3    3    0    0 -0.74475629877E+01  0.25688273489E+01  0.34019849648E+01  0.85812918821E+01  0.51100000000E-03 0.  1.
         12    1    3    3    0    0  0.29448104337E+02  0.86842169409E+01 -0.89194980777E+01  0.31971298361E+02  0.00000000000E+00 0. -1.
</event>
<event>
 7    1  0.7383168E-013  0.5930198E+02  0.7816164E-02  0.1266605E+00
        -11   -1    0    0    0    0  0.00000000000E+00  0.00000000000E+00  0.45593999997E+02  0.45594000000E+02  0.51100000000E-03 0. -1.
         11   -1    0    0    0    0 -0.00000000000E+00 -0.00000000000E+00 -0.45593999997E+02  0.45594000000E+02  0.51100000000E-03 0.  1.
    9900012    2    1    2    0    0 -0.25096369829E+02 -0.21409982423E+01 -0.19552656057E+02  0.59301984084E+02  0.50000073054E+02 0.  0.
        -12    1    1    2    0    0  0.25096369829E+02  0.21409982423E+01  0.19552656057E+02  0.31886015916E+02  0.00000000000E+00 0.  1.
         11    1    3    3    0    0 -0.31251931112E+01  0.56912095012E+01  0.69756507756E+00  0.65301833716E+01  0.51100000000E-03 0. -1.
        -11    1    3    3    0    0 -0.13262311812E+02 -0.72052618823E+01  0.12049278425E+02  0.19312944473E+02  0.51100000000E-03 0.  1.
        -12    1    3    3    0    0 -0.87088649062E+01 -0.62694586116E+00 -0.32299499560E+02  0.33458856240E+02  0.00000000000E+00 0.  1.
</event>
<event>
 7    1  0.7383168E-013  0.5930191E+02  0.7816164E-02  0.1266605E+00
        -11   -1    0    0    0    0  0.00000000000E+00  0.00000000000E+00  0.45593999997E+02  0.45594000000E+02  0.51100000000E-03 0.  1.
         11   -1    0    0    0    0 -0.00000000000E+00 -0.00000000000E+00 -0.45593999997E+02  0.45594000000E+02  0.51100000000E-03 0. -1.
    9900012    2    1    2    0    0 -0.99895666775E+01  0.44670572800E+01 -0.29949567529E+02  0.59301911523E+02  0.49999940720E+02 0.  0.
        -12    1    1    2    0    0  0.99895666775E+01 -0.44670572800E+01  0.29949567529E+02  0.31886088477E+02  0.00000000000E+00 0.  1.
         11    1    3    3    0    0  0.84055230892E+01  0.12791780150E+02 -0.99573138413E+01  0.18260080969E+02  0.51100000000E-03 0. -1.
        -11    1    3    3    0    0 -0.63607209667E+01 -0.11401868535E+02  0.43099892162E+01  0.13749086683E+02  0.51100000000E-03 0.  1.
         12    1    3    3    0    0 -0.12034368800E+02  0.30771456653E+01 -0.24302242904E+02  0.27292743871E+02  0.00000000000E+00 0. -1.
</event>
<event>
 7    1  0.7383168E-013  0.5930197E+02  0.7816164E-02  0.1266605E+00
        -11   -1    0    0    0    0  0.00000000000E+00  0.00000000000E+00  0.45593999997E+02  0.45594000000E+02  0.51100000000E-03 0.  1.
         11   -1    0    0    0    0 -0.00000000000E+00 -0.00000000000E+00 -0.45593999997E+02  0.45594000000E+02  0.51100000000E-03 0. -1.
    9900012    2    1    2    0    0  0.15179194335E+02  0.88462267963E+01 -0.26609309481E+02  0.59301968258E+02  0.50000044190E+02 0.  0.
        -12    1    1    2    0    0 -0.15179194335E+02 -0.88462267963E+01  0.26609309481E+02  0.31886031742E+02  0.00000000000E+00 0.  1.
         11    1    3    3    0    0 -0.80596630351E+01  0.11331981292E+02 -0.27759909288E+02  0.31048100299E+02  0.51100000000E-03 0. -1.
        -11    1    3    3    0    0 -0.14096123070E+01  0.15612306632E+01 -0.22092183863E+01  0.30504252457E+01  0.51100000000E-03 0.  1.
         12    1    3    3    0    0  0.24648469677E+02 -0.40469851592E+01  0.33598181926E+01  0.25203442713E+02  0.00000000000E+00 0. -1.
</event>
<event>
 7    1  0.7383168E-013  0.5930156E+02  0.7816164E-02  0.1266606E+00
        -11   -1    0    0    0    0  0.00000000000E+00  0.00000000000E+00  0.45593999997E+02  0.45594000000E+02  0.51100000000E-03 0. -1.
         11   -1    0    0    0    0 -0.00000000000E+00 -0.00000000000E+00 -0.45593999997E+02  0.45594000000E+02  0.51100000000E-03 0.  1.
    9900012    2    1    2    0    0  0.29952854472E+01  0.31655742792E+02  0.23847331695E+01  0.59301564970E+02  0.49999308685E+02 0.  0.
        -12    1    1    2    0    0 -0.29952854472E+01 -0.31655742792E+02 -0.23847331695E+01  0.31886435030E+02  0.00000000000E+00 0.  1.
         11    1    3    3    0    0 -0.17029813776E+02  0.21934290914E+02  0.22087603224E+01  0.27856889589E+02  0.51100000000E-03 0. -1.
        -11    1    3    3    0    0  0.34267152067E+00 -0.46605313739E+01 -0.46523121046E+01  0.65940870967E+01  0.51100000000E-03 0.  1.
        -12    1    3    3    0    0  0.19682427702E+02  0.14381983252E+02  0.48282849518E+01  0.24850588284E+02  0.00000000000E+00 0.  1.
</event>
<event>
 7    1  0.7383168E-013  0.5930194E+02  0.7816164E-02  0.1266605E+00
        -11   -1    0    0    0    0  0.00000000000E+00  0.00000000000E+00  0.45593999997E+02  0.45594000000E+02  0.51100000000E-03 0.  1.
         11   -1    0    0    0    0 -0.00000000000E+00 -0.00000000000E+00 -0.45593999997E+02  0.45594000000E+02  0.51100000000E-03 0. -1.
    9900012    2    1    2    0    0  0.24468491500E+02  0.46275328714E+01 -0.19914814896E+02  0.59301937385E+02  0.49999987885E+02 0.  0.
        -12    1    1    2    0    0 -0.24468491500E+02 -0.46275328714E+01  0.19914814896E+02  0.31886062615E+02  0.00000000000E+00 0.  1.
         11    1    3    3    0    0  0.68737677831E+01 -0.21764114686E+01  0.18011949922E+01  0.74316723608E+01  0.51100000000E-03 0. -1.
        -11    1    3    3    0    0 -0.83730061199E+01 -0.10224675168E+02  0.12103111879E+01  0.13270872888E+02  0.51100000000E-03 0.  1.
         12    1    3    3    0    0  0.25967729837E+02  0.17028619508E+02 -0.22926321076E+02  0.38599392136E+02  0.00000000000E+00 0. -1.
</event>
<event>
 7    1  0.7383168E-013  0.5930193E+02  0.7816164E-02  0.1266605E+00
        -11   -1    0    0    0    0  0.00000000000E+00  0.00000000000E+00  0.45593999997E+02  0.45594000000E+02  0.51100000000E-03 0.  1.
         11   -1    0    0    0    0 -0.00000000000E+00 -0.00000000000E+00 -0.45593999997E+02  0.45594000000E+02  0.51100000000E-03 0. -1.
    9900012    2    1    2    0    0 -0.21585888879E+02 -0.21588827086E+02 -0.92029075404E+01  0.59301928419E+02  0.49999971534E+02 0.  0.
        -12    1    1    2    0    0  0.21585888879E+02  0.21588827086E+02  0.92029075404E+01  0.31886071581E+02  0.00000000000E+00 0.  1.
         11    1    3    3    0    0 -0.68753386964E+01 -0.15528172910E+02 -0.20139245248E+01  0.17101179151E+02  0.51100000000E-03 0. -1.
        -11    1    3    3    0    0  0.52122093556E+01 -0.10369860495E+02 -0.16188446208E+02  0.19919009110E+02  0.51100000000E-03 0.  1.
        -12    1    3    3    0    0 -0.19922759538E+02  0.43092063187E+01  0.89994631924E+01  0.22281740158E+02  0.00000000000E+00 0.  1.
</event>
<event>
 7    1  0.7383168E-013  0.5930198E+02  0.7816164E-02  0.1266605E+00
        -11   -1    0    0    0    0  0.00000000000E+00  0.00000000000E+00  0.45593999997E+02  0.45594000000E+02  0.51100000000E-03 0.  1.
         11   -1    0    0    0    0 -0.00000000000E+00 -0.00000000000E+00 -0.45593999997E+02  0.45594000000E+02  0.51100000000E-03 0. -1.
    9900012    2    1    2    0    0  0.92654048200E+01 -0.35447142404E+00 -0.30508116969E+02  0.59301975202E+02  0.50000056854E+02 0.  0.
        -12    1    1    2    0    0 -0.92654048200E+01  0.35447142404E+00  0.30508116969E+02  0.31886024798E+02  0.00000000000E+00 0.  1.
         11    1    3    3    0    0 -0.45175801252E+01  0.15686510412E+01  0.28635998519E+00  0.47907409217E+01  0.51100000000E-03 0.  1.
        -11    1    3    3    0    0  0.57047161079E+01  0.63656148528E+01 -0.39254764328E+02  0.40174635792E+02  0.51100000000E-03 0. -1.
         12    1    3    3    0    0  0.80782688373E+01 -0.82887373181E+01  0.84602873742E+01  0.14336598487E+02  0.00000000000E+00 0. -1.
</event>
<event>
 7    1  0.7383168E-013  0.5930195E+02  0.7816164E-02  0.1266605E+00
        -11   -1    0    0    0    0  0.00000000000E+00  0.00000000000E+00  0.45593999997E+02  0.45594000000E+02  0.51100000000E-03 0.  1.
         11   -1    0    0    0    0 -0.00000000000E+00 -0.00000000000E+00 -0.45593999997E+02  0.45594000000E+02  0.51100000000E-03 0. -1.
    9900012    2    1    2    0    0  0.62224750182E+00  0.31625899975E+02  0.40168652055E+01  0.59301953722E+02  0.50000017679E+02 0.  0.
        -12    1    1    2    0    0 -0.62224750182E+00 -0.31625899975E+02 -0.40168652055E+01  0.31886046278E+02  0.00000000000E+00 0.  1.
         11    1    3    3    0    0  0.18042596547E+01  0.20127368140E+02 -0.26128267702E+01  0.20376289288E+02  0.51100000000E-03 0. -1.
        -11    1    3    3    0    0 -0.51045124423E+01 -0.73894213138E+01 -0.10010989099E+02  0.13449144866E+02  0.51100000000E-03 0.  1.
         12    1    3    3    0    0  0.39225002894E+01  0.18887953149E+02  0.16640681075E+02  0.25476519568E+02  0.00000000000E+00 0. -1.
</event>
<event>
 7    1  0.7383168E-013  0.5930195E+02  0.7816164E-02  0.1266605E+00
        -11   -1    0    0    0    0  0.00000000000E+00  0.00000000000E+00  0.45593999997E+02  0.45594000000E+02  0.51100000000E-03 0. -1.
         11   -1    0    0    0    0 -0.00000000000E+00 -0.00000000000E+00 -0.45593999997E+02  0.45594000000E+02  0.51100000000E-03 0.  1.
    9900012    2    1    2    0    0 -0.23424288952E+02  0.15004142787E+02  0.15585196062E+02  0.59301953679E+02  0.50000017602E+02 0.  0.
        -12    1    1    2    0    0  0.23424288952E+02 -0.15004142787E+02 -0.15585196062E+02  0.31886046321E+02  0.00000000000E+00 0.  1.
         11    1    3    3    0    0 -0.22914268415E+02  0.17172930605E+02  0.13232801463E+02  0.31544893048E+02  0.51100000000E-03 0. -1.
        -11    1    3    3    0    0 -0.57638766919E+01  0.11296049537E+02  0.37805733780E+01  0.13233130581E+02  0.51100000000E-03 0.  1.
        -12    1    3    3    0    0  0.52538561554E+01 -0.13464837354E+02 -0.14281787788E+01  0.14523930050E+02  0.00000000000E+00 0.  1.
</event>
<event>
 7    1  0.8441870E-013  0.5930192E+02  0.7816164E-02  0.1266605E+00
        -11   -1    0    0    0    0  0.00000000000E+00  0.00000000000E+00  0.45593999997E+02  0.45594000000E+02  0.51100000000E-03 0. -1.
         11   -1    0    0    0    0 -0.00000000000E+00 -0.00000000000E+00 -0.45593999997E+02  0.45594000000E+02  0.51100000000E-03 0.  1.
    9900012    2    1    2    0    0  0.70299553866E+01 -0.31083019916E+02  0.10712472548E+01  0.59301921996E+02  0.49999959819E+02 0.  0.
        -12    1    1    2    0    0 -0.70299553866E+01  0.31083019916E+02 -0.10712472548E+01  0.31886078004E+02  0.00000000000E+00 0.  1.
         11    1    3    3    0    0 -0.21076181414E+01 -0.25929149566E+02  0.10500628484E+02  0.28053984570E+02  0.51100000000E-03 0. -1.
        -11    1    3    3    0    0 -0.99722228413E+01 -0.18952357179E+00 -0.42061222806E+01  0.10824629900E+02  0.51100000000E-03 0.  1.
        -12    1    3    3    0    0  0.19109796369E+02 -0.49643467775E+01 -0.52232589484E+01  0.20423307525E+02  0.00000000000E+00 0.  1.
</event>
<event>
 7    1  0.7383168E-013  0.5930192E+02  0.7816164E-02  0.1266605E+00
        -11   -1    0    0    0    0  0.00000000000E+00  0.00000000000E+00  0.45593999997E+02  0.45594000000E+02  0.51100000000E-03 0. -1.
         11   -1    0    0    0    0 -0.00000000000E+00 -0.00000000000E+00 -0.45593999997E+02  0.45594000000E+02  0.51100000000E-03 0.  1.
    9900012    2    1    2    0    0  0.15135899129E+02 -0.26793202997E+02  0.83516892470E+01  0.59301923374E+02  0.49999962333E+02 0.  0.
        -12    1    1    2    0    0 -0.15135899129E+02  0.26793202997E+02 -0.83516892470E+01  0.31886076626E+02  0.00000000000E+00 0.  1.
         11    1    3    3    0    0  0.14844019692E+02 -0.33670943684E+02  0.32306221092E+01  0.36939332542E+02  0.51100000000E-03 0. -1.
        -11    1    3    3    0    0 -0.25353855190E+01 -0.70780925376E+01  0.14399256880E+01  0.76551263836E+01  0.51100000000E-03 0.  1.
        -12    1    3    3    0    0  0.28272649561E+01  0.13955833225E+02  0.36811414498E+01  0.14707464448E+02  0.00000000000E+00 0.  1.
</event>
<event>
 7    1  0.7383168E-013  0.5930192E+02  0.7816164E-02  0.1266605E+00
        -11   -1    0    0    0    0  0.00000000000E+00  0.00000000000E+00  0.45593999997E+02  0.45594000000E+02  0.51100000000E-03 0.  1.
         11   -1    0    0    0    0 -0.00000000000E+00 -0.00000000000E+00 -0.45593999997E+02  0.45594000000E+02  0.51100000000E-03 0. -1.
    9900012    2    1    2    0    0  0.19119704915E+02 -0.23083549413E+02 -0.10876974687E+02  0.59301922351E+02  0.49999960466E+02 0.  0.
        -12    1    1    2    0    0 -0.19119704915E+02  0.23083549413E+02  0.10876974687E+02  0.31886077649E+02  0.00000000000E+00 0.  1.
         11    1    3    3    0    0  0.77394176577E+01 -0.11691537234E+02 -0.27494025622E+02  0.30862794328E+02  0.51100000000E-03 0. -1.
        -11    1    3    3    0    0 -0.29400376163E+01  0.99045165873E+00  0.59477613689E+01  0.67082547086E+01  0.51100000000E-03 0.  1.
        -12    1    3    3    0    0  0.14320324873E+02 -0.12382463837E+02  0.10669289566E+02  0.21730873314E+02  0.00000000000E+00 0.  1.
</event>
<event>
 7    1  0.7383168E-013  0.5930198E+02  0.7816164E-02  0.1266605E+00
        -11   -1    0    0    0    0  0.00000000000E+00  0.00000000000E+00  0.45593999997E+02  0.45594000000E+02  0.51100000000E-03 0. -1.
         11   -1    0    0    0    0 -0.00000000000E+00 -0.00000000000E+00 -0.45593999997E+02  0.45594000000E+02  0.51100000000E-03 0.  1.
    9900012    2    1    2    0    0 -0.10017274311E+02 -0.28708184899E+02  0.96027545366E+01  0.59301975483E+02  0.50000057367E+02 0.  0.
        -12    1    1    2    0    0  0.10017274311E+02  0.28708184899E+02 -0.96027545366E+01  0.31886024517E+02  0.00000000000E+00 0.  1.
         11    1    3    3    0    0 -0.18286958042E+02 -0.12513624784E+02 -0.21391053776E+01  0.22261612963E+02  0.51100000000E-03 0. -1.
        -11    1    3    3    0    0 -0.77582575353E+01 -0.11779665742E+02 -0.34488308294E+01  0.14520520629E+02  0.51100000000E-03 0.  1.
        -12    1    3    3    0    0  0.16027941266E+02 -0.44148943726E+01  0.15190690744E+02  0.22519841891E+02  0.00000000000E+00 0.  1.
</event>
<event>
 7    1  0.7383168E-013  0.5930192E+02  0.7816164E-02  0.1266605E+00
        -11   -1    0    0    0    0  0.00000000000E+00  0.00000000000E+00  0.45593999997E+02  0.45594000000E+02  0.51100000000E-03 0.  1.
         11   -1    0    0    0    0 -0.00000000000E+00 -0.00000000000E+00 -0.45593999997E+02  0.45594000000E+02  0.51100000000E-03 0. -1.
    9900012    2    1    2    0    0  0.26789674867E+02 -0.77970303956E+01 -0.15435072424E+02  0.59301924305E+02  0.49999964030E+02 0.  0.
        -12    1    1    2    0    0 -0.26789674867E+02  0.77970303956E+01  0.15435072424E+02  0.31886075695E+02  0.00000000000E+00 0.  1.
         11    1    3    3    0    0  0.39757630765E+01  0.42183981401E+01  0.11000794997E+01  0.59001483097E+01  0.51100000000E-03 0.  1.
        -11    1    3    3    0    0 -0.13917586544E+01  0.12330178688E+02 -0.14393778349E+02  0.19003977322E+02  0.51100000000E-03 0. -1.
         12    1    3    3    0    0  0.24205670445E+02 -0.24345607224E+02 -0.21413735751E+01  0.34397798674E+02  0.00000000000E+00 0. -1.
</event>
<event>
 7    1  0.7383168E-013  0.5930194E+02  0.7816164E-02  0.1266605E+00
        -11   -1    0    0    0    0  0.00000000000E+00  0.00000000000E+00  0.45593999997E+02  0.45594000000E+02  0.51100000000E-03 0. -1.
         11   -1    0    0    0    0 -0.00000000000E+00 -0.00000000000E+00 -0.45593999997E+02  0.45594000000E+02  0.51100000000E-03 0.  1.
    9900012    2    1    2    0    0 -0.21497394909E+02  0.23355436748E+02 -0.30176779452E+01  0.59301940448E+02  0.49999993472E+02 0.  0.
        -12    1    1    2    0    0  0.21497394909E+02 -0.23355436748E+02  0.30176779452E+01  0.31886059552E+02  0.00000000000E+00 0.  1.
         11    1    3    3    0    0 -0.16029508683E+02  0.15695527062E+02  0.13385431107E+02  0.26124021217E+02  0.51100000000E-03 0. -1.
        -11    1    3    3    0    0  0.27548018365E+01  0.16193176945E+02 -0.62559484562E+01  0.17576825768E+02  0.51100000000E-03 0.  1.
        -12    1    3    3    0    0 -0.82226880619E+01 -0.85332672589E+01 -0.10147160596E+02  0.15601093463E+02  0.00000000000E+00 0.  1.
</event>
<event>
 7    1  0.7383168E-013  0.5930194E+02  0.7816164E-02  0.1266605E+00
        -11   -1    0    0    0    0  0.00000000000E+00  0.00000000000E+00  0.45593999997E+02  0.45594000000E+02  0.51100000000E-03 0.  1.
         11   -1    0    0    0    0 -0.00000000000E+00 -0.00000000000E+00 -0.45593999997E+02  0.45594000000E+02  0.51100000000E-03 0. -1.
    9900012    2    1    2    0    0  0.12073658052E+02  0.27005882131E+02 -0.11900849259E+02  0.59301935622E+02  0.49999984670E+02 0.  0.
        -12    1    1    2    0    0 -0.12073658052E+02 -0.27005882131E+02  0.11900849259E+02  0.31886064378E+02  0.00000000000E+00 0.  1.
         11    1    3    3    0    0 -0.29989057806E+01  0.87172222164E+01  0.56778982426E-01  0.92188189680E+01  0.51100000000E-03 0. -1.
        -11    1    3    3    0    0  0.95013497404E+01 -0.46558992525E+01  0.12304647944E+02  0.16228290299E+02  0.51100000000E-03 0.  1.
        -12    1    3    3    0    0  0.55712140924E+01  0.22944559167E+02 -0.24262276185E+02  0.33854826355E+02  0.00000000000E+00 0.  1.
</event>
<event>
 7    1  0.7383168E-013  0.5930194E+02  0.7816164E-02  0.1266605E+00
        -11   -1    0    0    0    0  0.00000000000E+00  0.00000000000E+00  0.45593999997E+02  0.45594000000E+02  0.51100000000E-03 0.  1.
         11   -1    0    0    0    0 -0.00000000000E+00 -0.00000000000E+00 -0.45593999997E+02  0.45594000000E+02  0.51100000000E-03 0. -1.
    9900012    2    1    2    0    0  0.19332274797E+02  0.21941595139E+02 -0.12710247309E+02  0.59301939837E+02  0.49999992357E+02 0.  0.
        -12    1    1    2    0    0 -0.19332274797E+02 -0.21941595139E+02  0.12710247309E+02  0.31886060163E+02  0.00000000000E+00 0.  1.
         11    1    3    3    0    0  0.19207110592E+02  0.12732751312E+02  0.78601801243E+01  0.24347864078E+02  0.51100000000E-03 0. -1.
        -11    1    3    3    0    0 -0.18331968222E+01 -0.56529069391E+01  0.32771807945E+01  0.67864483843E+01  0.51100000000E-03 0.  1.
         12    1    3    3    0    0  0.19583610271E+01  0.14861750766E+02 -0.23847608228E+02  0.28167627375E+02  0.00000000000E+00 0. -1.
</event>
<event>
 7    1  0.7383168E-013  0.5930195E+02  0.7816164E-02  0.1266605E+00
        -11   -1    0    0    0    0  0.00000000000E+00  0.00000000000E+00  0.45593999997E+02  0.45594000000E+02  0.51100000000E-03 0.  1.
         11   -1    0    0    0    0 -0.00000000000E+00 -0.00000000000E+00 -0.45593999997E+02  0.45594000000E+02  0.51100000000E-03 0. -1.
    9900012    2    1    2    0    0  0.30759348616E+02 -0.74515132760E+01 -0.38804051484E+01  0.59301950990E+02  0.50000012697E+02 0.  0.
        -12    1    1    2    0    0 -0.30759348616E+02  0.74515132760E+01  0.38804051484E+01  0.31886049010E+02  0.00000000000E+00 0.  1.
         11    1    3    3    0    0  0.22863332776E+02 -0.84801184545E+01  0.58709003287E+01  0.25082102495E+02  0.51100000000E-03 0. -1.
        -11    1    3    3    0    0  0.78466326482E+01  0.11052403308E+02  0.65725467514E+01  0.15063984661E+02  0.51100000000E-03 0.  1.
         12    1    3    3    0    0  0.49383191930E-01 -0.10023798130E+02 -0.16323852228E+02  0.19155863834E+02  0.00000000000E+00 0. -1.
</event>
<event>
 7    1  0.7383168E-013  0.5930197E+02  0.7816164E-02  0.1266605E+00
        -11   -1    0    0    0    0  0.00000000000E+00  0.00000000000E+00  0.45593999997E+02  0.45594000000E+02  0.51100000000E-03 0.  1.
         11   -1    0    0    0    0 -0.00000000000E+00 -0.00000000000E+00 -0.45593999997E+02  0.45594000000E+02  0.51100000000E-03 0. -1.
    9900012    2    1    2    0    0  0.24189533392E+02  0.64369517496E+01 -0.19752238934E+02  0.59301971454E+02  0.50000050018E+02 0.  0.
        -12    1    1    2    0    0 -0.24189533392E+02 -0.64369517496E+01  0.19752238934E+02  0.31886028546E+02  0.00000000000E+00 0.  1.
         11    1    3    3    0    0  0.10692124987E+02  0.39279355040E+01 -0.74246609388E+01  0.13596904220E+02  0.51100000000E-03 0. -1.
        -11    1    3    3    0    0  0.25217323206E+02 -0.50483036456E+00 -0.19281469917E+02  0.31748123185E+02  0.51100000000E-03 0.  1.
        -12    1    3    3    0    0 -0.11719914800E+02  0.30138466102E+01  0.69538919216E+01  0.13956944049E+02  0.00000000000E+00 0.  1.
</event>
<event>
 7    1  0.7383168E-013  0.5930195E+02  0.7816164E-02  0.1266605E+00
        -11   -1    0    0    0    0  0.00000000000E+00  0.00000000000E+00  0.45593999997E+02  0.45594000000E+02  0.51100000000E-03 0.  1.
         11   -1    0    0    0    0 -0.00000000000E+00 -0.00000000000E+00 -0.45593999997E+02  0.45594000000E+02  0.51100000000E-03 0. -1.
    9900012    2    1    2    0    0 -0.64496837275E+01 -0.30757535783E+02  0.53940602668E+01  0.59301947974E+02  0.50000007197E+02 0.  0.
        -12    1    1    2    0    0  0.64496837275E+01  0.30757535783E+02 -0.53940602668E+01  0.31886052026E+02  0.00000000000E+00 0.  1.
         11    1    3    3    0    0 -0.12241704659E+02 -0.97316366697E+01  0.72774757155E+00  0.15655468758E+02  0.51100000000E-03 0. -1.
        -11    1    3    3    0    0 -0.86915071283E+01  0.66357694407E+01 -0.33001197366E+01  0.11422194306E+02  0.51100000000E-03 0.  1.
        -12    1    3    3    0    0  0.14483528060E+02 -0.27661668554E+02  0.79664324318E+01  0.32224284910E+02  0.00000000000E+00 0.  1.
</event>
<event>
 7    1  0.7383168E-013  0.5930194E+02  0.7816164E-02  0.1266605E+00
        -11   -1    0    0    0    0  0.00000000000E+00  0.00000000000E+00  0.45593999997E+02  0.45594000000E+02  0.51100000000E-03 0.  1.
         11   -1    0    0    0    0 -0.00000000000E+00 -0.00000000000E+00 -0.45593999997E+02  0.45594000000E+02  0.51100000000E-03 0. -1.
    9900012    2    1    2    0    0 -0.14960725879E+02 -0.27616977563E+02 -0.54954751004E+01  0.59301936977E+02  0.49999987142E+02 0.  0.
        -12    1    1    2    0    0  0.14960725879E+02  0.27616977563E+02  0.54954751004E+01  0.31886063023E+02  0.00000000000E+00 0.  1.
         11    1    3    3    0    0 -0.15291488899E+02 -0.77985010487E+01 -0.10509867986E+02  0.20127185017E+02  0.51100000000E-03 0. -1.
        -11    1    3    3    0    0  0.57091662240E+00  0.77211478952E+01 -0.57095884428E+01  0.96198477668E+01  0.51100000000E-03 0.  1.
         12    1    3    3    0    0 -0.24015360233E+00 -0.27539624409E+02  0.10723981329E+02  0.29554904194E+02  0.00000000000E+00 0. -1.
</event>
<event>
 7    1  0.7383168E-013  0.5930207E+02  0.7816164E-02  0.1266604E+00
        -11   -1    0    0    0    0  0.00000000000E+00  0.00000000000E+00  0.45593999997E+02  0.45594000000E+02  0.51100000000E-03 0. -1.
         11   -1    0    0    0    0 -0.00000000000E+00 -0.00000000000E+00 -0.45593999997E+02  0.45594000000E+02  0.51100000000E-03 0.  1.
    9900012    2    1    2    0    0 -0.26470293472E+01 -0.29342560024E+02 -0.12195089356E+02  0.59302065836E+02  0.50000222149E+02 0.  0.
        -12    1    1    2    0    0  0.26470293472E+01  0.29342560024E+02  0.12195089356E+02  0.31885934164E+02  0.00000000000E+00 0.  1.
         11    1    3    3    0    0 -0.25954530501E+01 -0.35636851882E+01  0.14720208883E+01  0.46479107578E+01  0.51100000000E-03 0. -1.
        -11    1    3    3    0    0 -0.57338511395E+01 -0.31254177423E+02  0.69949218110E+01  0.32536588430E+02  0.51100000000E-03 0.  1.
        -12    1    3    3    0    0  0.56822748425E+01  0.54753025871E+01 -0.20662032055E+02  0.22117566648E+02  0.00000000000E+00 0.  1.
</event>
<event>
 7    1  0.7383168E-013  0.5930195E+02  0.7816164E-02  0.1266605E+00
        -11   -1    0    0    0    0  0.00000000000E+00  0.00000000000E+00  0.45593999997E+02  0.45594000000E+02  0.51100000000E-03 0.  1.
         11   -1    0    0    0    0 -0.00000000000E+00 -0.00000000000E+00 -0.45593999997E+02  0.45594000000E+02  0.51100000000E-03 0. -1.
    9900012    2    1    2    0    0 -0.15210327813E+01  0.19901519357E+02 -0.24866370003E+02  0.59301947084E+02  0.50000005573E+02 0.  0.
        -12    1    1    2    0    0  0.15210327813E+01 -0.19901519357E+02  0.24866370003E+02  0.31886052916E+02  0.00000000000E+00 0.  1.
         11    1    3    3    0    0  0.30821147665E+01  0.12102115935E+02 -0.78553414749E+01  0.14753543014E+02  0.51100000000E-03 0. -1.
        -11    1    3    3    0    0  0.10685166507E+02  0.68171199652E+01  0.81654774662E+01  0.15077165861E+02  0.51100000000E-03 0.  1.
         12    1    3    3    0    0 -0.15288314055E+02  0.98228345764E+00 -0.25176505994E+02  0.29471238208E+02  0.00000000000E+00 0. -1.
</event>
<event>
 7    1  0.7383168E-013  0.5930187E+02  0.7816164E-02  0.1266605E+00
        -11   -1    0    0    0    0  0.00000000000E+00  0.00000000000E+00  0.45593999997E+02  0.45594000000E+02  0.51100000000E-03 0. -1.
         11   -1    0    0    0    0 -0.00000000000E+00 -0.00000000000E+00 -0.45593999997E+02  0.45594000000E+02  0.51100000000E-03 0.  1.
    9900012    2    1    2    0    0 -0.22592779280E+02  0.20569996760E+02  0.91195895823E+01  0.59301868901E+02  0.49999862987E+02 0.  0.
        -12    1    1    2    0    0  0.22592779280E+02 -0.20569996760E+02 -0.91195895823E+01  0.31886131099E+02  0.00000000000E+00 0.  1.
         11    1    3    3    0    0 -0.11575576967E+02  0.27194489450E+02  0.48211734353E+01  0.29946251053E+02  0.51100000000E-03 0. -1.
        -11    1    3    3    0    0 -0.91374120996E+01  0.90989721688E+01  0.40573613358E+01  0.13518349591E+02  0.51100000000E-03 0.  1.
        -12    1    3    3    0    0 -0.18797902136E+01 -0.15723464859E+02  0.24105481119E+00  0.15837268257E+02  0.00000000000E+00 0.  1.
</event>
<event>
 7    1  0.7383168E-013  0.5930195E+02  0.7816164E-02  0.1266605E+00
        -11   -1    0    0    0    0  0.00000000000E+00  0.00000000000E+00  0.45593999997E+02  0.45594000000E+02  0.51100000000E-03 0. -1.
         11   -1    0    0    0    0 -0.00000000000E+00 -0.00000000000E+00 -0.45593999997E+02  0.45594000000E+02  0.51100000000E-03 0.  1.
    9900012    2    1    2    0    0 -0.31410483852E+01 -0.30765114222E+02 -0.77692904052E+01  0.59301948011E+02  0.50000007264E+02 0.  0.
        -12    1    1    2    0    0  0.31410483852E+01  0.30765114222E+02  0.77692904052E+01  0.31886051989E+02  0.00000000000E+00 0.  1.
         11    1    3    3    0    0  0.76007646511E-01 -0.43206831211E+02 -0.86177460367E+01  0.44057934444E+02  0.51100000000E-03 0. -1.
        -11    1    3    3    0    0 -0.54800498602E+00  0.14757626859E+01  0.33344390135E+01  0.36873661014E+01  0.51100000000E-03 0.  1.
        -12    1    3    3    0    0 -0.26690510457E+01  0.10965954303E+02 -0.24859833820E+01  0.11556647465E+02  0.00000000000E+00 0.  1.
</event>
<event>
 7    1  0.7383168E-013  0.5930191E+02  0.7816164E-02  0.1266605E+00
        -11   -1    0    0    0    0  0.00000000000E+00  0.00000000000E+00  0.45593999997E+02  0.45594000000E+02  0.51100000000E-03 0.  1.
         11   -1    0    0    0    0 -0.00000000000E+00 -0.00000000000E+00 -0.45593999997E+02  0.45594000000E+02  0.51100000000E-03 0. -1.
    9900012    2    1    2    0    0  0.12068780083E+02  0.74194625323E+00 -0.29504520416E+02  0.59301911153E+02  0.49999940045E+02 0.  0.
        -12    1    1    2    0    0 -0.12068780083E+02 -0.74194625323E+00  0.29504520416E+02  0.31886088847E+02  0.00000000000E+00 0.  1.
         11    1    3    3    0    0  0.11927306005E+02  0.24068547263E+01 -0.27281456885E+02  0.29871917719E+02  0.51100000000E-03 0. -1.
        -11    1    3    3    0    0  0.15822193183E+01 -0.13353519911E+01 -0.15718298763E+02  0.15854068852E+02  0.51100000000E-03 0.  1.
        -12    1    3    3    0    0 -0.14407452395E+01 -0.32955648192E+00  0.13495235231E+02  0.13575924582E+02  0.00000000000E+00 0.  1.
</event>
<event>
 7    1  0.7383168E-013  0.5930192E+02  0.7816164E-02  0.1266605E+00
        -11   -1    0    0    0    0  0.00000000000E+00  0.00000000000E+00  0.45593999997E+02  0.45594000000E+02  0.51100000000E-03 0.  1.
         11   -1    0    0    0    0 -0.00000000000E+00 -0.00000000000E+00 -0.45593999997E+02  0.45594000000E+02  0.51100000000E-03 0. -1.
    9900012    2    1    2    0    0  0.12731995397E+02  0.27346447800E+02 -0.10333931459E+02  0.59301920694E+02  0.49999957446E+02 0.  0.
        -12    1    1    2    0    0 -0.12731995397E+02 -0.27346447800E+02  0.10333931459E+02  0.31886079306E+02  0.00000000000E+00 0.  1.
         11    1    3    3    0    0  0.11108759033E+01  0.32362284159E+02 -0.10358038668E+02  0.33997653545E+02  0.51100000000E-03 0. -1.
        -11    1    3    3    0    0  0.16347724223E+01  0.71711434305E+01 -0.48516659610E+01  0.88111543984E+01  0.51100000000E-03 0.  1.
        -12    1    3    3    0    0  0.99863470714E+01 -0.12186979789E+02  0.48757731697E+01  0.16493112751E+02  0.00000000000E+00 0.  1.
</event>
<event>
 7    1  0.7383168E-013  0.5930195E+02  0.7816164E-02  0.1266605E+00
        -11   -1    0    0    0    0  0.00000000000E+00  0.00000000000E+00  0.45593999997E+02  0.45594000000E+02  0.51100000000E-03 0.  1.
         11   -1    0    0    0    0 -0.00000000000E+00 -0.00000000000E+00 -0.45593999997E+02  0.45594000000E+02  0.51100000000E-03 0. -1.
    9900012    2    1    2    0    0  0.26253026034E+02 -0.15692345798E+02 -0.90138276042E+01  0.59301950062E+02  0.50000011005E+02 0.  0.
        -12    1    1    2    0    0 -0.26253026034E+02  0.15692345798E+02  0.90138276042E+01  0.31886049938E+02  0.00000000000E+00 0.  1.
         11    1    3    3    0    0  0.19315503847E+02 -0.15241244380E+02  0.48243046814E+01  0.25073055958E+02  0.51100000000E-03 0. -1.
        -11    1    3    3    0    0 -0.80990040024E+01  0.13252846570E+01  0.53423353470E+01  0.97923844121E+01  0.51100000000E-03 0.  1.
        -12    1    3    3    0    0  0.15036526189E+02 -0.17763860747E+01 -0.19180467633E+02  0.24436509692E+02  0.00000000000E+00 0.  1.
</event>
<event>
 7    1  0.7383168E-013  0.5930187E+02  0.7816164E-02  0.1266605E+00
        -11   -1    0    0    0    0  0.00000000000E+00  0.00000000000E+00  0.45593999997E+02  0.45594000000E+02  0.51100000000E-03 0.  1.
         11   -1    0    0    0    0 -0.00000000000E+00 -0.00000000000E+00 -0.45593999997E+02  0.45594000000E+02  0.51100000000E-03 0. -1.
    9900012    2    1    2    0    0 -0.82650071099E+01  0.13952192986E+02 -0.27454535308E+02  0.59301866014E+02  0.49999857721E+02 0.  0.
        -12    1    1    2    0    0  0.82650071099E+01 -0.13952192986E+02  0.27454535308E+02  0.31886133986E+02  0.00000000000E+00 0.  1.
         11    1    3    3    0    0 -0.35358014533E+01  0.11079369796E+02 -0.19141793278E+02  0.22397825278E+02  0.51100000000E-03 0. -1.
        -11    1    3    3    0    0 -0.19820140914E+02  0.43517294537E+01 -0.77765974633E+01  0.21731336900E+02  0.51100000000E-03 0.  1.
        -12    1    3    3    0    0  0.15090935258E+02 -0.14789062640E+01 -0.53614456592E+00  0.15172703836E+02  0.00000000000E+00 0.  1.
</event>
<event>
 7    1  0.7383168E-013  0.5930196E+02  0.7816164E-02  0.1266605E+00
        -11   -1    0    0    0    0  0.00000000000E+00  0.00000000000E+00  0.45593999997E+02  0.45594000000E+02  0.51100000000E-03 0.  1.
         11   -1    0    0    0    0 -0.00000000000E+00 -0.00000000000E+00 -0.45593999997E+02  0.45594000000E+02  0.51100000000E-03 0. -1.
    9900012    2    1    2    0    0 -0.14646210902E+02 -0.28318557735E+02 -0.51729214212E+00  0.59301956076E+02  0.50000021973E+02 0.  0.
        -12    1    1    2    0    0  0.14646210902E+02  0.28318557735E+02  0.51729214212E+00  0.31886043924E+02  0.00000000000E+00 0.  1.
         11    1    3    3    0    0  0.71121158470E+00 -0.14962705045E+01  0.80074454926E+01  0.81770306909E+01  0.51100000000E-03 0. -1.
        -11    1    3    3    0    0 -0.40571702864E+01  0.49343826497E+01  0.10595519435E+02  0.12372299512E+02  0.51100000000E-03 0.  1.
         12    1    3    3    0    0 -0.11300252200E+02 -0.31756669880E+02 -0.19120257069E+02  0.38752625873E+02  0.00000000000E+00 0. -1.
</event>
<event>
 7    1  0.7383168E-013  0.5930190E+02  0.7816164E-02  0.1266605E+00
        -11   -1    0    0    0    0  0.00000000000E+00  0.00000000000E+00  0.45593999997E+02  0.45594000000E+02  0.51100000000E-03 0.  1.
         11   -1    0    0    0    0 -0.00000000000E+00 -0.00000000000E+00 -0.45593999997E+02  0.45594000000E+02  0.51100000000E-03 0. -1.
    9900012    2    1    2    0    0  0.13177143821E+02  0.29017156445E+02 -0.10444622540E+01  0.59301899755E+02  0.49999919256E+02 0.  0.
        -12    1    1    2    0    0 -0.13177143821E+02 -0.29017156445E+02  0.10444622540E+01  0.31886100245E+02  0.00000000000E+00 0.  1.
         11    1    3    3    0    0  0.33200721760E+01  0.11466637269E+02 -0.89637369354E+01  0.14928336466E+02  0.51100000000E-03 0. -1.
        -11    1    3    3    0    0  0.92683706307E+01 -0.11288767136E+02  0.47278966959E+01  0.15352262538E+02  0.51100000000E-03 0.  1.
         12    1    3    3    0    0  0.58870101421E+00  0.28839286312E+02  0.31913779855E+01  0.29021300752E+02  0.00000000000E+00 0. -1.
</event>
<event>
 7    1  0.7383168E-013  0.5930193E+02  0.7816164E-02  0.1266605E+00
        -11   -1    0    0    0    0  0.00000000000E+00  0.00000000000E+00  0.45593999997E+02  0.45594000000E+02  0.51100000000E-03 0. -1.
         11   -1    0    0    0    0 -0.00000000000E+00 -0.00000000000E+00 -0.45593999997E+02  0.45594000000E+02  0.51100000000E-03 0.  1.
    9900012    2    1    2    0    0  0.70977173967E+01 -0.21160077645E+02  0.22772674742E+02  0.59301934186E+02  0.49999982051E+02 0.  0.
        -12    1    1    2    0    0 -0.70977173967E+01  0.21160077645E+02 -0.22772674742E+02  0.31886065814E+02  0.00000000000E+00 0.  1.
         11    1    3    3    0    0  0.15613269785E+02 -0.11049970741E+01 -0.94149682784E+01  0.18265728561E+02  0.51100000000E-03 0. -1.
        -11    1    3    3    0    0  0.24852448747E+01 -0.41042384424E+01  0.12606251624E+02  0.13488468985E+02  0.51100000000E-03 0.  1.
        -12    1    3    3    0    0 -0.11000797263E+02 -0.15950842129E+02  0.19581391396E+02  0.27547736641E+02  0.00000000000E+00 0.  1.
</event>
<event>
 7    1  0.7383168E-013  0.5930194E+02  0.7816164E-02  0.1266605E+00
        -11   -1    0    0    0    0  0.00000000000E+00  0.00000000000E+00  0.45593999997E+02  0.45594000000E+02  0.51100000000E-03 0. -1.
         11   -1    0    0    0    0 -0.00000000000E+00 -0.00000000000E+00 -0.45593999997E+02  0.45594000000E+02  0.51100000000E-03 0.  1.
    9900012    2    1    2    0    0  0.45636984212E+01  0.22253860093E+02  0.22375414955E+02  0.59301939931E+02  0.49999992529E+02 0.  0.
        -12    1    1    2    0    0 -0.45636984212E+01 -0.22253860093E+02 -0.22375414955E+02  0.31886060069E+02  0.00000000000E+00 0.  1.
         11    1    3    3    0    0 -0.14205482274E+02 -0.24910842453E+01  0.12445371521E+02  0.19049632540E+02  0.51100000000E-03 0. -1.
        -11    1    3    3    0    0  0.47758692120E+01 -0.87310815012E+00 -0.54160131279E+01  0.72735440491E+01  0.51100000000E-03 0.  1.
        -12    1    3    3    0    0  0.13993311483E+02  0.25618052488E+02  0.15346056562E+02  0.32978763342E+02  0.00000000000E+00 0.  1.
</event>
<event>
 7    1  0.7383168E-013  0.5930204E+02  0.7816164E-02  0.1266604E+00
        -11   -1    0    0    0    0  0.00000000000E+00  0.00000000000E+00  0.45593999997E+02  0.45594000000E+02  0.51100000000E-03 0.  1.
         11   -1    0    0    0    0 -0.00000000000E+00 -0.00000000000E+00 -0.45593999997E+02  0.45594000000E+02  0.51100000000E-03 0. -1.
    9900012    2    1    2    0    0 -0.13367423919E+02  0.25617890524E+02 -0.13481467289E+02  0.59302042316E+02  0.50000179254E+02 0.  0.
        -12    1    1    2    0    0  0.13367423919E+02 -0.25617890524E+02  0.13481467289E+02  0.31885957684E+02  0.00000000000E+00 0.  1.
         11    1    3    3    0    0 -0.25103067872E+01  0.11009682309E+02 -0.17157303203E+02  0.20539907453E+02  0.51100000000E-03 0. -1.
        -11    1    3    3    0    0 -0.62496886033E+00 -0.10291610958E+02 -0.35232834759E+01  0.10895933595E+02  0.51100000000E-03 0.  1.
        -12    1    3    3    0    0 -0.10232148272E+02  0.24899819173E+02  0.71991193901E+01  0.27866201268E+02  0.00000000000E+00 0.  1.
</event>
<event>
 7    1  0.7383168E-013  0.5930195E+02  0.7816164E-02  0.1266605E+00
        -11   -1    0    0    0    0  0.00000000000E+00  0.00000000000E+00  0.45593999997E+02  0.45594000000E+02  0.51100000000E-03 0. -1.
         11   -1    0    0    0    0 -0.00000000000E+00 -0.00000000000E+00 -0.45593999997E+02  0.45594000000E+02  0.51100000000E-03 0.  1.
    9900012    2    1    2    0    0  0.65610825516E+01 -0.17907769912E+02  0.25553549873E+02  0.59301953858E+02  0.50000017928E+02 0.  0.
        -12    1    1    2    0    0 -0.65610825516E+01  0.17907769912E+02 -0.25553549873E+02  0.31886046142E+02  0.00000000000E+00 0.  1.
         11    1    3    3    0    0  0.41954612074E+01 -0.12550200332E+02  0.14442792105E+02  0.19588355397E+02  0.51100000000E-03 0. -1.
        -11    1    3    3    0    0  0.19784394800E+02 -0.49983524508E+01  0.84617776809E+01  0.22090891485E+02  0.51100000000E-03 0.  1.
        -12    1    3    3    0    0 -0.17418773456E+02 -0.35921712933E+00  0.26489800865E+01  0.17622706976E+02  0.00000000000E+00 0.  1.
</event>
<event>
 7    1  0.7383168E-013  0.5930188E+02  0.7816164E-02  0.1266605E+00
        -11   -1    0    0    0    0  0.00000000000E+00  0.00000000000E+00  0.45593999997E+02  0.45594000000E+02  0.51100000000E-03 0.  1.
         11   -1    0    0    0    0 -0.00000000000E+00 -0.00000000000E+00 -0.45593999997E+02  0.45594000000E+02  0.51100000000E-03 0. -1.
    9900012    2    1    2    0    0 -0.96923578859E+01 -0.26499506994E+02 -0.14851221507E+02  0.59301883075E+02  0.49999888836E+02 0.  0.
        -12    1    1    2    0    0  0.96923578859E+01  0.26499506994E+02  0.14851221507E+02  0.31886116925E+02  0.00000000000E+00 0.  1.
         11    1    3    3    0    0  0.12302175496E+02 -0.89027545666E+01 -0.50322238571E+01  0.15997682270E+02  0.51100000000E-03 0. -1.
        -11    1    3    3    0    0 -0.14243172964E+02 -0.83036370849E+01  0.10577210866E+02  0.19588153432E+02  0.51100000000E-03 0.  1.
         12    1    3    3    0    0 -0.77513604183E+01 -0.92931153426E+01 -0.20396208516E+02  0.23716047372E+02  0.00000000000E+00 0. -1.
</event>
<event>
 7    1  0.7383168E-013  0.5930194E+02  0.7816164E-02  0.1266605E+00
        -11   -1    0    0    0    0  0.00000000000E+00  0.00000000000E+00  0.45593999997E+02  0.45594000000E+02  0.51100000000E-03 0.  1.
         11   -1    0    0    0    0 -0.00000000000E+00 -0.00000000000E+00 -0.45593999997E+02  0.45594000000E+02  0.51100000000E-03 0. -1.
    9900012    2    1    2    0    0  0.10184293703E+02 -0.26318872291E+02 -0.14843117418E+02  0.59301937032E+02  0.49999987242E+02 0.  0.
        -12    1    1    2    0    0 -0.10184293703E+02  0.26318872291E+02  0.14843117418E+02  0.31886062968E+02  0.00000000000E+00 0.  1.
         11    1    3    3    0    0  0.85707752170E+01 -0.51977216907E+01 -0.89649170943E+01  0.13447833928E+02  0.51100000000E-03 0. -1.
        -11    1    3    3    0    0  0.96470362236E+01  0.49869503113E+01  0.95678355934E+01  0.14473370703E+02  0.51100000000E-03 0.  1.
        -12    1    3    3    0    0 -0.80335177377E+01 -0.26108100912E+02 -0.15446035917E+02  0.31380732401E+02  0.00000000000E+00 0.  1.
</event>
<event>
 7    1  0.7383168E-013  0.5930195E+02  0.7816164E-02  0.1266605E+00
        -11   -1    0    0    0    0  0.00000000000E+00  0.00000000000E+00  0.45593999997E+02  0.45594000000E+02  0.51100000000E-03 0.  1.
         11   -1    0    0    0    0 -0.00000000000E+00 -0.00000000000E+00 -0.45593999997E+02  0.45594000000E+02  0.51100000000E-03 0. -1.
    9900012    2    1    2    0    0  0.17895967967E+02  0.44303849774E+01 -0.26015887127E+02  0.59301947194E+02  0.50000005775E+02 0.  0.
        -12    1    1    2    0    0 -0.17895967967E+02 -0.44303849774E+01  0.26015887127E+02  0.31886052806E+02  0.00000000000E+00 0.  1.
         11    1    3    3    0    0  0.65247808803E+01  0.27637472565E+01 -0.22454397322E+02  0.23545934337E+02  0.51100000000E-03 0. -1.
        -11    1    3    3    0    0  0.16454495597E+02 -0.33662761172E+01 -0.14832084406E+02  0.22406984811E+02  0.51100000000E-03 0.  1.
        -12    1    3    3    0    0 -0.50833085108E+01  0.50329138380E+01  0.11270594601E+02  0.13349028046E+02  0.00000000000E+00 0.  1.
</event>
<event>
 7    1  0.7383168E-013  0.5930194E+02  0.7816164E-02  0.1266605E+00
        -11   -1    0    0    0    0  0.00000000000E+00  0.00000000000E+00  0.45593999997E+02  0.45594000000E+02  0.51100000000E-03 0.  1.
         11   -1    0    0    0    0 -0.00000000000E+00 -0.00000000000E+00 -0.45593999997E+02  0.45594000000E+02  0.51100000000E-03 0. -1.
    9900012    2    1    2    0    0 -0.18375042693E+02 -0.76718326172E+01 -0.24904249062E+02  0.59301939863E+02  0.49999992405E+02 0.  0.
        -12    1    1    2    0    0  0.18375042693E+02  0.76718326172E+01  0.24904249062E+02  0.31886060137E+02  0.00000000000E+00 0.  1.
         11    1    3    3    0    0 -0.18323933575E+02  0.27611341799E-01 -0.35700301202E+02  0.40128279433E+02  0.51100000000E-03 0. -1.
        -11    1    3    3    0    0 -0.43562656066E+01  0.16070912846E+01  0.54631950037E+00  0.46752815626E+01  0.51100000000E-03 0.  1.
        -12    1    3    3    0    0  0.43051564882E+01 -0.93065352435E+01  0.10249732639E+02  0.14498378868E+02  0.00000000000E+00 0.  1.
</event>
<event>
 7    1  0.7383168E-013  0.5930195E+02  0.7816164E-02  0.1266605E+00
        -11   -1    0    0    0    0  0.00000000000E+00  0.00000000000E+00  0.45593999997E+02  0.45594000000E+02  0.51100000000E-03 0.  1.
         11   -1    0    0    0    0 -0.00000000000E+00 -0.00000000000E+00 -0.45593999997E+02  0.45594000000E+02  0.51100000000E-03 0. -1.
    9900012    2    1    2    0    0  0.11651525620E+02 -0.14051227547E+02 -0.26144313085E+02  0.59301950518E+02  0.50000011837E+02 0.  0.
        -12    1    1    2    0    0 -0.11651525620E+02  0.14051227547E+02  0.26144313085E+02  0.31886049482E+02  0.00000000000E+00 0.  1.
         11    1    3    3    0    0  0.83270829132E+01 -0.18842456624E+02 -0.21581643994E+01  0.20713187956E+02  0.51100000000E-03 0. -1.
        -11    1    3    3    0    0  0.11892018657E+02 -0.82303361516E+01 -0.13643285416E+02  0.19882096924E+02  0.51100000000E-03 0.  1.
         12    1    3    3    0    0 -0.85675759498E+01  0.13021565229E+02 -0.10342863270E+02  0.18706665638E+02  0.00000000000E+00 0. -1.
</event>
<event>
 7    1  0.7383168E-013  0.5930194E+02  0.7816164E-02  0.1266605E+00
        -11   -1    0    0    0    0  0.00000000000E+00  0.00000000000E+00  0.45593999997E+02  0.45594000000E+02  0.51100000000E-03 0. -1.
         11   -1    0    0    0    0 -0.00000000000E+00 -0.00000000000E+00 -0.45593999997E+02  0.45594000000E+02  0.51100000000E-03 0.  1.
    9900012    2    1    2    0    0 -0.24285971508E+02  0.18814927102E+02  0.85388059824E+01  0.59301935621E+02  0.49999984669E+02 0.  0.
        -12    1    1    2    0    0  0.24285971508E+02 -0.18814927102E+02 -0.85388059824E+01  0.31886064379E+02  0.00000000000E+00 0.  1.
         11    1    3    3    0    0  0.99237970362E+00 -0.29603373278E+01 -0.17731421282E+01  0.35906054975E+01  0.51100000000E-03 0. -1.
        -11    1    3    3    0    0  0.93841231329E+00 -0.96526338770E+01  0.11147465871E+02  0.14775654099E+02  0.51100000000E-03 0.  1.
         12    1    3    3    0    0 -0.26216763525E+02  0.31427898307E+02 -0.83551776064E+00  0.40935676025E+02  0.00000000000E+00 0. -1.
</event>
<event>
 7    1  0.7383168E-013  0.5930205E+02  0.7816164E-02  0.1266604E+00
        -11   -1    0    0    0    0  0.00000000000E+00  0.00000000000E+00  0.45593999997E+02  0.45594000000E+02  0.51100000000E-03 0.  1.
         11   -1    0    0    0    0 -0.00000000000E+00 -0.00000000000E+00 -0.45593999997E+02  0.45594000000E+02  0.51100000000E-03 0. -1.
    9900012    2    1    2    0    0  0.18394987639E+02 -0.21296846588E+02 -0.14992747284E+02  0.59302051434E+02  0.50000195883E+02 0.  0.
        -12    1    1    2    0    0 -0.18394987639E+02  0.21296846588E+02  0.14992747284E+02  0.31885948566E+02  0.00000000000E+00 0.  1.
         11    1    3    3    0    0  0.23182477888E+01 -0.13608463365E+02  0.13249406839E+02  0.19134035900E+02  0.51100000000E-03 0.  1.
        -11    1    3    3    0    0 -0.18456037698E+01 -0.89125329928E+01 -0.38686338648E+01  0.98896827990E+01  0.51100000000E-03 0. -1.
        -12    1    3    3    0    0  0.17922343620E+02  0.12241497696E+01 -0.24373520258E+02  0.30278332736E+02  0.00000000000E+00 0.  1.
</event>
<event>
 7    1  0.7383168E-013  0.5930195E+02  0.7816164E-02  0.1266605E+00
        -11   -1    0    0    0    0  0.00000000000E+00  0.00000000000E+00  0.45593999997E+02  0.45594000000E+02  0.51100000000E-03 0.  1.
         11   -1    0    0    0    0 -0.00000000000E+00 -0.00000000000E+00 -0.45593999997E+02  0.45594000000E+02  0.51100000000E-03 0. -1.
    9900012    2    1    2    0    0 -0.26521422521E+02  0.32940149847E+01 -0.17392054409E+02  0.59301953776E+02  0.50000017779E+02 0.  0.
        -12    1    1    2    0    0  0.26521422521E+02 -0.32940149847E+01  0.17392054409E+02  0.31886046224E+02  0.00000000000E+00 0.  1.
         11    1    3    3    0    0  0.14708757086E+01  0.26740674730E+00  0.34000106148E+00  0.15331610162E+01  0.51100000000E-03 0. -1.
        -11    1    3    3    0    0  0.54789536007E+01 -0.56016020083E+01 -0.21609779950E+02  0.22986506201E+02  0.51100000000E-03 0.  1.
        -12    1    3    3    0    0 -0.33471251830E+02  0.86282102457E+01  0.38777244793E+01  0.34782286559E+02  0.00000000000E+00 0.  1.
</event>
<event>
 7    1  0.7383168E-013  0.5930197E+02  0.7816164E-02  0.1266605E+00
        -11   -1    0    0    0    0  0.00000000000E+00  0.00000000000E+00  0.45593999997E+02  0.45594000000E+02  0.51100000000E-03 0. -1.
         11   -1    0    0    0    0 -0.00000000000E+00 -0.00000000000E+00 -0.45593999997E+02  0.45594000000E+02  0.51100000000E-03 0.  1.
    9900012    2    1    2    0    0 -0.10327137758E+02  0.27037855071E+02  0.13379973809E+02  0.59301967317E+02  0.50000042474E+02 0.  0.
        -12    1    1    2    0    0  0.10327137758E+02 -0.27037855071E+02 -0.13379973809E+02  0.31886032683E+02  0.00000000000E+00 0.  1.
         11    1    3    3    0    0 -0.78174094908E+01  0.10738010156E+02  0.16146723870E+01  0.13379982079E+02  0.51100000000E-03 0. -1.
        -11    1    3    3    0    0 -0.21049309595E+02  0.92633582098E+01  0.26595090617E+00  0.22998999324E+02  0.51100000000E-03 0.  1.
        -12    1    3    3    0    0  0.18539581327E+02  0.70364867052E+01  0.11499350516E+02  0.22922985915E+02  0.00000000000E+00 0.  1.
</event>
<event>
 7    1  0.7383168E-013  0.5930195E+02  0.7816164E-02  0.1266605E+00
        -11   -1    0    0    0    0  0.00000000000E+00  0.00000000000E+00  0.45593999997E+02  0.45594000000E+02  0.51100000000E-03 0.  1.
         11   -1    0    0    0    0 -0.00000000000E+00 -0.00000000000E+00 -0.45593999997E+02  0.45594000000E+02  0.51100000000E-03 0. -1.
    9900012    2    1    2    0    0 -0.57459150561E+01  0.30004569028E+02 -0.91340277710E+01  0.59301950297E+02  0.50000011433E+02 0.  0.
        -12    1    1    2    0    0  0.57459150561E+01 -0.30004569028E+02  0.91340277710E+01  0.31886049703E+02  0.00000000000E+00 0.  1.
         11    1    3    3    0    0 -0.88937135146E+01 -0.95799201332E+00  0.65552212422E+01  0.11089942046E+02  0.51100000000E-03 0.  1.
        -11    1    3    3    0    0 -0.61210520418E+01 -0.30749821293E+01  0.38780946443E+01  0.78716206416E+01  0.51100000000E-03 0. -1.
         12    1    3    3    0    0  0.92688505003E+01  0.34037543170E+02 -0.19567343657E+02  0.40340387609E+02  0.00000000000E+00 0. -1.
</event>
<event>
 7    1  0.7383168E-013  0.5930191E+02  0.7816164E-02  0.1266605E+00
        -11   -1    0    0    0    0  0.00000000000E+00  0.00000000000E+00  0.45593999997E+02  0.45594000000E+02  0.51100000000E-03 0.  1.
         11   -1    0    0    0    0 -0.00000000000E+00 -0.00000000000E+00 -0.45593999997E+02  0.45594000000E+02  0.51100000000E-03 0. -1.
    9900012    2    1    2    0    0 -0.35183634605E+01  0.26237385643E+02 -0.17774789501E+02  0.59301914812E+02  0.49999946717E+02 0.  0.
        -12    1    1    2    0    0  0.35183634605E+01 -0.26237385643E+02  0.17774789501E+02  0.31886085188E+02  0.00000000000E+00 0.  1.
         11    1    3    3    0    0 -0.44455421401E+01  0.44629960744E+01 -0.19640535015E+02  0.20625998032E+02  0.51100000000E-03 0. -1.
        -11    1    3    3    0    0  0.15185608541E+02  0.13696259110E+02  0.68178277121E+01  0.21556275081E+02  0.51100000000E-03 0.  1.
         12    1    3    3    0    0 -0.14258429861E+02  0.80781304583E+01 -0.49520821974E+01  0.17119641699E+02  0.00000000000E+00 0. -1.
</event>
<event>
 7    1  0.7383168E-013  0.5930205E+02  0.7816164E-02  0.1266604E+00
        -11   -1    0    0    0    0  0.00000000000E+00  0.00000000000E+00  0.45593999997E+02  0.45594000000E+02  0.51100000000E-03 0. -1.
         11   -1    0    0    0    0 -0.00000000000E+00 -0.00000000000E+00 -0.45593999997E+02  0.45594000000E+02  0.51100000000E-03 0.  1.
    9900012    2    1    2    0    0  0.23793909689E+02 -0.41360157637E+01  0.20819630341E+02  0.59302050552E+02  0.50000194274E+02 0.  0.
        -12    1    1    2    0    0 -0.23793909689E+02  0.41360157637E+01 -0.20819630341E+02  0.31885949448E+02  0.00000000000E+00 0.  1.
         11    1    3    3    0    0  0.21891447008E+01 -0.20578175037E+02  0.12053959735E+02  0.23948937094E+02  0.51100000000E-03 0. -1.
        -11    1    3    3    0    0  0.59289750203E+00 -0.39917863639E+00 -0.50411911361E+01  0.50916087205E+01  0.51100000000E-03 0.  1.
         12    1    3    3    0    0  0.21011867486E+02  0.16841337909E+02  0.13806861741E+02  0.30261504737E+02  0.00000000000E+00 0. -1.
</event>
<event>
 7    1  0.7383168E-013  0.5930190E+02  0.7816164E-02  0.1266605E+00
        -11   -1    0    0    0    0  0.00000000000E+00  0.00000000000E+00  0.45593999997E+02  0.45594000000E+02  0.51100000000E-03 0.  1.
         11   -1    0    0    0    0 -0.00000000000E+00 -0.00000000000E+00 -0.45593999997E+02  0.45594000000E+02  0.51100000000E-03 0. -1.
    9900012    2    1    2    0    0  0.14708682067E+02 -0.27041533800E+02 -0.83146667749E+01  0.59301897040E+02  0.49999914306E+02 0.  0.
        -12    1    1    2    0    0 -0.14708682067E+02  0.27041533800E+02  0.83146667749E+01  0.31886102960E+02  0.00000000000E+00 0.  1.
         11    1    3    3    0    0  0.19362575389E+02 -0.18775153300E+02 -0.40064149433E+01  0.27266592528E+02  0.51100000000E-03 0. -1.
        -11    1    3    3    0    0 -0.10246110585E+02 -0.13377294990E+02  0.71454566938E+01  0.18302796371E+02  0.51100000000E-03 0.  1.
        -12    1    3    3    0    0  0.55922172638E+01  0.51109144910E+01 -0.11453708525E+02  0.13732508141E+02  0.00000000000E+00 0.  1.
</event>
<event>
 7    1  0.7383168E-013  0.5930194E+02  0.7816164E-02  0.1266605E+00
        -11   -1    0    0    0    0  0.00000000000E+00  0.00000000000E+00  0.45593999997E+02  0.45594000000E+02  0.51100000000E-03 0.  1.
         11   -1    0    0    0    0 -0.00000000000E+00 -0.00000000000E+00 -0.45593999997E+02  0.45594000000E+02  0.51100000000E-03 0. -1.
    9900012    2    1    2    0    0  0.11849184064E+02  0.22583572892E+02 -0.19138956848E+02  0.59301943537E+02  0.49999999105E+02 0.  0.
        -12    1    1    2    0    0 -0.11849184064E+02 -0.22583572892E+02  0.19138956848E+02  0.31886056463E+02  0.00000000000E+00 0.  1.
         11    1    3    3    0    0  0.12950496641E+02  0.11171046199E+02 -0.23147549170E+02  0.28780491123E+02  0.51100000000E-03 0. -1.
        -11    1    3    3    0    0  0.11547370157E+02  0.12845628077E+02  0.42558572375E+01  0.17789441794E+02  0.51100000000E-03 0.  1.
         12    1    3    3    0    0 -0.12648682735E+02 -0.14331013841E+01 -0.24726491534E+00  0.12732010620E+02  0.00000000000E+00 0. -1.
</event>
<event>
 7    1  0.7383168E-013  0.5930195E+02  0.7816164E-02  0.1266605E+00
        -11   -1    0    0    0    0  0.00000000000E+00  0.00000000000E+00  0.45593999997E+02  0.45594000000E+02  0.51100000000E-03 0.  1.
         11   -1    0    0    0    0 -0.00000000000E+00 -0.00000000000E+00 -0.45593999997E+02  0.45594000000E+02  0.51100000000E-03 0. -1.
    9900012    2    1    2    0    0 -0.29164716343E+02  0.12799941171E+02 -0.15169405723E+01  0.59301948472E+02  0.50000008105E+02 0.  0.
        -12    1    1    2    0    0  0.29164716343E+02 -0.12799941171E+02  0.15169405723E+01  0.31886051528E+02  0.00000000000E+00 0.  1.
         11    1    3    3    0    0 -0.56979277583E+01  0.30321446672E+01 -0.48473264867E+01  0.80719797046E+01  0.51100000000E-03 0. -1.
        -11    1    3    3    0    0 -0.47429775344E+01  0.24904462894E+02 -0.48292547235E+01  0.25807940820E+02  0.51100000000E-03 0.  1.
         12    1    3    3    0    0 -0.18723811050E+02 -0.15136666390E+02  0.81596406378E+01  0.25422027948E+02  0.00000000000E+00 0. -1.
</event>
<event>
 7    1  0.7383168E-013  0.5930195E+02  0.7816164E-02  0.1266605E+00
        -11   -1    0    0    0    0  0.00000000000E+00  0.00000000000E+00  0.45593999997E+02  0.45594000000E+02  0.51100000000E-03 0.  1.
         11   -1    0    0    0    0 -0.00000000000E+00 -0.00000000000E+00 -0.45593999997E+02  0.45594000000E+02  0.51100000000E-03 0. -1.
    9900012    2    1    2    0    0 -0.10808311393E+01 -0.28640691379E+02  0.13973651511E+02  0.59301947639E+02  0.50000006586E+02 0.  0.
        -12    1    1    2    0    0  0.10808311393E+01  0.28640691379E+02 -0.13973651511E+02  0.31886052361E+02  0.00000000000E+00 0.  1.
         11    1    3    3    0    0  0.17186537988E+02 -0.14861621796E+02 -0.77600103320E+01  0.24009636628E+02  0.51100000000E-03 0. -1.
        -11    1    3    3    0    0 -0.52650609075E+01 -0.11886904022E+02  0.16832773540E+02  0.21268794486E+02  0.51100000000E-03 0.  1.
        -12    1    3    3    0    0 -0.13002308219E+02 -0.18921655611E+01  0.49008883032E+01  0.14023516524E+02  0.00000000000E+00 0.  1.
</event>
<event>
 7    1  0.7383168E-013  0.5930197E+02  0.7816164E-02  0.1266605E+00
        -11   -1    0    0    0    0  0.00000000000E+00  0.00000000000E+00  0.45593999997E+02  0.45594000000E+02  0.51100000000E-03 0. -1.
         11   -1    0    0    0    0 -0.00000000000E+00 -0.00000000000E+00 -0.45593999997E+02  0.45594000000E+02  0.51100000000E-03 0.  1.
    9900012    2    1    2    0    0 -0.16821233565E+02  0.11429753436E+02  0.24558624083E+02  0.59301965767E+02  0.50000039648E+02 0.  0.
        -12    1    1    2    0    0  0.16821233565E+02 -0.11429753436E+02 -0.24558624083E+02  0.31886034233E+02  0.00000000000E+00 0.  1.
         11    1    3    3    0    0 -0.11145671437E+02  0.36013515315E+01  0.15529974000E+02  0.19451884673E+02  0.51100000000E-03 0. -1.
        -11    1    3    3    0    0 -0.15576723318E+02 -0.99348633381E+01  0.45100306661E+01  0.19017786300E+02  0.51100000000E-03 0.  1.
         12    1    3    3    0    0  0.99011611894E+01  0.17763265243E+02  0.45186194162E+01  0.20832294795E+02  0.00000000000E+00 0. -1.
</event>
<event>
 7    1  0.7383168E-013  0.5930194E+02  0.7816164E-02  0.1266605E+00
        -11   -1    0    0    0    0  0.00000000000E+00  0.00000000000E+00  0.45593999997E+02  0.45594000000E+02  0.51100000000E-03 0.  1.
         11   -1    0    0    0    0 -0.00000000000E+00 -0.00000000000E+00 -0.45593999997E+02  0.45594000000E+02  0.51100000000E-03 0. -1.
    9900012    2    1    2    0    0  0.14407672128E+02 -0.21041701488E+02 -0.19141224525E+02  0.59301942013E+02  0.49999996326E+02 0.  0.
        -12    1    1    2    0    0 -0.14407672128E+02  0.21041701488E+02  0.19141224525E+02  0.31886057987E+02  0.00000000000E+00 0.  1.
         11    1    3    3    0    0  0.12227445534E+02  0.25989313911E+01 -0.18064212009E+01  0.12630440470E+02  0.51100000000E-03 0. -1.
        -11    1    3    3    0    0  0.45102919145E+01 -0.47098037846E+01 -0.25207209168E+02  0.26037057805E+02  0.51100000000E-03 0.  1.
        -12    1    3    3    0    0 -0.23300653204E+01 -0.18930829095E+02  0.78724058441E+01  0.20634443738E+02  0.00000000000E+00 0.  1.
</event>
<event>
 7    1  0.7383168E-013  0.5930195E+02  0.7816164E-02  0.1266605E+00
        -11   -1    0    0    0    0  0.00000000000E+00  0.00000000000E+00  0.45593999997E+02  0.45594000000E+02  0.51100000000E-03 0.  1.
         11   -1    0    0    0    0 -0.00000000000E+00 -0.00000000000E+00 -0.45593999997E+02  0.45594000000E+02  0.51100000000E-03 0. -1.
    9900012    2    1    2    0    0 -0.38740961700E+01 -0.23971151573E+02 -0.20666286990E+02  0.59301950592E+02  0.50000011972E+02 0.  0.
        -12    1    1    2    0    0  0.38740961700E+01  0.23971151573E+02  0.20666286990E+02  0.31886049408E+02  0.00000000000E+00 0.  1.
         11    1    3    3    0    0 -0.14682264204E+02 -0.41044318578E+01  0.57988895653E+00  0.15256195938E+02  0.51100000000E-03 0. -1.
        -11    1    3    3    0    0  0.55969908344E+01  0.65387616110E+01 -0.13549461324E+02  0.16052090588E+02  0.51100000000E-03 0.  1.
         12    1    3    3    0    0  0.52111771997E+01 -0.26405481327E+02 -0.76967146228E+01  0.27993664067E+02  0.00000000000E+00 0. -1.
</event>
<event>
 7    1  0.7383168E-013  0.5930192E+02  0.7816164E-02  0.1266605E+00
        -11   -1    0    0    0    0  0.00000000000E+00  0.00000000000E+00  0.45593999997E+02  0.45594000000E+02  0.51100000000E-03 0.  1.
         11   -1    0    0    0    0 -0.00000000000E+00 -0.00000000000E+00 -0.45593999997E+02  0.45594000000E+02  0.51100000000E-03 0. -1.
    9900012    2    1    2    0    0  0.16151888047E+02  0.67342076974E+01 -0.26654995170E+02  0.59301924539E+02  0.49999964457E+02 0.  0.
        -12    1    1    2    0    0 -0.16151888047E+02 -0.67342076974E+01  0.26654995170E+02  0.31886075461E+02  0.00000000000E+00 0.  1.
         11    1    3    3    0    0  0.17475603922E+02 -0.21240277798E+00  0.46243154567E+01  0.18078333470E+02  0.51100000000E-03 0. -1.
        -11    1    3    3    0    0  0.84572855049E+01 -0.28312198296E+01 -0.24507017457E+01  0.92491849988E+01  0.51100000000E-03 0.  1.
        -12    1    3    3    0    0 -0.97810013796E+01  0.97778303050E+01 -0.28828608881E+02  0.31974406069E+02  0.00000000000E+00 0.  1.
</event>
<event>
 7    1  0.7383168E-013  0.5930180E+02  0.7816164E-02  0.1266605E+00
        -11   -1    0    0    0    0  0.00000000000E+00  0.00000000000E+00  0.45593999997E+02  0.45594000000E+02  0.51100000000E-03 0. -1.
         11   -1    0    0    0    0 -0.00000000000E+00 -0.00000000000E+00 -0.45593999997E+02  0.45594000000E+02  0.51100000000E-03 0.  1.
    9900012    2    1    2    0    0  0.23897233327E+01 -0.24378209809E+02  0.20413763809E+02  0.59301801670E+02  0.49999740374E+02 0.  0.
        -12    1    1    2    0    0 -0.23897233327E+01  0.24378209809E+02 -0.20413763809E+02  0.31886198330E+02  0.00000000000E+00 0.  1.
         11    1    3    3    0    0 -0.80293615570E+00 -0.25302550576E+01  0.23553212187E+02  0.23702335365E+02  0.51100000000E-03 0. -1.
        -11    1    3    3    0    0 -0.14459665394E+01  0.57579588140E+01 -0.46868322775E+01  0.75638155712E+01  0.51100000000E-03 0.  1.
        -12    1    3    3    0    0  0.46386260277E+01 -0.27605913565E+02  0.15473838990E+01  0.28035650734E+02  0.00000000000E+00 0.  1.
</event>
<event>
 7    1  0.7383168E-013  0.5930203E+02  0.7816164E-02  0.1266604E+00
        -11   -1    0    0    0    0  0.00000000000E+00  0.00000000000E+00  0.45593999997E+02  0.45594000000E+02  0.51100000000E-03 0.  1.
         11   -1    0    0    0    0 -0.00000000000E+00 -0.00000000000E+00 -0.45593999997E+02  0.45594000000E+02  0.51100000000E-03 0. -1.
    9900012    2    1    2    0    0  0.10333884961E+02 -0.26922864319E+02  0.13604595008E+02  0.59302034328E+02  0.50000164685E+02 0.  0.
        -12    1    1    2    0    0 -0.10333884961E+02  0.26922864319E+02 -0.13604595008E+02  0.31885965672E+02  0.00000000000E+00 0.  1.
         11    1    3    3    0    0 -0.10270781425E+02 -0.14371730021E+02  0.26331989709E+01  0.17859711978E+02  0.51100000000E-03 0. -1.
        -11    1    3    3    0    0 -0.95309268414E+00 -0.17290769985E+02  0.13677566173E+01  0.17370949047E+02  0.51100000000E-03 0.  1.
        -12    1    3    3    0    0  0.21557759070E+02  0.47396356874E+01  0.96036394198E+01  0.24071373303E+02  0.00000000000E+00 0.  1.
</event>
<event>
 7    1  0.7383168E-013  0.5930197E+02  0.7816164E-02  0.1266605E+00
        -11   -1    0    0    0    0  0.00000000000E+00  0.00000000000E+00  0.45593999997E+02  0.45594000000E+02  0.51100000000E-03 0.  1.
         11   -1    0    0    0    0 -0.00000000000E+00 -0.00000000000E+00 -0.45593999997E+02  0.45594000000E+02  0.51100000000E-03 0. -1.
    9900012    2    1    2    0    0 -0.77507231446E+01  0.27937938019E+02 -0.13270908604E+02  0.59301966926E+02  0.50000041761E+02 0.  0.
        -12    1    1    2    0    0  0.77507231446E+01 -0.27937938019E+02  0.13270908604E+02  0.31886033074E+02  0.00000000000E+00 0.  1.
         11    1    3    3    0    0 -0.15623021020E+02  0.10061019204E+02 -0.10623212340E+02  0.21404568061E+02  0.51100000000E-03 0. -1.
        -11    1    3    3    0    0 -0.10936709006E+02  0.13600581773E+02  0.31959510482E+01  0.17742647260E+02  0.51100000000E-03 0.  1.
         12    1    3    3    0    0  0.18809006881E+02  0.42763370419E+01 -0.58436473123E+01  0.20154751605E+02  0.00000000000E+00 0. -1.
</event>
<event>
 7    1  0.7383168E-013  0.5930203E+02  0.7816164E-02  0.1266604E+00
        -11   -1    0    0    0    0  0.00000000000E+00  0.00000000000E+00  0.45593999997E+02  0.45594000000E+02  0.51100000000E-03 0.  1.
         11   -1    0    0    0    0 -0.00000000000E+00 -0.00000000000E+00 -0.45593999997E+02  0.45594000000E+02  0.51100000000E-03 0. -1.
    9900012    2    1    2    0    0 -0.12177175773E+02 -0.17338403439E+02 -0.23828791728E+02  0.59302028808E+02  0.50000154619E+02 0.  0.
        -12    1    1    2    0    0  0.12177175773E+02  0.17338403439E+02  0.23828791728E+02  0.31885971192E+02  0.00000000000E+00 0.  1.
         11    1    3    3    0    0  0.11770143143E+02 -0.36118614573E+00 -0.94085707161E+01  0.15072754500E+02  0.51100000000E-03 0. -1.
        -11    1    3    3    0    0  0.69814187425E+01 -0.14832810182E+01 -0.14369162734E+01  0.72804573260E+01  0.51100000000E-03 0.  1.
        -12    1    3    3    0    0 -0.30928737658E+02 -0.15493936275E+02 -0.12983304738E+02  0.36948816982E+02  0.00000000000E+00 0.  1.
</event>
<event>
 7    1  0.7383168E-013  0.5930195E+02  0.7816164E-02  0.1266605E+00
        -11   -1    0    0    0    0  0.00000000000E+00  0.00000000000E+00  0.45593999997E+02  0.45594000000E+02  0.51100000000E-03 0. -1.
         11   -1    0    0    0    0 -0.00000000000E+00 -0.00000000000E+00 -0.45593999997E+02  0.45594000000E+02  0.51100000000E-03 0.  1.
    9900012    2    1    2    0    0  0.29800238252E+02  0.94175424674E+01  0.63226698566E+01  0.59301945679E+02  0.50000003012E+02 0.  0.
        -12    1    1    2    0    0 -0.29800238252E+02 -0.94175424674E+01 -0.63226698566E+01  0.31886054321E+02  0.00000000000E+00 0.  1.
         11    1    3    3    0    0  0.24546853921E+02  0.29315955685E+01 -0.56145633416E+01  0.25350850316E+02  0.51100000000E-03 0. -1.
        -11    1    3    3    0    0  0.15704010482E+02  0.90712351921E+01  0.35634239690E+00  0.18139190536E+02  0.51100000000E-03 0.  1.
         12    1    3    3    0    0 -0.10450626151E+02 -0.25852882932E+01  0.11580890801E+02  0.15811904827E+02  0.00000000000E+00 0. -1.
</event>
<event>
 7    1  0.7383168E-013  0.5930192E+02  0.7816164E-02  0.1266605E+00
        -11   -1    0    0    0    0  0.00000000000E+00  0.00000000000E+00  0.45593999997E+02  0.45594000000E+02  0.51100000000E-03 0.  1.
         11   -1    0    0    0    0 -0.00000000000E+00 -0.00000000000E+00 -0.45593999997E+02  0.45594000000E+02  0.51100000000E-03 0. -1.
    9900012    2    1    2    0    0 -0.21843282929E+02  0.18491546974E+02 -0.14059020803E+02  0.59301915503E+02  0.49999947977E+02 0.  0.
        -12    1    1    2    0    0  0.21843282929E+02 -0.18491546974E+02  0.14059020803E+02  0.31886084497E+02  0.00000000000E+00 0.  1.
         11    1    3    3    0    0 -0.16679605533E+01  0.40071477010E+00  0.43380667950E+01  0.46649210619E+01  0.51100000000E-03 0. -1.
        -11    1    3    3    0    0  0.12496014865E+02 -0.13088157032E+01 -0.91160017861E+01  0.15523043351E+02  0.51100000000E-03 0.  1.
         12    1    3    3    0    0 -0.32671337241E+02  0.19399647907E+02 -0.92810858120E+01  0.39113951090E+02  0.00000000000E+00 0. -1.
</event>
<event>
 7    1  0.7383168E-013  0.5930196E+02  0.7816164E-02  0.1266605E+00
        -11   -1    0    0    0    0  0.00000000000E+00  0.00000000000E+00  0.45593999997E+02  0.45594000000E+02  0.51100000000E-03 0.  1.
         11   -1    0    0    0    0 -0.00000000000E+00 -0.00000000000E+00 -0.45593999997E+02  0.45594000000E+02  0.51100000000E-03 0. -1.
    9900012    2    1    2    0    0  0.20160462602E-01 -0.21581406640E+02 -0.23472576230E+02  0.59301963027E+02  0.50000034650E+02 0.  0.
        -12    1    1    2    0    0 -0.20160462602E-01  0.21581406640E+02  0.23472576230E+02  0.31886036973E+02  0.00000000000E+00 0.  1.
         11    1    3    3    0    0  0.96483676469E+01  0.13030677667E+01 -0.31219304276E+01  0.10224257123E+02  0.51100000000E-03 0. -1.
        -11    1    3    3    0    0  0.10335635983E+01 -0.30064794069E+02 -0.20176652078E+02  0.36222332689E+02  0.51100000000E-03 0.  1.
        -12    1    3    3    0    0 -0.10661770783E+02  0.71803196625E+01 -0.17399372367E+00  0.12855373215E+02  0.00000000000E+00 0.  1.
</event>
<event>
 7    1  0.7383168E-013  0.5930206E+02  0.7816164E-02  0.1266604E+00
        -11   -1    0    0    0    0  0.00000000000E+00  0.00000000000E+00  0.45593999997E+02  0.45594000000E+02  0.51100000000E-03 0.  1.
         11   -1    0    0    0    0 -0.00000000000E+00 -0.00000000000E+00 -0.45593999997E+02  0.45594000000E+02  0.51100000000E-03 0. -1.
    9900012    2    1    2    0    0  0.15946382101E+02 -0.23945991545E+01 -0.27508030640E+02  0.59302063336E+02  0.50000217590E+02 0.  0.
        -12    1    1    2    0    0 -0.15946382101E+02  0.23945991545E+01  0.27508030640E+02  0.31885936664E+02  0.00000000000E+00 0.  1.
         11    1    3    3    0    0 -0.12821424052E+02  0.91013882522E+01  0.28644451095E+00  0.15725973215E+02  0.51100000000E-03 0. -1.
        -11    1    3    3    0    0  0.69640314028E+01 -0.20433722441E+01 -0.14816915837E+02  0.16498912045E+02  0.51100000000E-03 0.  1.
        -12    1    3    3    0    0  0.21803774751E+02 -0.94526151626E+01 -0.12977559314E+02  0.27077178076E+02  0.00000000000E+00 0.  1.
</event>
<event>
 7    1  0.7383168E-013  0.5930205E+02  0.7816164E-02  0.1266604E+00
        -11   -1    0    0    0    0  0.00000000000E+00  0.00000000000E+00  0.45593999997E+02  0.45594000000E+02  0.51100000000E-03 0. -1.
         11   -1    0    0    0    0 -0.00000000000E+00 -0.00000000000E+00 -0.45593999997E+02  0.45594000000E+02  0.51100000000E-03 0.  1.
    9900012    2    1    2    0    0  0.28497623875E+02  0.41837585283E+01  0.13678283490E+02  0.59302049471E+02  0.50000192302E+02 0.  0.
        -12    1    1    2    0    0 -0.28497623875E+02 -0.41837585283E+01 -0.13678283490E+02  0.31885950529E+02  0.00000000000E+00 0.  1.
         11    1    3    3    0    0  0.24871450906E+01  0.60509131625E+01  0.35887731925E+01  0.74618184172E+01  0.51100000000E-03 0. -1.
        -11    1    3    3    0    0 -0.57886506653E+01  0.86400403046E+01  0.14728707237E+02  0.18030351914E+02  0.51100000000E-03 0.  1.
         12    1    3    3    0    0  0.31799129449E+02 -0.10507194939E+02 -0.46391969396E+01  0.33809879140E+02  0.00000000000E+00 0. -1.
</event>
<event>
 7    1  0.7383168E-013  0.5930195E+02  0.7816164E-02  0.1266605E+00
        -11   -1    0    0    0    0  0.00000000000E+00  0.00000000000E+00  0.45593999997E+02  0.45594000000E+02  0.51100000000E-03 0. -1.
         11   -1    0    0    0    0 -0.00000000000E+00 -0.00000000000E+00 -0.45593999997E+02  0.45594000000E+02  0.51100000000E-03 0.  1.
    9900012    2    1    2    0    0  0.17794973878E+02 -0.53543817381E+01  0.25911187667E+02  0.59301950614E+02  0.50000012012E+02 0.  0.
        -12    1    1    2    0    0 -0.17794973878E+02  0.53543817381E+01 -0.25911187667E+02  0.31886049386E+02  0.00000000000E+00 0.  1.
         11    1    3    3    0    0 -0.10217024612E+02  0.12441300630E+01 -0.80257794600E+00  0.10323738817E+02  0.51100000000E-03 0. -1.
        -11    1    3    3    0    0  0.14632363375E+02 -0.18129043302E+02  0.16806400974E+02  0.28726701567E+02  0.51100000000E-03 0.  1.
         12    1    3    3    0    0  0.13379635115E+02  0.11530531501E+02  0.99073646397E+01  0.20251510230E+02  0.00000000000E+00 0. -1.
</event>
<event>
 7    1  0.7383168E-013  0.5930208E+02  0.7816164E-02  0.1266604E+00
        -11   -1    0    0    0    0  0.00000000000E+00  0.00000000000E+00  0.45593999997E+02  0.45594000000E+02  0.51100000000E-03 0.  1.
         11   -1    0    0    0    0 -0.00000000000E+00 -0.00000000000E+00 -0.45593999997E+02  0.45594000000E+02  0.51100000000E-03 0. -1.
    9900012    2    1    2    0    0  0.17814169056E+02  0.19362750967E+02 -0.18012534755E+02  0.59302075951E+02  0.50000240596E+02 0.  0.
        -12    1    1    2    0    0 -0.17814169056E+02 -0.19362750967E+02  0.18012534755E+02  0.31885924049E+02  0.00000000000E+00 0.  1.
         11    1    3    3    0    0  0.10839866395E+02  0.50850661574E+01 -0.20156478491E+02  0.23444492460E+02  0.51100000000E-03 0. -1.
        -11    1    3    3    0    0 -0.11592703718E+02 -0.66039421050E+00  0.30661871328E+01  0.12009513054E+02  0.51100000000E-03 0.  1.
         12    1    3    3    0    0  0.18567006379E+02  0.14938079020E+02 -0.92224339631E+00  0.23848070437E+02  0.00000000000E+00 0. -1.
</event>
<event>
 7    1  0.7383168E-013  0.5930194E+02  0.7816164E-02  0.1266605E+00
        -11   -1    0    0    0    0  0.00000000000E+00  0.00000000000E+00  0.45593999997E+02  0.45594000000E+02  0.51100000000E-03 0.  1.
         11   -1    0    0    0    0 -0.00000000000E+00 -0.00000000000E+00 -0.45593999997E+02  0.45594000000E+02  0.51100000000E-03 0. -1.
    9900012    2    1    2    0    0 -0.22593577398E+02  0.12069373061E+02 -0.18988979775E+02  0.59301939431E+02  0.49999991617E+02 0.  0.
        -12    1    1    2    0    0  0.22593577398E+02 -0.12069373061E+02  0.18988979775E+02  0.31886060569E+02  0.00000000000E+00 0.  1.
         11    1    3    3    0    0 -0.44263977179E+01  0.40071400991E+01 -0.30591870077E+01  0.67088593621E+01  0.51100000000E-03 0. -1.
        -11    1    3    3    0    0 -0.28413028252E+02  0.17809272133E+02 -0.34103700462E+01  0.33706096963E+02  0.51100000000E-03 0.  1.
        -12    1    3    3    0    0  0.10245848573E+02 -0.97470391711E+01 -0.12519422721E+02  0.18886983106E+02  0.00000000000E+00 0.  1.
</event>
<event>
 7    1  0.7383168E-013  0.5930194E+02  0.7816164E-02  0.1266605E+00
        -11   -1    0    0    0    0  0.00000000000E+00  0.00000000000E+00  0.45593999997E+02  0.45594000000E+02  0.51100000000E-03 0.  1.
         11   -1    0    0    0    0 -0.00000000000E+00 -0.00000000000E+00 -0.45593999997E+02  0.45594000000E+02  0.51100000000E-03 0. -1.
    9900012    2    1    2    0    0 -0.73928282338E+01 -0.31017050119E+02 -0.98417805104E-01  0.59301937317E+02  0.49999987761E+02 0.  0.
        -12    1    1    2    0    0  0.73928282338E+01  0.31017050119E+02  0.98417805104E-01  0.31886062683E+02  0.00000000000E+00 0.  1.
         11    1    3    3    0    0 -0.45178259067E+01 -0.24900097387E+00 -0.17016240786E+02  0.17607532568E+02  0.51100000000E-03 0. -1.
        -11    1    3    3    0    0  0.84839582149E+01 -0.19004369324E+02  0.48467015290E+01  0.21368998956E+02  0.51100000000E-03 0.  1.
        -12    1    3    3    0    0 -0.11358960542E+02 -0.11763679821E+02  0.12071121452E+02  0.20325405792E+02  0.00000000000E+00 0.  1.
</event>
<event>
 7    1  0.7383168E-013  0.5930178E+02  0.7816164E-02  0.1266605E+00
        -11   -1    0    0    0    0  0.00000000000E+00  0.00000000000E+00  0.45593999997E+02  0.45594000000E+02  0.51100000000E-03 0. -1.
         11   -1    0    0    0    0 -0.00000000000E+00 -0.00000000000E+00 -0.45593999997E+02  0.45594000000E+02  0.51100000000E-03 0.  1.
    9900012    2    1    2    0    0  0.26040384530E+00 -0.31704807976E+02  0.33864993220E+01  0.59301779832E+02  0.49999700545E+02 0.  0.
        -12    1    1    2    0    0 -0.26040384530E+00  0.31704807976E+02 -0.33864993220E+01  0.31886220168E+02  0.00000000000E+00 0.  1.
         11    1    3    3    0    0 -0.26484091685E+00  0.47984128342E+01 -0.28764096135E+01  0.56007712830E+01  0.51100000000E-03 0. -1.
        -11    1    3    3    0    0 -0.14757234474E+02 -0.26563813730E+01 -0.32982736053E+01  0.15352880523E+02  0.51100000000E-03 0.  1.
         12    1    3    3    0    0  0.15282479236E+02 -0.33846839437E+02  0.95611825409E+01  0.38348128026E+02  0.00000000000E+00 0. -1.
</event>
<event>
 7    1  0.7383168E-013  0.5930203E+02  0.7816164E-02  0.1266604E+00
        -11   -1    0    0    0    0  0.00000000000E+00  0.00000000000E+00  0.45593999997E+02  0.45594000000E+02  0.51100000000E-03 0.  1.
         11   -1    0    0    0    0 -0.00000000000E+00 -0.00000000000E+00 -0.45593999997E+02  0.45594000000E+02  0.51100000000E-03 0. -1.
    9900012    2    1    2    0    0 -0.31303263629E+02  0.58170566841E+01 -0.17269614302E+01  0.59302033525E+02  0.50000163221E+02 0.  0.
        -12    1    1    2    0    0  0.31303263629E+02 -0.58170566841E+01  0.17269614302E+01  0.31885966475E+02  0.00000000000E+00 0.  1.
         11    1    3    3    0    0  0.46559436329E+01  0.16059407390E+02 -0.93408301034E+01  0.19152897539E+02  0.51100000000E-03 0. -1.
        -11    1    3    3    0    0 -0.17617759348E+01 -0.54550833722E+00  0.40192499980E+01  0.44221945455E+01  0.51100000000E-03 0.  1.
         12    1    3    3    0    0 -0.34197431327E+02 -0.96968423691E+01  0.35946186752E+01  0.35726941441E+02  0.00000000000E+00 0. -1.
</event>
<event>
 7    1  0.7383168E-013  0.5930196E+02  0.7816164E-02  0.1266605E+00
        -11   -1    0    0    0    0  0.00000000000E+00  0.00000000000E+00  0.45593999997E+02  0.45594000000E+02  0.51100000000E-03 0. -1.
         11   -1    0    0    0    0 -0.00000000000E+00 -0.00000000000E+00 -0.45593999997E+02  0.45594000000E+02  0.51100000000E-03 0.  1.
    9900012    2    1    2    0    0  0.98088840863E+01 -0.18868873770E+02  0.23758591866E+02  0.59301964000E+02  0.50000036425E+02 0.  0.
        -12    1    1    2    0    0 -0.98088840863E+01  0.18868873770E+02 -0.23758591866E+02  0.31886036000E+02  0.00000000000E+00 0.  1.
         11    1    3    3    0    0  0.12762684778E+02 -0.27967641921E+01  0.30082906665E+02  0.32797702456E+02  0.51100000000E-03 0. -1.
        -11    1    3    3    0    0  0.36062536667E+01  0.31338668601E+01 -0.36938345431E+01  0.60390894096E+01  0.51100000000E-03 0.  1.
        -12    1    3    3    0    0 -0.65600543583E+01 -0.19205976438E+02 -0.26304802567E+01  0.20465172134E+02  0.00000000000E+00 0.  1.
</event>
<event>
 7    1  0.7383168E-013  0.5930196E+02  0.7816164E-02  0.1266605E+00
        -11   -1    0    0    0    0  0.00000000000E+00  0.00000000000E+00  0.45593999997E+02  0.45594000000E+02  0.51100000000E-03 0.  1.
         11   -1    0    0    0    0 -0.00000000000E+00 -0.00000000000E+00 -0.45593999997E+02  0.45594000000E+02  0.51100000000E-03 0. -1.
    9900012    2    1    2    0    0 -0.52517517457E+01 -0.18941006142E+01 -0.31393485320E+02  0.59301961769E+02  0.50000032356E+02 0.  0.
        -12    1    1    2    0    0  0.52517517457E+01  0.18941006142E+01  0.31393485320E+02  0.31886038231E+02  0.00000000000E+00 0.  1.
         11    1    3    3    0    0  0.21787209768E+01 -0.86537377484E+01  0.26907674295E+01  0.93206347280E+01  0.51100000000E-03 0. -1.
        -11    1    3    3    0    0 -0.24498822553E+01  0.13177517850E+02  0.14949805096E+01  0.13486432691E+02  0.51100000000E-03 0.  1.
         12    1    3    3    0    0 -0.49805904672E+01 -0.64178807160E+01 -0.35579233259E+02  0.36494894350E+02  0.00000000000E+00 0. -1.
</event>
<event>
 7    1  0.7383168E-013  0.5930195E+02  0.7816164E-02  0.1266605E+00
        -11   -1    0    0    0    0  0.00000000000E+00  0.00000000000E+00  0.45593999997E+02  0.45594000000E+02  0.51100000000E-03 0.  1.
         11   -1    0    0    0    0 -0.00000000000E+00 -0.00000000000E+00 -0.45593999997E+02  0.45594000000E+02  0.51100000000E-03 0. -1.
    9900012    2    1    2    0    0 -0.19928154028E+02 -0.13745249917E+02  0.20752269727E+02  0.59301954195E+02  0.50000018542E+02 0.  0.
        -12    1    1    2    0    0  0.19928154028E+02  0.13745249917E+02 -0.20752269727E+02  0.31886045805E+02  0.00000000000E+00 0.  1.
         11    1    3    3    0    0 -0.57921376419E+01  0.36165377020E+01  0.71847808977E+00  0.68661790276E+01  0.51100000000E-03 0. -1.
        -11    1    3    3    0    0 -0.18786713531E+02  0.24929970103E+01 -0.55235276333E+01  0.19739934072E+02  0.51100000000E-03 0.  1.
        -12    1    3    3    0    0  0.46506971447E+01 -0.19854784630E+02  0.25557319271E+02  0.32695841095E+02  0.00000000000E+00 0.  1.
</event>
<event>
 7    1  0.7383168E-013  0.5930194E+02  0.7816164E-02  0.1266605E+00
        -11   -1    0    0    0    0  0.00000000000E+00  0.00000000000E+00  0.45593999997E+02  0.45594000000E+02  0.51100000000E-03 0. -1.
         11   -1    0    0    0    0 -0.00000000000E+00 -0.00000000000E+00 -0.45593999997E+02  0.45594000000E+02  0.51100000000E-03 0.  1.
    9900012    2    1    2    0    0  0.65101123153E+01 -0.24868715414E+02  0.18864940771E+02  0.59301944129E+02  0.50000000186E+02 0.  0.
        -12    1    1    2    0    0 -0.65101123153E+01  0.24868715414E+02 -0.18864940771E+02  0.31886055871E+02  0.00000000000E+00 0.  1.
         11    1    3    3    0    0  0.74139232057E+01 -0.93150322940E+01  0.15192850567E+02  0.19301782108E+02  0.51100000000E-03 0. -1.
        -11    1    3    3    0    0 -0.73293200694E+00  0.14470501278E+01  0.17812801573E+02  0.17886504509E+02  0.51100000000E-03 0.  1.
        -12    1    3    3    0    0 -0.17087888345E+00 -0.17000733248E+02 -0.14140711369E+02  0.22113657513E+02  0.00000000000E+00 0.  1.
</event>
<event>
 7    1  0.7383168E-013  0.5930202E+02  0.7816164E-02  0.1266604E+00
        -11   -1    0    0    0    0  0.00000000000E+00  0.00000000000E+00  0.45593999997E+02  0.45594000000E+02  0.51100000000E-03 0.  1.
         11   -1    0    0    0    0 -0.00000000000E+00 -0.00000000000E+00 -0.45593999997E+02  0.45594000000E+02  0.51100000000E-03 0. -1.
    9900012    2    1    2    0    0 -0.11357754309E+02  0.18798748519E+02 -0.23115448982E+02  0.59302023294E+02  0.50000144563E+02 0.  0.
        -12    1    1    2    0    0  0.11357754309E+02 -0.18798748519E+02  0.23115448982E+02  0.31885976706E+02  0.00000000000E+00 0.  1.
         11    1    3    3    0    0 -0.11530832094E+02  0.56042695707E+01 -0.11875009906E+02  0.17475233524E+02  0.51100000000E-03 0.  1.
        -11    1    3    3    0    0 -0.95025533409E+01 -0.92568826986E+01 -0.11227213495E+02  0.17379261216E+02  0.51100000000E-03 0. -1.
        -12    1    3    3    0    0  0.96756311251E+01  0.22451361647E+02 -0.13225581285E-01  0.24447528554E+02  0.00000000000E+00 0.  1.
</event>
<event>
 7    1  0.7383168E-013  0.5930198E+02  0.7816164E-02  0.1266605E+00
        -11   -1    0    0    0    0  0.00000000000E+00  0.00000000000E+00  0.45593999997E+02  0.45594000000E+02  0.51100000000E-03 0.  1.
         11   -1    0    0    0    0 -0.00000000000E+00 -0.00000000000E+00 -0.45593999997E+02  0.45594000000E+02  0.51100000000E-03 0. -1.
    9900012    2    1    2    0    0 -0.18904463087E+02  0.25570035782E+02  0.23479299063E+01  0.59301980660E+02  0.50000066808E+02 0.  0.
        -12    1    1    2    0    0  0.18904463087E+02 -0.25570035782E+02 -0.23479299063E+01  0.31886019340E+02  0.00000000000E+00 0.  1.
         11    1    3    3    0    0 -0.25220026740E+02  0.70798730356E+01  0.43690823658E+01  0.26556792577E+02  0.51100000000E-03 0. -1.
        -11    1    3    3    0    0  0.39735260291E+00  0.19829004511E+01  0.10821792352E+02  0.11009131358E+02  0.51100000000E-03 0.  1.
        -12    1    3    3    0    0  0.59182110507E+01  0.16507262296E+02 -0.12842944811E+02  0.21736056725E+02  0.00000000000E+00 0.  1.
</event>
<event>
 7    1  0.7383168E-013  0.5930207E+02  0.7816164E-02  0.1266604E+00
        -11   -1    0    0    0    0  0.00000000000E+00  0.00000000000E+00  0.45593999997E+02  0.45594000000E+02  0.51100000000E-03 0. -1.
         11   -1    0    0    0    0 -0.00000000000E+00 -0.00000000000E+00 -0.45593999997E+02  0.45594000000E+02  0.51100000000E-03 0.  1.
    9900012    2    1    2    0    0 -0.14466942528E+02  0.26407661843E+02  0.10490735944E+02  0.59302069392E+02  0.50000228633E+02 0.  0.
        -12    1    1    2    0    0  0.14466942528E+02 -0.26407661843E+02 -0.10490735944E+02  0.31885930608E+02  0.00000000000E+00 0.  1.
         11    1    3    3    0    0  0.60150599265E+01  0.34431462419E+01  0.18444735695E+02  0.19703920348E+02  0.51100000000E-03 0. -1.
        -11    1    3    3    0    0 -0.10680412651E+02 -0.76401329552E+00  0.38002273176E+01  0.11362071054E+02  0.51100000000E-03 0.  1.
        -12    1    3    3    0    0 -0.98015898035E+01  0.23728528897E+02 -0.11754227069E+02  0.28236077990E+02  0.00000000000E+00 0.  1.
</event>
<event>
 7    1  0.7383168E-013  0.5930194E+02  0.7816164E-02  0.1266605E+00
        -11   -1    0    0    0    0  0.00000000000E+00  0.00000000000E+00  0.45593999997E+02  0.45594000000E+02  0.51100000000E-03 0. -1.
         11   -1    0    0    0    0 -0.00000000000E+00 -0.00000000000E+00 -0.45593999997E+02  0.45594000000E+02  0.51100000000E-03 0.  1.
    9900012    2    1    2    0    0 -0.20539577411E+02 -0.24350748347E+02 -0.13738111873E+01  0.59301944388E+02  0.50000000658E+02 0.  0.
        -12    1    1    2    0    0  0.20539577411E+02  0.24350748347E+02  0.13738111873E+01  0.31886055612E+02  0.00000000000E+00 0.  1.
         11    1    3    3    0    0  0.48869947201E+01 -0.14700784120E+02  0.10247964207E+02  0.18574620906E+02  0.51100000000E-03 0. -1.
        -11    1    3    3    0    0 -0.18763200173E+02 -0.22756411142E+01  0.65596851267E+01  0.20006641208E+02  0.51100000000E-03 0.  1.
         12    1    3    3    0    0 -0.66633719580E+01 -0.73743231129E+01 -0.18181460521E+02  0.20720682274E+02  0.00000000000E+00 0. -1.
</event>
<event>
 7    1  0.7383168E-013  0.5930193E+02  0.7816164E-02  0.1266605E+00
        -11   -1    0    0    0    0  0.00000000000E+00  0.00000000000E+00  0.45593999997E+02  0.45594000000E+02  0.51100000000E-03 0. -1.
         11   -1    0    0    0    0 -0.00000000000E+00 -0.00000000000E+00 -0.45593999997E+02  0.45594000000E+02  0.51100000000E-03 0.  1.
    9900012    2    1    2    0    0 -0.26847472195E+02  0.75861115098E+01  0.15439746158E+02  0.59301927609E+02  0.49999970055E+02 0.  0.
        -12    1    1    2    0    0  0.26847472195E+02 -0.75861115098E+01 -0.15439746158E+02  0.31886072391E+02  0.00000000000E+00 0.  1.
         11    1    3    3    0    0  0.11196305735E+02  0.94071280511E+01  0.49018813918E+01  0.15423351183E+02  0.51100000000E-03 0.  1.
        -11    1    3    3    0    0 -0.19231403418E+02  0.36547586114E+01  0.13887260133E+02  0.24001252721E+02  0.51100000000E-03 0. -1.
        -12    1    3    3    0    0 -0.18812374512E+02 -0.54757751527E+01 -0.33493953660E+01  0.19877323704E+02  0.00000000000E+00 0.  1.
</event>
<event>
 7    1  0.7383168E-013  0.5930193E+02  0.7816164E-02  0.1266605E+00
        -11   -1    0    0    0    0  0.00000000000E+00  0.00000000000E+00  0.45593999997E+02  0.45594000000E+02  0.51100000000E-03 0. -1.
         11   -1    0    0    0    0 -0.00000000000E+00 -0.00000000000E+00 -0.45593999997E+02  0.45594000000E+02  0.51100000000E-03 0.  1.
    9900012    2    1    2    0    0  0.16460757220E+01  0.16534916357E+02  0.27214116809E+02  0.59301934424E+02  0.49999982485E+02 0.  0.
        -12    1    1    2    0    0 -0.16460757220E+01 -0.16534916357E+02 -0.27214116809E+02  0.31886065576E+02  0.00000000000E+00 0.  1.
         11    1    3    3    0    0 -0.67757857613E+01  0.10749925041E+02 -0.92270026037E+01  0.15703812861E+02  0.51100000000E-03 0. -1.
        -11    1    3    3    0    0  0.34119261163E+00  0.64880849766E+01  0.24218064524E+00  0.65015621806E+01  0.51100000000E-03 0.  1.
         12    1    3    3    0    0  0.80806688717E+01 -0.70309366048E+00  0.36198938768E+02  0.37096559382E+02  0.00000000000E+00 0. -1.
</event>
<event>
 7    1  0.7383168E-013  0.5930194E+02  0.7816164E-02  0.1266605E+00
        -11   -1    0    0    0    0  0.00000000000E+00  0.00000000000E+00  0.45593999997E+02  0.45594000000E+02  0.51100000000E-03 0.  1.
         11   -1    0    0    0    0 -0.00000000000E+00 -0.00000000000E+00 -0.45593999997E+02  0.45594000000E+02  0.51100000000E-03 0. -1.
    9900012    2    1    2    0    0 -0.52426623681E+01  0.28111931983E-01 -0.31452095060E+02  0.59301943758E+02  0.49999999508E+02 0.  0.
        -12    1    1    2    0    0  0.52426623681E+01 -0.28111931983E-01  0.31452095060E+02  0.31886056242E+02  0.00000000000E+00 0.  1.
         11    1    3    3    0    0 -0.74054302554E+00  0.18734256245E+01 -0.19366431252E+01  0.27944077009E+01  0.51100000000E-03 0.  1.
        -11    1    3    3    0    0 -0.13397324774E+02  0.19994250044E+02 -0.10698331241E+02  0.26338425114E+02  0.51100000000E-03 0. -1.
        -12    1    3    3    0    0  0.88952054313E+01 -0.21839563736E+02 -0.18817120694E+02  0.30169110943E+02  0.00000000000E+00 0.  1.
</event>
<event>
 7    1  0.7383168E-013  0.5930196E+02  0.7816164E-02  0.1266605E+00
        -11   -1    0    0    0    0  0.00000000000E+00  0.00000000000E+00  0.45593999997E+02  0.45594000000E+02  0.51100000000E-03 0. -1.
         11   -1    0    0    0    0 -0.00000000000E+00 -0.00000000000E+00 -0.45593999997E+02  0.45594000000E+02  0.51100000000E-03 0.  1.
    9900012    2    1    2    0    0  0.22841286144E+02 -0.20994750412E+02 -0.73631482844E+01  0.59301955243E+02  0.50000020454E+02 0.  0.
        -12    1    1    2    0    0 -0.22841286144E+02  0.20994750412E+02  0.73631482844E+01  0.31886044757E+02  0.00000000000E+00 0.  1.
         11    1    3    3    0    0 -0.10229040338E+02 -0.25187260804E+01 -0.18178830406E+01  0.10690273444E+02  0.51100000000E-03 0. -1.
        -11    1    3    3    0    0 -0.32020776572E+01 -0.89972721899E+01 -0.56982963490E+01  0.11120916766E+02  0.51100000000E-03 0.  1.
         12    1    3    3    0    0  0.36272404139E+02 -0.94787521418E+01  0.15303110518E+00  0.37490765033E+02  0.00000000000E+00 0. -1.
</event>
<event>
 7    1  0.7383168E-013  0.5930194E+02  0.7816164E-02  0.1266605E+00
        -11   -1    0    0    0    0  0.00000000000E+00  0.00000000000E+00  0.45593999997E+02  0.45594000000E+02  0.51100000000E-03 0.  1.
         11   -1    0    0    0    0 -0.00000000000E+00 -0.00000000000E+00 -0.45593999997E+02  0.45594000000E+02  0.51100000000E-03 0. -1.
    9900012    2    1    2    0    0  0.77497958444E+01  0.30603332801E+02  0.44830058544E+01  0.59301942613E+02  0.49999997421E+02 0.  0.
        -12    1    1    2    0    0 -0.77497958444E+01 -0.30603332801E+02 -0.44830058544E+01  0.31886057387E+02  0.00000000000E+00 0.  1.
         11    1    3    3    0    0 -0.37232896755E+00  0.16275327179E+02 -0.91623902597E+01  0.18680853813E+02  0.51100000000E-03 0. -1.
        -11    1    3    3    0    0  0.17892524792E+01  0.25419113930E+02  0.94515527539E+01  0.27178385293E+02  0.51100000000E-03 0.  1.
        -12    1    3    3    0    0  0.63328723327E+01 -0.11091108307E+02  0.41938433602E+01  0.13442703508E+02  0.00000000000E+00 0.  1.
</event>
<event>
 7    1  0.7383168E-013  0.5930195E+02  0.7816164E-02  0.1266605E+00
        -11   -1    0    0    0    0  0.00000000000E+00  0.00000000000E+00  0.45593999997E+02  0.45594000000E+02  0.51100000000E-03 0.  1.
         11   -1    0    0    0    0 -0.00000000000E+00 -0.00000000000E+00 -0.45593999997E+02  0.45594000000E+02  0.51100000000E-03 0. -1.
    9900012    2    1    2    0    0  0.20959768376E+02  0.23979812294E+02  0.15416887430E+01  0.59301951449E+02  0.50000013534E+02 0.  0.
        -12    1    1    2    0    0 -0.20959768376E+02 -0.23979812294E+02 -0.15416887430E+01  0.31886048551E+02  0.00000000000E+00 0.  1.
         11    1    3    3    0    0 -0.11512144442E+02  0.94356312292E+01 -0.67952068961E+01  0.16362623364E+02  0.51100000000E-03 0. -1.
        -11    1    3    3    0    0  0.53292004084E+01  0.66973095808E+01  0.11688446393E+02  0.14487032545E+02  0.51100000000E-03 0.  1.
         12    1    3    3    0    0  0.27142712409E+02  0.78468714845E+01 -0.33515507540E+01  0.28452295539E+02  0.00000000000E+00 0. -1.
</event>
<event>
 7    1  0.7383168E-013  0.5930194E+02  0.7816164E-02  0.1266605E+00
        -11   -1    0    0    0    0  0.00000000000E+00  0.00000000000E+00  0.45593999997E+02  0.45594000000E+02  0.51100000000E-03 0.  1.
         11   -1    0    0    0    0 -0.00000000000E+00 -0.00000000000E+00 -0.45593999997E+02  0.45594000000E+02  0.51100000000E-03 0. -1.
    9900012    2    1    2    0    0  0.24200045083E+01  0.21568868195E+02  0.23359115847E+02  0.59301940504E+02  0.49999993573E+02 0.  0.
        -12    1    1    2    0    0 -0.24200045083E+01 -0.21568868195E+02 -0.23359115847E+02  0.31886059496E+02  0.00000000000E+00 0.  1.
         11    1    3    3    0    0 -0.56938660937E+01  0.26284525830E+02  0.17813671872E+02  0.32258693635E+02  0.51100000000E-03 0. -1.
        -11    1    3    3    0    0  0.19021987698E+01  0.79128796753E+01  0.94175127204E+01  0.12446749416E+02  0.51100000000E-03 0.  1.
        -12    1    3    3    0    0  0.62116718322E+01 -0.12628537310E+02 -0.38720687455E+01  0.14596497453E+02  0.00000000000E+00 0.  1.
</event>
<event>
 7    1  0.7383168E-013  0.5930190E+02  0.7816164E-02  0.1266605E+00
        -11   -1    0    0    0    0  0.00000000000E+00  0.00000000000E+00  0.45593999997E+02  0.45594000000E+02  0.51100000000E-03 0. -1.
         11   -1    0    0    0    0 -0.00000000000E+00 -0.00000000000E+00 -0.45593999997E+02  0.45594000000E+02  0.51100000000E-03 0.  1.
    9900012    2    1    2    0    0 -0.29893466488E+02 -0.85509436160E+01  0.70700168718E+01  0.59301904065E+02  0.49999927118E+02 0.  0.
        -12    1    1    2    0    0  0.29893466488E+02  0.85509436160E+01 -0.70700168718E+01  0.31886095935E+02  0.00000000000E+00 0.  1.
         11    1    3    3    0    0 -0.30892636951E+02  0.49410521536E+01 -0.12138144629E+02  0.33557466673E+02  0.51100000000E-03 0.  1.
        -11    1    3    3    0    0  0.37717866671E+01 -0.68057440646E+00  0.28169874712E+01  0.47565717549E+01  0.51100000000E-03 0. -1.
        -12    1    3    3    0    0 -0.27726162041E+01 -0.12811421363E+02  0.16391174030E+02  0.20987865638E+02  0.00000000000E+00 0.  1.
</event>
<event>
 7    1  0.7383168E-013  0.5930185E+02  0.7816164E-02  0.1266605E+00
        -11   -1    0    0    0    0  0.00000000000E+00  0.00000000000E+00  0.45593999997E+02  0.45594000000E+02  0.51100000000E-03 0. -1.
         11   -1    0    0    0    0 -0.00000000000E+00 -0.00000000000E+00 -0.45593999997E+02  0.45594000000E+02  0.51100000000E-03 0.  1.
    9900012    2    1    2    0    0  0.58482424699E+01 -0.31235421173E+02 -0.26216133329E+01  0.59301853599E+02  0.49999835079E+02 0.  0.
        -12    1    1    2    0    0 -0.58482424699E+01  0.31235421173E+02  0.26216133329E+01  0.31886146401E+02  0.00000000000E+00 0.  1.
         11    1    3    3    0    0  0.14194874401E+02 -0.40715434229E+01  0.78719665323E+01  0.16734389216E+02  0.51100000000E-03 0. -1.
        -11    1    3    3    0    0  0.83536515084E+01 -0.28236881260E+01 -0.96002696186E+01  0.13035408899E+02  0.51100000000E-03 0.  1.
         12    1    3    3    0    0 -0.16700283439E+02 -0.24340189624E+02 -0.89331024664E+00  0.29532055484E+02  0.00000000000E+00 0. -1.
</event>
<event>
 7    1  0.7383168E-013  0.5930192E+02  0.7816164E-02  0.1266605E+00
        -11   -1    0    0    0    0  0.00000000000E+00  0.00000000000E+00  0.45593999997E+02  0.45594000000E+02  0.51100000000E-03 0.  1.
         11   -1    0    0    0    0 -0.00000000000E+00 -0.00000000000E+00 -0.45593999997E+02  0.45594000000E+02  0.51100000000E-03 0. -1.
    9900012    2    1    2    0    0  0.13107239423E+02 -0.99810106290E+01 -0.27300212543E+02  0.59301923048E+02  0.49999961739E+02 0.  0.
        -12    1    1    2    0    0 -0.13107239423E+02  0.99810106290E+01  0.27300212543E+02  0.31886076952E+02  0.00000000000E+00 0.  1.
         11    1    3    3    0    0 -0.99195408924E+01 -0.50022446591E+01 -0.12501973979E+02  0.16724804835E+02  0.51100000000E-03 0. -1.
        -11    1    3    3    0    0  0.88500062782E+01 -0.17966236506E+02 -0.36661114695E+01  0.20360467550E+02  0.51100000000E-03 0.  1.
         12    1    3    3    0    0  0.14176774037E+02  0.12987470536E+02 -0.11132127095E+02  0.22216650663E+02  0.00000000000E+00 0. -1.
</event>
<event>
 7    1  0.7383168E-013  0.5930195E+02  0.7816164E-02  0.1266605E+00
        -11   -1    0    0    0    0  0.00000000000E+00  0.00000000000E+00  0.45593999997E+02  0.45594000000E+02  0.51100000000E-03 0. -1.
         11   -1    0    0    0    0 -0.00000000000E+00 -0.00000000000E+00 -0.45593999997E+02  0.45594000000E+02  0.51100000000E-03 0.  1.
    9900012    2    1    2    0    0 -0.93956214561E+01  0.22049967359E+02  0.21029531719E+02  0.59301953406E+02  0.50000017104E+02 0.  0.
        -12    1    1    2    0    0  0.93956214561E+01 -0.22049967359E+02 -0.21029531719E+02  0.31886046594E+02  0.00000000000E+00 0.  1.
         11    1    3    3    0    0 -0.77925059782E+01  0.30888823831E+02  0.10093145802E+02  0.33417273670E+02  0.51100000000E-03 0. -1.
        -11    1    3    3    0    0  0.17690219341E+01  0.69993502355E+01  0.26146939020E+01  0.76783440132E+01  0.51100000000E-03 0.  1.
        -12    1    3    3    0    0 -0.33721374120E+01 -0.15838206708E+02  0.83216920146E+01  0.18206335722E+02  0.00000000000E+00 0.  1.
</event>
<event>
 7    1  0.7383168E-013  0.5930195E+02  0.7816164E-02  0.1266605E+00
        -11   -1    0    0    0    0  0.00000000000E+00  0.00000000000E+00  0.45593999997E+02  0.45594000000E+02  0.51100000000E-03 0.  1.
         11   -1    0    0    0    0 -0.00000000000E+00 -0.00000000000E+00 -0.45593999997E+02  0.45594000000E+02  0.51100000000E-03 0. -1.
    9900012    2    1    2    0    0  0.26167800429E+02  0.14036983523E+01 -0.18165795074E+02  0.59301948833E+02  0.50000008764E+02 0.  0.
        -12    1    1    2    0    0 -0.26167800429E+02 -0.14036983523E+01  0.18165795074E+02  0.31886051167E+02  0.00000000000E+00 0.  1.
         11    1    3    3    0    0  0.31523248851E+01  0.13781460515E+02 -0.40038131610E+01  0.14693410979E+02  0.51100000000E-03 0. -1.
        -11    1    3    3    0    0  0.30355615840E+02 -0.36593739595E+01 -0.77933359977E+01  0.31552979527E+02  0.51100000000E-03 0.  1.
         12    1    3    3    0    0 -0.73401402961E+01 -0.87183882034E+01 -0.63686459157E+01  0.13055558327E+02  0.00000000000E+00 0. -1.
</event>
<event>
 7    1  0.7383168E-013  0.5930195E+02  0.7816164E-02  0.1266605E+00
        -11   -1    0    0    0    0  0.00000000000E+00  0.00000000000E+00  0.45593999997E+02  0.45594000000E+02  0.51100000000E-03 0. -1.
         11   -1    0    0    0    0 -0.00000000000E+00 -0.00000000000E+00 -0.45593999997E+02  0.45594000000E+02  0.51100000000E-03 0.  1.
    9900012    2    1    2    0    0  0.74047339812E+01 -0.22106727858E+02  0.21752760604E+02  0.59301951392E+02  0.50000013431E+02 0.  0.
        -12    1    1    2    0    0 -0.74047339812E+01  0.22106727858E+02 -0.21752760604E+02  0.31886048608E+02  0.00000000000E+00 0.  1.
         11    1    3    3    0    0 -0.10896290287E+02 -0.75837841375E+01 -0.22937086952E+01  0.13472342918E+02  0.51100000000E-03 0. -1.
        -11    1    3    3    0    0 -0.10514609054E+01  0.86966801911E+01  0.61290282308E+01  0.10691248931E+02  0.51100000000E-03 0.  1.
        -12    1    3    3    0    0  0.19352485173E+02 -0.23219623912E+02  0.17917441069E+02  0.35138359544E+02  0.00000000000E+00 0.  1.
</event>
<event>
 7    1  0.7383168E-013  0.5930172E+02  0.7816164E-02  0.1266606E+00
        -11   -1    0    0    0    0  0.00000000000E+00  0.00000000000E+00  0.45593999997E+02  0.45594000000E+02  0.51100000000E-03 0.  1.
         11   -1    0    0    0    0 -0.00000000000E+00 -0.00000000000E+00 -0.45593999997E+02  0.45594000000E+02  0.51100000000E-03 0. -1.
    9900012    2    1    2    0    0 -0.99734402101E+01 -0.21550356078E+02 -0.21280208418E+02  0.59301723532E+02  0.49999597867E+02 0.  0.
        -12    1    1    2    0    0  0.99734402101E+01  0.21550356078E+02  0.21280208418E+02  0.31886276468E+02  0.00000000000E+00 0.  1.
         11    1    3    3    0    0  0.56581402223E+01 -0.27173505952E+02 -0.62222443131E+01  0.28445215785E+02  0.51100000000E-03 0. -1.
        -11    1    3    3    0    0 -0.39544468577E+01 -0.72865258172E+01 -0.94432485164E+01  0.12566067453E+02  0.51100000000E-03 0.  1.
        -12    1    3    3    0    0 -0.11677133575E+02  0.12909675692E+02 -0.56147155885E+01  0.18290440293E+02  0.00000000000E+00 0.  1.
</event>
<event>
 7    1  0.7383168E-013  0.5930192E+02  0.7816164E-02  0.1266605E+00
        -11   -1    0    0    0    0  0.00000000000E+00  0.00000000000E+00  0.45593999997E+02  0.45594000000E+02  0.51100000000E-03 0. -1.
         11   -1    0    0    0    0 -0.00000000000E+00 -0.00000000000E+00 -0.45593999997E+02  0.45594000000E+02  0.51100000000E-03 0.  1.
    9900012    2    1    2    0    0 -0.11520817419E+02 -0.23076234780E+02  0.18747811225E+02  0.59301917278E+02  0.49999951215E+02 0.  0.
        -12    1    1    2    0    0  0.11520817419E+02  0.23076234780E+02 -0.18747811225E+02  0.31886082722E+02  0.00000000000E+00 0.  1.
         11    1    3    3    0    0  0.68084108533E+00 -0.30599622267E+02  0.83667051172E+01  0.31730146269E+02  0.51100000000E-03 0. -1.
        -11    1    3    3    0    0  0.49426652557E+00 -0.23765073059E+01 -0.48409217305E+01  0.54154048635E+01  0.51100000000E-03 0.  1.
         12    1    3    3    0    0 -0.12695925030E+02  0.98998947930E+01  0.15222027838E+02  0.22156366146E+02  0.00000000000E+00 0. -1.
</event>
<event>
 7    1  0.7383168E-013  0.5930191E+02  0.7816164E-02  0.1266605E+00
        -11   -1    0    0    0    0  0.00000000000E+00  0.00000000000E+00  0.45593999997E+02  0.45594000000E+02  0.51100000000E-03 0.  1.
         11   -1    0    0    0    0 -0.00000000000E+00 -0.00000000000E+00 -0.45593999997E+02  0.45594000000E+02  0.51100000000E-03 0. -1.
    9900012    2    1    2    0    0  0.17371843688E+02  0.24478621616E+02  0.10758186427E+02  0.59301914562E+02  0.49999946262E+02 0.  0.
        -12    1    1    2    0    0 -0.17371843688E+02 -0.24478621616E+02 -0.10758186427E+02  0.31886085438E+02  0.00000000000E+00 0.  1.
         11    1    3    3    0    0  0.44126581757E+01  0.25249934045E+02 -0.45491858660E+01  0.26033167571E+02  0.51100000000E-03 0. -1.
        -11    1    3    3    0    0  0.88697278080E+01  0.93230351282E+01  0.17926534978E+02  0.22066982394E+02  0.51100000000E-03 0.  1.
        -12    1    3    3    0    0  0.40894577044E+01 -0.10094347558E+02 -0.26191626853E+01  0.11201764598E+02  0.00000000000E+00 0.  1.
</event>
<event>
 7    1  0.7383168E-013  0.5930194E+02  0.7816164E-02  0.1266605E+00
        -11   -1    0    0    0    0  0.00000000000E+00  0.00000000000E+00  0.45593999997E+02  0.45594000000E+02  0.51100000000E-03 0. -1.
         11   -1    0    0    0    0 -0.00000000000E+00 -0.00000000000E+00 -0.45593999997E+02  0.45594000000E+02  0.51100000000E-03 0.  1.
    9900012    2    1    2    0    0  0.19805278584E+02  0.23239550254E+02 -0.91866845853E+01  0.59301938320E+02  0.49999989590E+02 0.  0.
        -12    1    1    2    0    0 -0.19805278584E+02 -0.23239550254E+02  0.91866845853E+01  0.31886061680E+02  0.00000000000E+00 0.  1.
         11    1    3    3    0    0  0.50452818996E+01  0.10960587069E+02 -0.37475280067E+01  0.12634607424E+02  0.51100000000E-03 0. -1.
        -11    1    3    3    0    0  0.24826762858E+02  0.21325630129E+02 -0.51396549063E+01  0.33129544325E+02  0.51100000000E-03 0.  1.
         12    1    3    3    0    0 -0.10066766173E+02 -0.90466669437E+01 -0.29950167228E+00  0.13537786570E+02  0.00000000000E+00 0. -1.
</event>
<event>
 7    1  0.7383168E-013  0.5930197E+02  0.7816164E-02  0.1266605E+00
        -11   -1    0    0    0    0  0.00000000000E+00  0.00000000000E+00  0.45593999997E+02  0.45594000000E+02  0.51100000000E-03 0.  1.
         11   -1    0    0    0    0 -0.00000000000E+00 -0.00000000000E+00 -0.45593999997E+02  0.45594000000E+02  0.51100000000E-03 0. -1.
    9900012    2    1    2    0    0  0.25954655585E+02 -0.37774745265E+01 -0.18132996994E+02  0.59301967943E+02  0.50000043616E+02 0.  0.
        -12    1    1    2    0    0 -0.25954655585E+02  0.37774745265E+01  0.18132996994E+02  0.31886032057E+02  0.00000000000E+00 0.  1.
         11    1    3    3    0    0  0.46692984605E+01  0.86219506237E+01  0.93192720088E+00  0.98493080590E+01  0.51100000000E-03 0. -1.
        -11    1    3    3    0    0  0.30576450417E+02 -0.53556032488E+01 -0.54314031537E+01  0.31513520063E+02  0.51100000000E-03 0.  1.
         12    1    3    3    0    0 -0.92910932924E+01 -0.70438219015E+01 -0.13633521041E+02  0.17939139821E+02  0.00000000000E+00 0. -1.
</event>
<event>
 7    1  0.7383168E-013  0.5930193E+02  0.7816164E-02  0.1266605E+00
        -11   -1    0    0    0    0  0.00000000000E+00  0.00000000000E+00  0.45593999997E+02  0.45594000000E+02  0.51100000000E-03 0.  1.
         11   -1    0    0    0    0 -0.00000000000E+00 -0.00000000000E+00 -0.45593999997E+02  0.45594000000E+02  0.51100000000E-03 0. -1.
    9900012    2    1    2    0    0 -0.27949477425E+02  0.52592778129E+01 -0.14418336554E+02  0.59301925917E+02  0.49999966970E+02 0.  0.
        -12    1    1    2    0    0  0.27949477425E+02 -0.52592778129E+01  0.14418336554E+02  0.31886074083E+02  0.00000000000E+00 0.  1.
         11    1    3    3    0    0 -0.14662587009E+02  0.17939570769E+02 -0.11652091243E+02  0.25934357284E+02  0.51100000000E-03 0. -1.
        -11    1    3    3    0    0 -0.45165306113E+01  0.64866921739E+01  0.66044313692E+01  0.10300230002E+02  0.51100000000E-03 0.  1.
        -12    1    3    3    0    0 -0.87703598045E+01 -0.19166985130E+02 -0.93706766805E+01  0.23067338631E+02  0.00000000000E+00 0.  1.
</event>
<event>
 7    1  0.7383168E-013  0.5930197E+02  0.7816164E-02  0.1266605E+00
        -11   -1    0    0    0    0  0.00000000000E+00  0.00000000000E+00  0.45593999997E+02  0.45594000000E+02  0.51100000000E-03 0. -1.
         11   -1    0    0    0    0 -0.00000000000E+00 -0.00000000000E+00 -0.45593999997E+02  0.45594000000E+02  0.51100000000E-03 0.  1.
    9900012    2    1    2    0    0  0.19394296928E+02  0.98555491323E+01  0.23311978163E+02  0.59301969706E+02  0.50000046831E+02 0.  0.
        -12    1    1    2    0    0 -0.19394296928E+02 -0.98555491323E+01 -0.23311978163E+02  0.31886030294E+02  0.00000000000E+00 0.  1.
         11    1    3    3    0    0  0.62769287752E+00  0.21644731169E+01  0.18677933913E+01  0.29270453765E+01  0.51100000000E-03 0. -1.
        -11    1    3    3    0    0  0.18861144668E+02  0.15473959918E+02 -0.81909021818E+01  0.25734744850E+02  0.51100000000E-03 0.  1.
        -12    1    3    3    0    0 -0.94540617049E-01 -0.77828839022E+01  0.29635086954E+02  0.30640179479E+02  0.00000000000E+00 0.  1.
</event>
<event>
 7    1  0.7383168E-013  0.5930196E+02  0.7816164E-02  0.1266605E+00
        -11   -1    0    0    0    0  0.00000000000E+00  0.00000000000E+00  0.45593999997E+02  0.45594000000E+02  0.51100000000E-03 0. -1.
         11   -1    0    0    0    0 -0.00000000000E+00 -0.00000000000E+00 -0.45593999997E+02  0.45594000000E+02  0.51100000000E-03 0.  1.
    9900012    2    1    2    0    0  0.44542018296E+01  0.29879994325E+02  0.10201249602E+02  0.59301961233E+02  0.50000031378E+02 0.  0.
        -12    1    1    2    0    0 -0.44542018296E+01 -0.29879994325E+02 -0.10201249602E+02  0.31886038767E+02  0.00000000000E+00 0.  1.
         11    1    3    3    0    0  0.52542711469E+01 -0.61005583363E+00  0.19656930138E+01  0.56430029852E+01  0.51100000000E-03 0. -1.
        -11    1    3    3    0    0  0.10667502271E+02 -0.22825717423E+01 -0.96833616498E+01  0.14586748491E+02  0.51100000000E-03 0.  1.
         12    1    3    3    0    0 -0.11467571588E+02  0.32772621901E+02  0.17918918238E+02  0.39072209756E+02  0.00000000000E+00 0. -1.
</event>
<event>
 7    1  0.7383168E-013  0.5930197E+02  0.7816164E-02  0.1266605E+00
        -11   -1    0    0    0    0  0.00000000000E+00  0.00000000000E+00  0.45593999997E+02  0.45594000000E+02  0.51100000000E-03 0. -1.
         11   -1    0    0    0    0 -0.00000000000E+00 -0.00000000000E+00 -0.45593999997E+02  0.45594000000E+02  0.51100000000E-03 0.  1.
    9900012    2    1    2    0    0 -0.27415754059E+02 -0.13399756094E+02 -0.92488883170E+01  0.59301969060E+02  0.50000045654E+02 0.  0.
        -12    1    1    2    0    0  0.27415754059E+02  0.13399756094E+02  0.92488883170E+01  0.31886030940E+02  0.00000000000E+00 0.  1.
         11    1    3    3    0    0 -0.28359070559E+02  0.39906017072E+01 -0.10891110527E+02  0.30639485533E+02  0.51100000000E-03 0. -1.
        -11    1    3    3    0    0  0.97245405259E+01 -0.21308973373E+01  0.43238572983E+01  0.10853716142E+02  0.51100000000E-03 0.  1.
        -12    1    3    3    0    0 -0.87812240253E+01 -0.15259460464E+02 -0.26816350887E+01  0.17808767385E+02  0.00000000000E+00 0.  1.
</event>
<event>
 7    1  0.7383168E-013  0.5930196E+02  0.7816164E-02  0.1266605E+00
        -11   -1    0    0    0    0  0.00000000000E+00  0.00000000000E+00  0.45593999997E+02  0.45594000000E+02  0.51100000000E-03 0.  1.
         11   -1    0    0    0    0 -0.00000000000E+00 -0.00000000000E+00 -0.45593999997E+02  0.45594000000E+02  0.51100000000E-03 0. -1.
    9900012    2    1    2    0    0 -0.23296952626E+02  0.15631683937E+02 -0.15153292602E+02  0.59301955701E+02  0.50000021289E+02 0.  0.
        -12    1    1    2    0    0  0.23296952626E+02 -0.15631683937E+02  0.15153292602E+02  0.31886044299E+02  0.00000000000E+00 0.  1.
         11    1    3    3    0    0 -0.83492442617E+01  0.51111893321E+01 -0.13950986732E+02  0.17043009335E+02  0.51100000000E-03 0. -1.
        -11    1    3    3    0    0 -0.28809398251E+01  0.23913422964E+02 -0.23161298047E+01  0.24197439320E+02  0.51100000000E-03 0.  1.
         12    1    3    3    0    0 -0.12066768539E+02 -0.13392928359E+02  0.11138239348E+01  0.18061507045E+02  0.00000000000E+00 0. -1.
</event>
<event>
 7    1  0.7383168E-013  0.5930211E+02  0.7816164E-02  0.1266604E+00
        -11   -1    0    0    0    0  0.00000000000E+00  0.00000000000E+00  0.45593999997E+02  0.45594000000E+02  0.51100000000E-03 0. -1.
         11   -1    0    0    0    0 -0.00000000000E+00 -0.00000000000E+00 -0.45593999997E+02  0.45594000000E+02  0.51100000000E-03 0.  1.
    9900012    2    1    2    0    0 -0.37188025102E+01  0.29657453470E+02  0.11104781501E+02  0.59302106401E+02  0.50000296129E+02 0.  0.
        -12    1    1    2    0    0  0.37188025102E+01 -0.29657453470E+02 -0.11104781501E+02  0.31885893599E+02  0.00000000000E+00 0.  1.
         11    1    3    3    0    0  0.33099634880E+01  0.17449009700E+01  0.55024573236E+01  0.66541396548E+01  0.51100000000E-03 0. -1.
        -11    1    3    3    0    0  0.17495852843E+02  0.19647776744E+02  0.76305319868E+00  0.26319617173E+02  0.51100000000E-03 0.  1.
         12    1    3    3    0    0 -0.24524618842E+02  0.82647757557E+01  0.48392709786E+01  0.26328349573E+02  0.00000000000E+00 0. -1.
</event>
<event>
 7    1  0.7383168E-013  0.5930200E+02  0.7816164E-02  0.1266605E+00
        -11   -1    0    0    0    0  0.00000000000E+00  0.00000000000E+00  0.45593999997E+02  0.45594000000E+02  0.51100000000E-03 0.  1.
         11   -1    0    0    0    0 -0.00000000000E+00 -0.00000000000E+00 -0.45593999997E+02  0.45594000000E+02  0.51100000000E-03 0. -1.
    9900012    2    1    2    0    0 -0.15092092047E+02  0.15308234876E+01 -0.28046431746E+02  0.59301999991E+02  0.50000102064E+02 0.  0.
        -12    1    1    2    0    0  0.15092092047E+02 -0.15308234876E+01  0.28046431746E+02  0.31886000009E+02  0.00000000000E+00 0.  1.
         11    1    3    3    0    0  0.47823665713E+01  0.40732704160E+01 -0.26286072372E+02  0.27026286518E+02  0.51100000000E-03 0. -1.
        -11    1    3    3    0    0 -0.75051596813E+01 -0.43674649809E+01 -0.12886350424E+02  0.15538989662E+02  0.51100000000E-03 0.  1.
         12    1    3    3    0    0 -0.12369298937E+02  0.18250180525E+01  0.11125991051E+02  0.16736723812E+02  0.00000000000E+00 0. -1.
</event>
<event>
 7    1  0.7383168E-013  0.5930196E+02  0.7816164E-02  0.1266605E+00
        -11   -1    0    0    0    0  0.00000000000E+00  0.00000000000E+00  0.45593999997E+02  0.45594000000E+02  0.51100000000E-03 0.  1.
         11   -1    0    0    0    0 -0.00000000000E+00 -0.00000000000E+00 -0.45593999997E+02  0.45594000000E+02  0.51100000000E-03 0. -1.
    9900012    2    1    2    0    0  0.26309788983E+02 -0.17933588064E+02  0.17032408568E+01  0.59301959064E+02  0.50000027422E+02 0.  0.
        -12    1    1    2    0    0 -0.26309788983E+02  0.17933588064E+02 -0.17032408568E+01  0.31886040936E+02  0.00000000000E+00 0.  1.
         11    1    3    3    0    0  0.29277352246E+02 -0.41969765064E+01 -0.61310334956E+01  0.30205422333E+02  0.51100000000E-03 0. -1.
        -11    1    3    3    0    0  0.78742105537E+01 -0.19237640810E+01 -0.41237719830E+01  0.90944794085E+01  0.51100000000E-03 0.  1.
        -12    1    3    3    0    0 -0.10841773816E+02 -0.11812847476E+02  0.11958046335E+02  0.20002057323E+02  0.00000000000E+00 0.  1.
</event>
<event>
 7    1  0.7383168E-013  0.5930200E+02  0.7816164E-02  0.1266605E+00
        -11   -1    0    0    0    0  0.00000000000E+00  0.00000000000E+00  0.45593999997E+02  0.45594000000E+02  0.51100000000E-03 0. -1.
         11   -1    0    0    0    0 -0.00000000000E+00 -0.00000000000E+00 -0.45593999997E+02  0.45594000000E+02  0.51100000000E-03 0.  1.
    9900012    2    1    2    0    0 -0.21272461992E+02 -0.21006275717E+02  0.11087635964E+02  0.59302001036E+02  0.50000103968E+02 0.  0.
        -12    1    1    2    0    0  0.21272461992E+02  0.21006275717E+02 -0.11087635964E+02  0.31885998964E+02  0.00000000000E+00 0.  1.
         11    1    3    3    0    0 -0.33133301169E+01  0.12060364407E+02 -0.50010476750E+01  0.13470004610E+02  0.51100000000E-03 0. -1.
        -11    1    3    3    0    0 -0.52202775874E+01  0.96719324360E+00 -0.14178392924E+01  0.54951823791E+01  0.51100000000E-03 0.  1.
         12    1    3    3    0    0 -0.12738854288E+02 -0.34033833367E+02  0.17506522931E+02  0.40336814046E+02  0.00000000000E+00 0. -1.
</event>
<event>
 7    1  0.7383168E-013  0.5930194E+02  0.7816164E-02  0.1266605E+00
        -11   -1    0    0    0    0  0.00000000000E+00  0.00000000000E+00  0.45593999997E+02  0.45594000000E+02  0.51100000000E-03 0. -1.
         11   -1    0    0    0    0 -0.00000000000E+00 -0.00000000000E+00 -0.45593999997E+02  0.45594000000E+02  0.51100000000E-03 0.  1.
    9900012    2    1    2    0    0  0.35636263291E+01 -0.30105724178E+02  0.98826415415E+01  0.59301942471E+02  0.49999997162E+02 0.  0.
        -12    1    1    2    0    0 -0.35636263291E+01  0.30105724178E+02 -0.98826415415E+01  0.31886057529E+02  0.00000000000E+00 0.  1.
         11    1    3    3    0    0  0.71857747440E+00 -0.26255428057E+02  0.26870434287E+02  0.37575046175E+02  0.51100000000E-03 0. -1.
        -11    1    3    3    0    0  0.36640406966E+01 -0.37347347648E+01 -0.54160278380E+00  0.52599212757E+01  0.51100000000E-03 0.  1.
        -12    1    3    3    0    0 -0.81899184196E+00 -0.11556135562E+00 -0.16446189962E+02  0.16466975020E+02  0.00000000000E+00 0.  1.
</event>
<event>
 7    1  0.7383168E-013  0.5930191E+02  0.7816164E-02  0.1266605E+00
        -11   -1    0    0    0    0  0.00000000000E+00  0.00000000000E+00  0.45593999997E+02  0.45594000000E+02  0.51100000000E-03 0. -1.
         11   -1    0    0    0    0 -0.00000000000E+00 -0.00000000000E+00 -0.45593999997E+02  0.45594000000E+02  0.51100000000E-03 0.  1.
    9900012    2    1    2    0    0 -0.17636890531E+02 -0.12598676757E+02  0.23386667585E+02  0.59301909234E+02  0.49999936544E+02 0.  0.
        -12    1    1    2    0    0  0.17636890531E+02  0.12598676757E+02 -0.23386667585E+02  0.31886090766E+02  0.00000000000E+00 0.  1.
         11    1    3    3    0    0 -0.10698531321E+02 -0.12531544738E+02  0.15881842021E+02  0.22885171885E+02  0.51100000000E-03 0. -1.
        -11    1    3    3    0    0 -0.15911219964E+01 -0.10810651167E+02  0.17612320074E+02  0.20726689715E+02  0.51100000000E-03 0.  1.
        -12    1    3    3    0    0 -0.53472372132E+01  0.10743519148E+02 -0.10107494510E+02  0.15690047635E+02  0.00000000000E+00 0.  1.
</event>
<event>
 7    1  0.7383168E-013  0.5930190E+02  0.7816164E-02  0.1266605E+00
        -11   -1    0    0    0    0  0.00000000000E+00  0.00000000000E+00  0.45593999997E+02  0.45594000000E+02  0.51100000000E-03 0.  1.
         11   -1    0    0    0    0 -0.00000000000E+00 -0.00000000000E+00 -0.45593999997E+02  0.45594000000E+02  0.51100000000E-03 0. -1.
    9900012    2    1    2    0    0 -0.46261607998E+01 -0.11977420390E+02 -0.29186699090E+02  0.59301900102E+02  0.49999919890E+02 0.  0.
        -12    1    1    2    0    0  0.46261607998E+01  0.11977420390E+02  0.29186699090E+02  0.31886099898E+02  0.00000000000E+00 0.  1.
         11    1    3    3    0    0  0.58383287484E+01  0.36218365545E+01 -0.11067610312E+02  0.13026733316E+02  0.51100000000E-03 0. -1.
        -11    1    3    3    0    0 -0.16270963542E+02  0.79709113288E+01 -0.98990931224E+01  0.20646348997E+02  0.51100000000E-03 0.  1.
         12    1    3    3    0    0  0.58064739942E+01 -0.23570168274E+02 -0.82199956553E+01  0.25628817789E+02  0.00000000000E+00 0. -1.
</event>
<event>
 7    1  0.7383168E-013  0.5930194E+02  0.7816164E-02  0.1266605E+00
        -11   -1    0    0    0    0  0.00000000000E+00  0.00000000000E+00  0.45593999997E+02  0.45594000000E+02  0.51100000000E-03 0. -1.
         11   -1    0    0    0    0 -0.00000000000E+00 -0.00000000000E+00 -0.45593999997E+02  0.45594000000E+02  0.51100000000E-03 0.  1.
    9900012    2    1    2    0    0 -0.17476816228E+02  0.22702494066E+01  0.26573067306E+02  0.59301936526E+02  0.49999986318E+02 0.  0.
        -12    1    1    2    0    0  0.17476816228E+02 -0.22702494066E+01 -0.26573067306E+02  0.31886063474E+02  0.00000000000E+00 0.  1.
         11    1    3    3    0    0 -0.11935148346E+02  0.28752989784E+01  0.64719738898E+01  0.13878096287E+02  0.51100000000E-03 0. -1.
        -11    1    3    3    0    0 -0.20267896453E+02  0.23772240636E+00  0.22715063321E+02  0.30443689666E+02  0.51100000000E-03 0.  1.
        -12    1    3    3    0    0  0.14726228571E+02 -0.84277197820E+00 -0.26139699049E+01  0.14980150573E+02  0.00000000000E+00 0.  1.
</event>
<event>
 7    1  0.7383168E-013  0.5930198E+02  0.7816164E-02  0.1266605E+00
        -11   -1    0    0    0    0  0.00000000000E+00  0.00000000000E+00  0.45593999997E+02  0.45594000000E+02  0.51100000000E-03 0. -1.
         11   -1    0    0    0    0 -0.00000000000E+00 -0.00000000000E+00 -0.45593999997E+02  0.45594000000E+02  0.51100000000E-03 0.  1.
    9900012    2    1    2    0    0  0.14346247035E+02  0.26956641030E+02 -0.91783872555E+01  0.59301982810E+02  0.50000070730E+02 0.  0.
        -12    1    1    2    0    0 -0.14346247035E+02 -0.26956641030E+02  0.91783872555E+01  0.31886017190E+02  0.00000000000E+00 0.  1.
         11    1    3    3    0    0  0.62721892416E+01  0.17995104773E+02 -0.12151357376E+02  0.22601319431E+02  0.51100000000E-03 0. -1.
        -11    1    3    3    0    0 -0.11301347220E+02  0.61224082339E+01 -0.70954151181E+01  0.14681595537E+02  0.51100000000E-03 0.  1.
         12    1    3    3    0    0  0.19375405013E+02  0.28391280227E+01  0.10068385238E+02  0.22019067843E+02  0.00000000000E+00 0. -1.
</event>
<event>
 7    1  0.7383168E-013  0.5930197E+02  0.7816164E-02  0.1266605E+00
        -11   -1    0    0    0    0  0.00000000000E+00  0.00000000000E+00  0.45593999997E+02  0.45594000000E+02  0.51100000000E-03 0.  1.
         11   -1    0    0    0    0 -0.00000000000E+00 -0.00000000000E+00 -0.45593999997E+02  0.45594000000E+02  0.51100000000E-03 0. -1.
    9900012    2    1    2    0    0 -0.11351631673E+02 -0.12797204490E+02 -0.26908933386E+02  0.59301973588E+02  0.50000053911E+02 0.  0.
        -12    1    1    2    0    0  0.11351631673E+02  0.12797204490E+02  0.26908933386E+02  0.31886026412E+02  0.00000000000E+00 0.  1.
         11    1    3    3    0    0 -0.10963816237E+02 -0.21445957534E+02 -0.16743685169E+02  0.29334030652E+02  0.51100000000E-03 0. -1.
        -11    1    3    3    0    0 -0.29582127309E+01  0.19180075497E+01  0.89074361649E+01  0.95797805202E+01  0.51100000000E-03 0.  1.
         12    1    3    3    0    0  0.25703972947E+01  0.67307454939E+01 -0.19072684381E+02  0.20388162415E+02  0.00000000000E+00 0. -1.
</event>
<event>
 7    1  0.7383168E-013  0.5930192E+02  0.7816164E-02  0.1266605E+00
        -11   -1    0    0    0    0  0.00000000000E+00  0.00000000000E+00  0.45593999997E+02  0.45594000000E+02  0.51100000000E-03 0.  1.
         11   -1    0    0    0    0 -0.00000000000E+00 -0.00000000000E+00 -0.45593999997E+02  0.45594000000E+02  0.51100000000E-03 0. -1.
    9900012    2    1    2    0    0  0.15928579754E+02  0.26433192655E+02 -0.80180101583E+01  0.59301924452E+02  0.49999964299E+02 0.  0.
        -12    1    1    2    0    0 -0.15928579754E+02 -0.26433192655E+02  0.80180101583E+01  0.31886075548E+02  0.00000000000E+00 0.  1.
         11    1    3    3    0    0  0.28940984056E+02  0.13297324708E+02  0.19593983311E+01  0.31909851843E+02  0.51100000000E-03 0. -1.
        -11    1    3    3    0    0 -0.15567804838E+00 -0.79855021598E+00  0.38441873292E+01  0.39293376777E+01  0.51100000000E-03 0.  1.
        -12    1    3    3    0    0 -0.12856726254E+02  0.13934418163E+02 -0.13821595819E+02  0.23462734932E+02  0.00000000000E+00 0.  1.
</event>
<event>
 7    1  0.7383168E-013  0.5930194E+02  0.7816164E-02  0.1266605E+00
        -11   -1    0    0    0    0  0.00000000000E+00  0.00000000000E+00  0.45593999997E+02  0.45594000000E+02  0.51100000000E-03 0. -1.
         11   -1    0    0    0    0 -0.00000000000E+00 -0.00000000000E+00 -0.45593999997E+02  0.45594000000E+02  0.51100000000E-03 0.  1.
    9900012    2    1    2    0    0  0.29198118923E+02 -0.12806323977E+02 -0.43412720126E+00  0.59301944287E+02  0.50000000474E+02 0.  0.
        -12    1    1    2    0    0 -0.29198118923E+02  0.12806323977E+02  0.43412720126E+00  0.31886055713E+02  0.00000000000E+00 0.  1.
         11    1    3    3    0    0  0.28548068518E+01  0.44467908887E+01  0.43231773935E+01  0.68274251666E+01  0.51100000000E-03 0. -1.
        -11    1    3    3    0    0  0.27738966570E+02 -0.19905875211E+02 -0.18207914623E+02  0.38693956757E+02  0.51100000000E-03 0.  1.
         12    1    3    3    0    0 -0.13956544988E+01  0.26527603450E+01  0.13450610029E+02  0.13780562364E+02  0.00000000000E+00 0. -1.
</event>
<event>
 7    1  0.7383168E-013  0.5930194E+02  0.7816164E-02  0.1266605E+00
        -11   -1    0    0    0    0  0.00000000000E+00  0.00000000000E+00  0.45593999997E+02  0.45594000000E+02  0.51100000000E-03 0.  1.
         11   -1    0    0    0    0 -0.00000000000E+00 -0.00000000000E+00 -0.45593999997E+02  0.45594000000E+02  0.51100000000E-03 0. -1.
    9900012    2    1    2    0    0 -0.27666790172E+02  0.15844482171E+02  0.47078653333E+00  0.59301944527E+02  0.50000000910E+02 0.  0.
        -12    1    1    2    0    0  0.27666790172E+02 -0.15844482171E+02 -0.47078653333E+00  0.31886055473E+02  0.00000000000E+00 0.  1.
         11    1    3    3    0    0 -0.74928474601E+01  0.13611362496E+01  0.94775374328E+01  0.12158090763E+02  0.51100000000E-03 0. -1.
        -11    1    3    3    0    0 -0.22878834830E+02  0.10231584182E+01  0.89080888408E+01  0.24573196442E+02  0.51100000000E-03 0.  1.
         12    1    3    3    0    0  0.27048921181E+01  0.13460187503E+02 -0.17914839740E+02  0.22570657321E+02  0.00000000000E+00 0. -1.
</event>
<event>
 7    1  0.7383168E-013  0.5930189E+02  0.7816164E-02  0.1266605E+00
        -11   -1    0    0    0    0  0.00000000000E+00  0.00000000000E+00  0.45593999997E+02  0.45594000000E+02  0.51100000000E-03 0.  1.
         11   -1    0    0    0    0 -0.00000000000E+00 -0.00000000000E+00 -0.45593999997E+02  0.45594000000E+02  0.51100000000E-03 0. -1.
    9900012    2    1    2    0    0  0.38247002501E+01  0.26275775675E+02 -0.17654434804E+02  0.59301893503E+02  0.49999907854E+02 0.  0.
        -12    1    1    2    0    0 -0.38247002501E+01 -0.26275775675E+02  0.17654434804E+02  0.31886106497E+02  0.00000000000E+00 0.  1.
         11    1    3    3    0    0 -0.12151935725E+02  0.18833227163E+02 -0.30433849589E+01  0.22619066725E+02  0.51100000000E-03 0. -1.
        -11    1    3    3    0    0 -0.60700520970E+01 -0.19132840968E+01  0.29201049378E+01  0.70023711416E+01  0.51100000000E-03 0.  1.
         12    1    3    3    0    0  0.22046688072E+02  0.93558326090E+01 -0.17531154783E+02  0.29680455636E+02  0.00000000000E+00 0. -1.
</event>
<event>
 7    1  0.7383168E-013  0.5930191E+02  0.7816164E-02  0.1266605E+00
        -11   -1    0    0    0    0  0.00000000000E+00  0.00000000000E+00  0.45593999997E+02  0.45594000000E+02  0.51100000000E-03 0. -1.
         11   -1    0    0    0    0 -0.00000000000E+00 -0.00000000000E+00 -0.45593999997E+02  0.45594000000E+02  0.51100000000E-03 0.  1.
    9900012    2    1    2    0    0  0.14987809641E+01  0.31068488442E+02  0.70160602495E+01  0.59301914949E+02  0.49999946968E+02 0.  0.
        -12    1    1    2    0    0 -0.14987809641E+01 -0.31068488442E+02 -0.70160602495E+01  0.31886085051E+02  0.00000000000E+00 0.  1.
         11    1    3    3    0    0 -0.72118454530E+01  0.12557015484E+02  0.18761703528E+01  0.14601690592E+02  0.51100000000E-03 0. -1.
        -11    1    3    3    0    0  0.12652729052E+02  0.26611054169E+02  0.13499399851E+02  0.32411009751E+02  0.51100000000E-03 0.  1.
        -12    1    3    3    0    0 -0.39421026346E+01 -0.80995812112E+01 -0.83595099540E+01  0.12289214607E+02  0.00000000000E+00 0.  1.
</event>
<event>
 7    1  0.7383168E-013  0.5930194E+02  0.7816164E-02  0.1266605E+00
        -11   -1    0    0    0    0  0.00000000000E+00  0.00000000000E+00  0.45593999997E+02  0.45594000000E+02  0.51100000000E-03 0.  1.
         11   -1    0    0    0    0 -0.00000000000E+00 -0.00000000000E+00 -0.45593999997E+02  0.45594000000E+02  0.51100000000E-03 0. -1.
    9900012    2    1    2    0    0  0.17733308028E+02  0.47433010803E+01 -0.26072050263E+02  0.59301938411E+02  0.49999989756E+02 0.  0.
        -12    1    1    2    0    0 -0.17733308028E+02 -0.47433010803E+01  0.26072050263E+02  0.31886061589E+02  0.00000000000E+00 0.  1.
         11    1    3    3    0    0  0.10946216853E+02 -0.15678337348E+01 -0.15606718556E+02  0.19127138582E+02  0.51100000000E-03 0. -1.
        -11    1    3    3    0    0  0.99801297259E+01 -0.50857297755E+01 -0.21340423271E+02  0.24101479257E+02  0.51100000000E-03 0.  1.
         12    1    3    3    0    0 -0.31930385516E+01  0.11396864591E+02  0.10875091564E+02  0.16073320572E+02  0.00000000000E+00 0. -1.
</event>
<event>
 7    1  0.7383168E-013  0.5930194E+02  0.7816164E-02  0.1266605E+00
        -11   -1    0    0    0    0  0.00000000000E+00  0.00000000000E+00  0.45593999997E+02  0.45594000000E+02  0.51100000000E-03 0. -1.
         11   -1    0    0    0    0 -0.00000000000E+00 -0.00000000000E+00 -0.45593999997E+02  0.45594000000E+02  0.51100000000E-03 0.  1.
    9900012    2    1    2    0    0  0.27956957898E+02  0.13597618287E+02  0.70876017815E+01  0.59301940083E+02  0.49999992806E+02 0.  0.
        -12    1    1    2    0    0 -0.27956957898E+02 -0.13597618287E+02 -0.70876017815E+01  0.31886059917E+02  0.00000000000E+00 0.  1.
         11    1    3    3    0    0  0.14904878910E+02  0.22429046687E+02  0.77325712803E+01  0.28018033647E+02  0.51100000000E-03 0. -1.
        -11    1    3    3    0    0 -0.10107652199E+01 -0.98493262666E+01 -0.10228501347E+02  0.14235628342E+02  0.51100000000E-03 0.  1.
         12    1    3    3    0    0  0.14062844208E+02  0.10178978668E+01  0.95835318478E+01  0.17048278094E+02  0.00000000000E+00 0. -1.
</event>
<event>
 7    1  0.7383168E-013  0.5930199E+02  0.7816164E-02  0.1266605E+00
        -11   -1    0    0    0    0  0.00000000000E+00  0.00000000000E+00  0.45593999997E+02  0.45594000000E+02  0.51100000000E-03 0.  1.
         11   -1    0    0    0    0 -0.00000000000E+00 -0.00000000000E+00 -0.45593999997E+02  0.45594000000E+02  0.51100000000E-03 0. -1.
    9900012    2    1    2    0    0  0.77498398481E+01  0.24967040537E+02 -0.18256635563E+02  0.59301986249E+02  0.50000077001E+02 0.  0.
        -12    1    1    2    0    0 -0.77498398481E+01 -0.24967040537E+02  0.18256635563E+02  0.31886013751E+02  0.00000000000E+00 0.  1.
         11    1    3    3    0    0 -0.70786441357E+01  0.97999958761E+01 -0.16896731933E+02  0.20776108207E+02  0.51100000000E-03 0. -1.
        -11    1    3    3    0    0  0.15521080930E+02  0.24086453408E+02 -0.45797232679E+01  0.29017840314E+02  0.51100000000E-03 0.  1.
        -12    1    3    3    0    0 -0.69259694633E+00 -0.89194087471E+01  0.32198196376E+01  0.95080377275E+01  0.00000000000E+00 0.  1.
</event>
<event>
 7    1  0.7383168E-013  0.5930195E+02  0.7816164E-02  0.1266605E+00
        -11   -1    0    0    0    0  0.00000000000E+00  0.00000000000E+00  0.45593999997E+02  0.45594000000E+02  0.51100000000E-03 0. -1.
         11   -1    0    0    0    0 -0.00000000000E+00 -0.00000000000E+00 -0.45593999997E+02  0.45594000000E+02  0.51100000000E-03 0.  1.
    9900012    2    1    2    0    0 -0.30258491001E+02 -0.69873062788E+01  0.72333685840E+01  0.59301947442E+02  0.50000006226E+02 0.  0.
        -12    1    1    2    0    0  0.30258491001E+02  0.69873062788E+01 -0.72333685840E+01  0.31886052558E+02  0.00000000000E+00 0.  1.
         11    1    3    3    0    0 -0.46285657270E+01 -0.48167569689E+01  0.30419502901E+01  0.73401791678E+01  0.51100000000E-03 0. -1.
        -11    1    3    3    0    0 -0.17311655463E+02 -0.22943252276E+02  0.64973656267E+01  0.29466964557E+02  0.51100000000E-03 0.  1.
        -12    1    3    3    0    0 -0.83182698113E+01  0.20772702966E+02 -0.23059473328E+01  0.22494803717E+02  0.00000000000E+00 0.  1.
</event>
<event>
 7    1  0.7383168E-013  0.5930201E+02  0.7816164E-02  0.1266605E+00
        -11   -1    0    0    0    0  0.00000000000E+00  0.00000000000E+00  0.45593999997E+02  0.45594000000E+02  0.51100000000E-03 0.  1.
         11   -1    0    0    0    0 -0.00000000000E+00 -0.00000000000E+00 -0.45593999997E+02  0.45594000000E+02  0.51100000000E-03 0. -1.
    9900012    2    1    2    0    0  0.63432876918E+01 -0.23048457252E+01 -0.31163546178E+02  0.59302012122E+02  0.50000124187E+02 0.  0.
        -12    1    1    2    0    0 -0.63432876918E+01  0.23048457252E+01  0.31163546178E+02  0.31885987878E+02  0.00000000000E+00 0.  1.
         11    1    3    3    0    0  0.62932974063E+01  0.63693571713E+01 -0.19212367593E+01  0.91578083604E+01  0.51100000000E-03 0. -1.
        -11    1    3    3    0    0  0.10735109775E+02  0.60546206858E+01  0.33890233326E+01  0.12782272604E+02  0.51100000000E-03 0.  1.
         12    1    3    3    0    0 -0.10685119489E+02 -0.14728823582E+02 -0.32631332752E+02  0.37361931157E+02  0.00000000000E+00 0. -1.
</event>
<event>
 7    1  0.7383168E-013  0.5930193E+02  0.7816164E-02  0.1266605E+00
        -11   -1    0    0    0    0  0.00000000000E+00  0.00000000000E+00  0.45593999997E+02  0.45594000000E+02  0.51100000000E-03 0. -1.
         11   -1    0    0    0    0 -0.00000000000E+00 -0.00000000000E+00 -0.45593999997E+02  0.45594000000E+02  0.51100000000E-03 0.  1.
    9900012    2    1    2    0    0  0.86404091972E+01  0.24946767603E+02  0.17880813372E+02  0.59301931384E+02  0.49999976941E+02 0.  0.
        -12    1    1    2    0    0 -0.86404091972E+01 -0.24946767603E+02 -0.17880813372E+02  0.31886068616E+02  0.00000000000E+00 0.  1.
         11    1    3    3    0    0  0.35183277086E+01 -0.41009124083E+00  0.12528801866E+02  0.13019895589E+02  0.51100000000E-03 0. -1.
        -11    1    3    3    0    0  0.56026312205E+01  0.29946993545E+01  0.19031122172E+02  0.20063432214E+02  0.51100000000E-03 0.  1.
        -12    1    3    3    0    0 -0.48054973185E+00  0.22362159490E+02 -0.13679110667E+02  0.26218603581E+02  0.00000000000E+00 0.  1.
</event>
<event>
 7    1  0.7383168E-013  0.5930191E+02  0.7816164E-02  0.1266605E+00
        -11   -1    0    0    0    0  0.00000000000E+00  0.00000000000E+00  0.45593999997E+02  0.45594000000E+02  0.51100000000E-03 0.  1.
         11   -1    0    0    0    0 -0.00000000000E+00 -0.00000000000E+00 -0.45593999997E+02  0.45594000000E+02  0.51100000000E-03 0. -1.
    9900012    2    1    2    0    0  0.32844416739E+01 -0.30938209637E+02 -0.69830097049E+01  0.59301909032E+02  0.49999936177E+02 0.  0.
        -12    1    1    2    0    0 -0.32844416739E+01  0.30938209637E+02  0.69830097049E+01  0.31886090968E+02  0.00000000000E+00 0.  1.
         11    1    3    3    0    0  0.10956982630E+01 -0.69709472681E+01  0.37859887662E+01  0.80080192119E+01  0.51100000000E-03 0. -1.
        -11    1    3    3    0    0  0.12143117250E+01 -0.94435537465E+01  0.17259133597E+02  0.19711239259E+02  0.51100000000E-03 0.  1.
         12    1    3    3    0    0  0.97443168593E+00 -0.14523708623E+02 -0.28028132068E+02  0.31582650562E+02  0.00000000000E+00 0. -1.
</event>
<event>
 7    1  0.7383168E-013  0.5930195E+02  0.7816164E-02  0.1266605E+00
        -11   -1    0    0    0    0  0.00000000000E+00  0.00000000000E+00  0.45593999997E+02  0.45594000000E+02  0.51100000000E-03 0.  1.
         11   -1    0    0    0    0 -0.00000000000E+00 -0.00000000000E+00 -0.45593999997E+02  0.45594000000E+02  0.51100000000E-03 0. -1.
    9900012    2    1    2    0    0 -0.17284784433E+02 -0.21881684833E+02 -0.15464410329E+02  0.59301954606E+02  0.50000019293E+02 0.  0.
        -12    1    1    2    0    0  0.17284784433E+02  0.21881684833E+02  0.15464410329E+02  0.31886045394E+02  0.00000000000E+00 0.  1.
         11    1    3    3    0    0  0.39348427846E+01  0.92325386234E+00  0.54944822134E+01  0.68209032018E+01  0.51100000000E-03 0. -1.
        -11    1    3    3    0    0 -0.24340434031E+01  0.93322315748E+01 -0.94872181791E+01  0.13528577992E+02  0.51100000000E-03 0.  1.
         12    1    3    3    0    0 -0.18785583815E+02 -0.32137170270E+02 -0.11471674364E+02  0.38952473412E+02  0.00000000000E+00 0. -1.
</event>
<event>
 7    1  0.7383168E-013  0.5930194E+02  0.7816164E-02  0.1266605E+00
        -11   -1    0    0    0    0  0.00000000000E+00  0.00000000000E+00  0.45593999997E+02  0.45594000000E+02  0.51100000000E-03 0. -1.
         11   -1    0    0    0    0 -0.00000000000E+00 -0.00000000000E+00 -0.45593999997E+02  0.45594000000E+02  0.51100000000E-03 0.  1.
    9900012    2    1    2    0    0 -0.85950568622E+01  0.30607234757E+02  0.24581867019E+01  0.59301944994E+02  0.50000001763E+02 0.  0.
        -12    1    1    2    0    0  0.85950568622E+01 -0.30607234757E+02 -0.24581867019E+01  0.31886055006E+02  0.00000000000E+00 0.  1.
         11    1    3    3    0    0  0.63123572658E+01 -0.98156447022E+01 -0.43195429088E+01  0.12443921664E+02  0.51100000000E-03 0. -1.
        -11    1    3    3    0    0  0.38456489261E+00 -0.15759597345E+01 -0.14605531713E+00  0.16287638436E+01  0.51100000000E-03 0.  1.
        -12    1    3    3    0    0 -0.15291979021E+02  0.41998839194E+02  0.69237849278E+01  0.45229259487E+02  0.00000000000E+00 0.  1.
</event>
<event>
 7    1  0.7383168E-013  0.5930192E+02  0.7816164E-02  0.1266605E+00
        -11   -1    0    0    0    0  0.00000000000E+00  0.00000000000E+00  0.45593999997E+02  0.45594000000E+02  0.51100000000E-03 0.  1.
         11   -1    0    0    0    0 -0.00000000000E+00 -0.00000000000E+00 -0.45593999997E+02  0.45594000000E+02  0.51100000000E-03 0. -1.
    9900012    2    1    2    0    0 -0.30215658166E+02 -0.54467280010E+01 -0.86063387330E+01  0.59301922934E+02  0.49999961530E+02 0.  0.
        -12    1    1    2    0    0  0.30215658166E+02  0.54467280010E+01  0.86063387330E+01  0.31886077066E+02  0.00000000000E+00 0.  1.
         11    1    3    3    0    0 -0.64470114956E+00 -0.12324690176E+02 -0.13543178994E+02  0.18322972603E+02  0.51100000000E-03 0. -1.
        -11    1    3    3    0    0  0.41596967726E+01 -0.34180406535E+01  0.11864285923E+01  0.55130474526E+01  0.51100000000E-03 0.  1.
         12    1    3    3    0    0 -0.33730653789E+02  0.10296002829E+02  0.37504116683E+01  0.35465902878E+02  0.00000000000E+00 0. -1.
</event>
<event>
 7    1  0.7383168E-013  0.5930196E+02  0.7816164E-02  0.1266605E+00
        -11   -1    0    0    0    0  0.00000000000E+00  0.00000000000E+00  0.45593999997E+02  0.45594000000E+02  0.51100000000E-03 0.  1.
         11   -1    0    0    0    0 -0.00000000000E+00 -0.00000000000E+00 -0.45593999997E+02  0.45594000000E+02  0.51100000000E-03 0. -1.
    9900012    2    1    2    0    0  0.10797027182E+02  0.12119494523E+02 -0.27445617469E+02  0.59301955063E+02  0.50000020125E+02 0.  0.
        -12    1    1    2    0    0 -0.10797027182E+02 -0.12119494523E+02  0.27445617469E+02  0.31886044937E+02  0.00000000000E+00 0.  1.
         11    1    3    3    0    0  0.35615872156E+01  0.12992327625E+01 -0.31291478044E+02  0.31520303103E+02  0.51100000000E-03 0. -1.
        -11    1    3    3    0    0 -0.44793579825E+01  0.97025770600E+01 -0.61599597712E+01  0.12334899845E+02  0.51100000000E-03 0.  1.
        -12    1    3    3    0    0  0.11714797949E+02  0.11176847006E+01  0.10005820346E+02  0.15446752114E+02  0.00000000000E+00 0.  1.
</event>
<event>
 7    1  0.7383168E-013  0.5930195E+02  0.7816164E-02  0.1266605E+00
        -11   -1    0    0    0    0  0.00000000000E+00  0.00000000000E+00  0.45593999997E+02  0.45594000000E+02  0.51100000000E-03 0.  1.
         11   -1    0    0    0    0 -0.00000000000E+00 -0.00000000000E+00 -0.45593999997E+02  0.45594000000E+02  0.51100000000E-03 0. -1.
    9900012    2    1    2    0    0  0.30022787523E+02 -0.10079146838E+02 -0.37098374995E+01  0.59301954998E+02  0.50000020006E+02 0.  0.
        -12    1    1    2    0    0 -0.30022787523E+02  0.10079146838E+02  0.37098374995E+01  0.31886045002E+02  0.00000000000E+00 0.  1.
         11    1    3    3    0    0  0.80681708348E+01  0.10513780660E+02 -0.75030969225E+01  0.15229295061E+02  0.51100000000E-03 0. -1.
        -11    1    3    3    0    0  0.74814114302E+01  0.70928862289E+01 -0.52231775111E+01  0.11556908567E+02  0.51100000000E-03 0.  1.
         12    1    3    3    0    0  0.14473205258E+02 -0.27685813727E+02  0.90164369341E+01  0.32515751370E+02  0.00000000000E+00 0. -1.
</event>
<event>
 7    1  0.7383168E-013  0.5930195E+02  0.7816164E-02  0.1266605E+00
        -11   -1    0    0    0    0  0.00000000000E+00  0.00000000000E+00  0.45593999997E+02  0.45594000000E+02  0.51100000000E-03 0.  1.
         11   -1    0    0    0    0 -0.00000000000E+00 -0.00000000000E+00 -0.45593999997E+02  0.45594000000E+02  0.51100000000E-03 0. -1.
    9900012    2    1    2    0    0 -0.18347182961E+01  0.10587786814E+02 -0.30020871099E+02  0.59301950975E+02  0.50000012670E+02 0.  0.
        -12    1    1    2    0    0  0.18347182961E+01 -0.10587786814E+02  0.30020871099E+02  0.31886049025E+02  0.00000000000E+00 0.  1.
         11    1    3    3    0    0 -0.34102151052E+01 -0.11968010292E+01 -0.18182239142E+02  0.18537953507E+02  0.51100000000E-03 0. -1.
        -11    1    3    3    0    0  0.10461337371E+02  0.17859224749E+02 -0.18786839235E+02  0.27952402704E+02  0.51100000000E-03 0.  1.
        -12    1    3    3    0    0 -0.88858405616E+01 -0.60746369057E+01  0.69482072775E+01  0.12811594764E+02  0.00000000000E+00 0.  1.
</event>
<event>
 7    1  0.7383168E-013  0.5930195E+02  0.7816164E-02  0.1266605E+00
        -11   -1    0    0    0    0  0.00000000000E+00  0.00000000000E+00  0.45593999997E+02  0.45594000000E+02  0.51100000000E-03 0.  1.
         11   -1    0    0    0    0 -0.00000000000E+00 -0.00000000000E+00 -0.45593999997E+02  0.45594000000E+02  0.51100000000E-03 0. -1.
    9900012    2    1    2    0    0  0.44166136335E+01  0.28919830574E+01 -0.31445988520E+02  0.59301949195E+02  0.50000009423E+02 0.  0.
        -12    1    1    2    0    0 -0.44166136335E+01 -0.28919830574E+01  0.31445988520E+02  0.31886050805E+02  0.00000000000E+00 0.  1.
         11    1    3    3    0    0  0.17818455043E+01  0.38244418908E+00 -0.98805974826E+01  0.10047260514E+02  0.51100000000E-03 0. -1.
        -11    1    3    3    0    0 -0.18767457104E+02 -0.77175209491E+01 -0.72448374714E+01  0.21546815217E+02  0.51100000000E-03 0.  1.
         12    1    3    3    0    0  0.21402225233E+02  0.10227059818E+02 -0.14320553566E+02  0.27707873464E+02  0.00000000000E+00 0. -1.
</event>
<event>
 7    1  0.7383168E-013  0.5930191E+02  0.7816164E-02  0.1266605E+00
        -11   -1    0    0    0    0  0.00000000000E+00  0.00000000000E+00  0.45593999997E+02  0.45594000000E+02  0.51100000000E-03 0.  1.
         11   -1    0    0    0    0 -0.00000000000E+00 -0.00000000000E+00 -0.45593999997E+02  0.45594000000E+02  0.51100000000E-03 0. -1.
    9900012    2    1    2    0    0  0.70481224480E+01 -0.14454604729E+02 -0.27533813922E+02  0.59301913113E+02  0.49999943618E+02 0.  0.
        -12    1    1    2    0    0 -0.70481224480E+01  0.14454604729E+02  0.27533813922E+02  0.31886086887E+02  0.00000000000E+00 0.  1.
         11    1    3    3    0    0  0.34894223244E+01 -0.60919122161E+01 -0.10105742606E+02  0.12305019158E+02  0.51100000000E-03 0. -1.
        -11    1    3    3    0    0  0.20378482731E+02 -0.11804124355E+01 -0.19940647516E+02  0.28536036087E+02  0.51100000000E-03 0.  1.
        -12    1    3    3    0    0 -0.16819782607E+02 -0.71822800775E+01  0.25125761998E+01  0.18460857868E+02  0.00000000000E+00 0.  1.
</event>
<event>
 7    1  0.7383168E-013  0.5930192E+02  0.7816164E-02  0.1266605E+00
        -11   -1    0    0    0    0  0.00000000000E+00  0.00000000000E+00  0.45593999997E+02  0.45594000000E+02  0.51100000000E-03 0.  1.
         11   -1    0    0    0    0 -0.00000000000E+00 -0.00000000000E+00 -0.45593999997E+02  0.45594000000E+02  0.51100000000E-03 0. -1.
    9900012    2    1    2    0    0 -0.15055858125E+02  0.97678929159E+01 -0.26355861033E+02  0.59301921429E+02  0.49999958785E+02 0.  0.
        -12    1    1    2    0    0  0.15055858125E+02 -0.97678929159E+01  0.26355861033E+02  0.31886078571E+02  0.00000000000E+00 0.  1.
         11    1    3    3    0    0 -0.12677854072E+02  0.50200223439E+01 -0.18596912147E+02  0.23060220074E+02  0.51100000000E-03 0. -1.
        -11    1    3    3    0    0 -0.16664426410E+02  0.67907005705E+01  0.29968542404E+01  0.18242748078E+02  0.51100000000E-03 0.  1.
        -12    1    3    3    0    0  0.14286422357E+02 -0.20428299984E+01 -0.10755803126E+02  0.17998953277E+02  0.00000000000E+00 0.  1.
</event>
<event>
 7    1  0.7383168E-013  0.5930197E+02  0.7816164E-02  0.1266605E+00
        -11   -1    0    0    0    0  0.00000000000E+00  0.00000000000E+00  0.45593999997E+02  0.45594000000E+02  0.51100000000E-03 0.  1.
         11   -1    0    0    0    0 -0.00000000000E+00 -0.00000000000E+00 -0.45593999997E+02  0.45594000000E+02  0.51100000000E-03 0. -1.
    9900012    2    1    2    0    0 -0.20655236909E+02 -0.83419971912E+01 -0.22814274256E+02  0.59301971104E+02  0.50000049381E+02 0.  0.
        -12    1    1    2    0    0  0.20655236909E+02  0.83419971912E+01  0.22814274256E+02  0.31886028896E+02  0.00000000000E+00 0.  1.
         11    1    3    3    0    0  0.34470307362E+01 -0.21449447618E+01  0.60658450404E+01  0.72991290743E+01  0.51100000000E-03 0.  1.
        -11    1    3    3    0    0 -0.14040903383E+02  0.14523096451E+02 -0.14098762839E+02  0.24634171636E+02  0.51100000000E-03 0. -1.
         12    1    3    3    0    0 -0.10061364263E+02 -0.20720148880E+02 -0.14781356457E+02  0.27368670394E+02  0.00000000000E+00 0. -1.
</event>
<event>
 7    1  0.7383168E-013  0.5930194E+02  0.7816164E-02  0.1266605E+00
        -11   -1    0    0    0    0  0.00000000000E+00  0.00000000000E+00  0.45593999997E+02  0.45594000000E+02  0.51100000000E-03 0.  1.
         11   -1    0    0    0    0 -0.00000000000E+00 -0.00000000000E+00 -0.45593999997E+02  0.45594000000E+02  0.51100000000E-03 0. -1.
    9900012    2    1    2    0    0  0.23052264632E+02  0.20261358106E+02 -0.86481909776E+01  0.59301941226E+02  0.49999994891E+02 0.  0.
        -12    1    1    2    0    0 -0.23052264632E+02 -0.20261358106E+02  0.86481909776E+01  0.31886058774E+02  0.00000000000E+00 0.  1.
         11    1    3    3    0    0  0.24985222226E+02  0.14821565653E+02 -0.18394788690E+02  0.34384711564E+02  0.51100000000E-03 0. -1.
        -11    1    3    3    0    0  0.76173561314E+01  0.31508726985E+01 -0.30474002892E+01  0.87885585836E+01  0.51100000000E-03 0.  1.
        -12    1    3    3    0    0 -0.95503137258E+01  0.22889197542E+01  0.12793998002E+02  0.16128671079E+02  0.00000000000E+00 0.  1.
</event>
<event>
 7    1  0.7383168E-013  0.5930193E+02  0.7816164E-02  0.1266605E+00
        -11   -1    0    0    0    0  0.00000000000E+00  0.00000000000E+00  0.45593999997E+02  0.45594000000E+02  0.51100000000E-03 0.  1.
         11   -1    0    0    0    0 -0.00000000000E+00 -0.00000000000E+00 -0.45593999997E+02  0.45594000000E+02  0.51100000000E-03 0. -1.
    9900012    2    1    2    0    0  0.28892212144E+02  0.78331725150E+01 -0.10981923027E+02  0.59301934899E+02  0.49999983352E+02 0.  0.
        -12    1    1    2    0    0 -0.28892212144E+02 -0.78331725150E+01  0.10981923027E+02  0.31886065101E+02  0.00000000000E+00 0.  1.
         11    1    3    3    0    0 -0.22480306551E+01 -0.33192763669E+01 -0.16820037226E+02  0.17291179542E+02  0.51100000000E-03 0. -1.
        -11    1    3    3    0    0  0.13659443953E+02 -0.77378878467E+01  0.39480197959E+00  0.15703858962E+02  0.51100000000E-03 0.  1.
        -12    1    3    3    0    0  0.17480798847E+02  0.18890336729E+02  0.54433122197E+01  0.26306896395E+02  0.00000000000E+00 0.  1.
</event>
<event>
 7    1  0.7383168E-013  0.5930193E+02  0.7816164E-02  0.1266605E+00
        -11   -1    0    0    0    0  0.00000000000E+00  0.00000000000E+00  0.45593999997E+02  0.45594000000E+02  0.51100000000E-03 0. -1.
         11   -1    0    0    0    0 -0.00000000000E+00 -0.00000000000E+00 -0.45593999997E+02  0.45594000000E+02  0.51100000000E-03 0.  1.
    9900012    2    1    2    0    0 -0.16497900088E+02  0.18012494007E+02  0.20496109918E+02  0.59301934557E+02  0.49999982728E+02 0.  0.
        -12    1    1    2    0    0  0.16497900088E+02 -0.18012494007E+02 -0.20496109918E+02  0.31886065443E+02  0.00000000000E+00 0.  1.
         11    1    3    3    0    0 -0.20445192085E+01 -0.20339013620E+01 -0.22673831467E+00  0.28927882862E+01  0.51100000000E-03 0. -1.
        -11    1    3    3    0    0 -0.24704575586E+02  0.24736400930E+02  0.25876058170E+01  0.35055688411E+02  0.51100000000E-03 0.  1.
         12    1    3    3    0    0  0.10251194707E+02 -0.46900055612E+01  0.18135242416E+02  0.21353457859E+02  0.00000000000E+00 0. -1.
</event>
<event>
 7    1  0.7383168E-013  0.5930200E+02  0.7816164E-02  0.1266605E+00
        -11   -1    0    0    0    0  0.00000000000E+00  0.00000000000E+00  0.45593999997E+02  0.45594000000E+02  0.51100000000E-03 0. -1.
         11   -1    0    0    0    0 -0.00000000000E+00 -0.00000000000E+00 -0.45593999997E+02  0.45594000000E+02  0.51100000000E-03 0.  1.
    9900012    2    1    2    0    0  0.21576813093E+02  0.23125487225E+02 -0.40459607319E+01  0.59302002746E+02  0.50000107088E+02 0.  0.
        -12    1    1    2    0    0 -0.21576813093E+02 -0.23125487225E+02  0.40459607319E+01  0.31885997254E+02  0.00000000000E+00 0.  1.
         11    1    3    3    0    0 -0.46805102630E+01  0.20745897323E+02 -0.10950851258E+02  0.23921132406E+02  0.51100000000E-03 0. -1.
        -11    1    3    3    0    0  0.18465477887E+00  0.38013293693E+01 -0.53266734980E+01  0.65465756833E+01  0.51100000000E-03 0.  1.
        -12    1    3    3    0    0  0.26072668577E+02 -0.14217394671E+01  0.12231564024E+02  0.28834294657E+02  0.00000000000E+00 0.  1.
</event>
<event>
 7    1  0.7383168E-013  0.5930189E+02  0.7816164E-02  0.1266605E+00
        -11   -1    0    0    0    0  0.00000000000E+00  0.00000000000E+00  0.45593999997E+02  0.45594000000E+02  0.51100000000E-03 0.  1.
         11   -1    0    0    0    0 -0.00000000000E+00 -0.00000000000E+00 -0.45593999997E+02  0.45594000000E+02  0.51100000000E-03 0. -1.
    9900012    2    1    2    0    0  0.14494567588E+02 -0.24796011642E+02  0.13848794995E+02  0.59301893218E+02  0.49999907335E+02 0.  0.
        -12    1    1    2    0    0 -0.14494567588E+02  0.24796011642E+02 -0.13848794995E+02  0.31886106782E+02  0.00000000000E+00 0.  1.
         11    1    3    3    0    0 -0.14990052285E+00 -0.56708059887E+01 -0.37854064970E+01  0.68198103593E+01  0.51100000000E-03 0. -1.
        -11    1    3    3    0    0  0.13642920793E+02 -0.27495562334E+02 -0.23585540056E+01  0.30784704206E+02  0.51100000000E-03 0.  1.
        -12    1    3    3    0    0  0.10015473178E+01  0.83703566806E+01  0.19992755498E+02  0.21697378652E+02  0.00000000000E+00 0.  1.
</event>
<event>
 7    1  0.7383168E-013  0.5930194E+02  0.7816164E-02  0.1266605E+00
        -11   -1    0    0    0    0  0.00000000000E+00  0.00000000000E+00  0.45593999997E+02  0.45594000000E+02  0.51100000000E-03 0.  1.
         11   -1    0    0    0    0 -0.00000000000E+00 -0.00000000000E+00 -0.45593999997E+02  0.45594000000E+02  0.51100000000E-03 0. -1.
    9900012    2    1    2    0    0 -0.12215868976E+02  0.74754508751E+01 -0.28488785584E+02  0.59301941531E+02  0.49999995447E+02 0.  0.
        -12    1    1    2    0    0  0.12215868976E+02 -0.74754508751E+01  0.28488785584E+02  0.31886058469E+02  0.00000000000E+00 0.  1.
         11    1    3    3    0    0 -0.13574854900E+02 -0.95431595831E+01 -0.41819629480E+01  0.17112492359E+02  0.51100000000E-03 0. -1.
        -11    1    3    3    0    0 -0.61189344225E+01  0.79086388911E+01  0.45743092751E+01  0.10996009876E+02  0.51100000000E-03 0.  1.
         12    1    3    3    0    0  0.74779203463E+01  0.91099715671E+01 -0.28881131911E+02  0.31193439296E+02  0.00000000000E+00 0. -1.
</event>
<event>
 7    1  0.7383168E-013  0.5930190E+02  0.7816164E-02  0.1266605E+00
        -11   -1    0    0    0    0  0.00000000000E+00  0.00000000000E+00  0.45593999997E+02  0.45594000000E+02  0.51100000000E-03 0.  1.
         11   -1    0    0    0    0 -0.00000000000E+00 -0.00000000000E+00 -0.45593999997E+02  0.45594000000E+02  0.51100000000E-03 0. -1.
    9900012    2    1    2    0    0 -0.97317716127E+01 -0.41418090453E+01 -0.30080914605E+02  0.59301899825E+02  0.49999919385E+02 0.  0.
        -12    1    1    2    0    0  0.97317716127E+01  0.41418090453E+01  0.30080914605E+02  0.31886100175E+02  0.00000000000E+00 0.  1.
         11    1    3    3    0    0  0.12455796506E+01  0.34608388254E+01  0.93035068373E+01  0.10004204805E+02  0.51100000000E-03 0. -1.
        -11    1    3    3    0    0 -0.32750161511E+01 -0.16737078938E+02 -0.17963764565E+02  0.24769989498E+02  0.51100000000E-03 0.  1.
         12    1    3    3    0    0 -0.77023351123E+01  0.91344310671E+01 -0.21420656878E+02  0.24527705522E+02  0.00000000000E+00 0. -1.
</event>
<event>
 7    1  0.7383168E-013  0.5930197E+02  0.7816164E-02  0.1266605E+00
        -11   -1    0    0    0    0  0.00000000000E+00  0.00000000000E+00  0.45593999997E+02  0.45594000000E+02  0.51100000000E-03 0.  1.
         11   -1    0    0    0    0 -0.00000000000E+00 -0.00000000000E+00 -0.45593999997E+02  0.45594000000E+02  0.51100000000E-03 0. -1.
    9900012    2    1    2    0    0  0.11455860021E+02 -0.28957599465E+02 -0.68512556574E+01  0.59301968580E+02  0.50000044778E+02 0.  0.
        -12    1    1    2    0    0 -0.11455860021E+02  0.28957599465E+02  0.68512556574E+01  0.31886031420E+02  0.00000000000E+00 0.  1.
         11    1    3    3    0    0  0.55280446616E+01 -0.17328004882E+02  0.37340288745E+01  0.18567767848E+02  0.51100000000E-03 0.  1.
        -11    1    3    3    0    0  0.23837401400E+01  0.28579116191E+01 -0.21773661291E+02  0.22089413803E+02  0.51100000000E-03 0. -1.
         12    1    3    3    0    0  0.35440752198E+01 -0.14487506202E+02  0.11188376759E+02  0.18644786929E+02  0.00000000000E+00 0. -1.
</event>
<event>
 7    1  0.7383168E-013  0.5930176E+02  0.7816164E-02  0.1266605E+00
        -11   -1    0    0    0    0  0.00000000000E+00  0.00000000000E+00  0.45593999997E+02  0.45594000000E+02  0.51100000000E-03 0. -1.
         11   -1    0    0    0    0 -0.00000000000E+00 -0.00000000000E+00 -0.45593999997E+02  0.45594000000E+02  0.51100000000E-03 0.  1.
    9900012    2    1    2    0    0  0.23117899627E+02 -0.16148241026E+02  0.14883860860E+02  0.59301760248E+02  0.49999664829E+02 0.  0.
        -12    1    1    2    0    0 -0.23117899627E+02  0.16148241026E+02 -0.14883860860E+02  0.31886239752E+02  0.00000000000E+00 0.  1.
         11    1    3    3    0    0  0.18295911242E+02 -0.12712288318E+02  0.95832574973E+01  0.24252452803E+02  0.51100000000E-03 0. -1.
        -11    1    3    3    0    0  0.38608632923E+01 -0.11614398528E+02 -0.11211246086E+02  0.16597968478E+02  0.51100000000E-03 0.  1.
        -12    1    3    3    0    0  0.96112509218E+00  0.81784458192E+01  0.16511849449E+02  0.18451338967E+02  0.00000000000E+00 0.  1.
</event>
<event>
 7    1  0.7383168E-013  0.5930196E+02  0.7816164E-02  0.1266605E+00
        -11   -1    0    0    0    0  0.00000000000E+00  0.00000000000E+00  0.45593999997E+02  0.45594000000E+02  0.51100000000E-03 0.  1.
         11   -1    0    0    0    0 -0.00000000000E+00 -0.00000000000E+00 -0.45593999997E+02  0.45594000000E+02  0.51100000000E-03 0. -1.
    9900012    2    1    2    0    0  0.16555731288E+02 -0.96433866199E+01 -0.25487887580E+02  0.59301959837E+02  0.50000028832E+02 0.  0.
        -12    1    1    2    0    0 -0.16555731288E+02  0.96433866199E+01  0.25487887580E+02  0.31886040163E+02  0.00000000000E+00 0.  1.
         11    1    3    3    0    0 -0.26003851104E+01  0.69252327356E+01  0.62166384669E+01  0.96626831291E+01  0.51100000000E-03 0. -1.
        -11    1    3    3    0    0  0.11215459301E+02  0.33080310055E+01 -0.37868058403E+00  0.11699273299E+02  0.51100000000E-03 0.  1.
         12    1    3    3    0    0  0.79406570970E+01 -0.19876650361E+02 -0.31325845463E+02  0.37940003409E+02  0.00000000000E+00 0. -1.
</event>
<event>
 7    1  0.7383168E-013  0.5930191E+02  0.7816164E-02  0.1266605E+00
        -11   -1    0    0    0    0  0.00000000000E+00  0.00000000000E+00  0.45593999997E+02  0.45594000000E+02  0.51100000000E-03 0.  1.
         11   -1    0    0    0    0 -0.00000000000E+00 -0.00000000000E+00 -0.45593999997E+02  0.45594000000E+02  0.51100000000E-03 0. -1.
    9900012    2    1    2    0    0  0.15990368633E+02 -0.29074365411E+01 -0.27433154594E+02  0.59301905112E+02  0.49999929027E+02 0.  0.
        -12    1    1    2    0    0 -0.15990368633E+02  0.29074365411E+01  0.27433154594E+02  0.31886094888E+02  0.00000000000E+00 0.  1.
         11    1    3    3    0    0 -0.33244220508E+01 -0.13693239404E+02 -0.83935759745E+01  0.16401484849E+02  0.51100000000E-03 0. -1.
        -11    1    3    3    0    0 -0.45396609645E+01 -0.48353295875E+01 -0.11712435562E+02  0.13459943571E+02  0.51100000000E-03 0.  1.
        -12    1    3    3    0    0  0.23854451648E+02  0.15621132450E+02 -0.73271430573E+01  0.29440476692E+02  0.00000000000E+00 0.  1.
</event>
<event>
 7    1  0.7383168E-013  0.5930196E+02  0.7816164E-02  0.1266605E+00
        -11   -1    0    0    0    0  0.00000000000E+00  0.00000000000E+00  0.45593999997E+02  0.45594000000E+02  0.51100000000E-03 0. -1.
         11   -1    0    0    0    0 -0.00000000000E+00 -0.00000000000E+00 -0.45593999997E+02  0.45594000000E+02  0.51100000000E-03 0.  1.
    9900012    2    1    2    0    0  0.22604825882E+02  0.18205741105E+02  0.13201983041E+02  0.59301960444E+02  0.50000029939E+02 0.  0.
        -12    1    1    2    0    0 -0.22604825882E+02 -0.18205741105E+02 -0.13201983041E+02  0.31886039556E+02  0.00000000000E+00 0.  1.
         11    1    3    3    0    0 -0.35426173611E+01  0.13746594133E+02  0.44766543756E+01  0.14884872276E+02  0.51100000000E-03 0. -1.
        -11    1    3    3    0    0  0.30716176760E+02  0.83987774683E+01 -0.22182028670E+01  0.31920892875E+02  0.51100000000E-03 0.  1.
         12    1    3    3    0    0 -0.45687335164E+01 -0.39396304966E+01  0.10943531533E+02  0.12496195293E+02  0.00000000000E+00 0. -1.
</event>
<event>
 7    1  0.7383168E-013  0.5930190E+02  0.7816164E-02  0.1266605E+00
        -11   -1    0    0    0    0  0.00000000000E+00  0.00000000000E+00  0.45593999997E+02  0.45594000000E+02  0.51100000000E-03 0.  1.
         11   -1    0    0    0    0 -0.00000000000E+00 -0.00000000000E+00 -0.45593999997E+02  0.45594000000E+02  0.51100000000E-03 0. -1.
    9900012    2    1    2    0    0  0.12241292690E+02 -0.57243762213E+01 -0.28880885513E+02  0.59301901495E+02  0.49999922430E+02 0.  0.
        -12    1    1    2    0    0 -0.12241292690E+02  0.57243762213E+01  0.28880885513E+02  0.31886098505E+02  0.00000000000E+00 0.  1.
         11    1    3    3    0    0  0.10567434787E+02 -0.27640105102E+01 -0.16129836274E+02  0.19480299037E+02  0.51100000000E-03 0. -1.
        -11    1    3    3    0    0  0.69009399838E+01  0.11308460369E+02  0.69345939945E+01  0.14953021190E+02  0.51100000000E-03 0.  1.
         12    1    3    3    0    0 -0.52270820806E+01 -0.14268826080E+02 -0.19685643234E+02  0.24868581268E+02  0.00000000000E+00 0. -1.
</event>
<event>
 7    1  0.7383168E-013  0.5930193E+02  0.7816164E-02  0.1266605E+00
        -11   -1    0    0    0    0  0.00000000000E+00  0.00000000000E+00  0.45593999997E+02  0.45594000000E+02  0.51100000000E-03 0.  1.
         11   -1    0    0    0    0 -0.00000000000E+00 -0.00000000000E+00 -0.45593999997E+02  0.45594000000E+02  0.51100000000E-03 0. -1.
    9900012    2    1    2    0    0  0.30347786250E+02  0.22731862807E+01 -0.95166036635E+01  0.59301933271E+02  0.49999980382E+02 0.  0.
        -12    1    1    2    0    0 -0.30347786250E+02 -0.22731862807E+01  0.95166036635E+01  0.31886066729E+02  0.00000000000E+00 0.  1.
         11    1    3    3    0    0  0.27205488508E+00  0.82769107271E+01  0.46072964714E+00  0.82941869471E+01  0.51100000000E-03 0. -1.
        -11    1    3    3    0    0 -0.87184951206E+01 -0.38858111822E+01  0.30646844842E+01  0.10025167179E+02  0.51100000000E-03 0.  1.
         12    1    3    3    0    0  0.38794226486E+02 -0.21179132641E+01 -0.13042017795E+02  0.40982579145E+02  0.00000000000E+00 0. -1.
</event>
<event>
 7    1  0.7383168E-013  0.5930197E+02  0.7816164E-02  0.1266605E+00
        -11   -1    0    0    0    0  0.00000000000E+00  0.00000000000E+00  0.45593999997E+02  0.45594000000E+02  0.51100000000E-03 0. -1.
         11   -1    0    0    0    0 -0.00000000000E+00 -0.00000000000E+00 -0.45593999997E+02  0.45594000000E+02  0.51100000000E-03 0.  1.
    9900012    2    1    2    0    0 -0.54341047987E+01 -0.24232606467E+02  0.19999251910E+02  0.59301971898E+02  0.50000050828E+02 0.  0.
        -12    1    1    2    0    0  0.54341047987E+01  0.24232606467E+02 -0.19999251910E+02  0.31886028102E+02  0.00000000000E+00 0.  1.
         11    1    3    3    0    0  0.98345585258E+01 -0.11854622745E+02  0.29126570447E+02  0.32948561852E+02  0.51100000000E-03 0. -1.
        -11    1    3    3    0    0 -0.97243502358E+01  0.14028154542E+01 -0.43978578794E+01  0.10764387251E+02  0.51100000000E-03 0.  1.
        -12    1    3    3    0    0 -0.55443130887E+01 -0.13780799177E+02 -0.47294606576E+01  0.15589022795E+02  0.00000000000E+00 0.  1.
</event>
<event>
 7    1  0.7383168E-013  0.5930194E+02  0.7816164E-02  0.1266605E+00
        -11   -1    0    0    0    0  0.00000000000E+00  0.00000000000E+00  0.45593999997E+02  0.45594000000E+02  0.51100000000E-03 0.  1.
         11   -1    0    0    0    0 -0.00000000000E+00 -0.00000000000E+00 -0.45593999997E+02  0.45594000000E+02  0.51100000000E-03 0. -1.
    9900012    2    1    2    0    0 -0.19819226649E+02  0.19395476121E+02 -0.15739580673E+02  0.59301942880E+02  0.49999997907E+02 0.  0.
        -12    1    1    2    0    0  0.19819226649E+02 -0.19395476121E+02  0.15739580673E+02  0.31886057120E+02  0.00000000000E+00 0.  1.
         11    1    3    3    0    0 -0.29418700175E+01 -0.45880723131E+01  0.45490270823E+01  0.70992009696E+01  0.51100000000E-03 0. -1.
        -11    1    3    3    0    0  0.78356879504E+01  0.36113801409E+01  0.62132329774E+01  0.10632231020E+02  0.51100000000E-03 0.  1.
         12    1    3    3    0    0 -0.24713044582E+02  0.20372168293E+02 -0.26501840733E+02  0.41570510890E+02  0.00000000000E+00 0. -1.
</event>
<event>
 7    1  0.7383168E-013  0.5930196E+02  0.7816164E-02  0.1266605E+00
        -11   -1    0    0    0    0  0.00000000000E+00  0.00000000000E+00  0.45593999997E+02  0.45594000000E+02  0.51100000000E-03 0. -1.
         11   -1    0    0    0    0 -0.00000000000E+00 -0.00000000000E+00 -0.45593999997E+02  0.45594000000E+02  0.51100000000E-03 0.  1.
    9900012    2    1    2    0    0  0.33645099776E+01 -0.18714456614E+02  0.25596261920E+02  0.59301961707E+02  0.50000032243E+02 0.  0.
        -12    1    1    2    0    0 -0.33645099776E+01  0.18714456614E+02 -0.25596261920E+02  0.31886038293E+02  0.00000000000E+00 0.  1.
         11    1    3    3    0    0 -0.10233411403E+02 -0.90240224101E+01  0.40529506602E+01  0.14233133833E+02  0.51100000000E-03 0. -1.
        -11    1    3    3    0    0  0.16544449739E+02 -0.21447987425E+02  0.17680320403E+02  0.32347004676E+02  0.51100000000E-03 0.  1.
         12    1    3    3    0    0 -0.29465283582E+01  0.11757553221E+02  0.38629908572E+01  0.12721823198E+02  0.00000000000E+00 0. -1.
</event>
<event>
 7    1  0.7383168E-013  0.5930192E+02  0.7816164E-02  0.1266605E+00
        -11   -1    0    0    0    0  0.00000000000E+00  0.00000000000E+00  0.45593999997E+02  0.45594000000E+02  0.51100000000E-03 0.  1.
         11   -1    0    0    0    0 -0.00000000000E+00 -0.00000000000E+00 -0.45593999997E+02  0.45594000000E+02  0.51100000000E-03 0. -1.
    9900012    2    1    2    0    0 -0.31560823483E+02  0.40129703780E+01  0.21289750043E+01  0.59301920831E+02  0.49999957696E+02 0.  0.
        -12    1    1    2    0    0  0.31560823483E+02 -0.40129703780E+01 -0.21289750043E+01  0.31886079169E+02  0.00000000000E+00 0.  1.
         11    1    3    3    0    0 -0.18122660466E+01  0.37781420142E+01 -0.17527702710E+01  0.45421216615E+01  0.51100000000E-03 0. -1.
        -11    1    3    3    0    0  0.51946234296E+01  0.89461846166E+01 -0.11615366981E+02  0.15554262507E+02  0.51100000000E-03 0.  1.
        -12    1    3    3    0    0 -0.34943180866E+02 -0.87113562529E+01  0.15497112256E+02  0.39205536663E+02  0.00000000000E+00 0.  1.
</event>
<event>
 7    1  0.7383168E-013  0.5930197E+02  0.7816164E-02  0.1266605E+00
        -11   -1    0    0    0    0  0.00000000000E+00  0.00000000000E+00  0.45593999997E+02  0.45594000000E+02  0.51100000000E-03 0.  1.
         11   -1    0    0    0    0 -0.00000000000E+00 -0.00000000000E+00 -0.45593999997E+02  0.45594000000E+02  0.51100000000E-03 0. -1.
    9900012    2    1    2    0    0  0.62840138152E+01 -0.98081530479E+01 -0.29682153450E+02  0.59301969684E+02  0.50000046792E+02 0.  0.
        -12    1    1    2    0    0 -0.62840138152E+01  0.98081530479E+01  0.29682153450E+02  0.31886030316E+02  0.00000000000E+00 0.  1.
         11    1    3    3    0    0  0.13385921638E+02  0.10161371175E+02 -0.14569185760E+02  0.22241797054E+02  0.51100000000E-03 0. -1.
        -11    1    3    3    0    0  0.44505061495E+01  0.35311669612E+00 -0.12815514822E+02  0.13570892263E+02  0.51100000000E-03 0.  1.
        -12    1    3    3    0    0 -0.11552413972E+02 -0.20322640919E+02 -0.22974528683E+01  0.23489280367E+02  0.00000000000E+00 0.  1.
</event>
<event>
 7    1  0.7383168E-013  0.5930196E+02  0.7816164E-02  0.1266605E+00
        -11   -1    0    0    0    0  0.00000000000E+00  0.00000000000E+00  0.45593999997E+02  0.45594000000E+02  0.51100000000E-03 0.  1.
         11   -1    0    0    0    0 -0.00000000000E+00 -0.00000000000E+00 -0.45593999997E+02  0.45594000000E+02  0.51100000000E-03 0. -1.
    9900012    2    1    2    0    0 -0.13262334989E+02 -0.37370915964E+01 -0.28755249708E+02  0.59301956521E+02  0.50000022785E+02 0.  0.
        -12    1    1    2    0    0  0.13262334989E+02  0.37370915964E+01  0.28755249708E+02  0.31886043479E+02  0.00000000000E+00 0.  1.
         11    1    3    3    0    0 -0.96836515181E+01  0.13684472215E+02 -0.13647751611E+02  0.21617099963E+02  0.51100000000E-03 0. -1.
        -11    1    3    3    0    0  0.72183405198E+00  0.46167202523E+01  0.54936173735E+01  0.72121413182E+01  0.51100000000E-03 0.  1.
        -12    1    3    3    0    0 -0.43005175227E+01 -0.22038284063E+02 -0.20601115471E+02  0.30472715239E+02  0.00000000000E+00 0.  1.
</event>
<event>
 7    1  0.7383168E-013  0.5930189E+02  0.7816164E-02  0.1266605E+00
        -11   -1    0    0    0    0  0.00000000000E+00  0.00000000000E+00  0.45593999997E+02  0.45594000000E+02  0.51100000000E-03 0.  1.
         11   -1    0    0    0    0 -0.00000000000E+00 -0.00000000000E+00 -0.45593999997E+02  0.45594000000E+02  0.51100000000E-03 0. -1.
    9900012    2    1    2    0    0  0.21021325676E+02  0.19877434115E+02 -0.13405802019E+02  0.59301889420E+02  0.49999900408E+02 0.  0.
        -12    1    1    2    0    0 -0.21021325676E+02 -0.19877434115E+02  0.13405802019E+02  0.31886110580E+02  0.00000000000E+00 0.  1.
         11    1    3    3    0    0  0.11336720723E+02  0.14477039390E+02 -0.89247300862E+01  0.20439097672E+02  0.51100000000E-03 0. -1.
        -11    1    3    3    0    0  0.97720830715E+01  0.78683630834E+01  0.14812554569E+02  0.19411762370E+02  0.51100000000E-03 0.  1.
         12    1    3    3    0    0 -0.87478118770E-01 -0.24679683587E+01 -0.19293626503E+02  0.19451029378E+02  0.00000000000E+00 0. -1.
</event>
<event>
 7    1  0.7383168E-013  0.5930194E+02  0.7816164E-02  0.1266605E+00
        -11   -1    0    0    0    0  0.00000000000E+00  0.00000000000E+00  0.45593999997E+02  0.45594000000E+02  0.51100000000E-03 0. -1.
         11   -1    0    0    0    0 -0.00000000000E+00 -0.00000000000E+00 -0.45593999997E+02  0.45594000000E+02  0.51100000000E-03 0.  1.
    9900012    2    1    2    0    0  0.64561831045E+01  0.27481505613E+02  0.14825829519E+02  0.59301942358E+02  0.49999996954E+02 0.  0.
        -12    1    1    2    0    0 -0.64561831045E+01 -0.27481505613E+02 -0.14825829519E+02  0.31886057642E+02  0.00000000000E+00 0.  1.
         11    1    3    3    0    0 -0.98007147755E+01  0.51662426969E+01  0.65238184606E+01  0.12857071256E+02  0.51100000000E-03 0. -1.
        -11    1    3    3    0    0  0.84487689978E+01  0.33984784795E+01  0.20632144846E+02  0.22552533223E+02  0.51100000000E-03 0.  1.
         12    1    3    3    0    0  0.78081288822E+01  0.18916784437E+02 -0.12330133788E+02  0.23892337879E+02  0.00000000000E+00 0. -1.
</event>
<event>
 7    1  0.7383168E-013  0.5930194E+02  0.7816164E-02  0.1266605E+00
        -11   -1    0    0    0    0  0.00000000000E+00  0.00000000000E+00  0.45593999997E+02  0.45594000000E+02  0.51100000000E-03 0. -1.
         11   -1    0    0    0    0 -0.00000000000E+00 -0.00000000000E+00 -0.45593999997E+02  0.45594000000E+02  0.51100000000E-03 0.  1.
    9900012    2    1    2    0    0  0.52706359419E+01  0.24015608069E+02  0.20302513563E+02  0.59301935785E+02  0.49999984967E+02 0.  0.
        -12    1    1    2    0    0 -0.52706359419E+01 -0.24015608069E+02 -0.20302513563E+02  0.31886064215E+02  0.00000000000E+00 0.  1.
         11    1    3    3    0    0  0.95619121466E+01  0.46075409554E+01  0.15293646653E+02  0.18615993816E+02  0.51100000000E-03 0. -1.
        -11    1    3    3    0    0  0.12615625492E+02  0.66380421188E+01 -0.74725542145E+01  0.16095237696E+02  0.51100000000E-03 0.  1.
         12    1    3    3    0    0 -0.16906901697E+02  0.12770024995E+02  0.12481421125E+02  0.24590704273E+02  0.00000000000E+00 0. -1.
</event>
<event>
 7    1  0.7383168E-013  0.5930194E+02  0.7816164E-02  0.1266605E+00
        -11   -1    0    0    0    0  0.00000000000E+00  0.00000000000E+00  0.45593999997E+02  0.45594000000E+02  0.51100000000E-03 0.  1.
         11   -1    0    0    0    0 -0.00000000000E+00 -0.00000000000E+00 -0.45593999997E+02  0.45594000000E+02  0.51100000000E-03 0. -1.
    9900012    2    1    2    0    0 -0.42574039273E+01  0.30576578777E+02  0.79792426030E+01  0.59301937678E+02  0.49999988420E+02 0.  0.
        -12    1    1    2    0    0  0.42574039273E+01 -0.30576578777E+02 -0.79792426030E+01  0.31886062322E+02  0.00000000000E+00 0.  1.
         11    1    3    3    0    0 -0.65310400494E+01  0.13701994128E+01 -0.13678610208E+01  0.68119728854E+01  0.51100000000E-03 0. -1.
        -11    1    3    3    0    0 -0.13979995579E+01 -0.53593875216E+01 -0.10926069508E+02  0.12249752346E+02  0.51100000000E-03 0.  1.
         12    1    3    3    0    0  0.36716356800E+01  0.34565766885E+02  0.20273173132E+02  0.40240212447E+02  0.00000000000E+00 0. -1.
</event>
<event>
 7    1  0.7383168E-013  0.5930181E+02  0.7816164E-02  0.1266605E+00
        -11   -1    0    0    0    0  0.00000000000E+00  0.00000000000E+00  0.45593999997E+02  0.45594000000E+02  0.51100000000E-03 0.  1.
         11   -1    0    0    0    0 -0.00000000000E+00 -0.00000000000E+00 -0.45593999997E+02  0.45594000000E+02  0.51100000000E-03 0. -1.
    9900012    2    1    2    0    0 -0.16448519601E+02  0.24065889769E+02 -0.12923163576E+02  0.59301811701E+02  0.49999758667E+02 0.  0.
        -12    1    1    2    0    0  0.16448519601E+02 -0.24065889769E+02  0.12923163576E+02  0.31886188299E+02  0.00000000000E+00 0.  1.
         11    1    3    3    0    0 -0.27849130612E+01  0.30252712230E+02  0.39503330899E+00  0.30383192551E+02  0.51100000000E-03 0. -1.
        -11    1    3    3    0    0  0.34542320474E+01  0.85873280767E+00  0.26774161438E+01  0.44539531363E+01  0.51100000000E-03 0.  1.
         12    1    3    3    0    0 -0.17117838587E+02 -0.70455552687E+01 -0.15995613029E+02  0.24464666013E+02  0.00000000000E+00 0. -1.
</event>
<event>
 7    1  0.7383168E-013  0.5930192E+02  0.7816164E-02  0.1266605E+00
        -11   -1    0    0    0    0  0.00000000000E+00  0.00000000000E+00  0.45593999997E+02  0.45594000000E+02  0.51100000000E-03 0.  1.
         11   -1    0    0    0    0 -0.00000000000E+00 -0.00000000000E+00 -0.45593999997E+02  0.45594000000E+02  0.51100000000E-03 0. -1.
    9900012    2    1    2    0    0 -0.94260494165E+01  0.20944161232E+01 -0.30388896542E+02  0.59301921227E+02  0.49999958417E+02 0.  0.
        -12    1    1    2    0    0  0.94260494165E+01 -0.20944161232E+01  0.30388896542E+02  0.31886078773E+02  0.00000000000E+00 0.  1.
         11    1    3    3    0    0  0.38903889524E+01  0.62281418972E+01 -0.86320632686E+01  0.11333022290E+02  0.51100000000E-03 0. -1.
        -11    1    3    3    0    0 -0.16383039155E+02 -0.65482014004E+01 -0.32256999387E+02  0.36766791039E+02  0.51100000000E-03 0.  1.
         12    1    3    3    0    0  0.30666007865E+01  0.24144756264E+01  0.10500166114E+02  0.11202107898E+02  0.00000000000E+00 0. -1.
</event>
<event>
 7    1  0.7383168E-013  0.5930196E+02  0.7816164E-02  0.1266605E+00
        -11   -1    0    0    0    0  0.00000000000E+00  0.00000000000E+00  0.45593999997E+02  0.45594000000E+02  0.51100000000E-03 0.  1.
         11   -1    0    0    0    0 -0.00000000000E+00 -0.00000000000E+00 -0.45593999997E+02  0.45594000000E+02  0.51100000000E-03 0. -1.
    9900012    2    1    2    0    0  0.17524441649E+02  0.19530306971E+01 -0.26566886818E+02  0.59301955102E+02  0.50000020197E+02 0.  0.
        -12    1    1    2    0    0 -0.17524441649E+02 -0.19530306971E+01  0.26566886818E+02  0.31886044898E+02  0.00000000000E+00 0.  1.
         11    1    3    3    0    0  0.10353465988E+02 -0.69940240357E+01 -0.21147493843E+01  0.12672126711E+02  0.51100000000E-03 0. -1.
        -11    1    3    3    0    0  0.21257504941E+02  0.12663379902E+01 -0.58902395521E+01  0.22094796909E+02  0.51100000000E-03 0.  1.
         12    1    3    3    0    0 -0.14086529280E+02  0.76807167426E+01 -0.18561897882E+02  0.24535031482E+02  0.00000000000E+00 0. -1.
</event>
<event>
 7    1  0.7383168E-013  0.5930197E+02  0.7816164E-02  0.1266605E+00
        -11   -1    0    0    0    0  0.00000000000E+00  0.00000000000E+00  0.45593999997E+02  0.45594000000E+02  0.51100000000E-03 0.  1.
         11   -1    0    0    0    0 -0.00000000000E+00 -0.00000000000E+00 -0.45593999997E+02  0.45594000000E+02  0.51100000000E-03 0. -1.
    9900012    2    1    2    0    0  0.14144441025E+02 -0.16376143598E+02 -0.23419551294E+02  0.59301973689E+02  0.50000054096E+02 0.  0.
        -12    1    1    2    0    0 -0.14144441025E+02  0.16376143598E+02  0.23419551294E+02  0.31886026311E+02  0.00000000000E+00 0.  1.
         11    1    3    3    0    0  0.79225199391E+01  0.78140154057E+01  0.35875365628E+01  0.11691688407E+02  0.51100000000E-03 0.  1.
        -11    1    3    3    0    0  0.10986716440E+02  0.26006435791E+01 -0.40050973841E+01  0.11979653187E+02  0.51100000000E-03 0. -1.
         12    1    3    3    0    0 -0.47647953546E+01 -0.26790802583E+02 -0.23001990473E+02  0.35630632096E+02  0.00000000000E+00 0. -1.
</event>
<event>
 7    1  0.7383168E-013  0.5930193E+02  0.7816164E-02  0.1266605E+00
        -11   -1    0    0    0    0  0.00000000000E+00  0.00000000000E+00  0.45593999997E+02  0.45594000000E+02  0.51100000000E-03 0.  1.
         11   -1    0    0    0    0 -0.00000000000E+00 -0.00000000000E+00 -0.45593999997E+02  0.45594000000E+02  0.51100000000E-03 0. -1.
    9900012    2    1    2    0    0  0.10482843651E+02  0.24043443494E+02  0.18131308735E+02  0.59301928707E+02  0.49999972059E+02 0.  0.
        -12    1    1    2    0    0 -0.10482843651E+02 -0.24043443494E+02 -0.18131308735E+02  0.31886071293E+02  0.00000000000E+00 0.  1.
         11    1    3    3    0    0  0.12522955406E+02  0.12145801126E+02 -0.19730595291E+01  0.17556704168E+02  0.51100000000E-03 0. -1.
        -11    1    3    3    0    0 -0.16852666491E+01 -0.11386940020E+02  0.13075195583E+02  0.17420197085E+02  0.51100000000E-03 0.  1.
         12    1    3    3    0    0 -0.35484510631E+00  0.23284582388E+02  0.70291726810E+01  0.24325027454E+02  0.00000000000E+00 0. -1.
</event>
<event>
 7    1  0.7383168E-013  0.5930199E+02  0.7816164E-02  0.1266605E+00
        -11   -1    0    0    0    0  0.00000000000E+00  0.00000000000E+00  0.45593999997E+02  0.45594000000E+02  0.51100000000E-03 0.  1.
         11   -1    0    0    0    0 -0.00000000000E+00 -0.00000000000E+00 -0.45593999997E+02  0.45594000000E+02  0.51100000000E-03 0. -1.
    9900012    2    1    2    0    0 -0.24539388330E+02  0.20094564259E+02 -0.32778680143E+01  0.59301991923E+02  0.50000087349E+02 0.  0.
        -12    1    1    2    0    0  0.24539388330E+02 -0.20094564259E+02  0.32778680143E+01  0.31886008077E+02  0.00000000000E+00 0.  1.
         11    1    3    3    0    0 -0.21526704211E+02  0.98843410525E+01  0.59986331346E+00  0.23695126682E+02  0.51100000000E-03 0.  1.
        -11    1    3    3    0    0 -0.14141563480E+02  0.13144092226E+02 -0.10853894980E+02  0.22148544300E+02  0.51100000000E-03 0. -1.
         12    1    3    3    0    0  0.11128879361E+02 -0.29338690191E+01  0.69761636521E+01  0.13458320941E+02  0.00000000000E+00 0. -1.
</event>
<event>
 7    1  0.7383168E-013  0.5930194E+02  0.7816164E-02  0.1266605E+00
        -11   -1    0    0    0    0  0.00000000000E+00  0.00000000000E+00  0.45593999997E+02  0.45594000000E+02  0.51100000000E-03 0. -1.
         11   -1    0    0    0    0 -0.00000000000E+00 -0.00000000000E+00 -0.45593999997E+02  0.45594000000E+02  0.51100000000E-03 0.  1.
    9900012    2    1    2    0    0 -0.79308562088E+01  0.18685476671E+02  0.24590145956E+02  0.59301940400E+02  0.49999993385E+02 0.  0.
        -12    1    1    2    0    0  0.79308562088E+01 -0.18685476671E+02 -0.24590145956E+02  0.31886059600E+02  0.00000000000E+00 0.  1.
         11    1    3    3    0    0  0.40342648865E+01  0.51952636215E+00 -0.52219437943E+01  0.66192067551E+01  0.51100000000E-03 0.  1.
        -11    1    3    3    0    0  0.66425236422E+01  0.78521021578E+00 -0.58347124680E+01  0.88760095350E+01  0.51100000000E-03 0. -1.
         12    1    3    3    0    0 -0.18607644737E+02  0.17380740093E+02  0.35646802219E+02  0.43806724110E+02  0.00000000000E+00 0. -1.
</event>
<event>
 7    1  0.7383168E-013  0.5930193E+02  0.7816164E-02  0.1266605E+00
        -11   -1    0    0    0    0  0.00000000000E+00  0.00000000000E+00  0.45593999997E+02  0.45594000000E+02  0.51100000000E-03 0. -1.
         11   -1    0    0    0    0 -0.00000000000E+00 -0.00000000000E+00 -0.45593999997E+02  0.45594000000E+02  0.51100000000E-03 0.  1.
    9900012    2    1    2    0    0  0.43052601807E+01  0.20994983460E+02  0.23609247412E+02  0.59301934719E+02  0.49999983024E+02 0.  0.
        -12    1    1    2    0    0 -0.43052601807E+01 -0.20994983460E+02 -0.23609247412E+02  0.31886065281E+02  0.00000000000E+00 0.  1.
         11    1    3    3    0    0  0.14541337807E+02  0.45871828547E+01  0.88177667843E+01  0.17613794681E+02  0.51100000000E-03 0. -1.
        -11    1    3    3    0    0  0.10656954357E+02  0.71134142111E+01  0.13754103495E+02  0.18797518483E+02  0.51100000000E-03 0.  1.
         12    1    3    3    0    0 -0.20893031983E+02  0.92943863941E+01  0.10373771329E+01  0.22890621555E+02  0.00000000000E+00 0. -1.
</event>
<event>
 7    1  0.7383168E-013  0.5930192E+02  0.7816164E-02  0.1266605E+00
        -11   -1    0    0    0    0  0.00000000000E+00  0.00000000000E+00  0.45593999997E+02  0.45594000000E+02  0.51100000000E-03 0.  1.
         11   -1    0    0    0    0 -0.00000000000E+00 -0.00000000000E+00 -0.45593999997E+02  0.45594000000E+02  0.51100000000E-03 0. -1.
    9900012    2    1    2    0    0  0.19410258242E+02  0.13104617801E+01 -0.25263539381E+02  0.59301923773E+02  0.49999963061E+02 0.  0.
        -12    1    1    2    0    0 -0.19410258242E+02 -0.13104617801E+01  0.25263539381E+02  0.31886076227E+02  0.00000000000E+00 0.  1.
         11    1    3    3    0    0  0.18616056437E+01  0.59392496663E+00  0.19986616705E+01  0.27951692566E+01  0.51100000000E-03 0. -1.
        -11    1    3    3    0    0  0.28481162435E+02 -0.12611865516E+02 -0.23081790275E+02  0.38768605959E+02  0.51100000000E-03 0.  1.
         12    1    3    3    0    0 -0.10932509837E+02  0.13328402330E+02 -0.41804107764E+01  0.17738148558E+02  0.00000000000E+00 0. -1.
</event>
<event>
 7    1  0.7383168E-013  0.5930195E+02  0.7816164E-02  0.1266605E+00
        -11   -1    0    0    0    0  0.00000000000E+00  0.00000000000E+00  0.45593999997E+02  0.45594000000E+02  0.51100000000E-03 0.  1.
         11   -1    0    0    0    0 -0.00000000000E+00 -0.00000000000E+00 -0.45593999997E+02  0.45594000000E+02  0.51100000000E-03 0. -1.
    9900012    2    1    2    0    0  0.25040104385E+02 -0.10837392734E+02  0.16500429747E+02  0.59301951472E+02  0.50000013576E+02 0.  0.
        -12    1    1    2    0    0 -0.25040104385E+02  0.10837392734E+02 -0.16500429747E+02  0.31886048528E+02  0.00000000000E+00 0.  1.
         11    1    3    3    0    0  0.92232721919E+01 -0.61565685781E+01  0.86691664686E+00  0.11123112483E+02  0.51100000000E-03 0. -1.
        -11    1    3    3    0    0  0.12738641780E+01 -0.19429303509E+02 -0.37294922992E+01  0.19824976112E+02  0.51100000000E-03 0.  1.
        -12    1    3    3    0    0  0.14542968015E+02  0.14748479353E+02  0.19363005399E+02  0.28353862876E+02  0.00000000000E+00 0.  1.
</event>
<event>
 7    1  0.7383168E-013  0.5930199E+02  0.7816164E-02  0.1266605E+00
        -11   -1    0    0    0    0  0.00000000000E+00  0.00000000000E+00  0.45593999997E+02  0.45594000000E+02  0.51100000000E-03 0.  1.
         11   -1    0    0    0    0 -0.00000000000E+00 -0.00000000000E+00 -0.45593999997E+02  0.45594000000E+02  0.51100000000E-03 0. -1.
    9900012    2    1    2    0    0 -0.78404400281E+01  0.52000253850E+01 -0.30466457876E+02  0.59301987089E+02  0.50000078534E+02 0.  0.
        -12    1    1    2    0    0  0.78404400281E+01 -0.52000253850E+01  0.30466457876E+02  0.31886012911E+02  0.00000000000E+00 0.  1.
         11    1    3    3    0    0  0.17434266971E+01  0.68182152440E+01 -0.26610364260E+01  0.75238760545E+01  0.51100000000E-03 0. -1.
        -11    1    3    3    0    0  0.16997164238E+01 -0.19771970225E+02 -0.22002086863E+02  0.29629574230E+02  0.51100000000E-03 0.  1.
         12    1    3    3    0    0 -0.11283583149E+02  0.18153780366E+02 -0.58033345870E+01  0.22148536804E+02  0.00000000000E+00 0. -1.
</event>
<event>
 7    1  0.7383168E-013  0.5930193E+02  0.7816164E-02  0.1266605E+00
        -11   -1    0    0    0    0  0.00000000000E+00  0.00000000000E+00  0.45593999997E+02  0.45594000000E+02  0.51100000000E-03 0.  1.
         11   -1    0    0    0    0 -0.00000000000E+00 -0.00000000000E+00 -0.45593999997E+02  0.45594000000E+02  0.51100000000E-03 0. -1.
    9900012    2    1    2    0    0  0.26800853298E+02 -0.25221513277E+01 -0.17090194275E+02  0.59301925843E+02  0.49999966835E+02 0.  0.
        -12    1    1    2    0    0 -0.26800853298E+02  0.25221513277E+01  0.17090194275E+02  0.31886074157E+02  0.00000000000E+00 0.  1.
         11    1    3    3    0    0 -0.77541059092E+01  0.18931455563E+01 -0.12884838399E+02  0.15156820887E+02  0.51100000000E-03 0. -1.
        -11    1    3    3    0    0  0.63548098241E+00  0.28067767083E+01 -0.87107865115E+01  0.91738559766E+01  0.51100000000E-03 0.  1.
        -12    1    3    3    0    0  0.33919478224E+02 -0.72220735922E+01  0.45054306358E+01  0.34971248980E+02  0.00000000000E+00 0.  1.
</event>
<event>
 7    1  0.7383168E-013  0.5930195E+02  0.7816164E-02  0.1266605E+00
        -11   -1    0    0    0    0  0.00000000000E+00  0.00000000000E+00  0.45593999997E+02  0.45594000000E+02  0.51100000000E-03 0.  1.
         11   -1    0    0    0    0 -0.00000000000E+00 -0.00000000000E+00 -0.45593999997E+02  0.45594000000E+02  0.51100000000E-03 0. -1.
    9900012    2    1    2    0    0 -0.45062413025E+00  0.23225605109E+02 -0.21842351319E+02  0.59301951234E+02  0.50000013143E+02 0.  0.
        -12    1    1    2    0    0  0.45062413025E+00 -0.23225605109E+02  0.21842351319E+02  0.31886048766E+02  0.00000000000E+00 0.  1.
         11    1    3    3    0    0 -0.16739056573E+02  0.64727651924E+01 -0.75396995438E+01  0.19466375463E+02  0.51100000000E-03 0. -1.
        -11    1    3    3    0    0  0.15363974377E+01 -0.10157057376E+01  0.77124586879E+01  0.79293249716E+01  0.51100000000E-03 0.  1.
        -12    1    3    3    0    0  0.14752035005E+02  0.17768545654E+02 -0.22015110463E+02  0.31906250800E+02  0.00000000000E+00 0.  1.
</event>
<event>
 7    1  0.7383168E-013  0.5930194E+02  0.7816164E-02  0.1266605E+00
        -11   -1    0    0    0    0  0.00000000000E+00  0.00000000000E+00  0.45593999997E+02  0.45594000000E+02  0.51100000000E-03 0.  1.
         11   -1    0    0    0    0 -0.00000000000E+00 -0.00000000000E+00 -0.45593999997E+02  0.45594000000E+02  0.51100000000E-03 0. -1.
    9900012    2    1    2    0    0 -0.27070769585E+02 -0.16709456128E+02  0.21652405149E+01  0.59301941032E+02  0.49999994537E+02 0.  0.
        -12    1    1    2    0    0  0.27070769585E+02  0.16709456128E+02 -0.21652405149E+01  0.31886058968E+02  0.00000000000E+00 0.  1.
         11    1    3    3    0    0 -0.27086012561E+02  0.33894259299E+01 -0.36025975877E+01  0.27533960744E+02  0.51100000000E-03 0. -1.
        -11    1    3    3    0    0  0.69664217930E+01  0.25983828408E+01  0.49574709066E+00  0.74517374769E+01  0.51100000000E-03 0.  1.
        -12    1    3    3    0    0 -0.69511788161E+01 -0.22697264899E+02  0.52720910120E+01  0.24316242812E+02  0.00000000000E+00 0.  1.
</event>
<event>
 7    1  0.7383168E-013  0.5930197E+02  0.7816164E-02  0.1266605E+00
        -11   -1    0    0    0    0  0.00000000000E+00  0.00000000000E+00  0.45593999997E+02  0.45594000000E+02  0.51100000000E-03 0. -1.
         11   -1    0    0    0    0 -0.00000000000E+00 -0.00000000000E+00 -0.45593999997E+02  0.45594000000E+02  0.51100000000E-03 0.  1.
    9900012    2    1    2    0    0 -0.30980865603E+02  0.39985303988E+01  0.63965988155E+01  0.59301972413E+02  0.50000051768E+02 0.  0.
        -12    1    1    2    0    0  0.30980865603E+02 -0.39985303988E+01 -0.63965988155E+01  0.31886027587E+02  0.00000000000E+00 0.  1.
         11    1    3    3    0    0 -0.20198609603E+02 -0.51541755110E+01  0.62564118849E+01  0.21764467488E+02  0.51100000000E-03 0. -1.
        -11    1    3    3    0    0 -0.76393923582E+01 -0.83025319002E+01  0.11789280820E+02  0.16318072621E+02  0.51100000000E-03 0.  1.
        -12    1    3    3    0    0 -0.31428636417E+01  0.17455237810E+02 -0.11649093889E+02  0.21219432304E+02  0.00000000000E+00 0.  1.
</event>
<event>
 7    1  0.7383168E-013  0.5930194E+02  0.7816164E-02  0.1266605E+00
        -11   -1    0    0    0    0  0.00000000000E+00  0.00000000000E+00  0.45593999997E+02  0.45594000000E+02  0.51100000000E-03 0.  1.
         11   -1    0    0    0    0 -0.00000000000E+00 -0.00000000000E+00 -0.45593999997E+02  0.45594000000E+02  0.51100000000E-03 0. -1.
    9900012    2    1    2    0    0 -0.17704308270E+02  0.14555634092E+02 -0.22167805016E+02  0.59301943574E+02  0.49999999173E+02 0.  0.
        -12    1    1    2    0    0  0.17704308270E+02 -0.14555634092E+02  0.22167805016E+02  0.31886056426E+02  0.00000000000E+00 0.  1.
         11    1    3    3    0    0 -0.15877696923E+02  0.85990852371E+01  0.12472583670E+01  0.18099756357E+02  0.51100000000E-03 0. -1.
        -11    1    3    3    0    0 -0.16483737064E+02 -0.28459607286E+01 -0.10189989850E+02  0.19586959270E+02  0.51100000000E-03 0.  1.
         12    1    3    3    0    0  0.14657125716E+02  0.88025095835E+01 -0.13225073534E+02  0.21615227947E+02  0.00000000000E+00 0. -1.
</event>
<event>
 7    1  0.7383168E-013  0.5930196E+02  0.7816164E-02  0.1266605E+00
        -11   -1    0    0    0    0  0.00000000000E+00  0.00000000000E+00  0.45593999997E+02  0.45594000000E+02  0.51100000000E-03 0.  1.
         11   -1    0    0    0    0 -0.00000000000E+00 -0.00000000000E+00 -0.45593999997E+02  0.45594000000E+02  0.51100000000E-03 0. -1.
    9900012    2    1    2    0    0  0.29508341288E+02 -0.29675939552E+00 -0.12078452022E+02  0.59301964264E+02  0.50000036906E+02 0.  0.
        -12    1    1    2    0    0 -0.29508341288E+02  0.29675939552E+00  0.12078452022E+02  0.31886035736E+02  0.00000000000E+00 0.  1.
         11    1    3    3    0    0 -0.47762632470E+00 -0.22815266728E+01 -0.77222153172E+01  0.80663560875E+01  0.51100000000E-03 0. -1.
        -11    1    3    3    0    0 -0.98523439458E+01  0.50926588477E+01 -0.96279539649E+00  0.11132422495E+02  0.51100000000E-03 0.  1.
        -12    1    3    3    0    0  0.39838311559E+02 -0.31078915704E+01 -0.33934413080E+01  0.40103185681E+02  0.00000000000E+00 0.  1.
</event>
<event>
 7    1  0.7383168E-013  0.5930194E+02  0.7816164E-02  0.1266605E+00
        -11   -1    0    0    0    0  0.00000000000E+00  0.00000000000E+00  0.45593999997E+02  0.45594000000E+02  0.51100000000E-03 0.  1.
         11   -1    0    0    0    0 -0.00000000000E+00 -0.00000000000E+00 -0.45593999997E+02  0.45594000000E+02  0.51100000000E-03 0. -1.
    9900012    2    1    2    0    0  0.17482143110E+02 -0.26616290255E+02  0.16335885488E+01  0.59301939625E+02  0.49999991971E+02 0.  0.
        -12    1    1    2    0    0 -0.17482143110E+02  0.26616290255E+02 -0.16335885488E+01  0.31886060375E+02  0.00000000000E+00 0.  1.
         11    1    3    3    0    0 -0.50589624372E+00  0.17006887718E+01  0.29923122705E+01  0.34788225441E+01  0.51100000000E-03 0. -1.
        -11    1    3    3    0    0 -0.84684894494E+00  0.29551162247E+01  0.15364406649E+02  0.15668913714E+02  0.51100000000E-03 0.  1.
         12    1    3    3    0    0  0.18834888298E+02 -0.31272095252E+02 -0.16723130371E+02  0.40154203367E+02  0.00000000000E+00 0. -1.
</event>
<event>
 7    1  0.7383168E-013  0.5930195E+02  0.7816164E-02  0.1266605E+00
        -11   -1    0    0    0    0  0.00000000000E+00  0.00000000000E+00  0.45593999997E+02  0.45594000000E+02  0.51100000000E-03 0.  1.
         11   -1    0    0    0    0 -0.00000000000E+00 -0.00000000000E+00 -0.45593999997E+02  0.45594000000E+02  0.51100000000E-03 0. -1.
    9900012    2    1    2    0    0 -0.20000726831E+02 -0.13949946298E+01 -0.24794059773E+02  0.59301945308E+02  0.50000002335E+02 0.  0.
        -12    1    1    2    0    0  0.20000726831E+02  0.13949946298E+01  0.24794059773E+02  0.31886054692E+02  0.00000000000E+00 0.  1.
         11    1    3    3    0    0  0.80733787420E+00 -0.90686481017E+01 -0.79812392240E+01  0.12107532889E+02  0.51100000000E-03 0. -1.
        -11    1    3    3    0    0 -0.23956158264E+02 -0.59549444930E+01  0.80602145127E+00  0.24698351231E+02  0.51100000000E-03 0.  1.
         12    1    3    3    0    0  0.31480935593E+01  0.13628597965E+02 -0.17618842001E+02  0.22496061188E+02  0.00000000000E+00 0. -1.
</event>
<event>
 7    1  0.7383168E-013  0.5930195E+02  0.7816164E-02  0.1266605E+00
        -11   -1    0    0    0    0  0.00000000000E+00  0.00000000000E+00  0.45593999997E+02  0.45594000000E+02  0.51100000000E-03 0.  1.
         11   -1    0    0    0    0 -0.00000000000E+00 -0.00000000000E+00 -0.45593999997E+02  0.45594000000E+02  0.51100000000E-03 0. -1.
    9900012    2    1    2    0    0  0.32967292773E+01  0.29508742154E+02 -0.11622643003E+02  0.59301951047E+02  0.50000012802E+02 0.  0.
        -12    1    1    2    0    0 -0.32967292773E+01 -0.29508742154E+02  0.11622643003E+02  0.31886048953E+02  0.00000000000E+00 0.  1.
         11    1    3    3    0    0 -0.10024693087E+01  0.34705720335E+00  0.34558702583E+01  0.36150287579E+01  0.51100000000E-03 0. -1.
        -11    1    3    3    0    0  0.18622277740E+02  0.15730609188E+02  0.77465526819E+01  0.25578318404E+02  0.51100000000E-03 0.  1.
         12    1    3    3    0    0 -0.14323079154E+02  0.13431075762E+02 -0.22825065943E+02  0.30108603885E+02  0.00000000000E+00 0. -1.
</event>
<event>
 7    1  0.7383168E-013  0.5930194E+02  0.7816164E-02  0.1266605E+00
        -11   -1    0    0    0    0  0.00000000000E+00  0.00000000000E+00  0.45593999997E+02  0.45594000000E+02  0.51100000000E-03 0.  1.
         11   -1    0    0    0    0 -0.00000000000E+00 -0.00000000000E+00 -0.45593999997E+02  0.45594000000E+02  0.51100000000E-03 0. -1.
    9900012    2    1    2    0    0  0.21355253271E+02  0.20886691327E+02 -0.11154384652E+02  0.59301936997E+02  0.49999987178E+02 0.  0.
        -12    1    1    2    0    0 -0.21355253271E+02 -0.20886691327E+02  0.11154384652E+02  0.31886063003E+02  0.00000000000E+00 0.  1.
         11    1    3    3    0    0  0.21832116197E+02  0.30034797172E+01  0.40039692750E+01  0.22398525806E+02  0.51100000000E-03 0. -1.
        -11    1    3    3    0    0  0.90103771964E+01  0.28980441836E+01  0.44542604233E+01  0.10460688003E+02  0.51100000000E-03 0.  1.
        -12    1    3    3    0    0 -0.94872401231E+01  0.14985167426E+02 -0.19612614350E+02  0.26442723188E+02  0.00000000000E+00 0.  1.
</event>
<event>
 7    1  0.7383168E-013  0.5930196E+02  0.7816164E-02  0.1266605E+00
        -11   -1    0    0    0    0  0.00000000000E+00  0.00000000000E+00  0.45593999997E+02  0.45594000000E+02  0.51100000000E-03 0. -1.
         11   -1    0    0    0    0 -0.00000000000E+00 -0.00000000000E+00 -0.45593999997E+02  0.45594000000E+02  0.51100000000E-03 0.  1.
    9900012    2    1    2    0    0  0.23257574772E+02  0.13097715314E+02  0.17442903629E+02  0.59301955753E+02  0.50000021384E+02 0.  0.
        -12    1    1    2    0    0 -0.23257574772E+02 -0.13097715314E+02 -0.17442903629E+02  0.31886044247E+02  0.00000000000E+00 0.  1.
         11    1    3    3    0    0  0.49561922915E+01 -0.48730300490E+01  0.28014034934E+02  0.28863409664E+02  0.51100000000E-03 0. -1.
        -11    1    3    3    0    0  0.94709848586E+01  0.73222335389E+01  0.15176526985E+01  0.12067225371E+02  0.51100000000E-03 0.  1.
        -12    1    3    3    0    0  0.88303976215E+01  0.10648511824E+02 -0.12088784004E+02  0.18371320718E+02  0.00000000000E+00 0.  1.
</event>
<event>
 7    1  0.7383168E-013  0.5930191E+02  0.7816164E-02  0.1266605E+00
        -11   -1    0    0    0    0  0.00000000000E+00  0.00000000000E+00  0.45593999997E+02  0.45594000000E+02  0.51100000000E-03 0.  1.
         11   -1    0    0    0    0 -0.00000000000E+00 -0.00000000000E+00 -0.45593999997E+02  0.45594000000E+02  0.51100000000E-03 0. -1.
    9900012    2    1    2    0    0 -0.39047279953E+01  0.30451683464E+02  0.86122475665E+01  0.59301910013E+02  0.49999937965E+02 0.  0.
        -12    1    1    2    0    0  0.39047279953E+01 -0.30451683464E+02 -0.86122475665E+01  0.31886089987E+02  0.00000000000E+00 0.  1.
         11    1    3    3    0    0 -0.29032763164E+01 -0.24523450391E+01 -0.97756755581E+00  0.39241111283E+01  0.51100000000E-03 0. -1.
        -11    1    3    3    0    0 -0.11706210144E+02  0.38958918847E+02  0.12838446863E+02  0.42657454586E+02  0.51100000000E-03 0.  1.
         12    1    3    3    0    0  0.10704758465E+02 -0.60548903437E+01 -0.32486317406E+01  0.12720344298E+02  0.00000000000E+00 0. -1.
</event>
<event>
 7    1  0.7383168E-013  0.5930187E+02  0.7816164E-02  0.1266605E+00
        -11   -1    0    0    0    0  0.00000000000E+00  0.00000000000E+00  0.45593999997E+02  0.45594000000E+02  0.51100000000E-03 0. -1.
         11   -1    0    0    0    0 -0.00000000000E+00 -0.00000000000E+00 -0.45593999997E+02  0.45594000000E+02  0.51100000000E-03 0.  1.
    9900012    2    1    2    0    0  0.30746098588E+02  0.62901716353E+01  0.56423745392E+01  0.59301870915E+02  0.49999866660E+02 0.  0.
        -12    1    1    2    0    0 -0.30746098588E+02 -0.62901716353E+01 -0.56423745392E+01  0.31886129085E+02  0.00000000000E+00 0.  1.
         11    1    3    3    0    0  0.58594397684E+01  0.83385391195E+01 -0.38399148974E+01  0.10890785818E+02  0.51100000000E-03 0. -1.
        -11    1    3    3    0    0 -0.97890633917E+01  0.25204995098E+01  0.88419950352E+01  0.13429801053E+02  0.51100000000E-03 0.  1.
         12    1    3    3    0    0  0.34675722211E+02 -0.45688669941E+01  0.64029440145E+00  0.34981284044E+02  0.00000000000E+00 0. -1.
</event>
<event>
 7    1  0.7383168E-013  0.5930194E+02  0.7816164E-02  0.1266605E+00
        -11   -1    0    0    0    0  0.00000000000E+00  0.00000000000E+00  0.45593999997E+02  0.45594000000E+02  0.51100000000E-03 0.  1.
         11   -1    0    0    0    0 -0.00000000000E+00 -0.00000000000E+00 -0.45593999997E+02  0.45594000000E+02  0.51100000000E-03 0. -1.
    9900012    2    1    2    0    0  0.22340997085E+02 -0.22692204432E+02  0.16324043063E+01  0.59301936641E+02  0.49999986528E+02 0.  0.
        -12    1    1    2    0    0 -0.22340997085E+02  0.22692204432E+02 -0.16324043063E+01  0.31886063359E+02  0.00000000000E+00 0.  1.
         11    1    3    3    0    0  0.65151810008E+01 -0.16305216492E+02 -0.87345323921E+00  0.17580403554E+02  0.51100000000E-03 0. -1.
        -11    1    3    3    0    0  0.13189430813E+02 -0.21212378632E+02 -0.40385502854E+01  0.25302884837E+02  0.51100000000E-03 0.  1.
        -12    1    3    3    0    0  0.26363852709E+01  0.14825390692E+02  0.65444078309E+01  0.16418648249E+02  0.00000000000E+00 0.  1.
</event>
<event>
 7    1  0.7383168E-013  0.5930193E+02  0.7816164E-02  0.1266605E+00
        -11   -1    0    0    0    0  0.00000000000E+00  0.00000000000E+00  0.45593999997E+02  0.45594000000E+02  0.51100000000E-03 0. -1.
         11   -1    0    0    0    0 -0.00000000000E+00 -0.00000000000E+00 -0.45593999997E+02  0.45594000000E+02  0.51100000000E-03 0.  1.
    9900012    2    1    2    0    0  0.28780621950E+02 -0.11416700369E+02  0.76194424583E+01  0.59301934854E+02  0.49999983270E+02 0.  0.
        -12    1    1    2    0    0 -0.28780621950E+02  0.11416700369E+02 -0.76194424583E+01  0.31886065146E+02  0.00000000000E+00 0.  1.
         11    1    3    3    0    0 -0.52522416942E+01 -0.13283347759E+02  0.12459040538E+02  0.18954183229E+02  0.51100000000E-03 0. -1.
        -11    1    3    3    0    0  0.98544893845E+01 -0.23591605089E+01 -0.11087350797E+02  0.15020184662E+02  0.51100000000E-03 0.  1.
        -12    1    3    3    0    0  0.24178374259E+02  0.42258078997E+01  0.62477527170E+01  0.25327566962E+02  0.00000000000E+00 0.  1.
</event>
<event>
 7    1  0.7383168E-013  0.5930192E+02  0.7816164E-02  0.1266605E+00
        -11   -1    0    0    0    0  0.00000000000E+00  0.00000000000E+00  0.45593999997E+02  0.45594000000E+02  0.51100000000E-03 0. -1.
         11   -1    0    0    0    0 -0.00000000000E+00 -0.00000000000E+00 -0.45593999997E+02  0.45594000000E+02  0.51100000000E-03 0.  1.
    9900012    2    1    2    0    0  0.34983519936E+01 -0.28982910151E+02  0.12824759287E+02  0.59301921561E+02  0.49999959026E+02 0.  0.
        -12    1    1    2    0    0 -0.34983519936E+01  0.28982910151E+02 -0.12824759287E+02  0.31886078439E+02  0.00000000000E+00 0.  1.
         11    1    3    3    0    0  0.18784136091E+00 -0.15436100730E+02 -0.88111778381E+00  0.15462369125E+02  0.51100000000E-03 0. -1.
        -11    1    3    3    0    0 -0.39587791190E+01 -0.17656116862E+02 -0.85909617808E+01  0.20030352451E+02  0.51100000000E-03 0.  1.
         12    1    3    3    0    0  0.72692897516E+01  0.41093074416E+01  0.22296838851E+02  0.23809199985E+02  0.00000000000E+00 0. -1.
</event>
<event>
 7    1  0.7383168E-013  0.5930197E+02  0.7816164E-02  0.1266605E+00
        -11   -1    0    0    0    0  0.00000000000E+00  0.00000000000E+00  0.45593999997E+02  0.45594000000E+02  0.51100000000E-03 0.  1.
         11   -1    0    0    0    0 -0.00000000000E+00 -0.00000000000E+00 -0.45593999997E+02  0.45594000000E+02  0.51100000000E-03 0. -1.
    9900012    2    1    2    0    0  0.25290939415E+02 -0.22251406621E+01 -0.19290829790E+02  0.59301968866E+02  0.50000045300E+02 0.  0.
        -12    1    1    2    0    0 -0.25290939415E+02  0.22251406621E+01  0.19290829790E+02  0.31886031134E+02  0.00000000000E+00 0.  1.
         11    1    3    3    0    0  0.62158884402E+01 -0.14952620561E+02  0.14480808519E+01  0.16257769501E+02  0.51100000000E-03 0. -1.
        -11    1    3    3    0    0  0.14817484511E+02  0.11777284157E+02  0.27740308226E+01  0.19130016117E+02  0.51100000000E-03 0.  1.
         12    1    3    3    0    0  0.42575664637E+01  0.95019574215E+00 -0.23512941464E+02  0.23914183249E+02  0.00000000000E+00 0. -1.
</event>
<event>
 7    1  0.7383168E-013  0.5930199E+02  0.7816164E-02  0.1266605E+00
        -11   -1    0    0    0    0  0.00000000000E+00  0.00000000000E+00  0.45593999997E+02  0.45594000000E+02  0.51100000000E-03 0.  1.
         11   -1    0    0    0    0 -0.00000000000E+00 -0.00000000000E+00 -0.45593999997E+02  0.45594000000E+02  0.51100000000E-03 0. -1.
    9900012    2    1    2    0    0  0.35858027346E+01  0.27936916589E+02 -0.14946180279E+02  0.59301990612E+02  0.50000084959E+02 0.  0.
        -12    1    1    2    0    0 -0.35858027346E+01 -0.27936916589E+02  0.14946180279E+02  0.31886009388E+02  0.00000000000E+00 0.  1.
         11    1    3    3    0    0  0.81090682227E+01  0.21281521748E+02 -0.14517019233E+02  0.27007480501E+02  0.51100000000E-03 0. -1.
        -11    1    3    3    0    0 -0.55713850727E+01  0.38604285509E+01 -0.15507195369E+02  0.16923839656E+02  0.51100000000E-03 0.  1.
        -12    1    3    3    0    0  0.10481195846E+01  0.27949662900E+01  0.15078034322E+02  0.15370670455E+02  0.00000000000E+00 0.  1.
</event>
<event>
 7    1  0.7383168E-013  0.5930197E+02  0.7816164E-02  0.1266605E+00
        -11   -1    0    0    0    0  0.00000000000E+00  0.00000000000E+00  0.45593999997E+02  0.45594000000E+02  0.51100000000E-03 0.  1.
         11   -1    0    0    0    0 -0.00000000000E+00 -0.00000000000E+00 -0.45593999997E+02  0.45594000000E+02  0.51100000000E-03 0. -1.
    9900012    2    1    2    0    0  0.16175664894E+02 -0.10341521252E+02 -0.25458200659E+02  0.59301965795E+02  0.50000039698E+02 0.  0.
        -12    1    1    2    0    0 -0.16175664894E+02  0.10341521252E+02  0.25458200659E+02  0.31886034205E+02  0.00000000000E+00 0.  1.
         11    1    3    3    0    0  0.82495837614E+01  0.44931755865E+01  0.23296457251E+01  0.96784042359E+01  0.51100000000E-03 0. -1.
        -11    1    3    3    0    0 -0.29669716581E+01 -0.14096828115E+01  0.86715637889E+01  0.92728714676E+01  0.51100000000E-03 0.  1.
         12    1    3    3    0    0  0.10893052790E+02 -0.13425014027E+02 -0.36459410173E+02  0.40350690091E+02  0.00000000000E+00 0. -1.
</event>
<event>
 7    1  0.7383168E-013  0.5930197E+02  0.7816164E-02  0.1266605E+00
        -11   -1    0    0    0    0  0.00000000000E+00  0.00000000000E+00  0.45593999997E+02  0.45594000000E+02  0.51100000000E-03 0.  1.
         11   -1    0    0    0    0 -0.00000000000E+00 -0.00000000000E+00 -0.45593999997E+02  0.45594000000E+02  0.51100000000E-03 0. -1.
    9900012    2    1    2    0    0  0.12454625536E+02 -0.21734473639E+02 -0.19728505033E+02  0.59301969321E+02  0.50000046130E+02 0.  0.
        -12    1    1    2    0    0 -0.12454625536E+02  0.21734473639E+02  0.19728505033E+02  0.31886030679E+02  0.00000000000E+00 0.  1.
         11    1    3    3    0    0  0.90684293614E+01 -0.13773544541E+02 -0.22369143053E+02  0.27790744889E+02  0.51100000000E-03 0. -1.
        -11    1    3    3    0    0 -0.13176991751E+02 -0.33114428983E+01 -0.18994137204E+01  0.13718838814E+02  0.51100000000E-03 0.  1.
         12    1    3    3    0    0  0.16563187926E+02 -0.46494861994E+01  0.45400517406E+01  0.17792385618E+02  0.00000000000E+00 0. -1.
</event>
<event>
 7    1  0.7383168E-013  0.5930199E+02  0.7816164E-02  0.1266605E+00
        -11   -1    0    0    0    0  0.00000000000E+00  0.00000000000E+00  0.45593999997E+02  0.45594000000E+02  0.51100000000E-03 0.  1.
         11   -1    0    0    0    0 -0.00000000000E+00 -0.00000000000E+00 -0.45593999997E+02  0.45594000000E+02  0.51100000000E-03 0. -1.
    9900012    2    1    2    0    0 -0.29034054679E+02  0.12368725408E+02  0.45558429490E+01  0.59301993598E+02  0.50000090404E+02 0.  0.
        -12    1    1    2    0    0  0.29034054679E+02 -0.12368725408E+02 -0.45558429490E+01  0.31886006402E+02  0.00000000000E+00 0.  1.
         11    1    3    3    0    0 -0.68637106299E+01  0.65715745055E+01 -0.10335614541E+02  0.14039980174E+02  0.51100000000E-03 0. -1.
        -11    1    3    3    0    0 -0.20189917449E+01 -0.60824639670E+01 -0.95043586443E+01  0.11463225073E+02  0.51100000000E-03 0.  1.
         12    1    3    3    0    0 -0.20151352304E+02  0.11879614869E+02  0.24395816134E+02  0.33798788351E+02  0.00000000000E+00 0. -1.
</event>
<event>
 7    1  0.7383168E-013  0.5930198E+02  0.7816164E-02  0.1266605E+00
        -11   -1    0    0    0    0  0.00000000000E+00  0.00000000000E+00  0.45593999997E+02  0.45594000000E+02  0.51100000000E-03 0. -1.
         11   -1    0    0    0    0 -0.00000000000E+00 -0.00000000000E+00 -0.45593999997E+02  0.45594000000E+02  0.51100000000E-03 0.  1.
    9900012    2    1    2    0    0  0.24020343541E+02  0.16208718096E+02 -0.13304831427E+02  0.59301984485E+02  0.50000073784E+02 0.  0.
        -12    1    1    2    0    0 -0.24020343541E+02 -0.16208718096E+02  0.13304831427E+02  0.31886015515E+02  0.00000000000E+00 0.  1.
         11    1    3    3    0    0 -0.84564323019E+01  0.59542592978E+01  0.41508251842E+01  0.11144227251E+02  0.51100000000E-03 0. -1.
        -11    1    3    3    0    0 -0.20836072629E+01 -0.36020959945E+01 -0.90865326985E+01  0.99940778225E+01  0.51100000000E-03 0.  1.
        -12    1    3    3    0    0  0.34560383106E+02  0.13856554793E+02 -0.83691239123E+01  0.38163679411E+02  0.00000000000E+00 0.  1.
</event>
<event>
 7    1  0.7383168E-013  0.5930202E+02  0.7816164E-02  0.1266604E+00
        -11   -1    0    0    0    0  0.00000000000E+00  0.00000000000E+00  0.45593999997E+02  0.45594000000E+02  0.51100000000E-03 0.  1.
         11   -1    0    0    0    0 -0.00000000000E+00 -0.00000000000E+00 -0.45593999997E+02  0.45594000000E+02  0.51100000000E-03 0. -1.
    9900012    2    1    2    0    0  0.18098703685E+02  0.95805007000E+01 -0.24441080523E+02  0.59302023680E+02  0.50000145266E+02 0.  0.
        -12    1    1    2    0    0 -0.18098703685E+02 -0.95805007000E+01  0.24441080523E+02  0.31885976320E+02  0.00000000000E+00 0.  1.
         11    1    3    3    0    0 -0.29817790474E+01 -0.23909135370E+01 -0.23017794100E+02  0.23332944934E+02  0.51100000000E-03 0. -1.
        -11    1    3    3    0    0 -0.65423942511E+00  0.13973290849E+02 -0.20230007506E+01  0.14134122494E+02  0.51100000000E-03 0.  1.
        -12    1    3    3    0    0  0.21734722158E+02 -0.20018766117E+01  0.59971432722E+00  0.21834956252E+02  0.00000000000E+00 0.  1.
</event>
<event>
 7    1  0.7383168E-013  0.5930184E+02  0.7816164E-02  0.1266605E+00
        -11   -1    0    0    0    0  0.00000000000E+00  0.00000000000E+00  0.45593999997E+02  0.45594000000E+02  0.51100000000E-03 0.  1.
         11   -1    0    0    0    0 -0.00000000000E+00 -0.00000000000E+00 -0.45593999997E+02  0.45594000000E+02  0.51100000000E-03 0. -1.
    9900012    2    1    2    0    0  0.75196886579E+00 -0.11633184429E+02 -0.29678794361E+02  0.59301838866E+02  0.49999808210E+02 0.  0.
        -12    1    1    2    0    0 -0.75196886579E+00  0.11633184429E+02  0.29678794361E+02  0.31886161134E+02  0.00000000000E+00 0.  1.
         11    1    3    3    0    0 -0.46875799136E+01  0.18870575755E+01 -0.10996186672E+02  0.12101673989E+02  0.51100000000E-03 0. -1.
        -11    1    3    3    0    0 -0.10461381589E+02 -0.20991749501E+02 -0.18092431454E+02  0.29621447095E+02  0.51100000000E-03 0.  1.
        -12    1    3    3    0    0  0.15900930369E+02  0.74715074965E+01 -0.59017623555E+00  0.17578717782E+02  0.00000000000E+00 0.  1.
</event>
<event>
 7    1  0.7383168E-013  0.5930195E+02  0.7816164E-02  0.1266605E+00
        -11   -1    0    0    0    0  0.00000000000E+00  0.00000000000E+00  0.45593999997E+02  0.45594000000E+02  0.51100000000E-03 0. -1.
         11   -1    0    0    0    0 -0.00000000000E+00 -0.00000000000E+00 -0.45593999997E+02  0.45594000000E+02  0.51100000000E-03 0.  1.
    9900012    2    1    2    0    0 -0.64353343228E+01  0.21584207177E+02  0.22570523721E+02  0.59301951823E+02  0.50000014216E+02 0.  0.
        -12    1    1    2    0    0  0.64353343228E+01 -0.21584207177E+02 -0.22570523721E+02  0.31886048177E+02  0.00000000000E+00 0.  1.
         11    1    3    3    0    0 -0.25902777005E+00 -0.95695315591E+01  0.16918092924E+02  0.19438747339E+02  0.51100000000E-03 0. -1.
        -11    1    3    3    0    0  0.86808669906E+01  0.72394824311E+01  0.18545500448E+01  0.11454558643E+02  0.51100000000E-03 0.  1.
        -12    1    3    3    0    0 -0.14857173543E+02  0.23914256305E+02  0.37978807525E+01  0.28408645841E+02  0.00000000000E+00 0.  1.
</event>
<event>
 7    1  0.7383168E-013  0.5930195E+02  0.7816164E-02  0.1266605E+00
        -11   -1    0    0    0    0  0.00000000000E+00  0.00000000000E+00  0.45593999997E+02  0.45594000000E+02  0.51100000000E-03 0.  1.
         11   -1    0    0    0    0 -0.00000000000E+00 -0.00000000000E+00 -0.45593999997E+02  0.45594000000E+02  0.51100000000E-03 0. -1.
    9900012    2    1    2    0    0 -0.19744449316E+02  0.13494287374E+02 -0.21089829469E+02  0.59301953247E+02  0.50000016813E+02 0.  0.
        -12    1    1    2    0    0  0.19744449316E+02 -0.13494287374E+02  0.21089829469E+02  0.31886046753E+02  0.00000000000E+00 0.  1.
         11    1    3    3    0    0 -0.34621913584E+01  0.89711541921E+01  0.32261607503E+01  0.10142804838E+02  0.51100000000E-03 0. -1.
        -11    1    3    3    0    0  0.19039168461E+01  0.12189098311E+02  0.54157569229E+01  0.13473286173E+02  0.51100000000E-03 0.  1.
         12    1    3    3    0    0 -0.18186174804E+02 -0.76659651292E+01 -0.29731747142E+02  0.35685862235E+02  0.00000000000E+00 0. -1.
</event>
<event>
 7    1  0.7383168E-013  0.5930195E+02  0.7816164E-02  0.1266605E+00
        -11   -1    0    0    0    0  0.00000000000E+00  0.00000000000E+00  0.45593999997E+02  0.45594000000E+02  0.51100000000E-03 0. -1.
         11   -1    0    0    0    0 -0.00000000000E+00 -0.00000000000E+00 -0.45593999997E+02  0.45594000000E+02  0.51100000000E-03 0.  1.
    9900012    2    1    2    0    0 -0.28540310973E+02 -0.63134183733E+01  0.12740146136E+02  0.59301954063E+02  0.50000018301E+02 0.  0.
        -12    1    1    2    0    0  0.28540310973E+02  0.63134183733E+01 -0.12740146136E+02  0.31886045937E+02  0.00000000000E+00 0.  1.
         11    1    3    3    0    0 -0.27836740555E+02 -0.37169017525E+01  0.66839368060E+01  0.28868226389E+02  0.51100000000E-03 0. -1.
        -11    1    3    3    0    0  0.20143288720E+01 -0.86790457614E+01 -0.97940062941E+01  0.13240314033E+02  0.51100000000E-03 0.  1.
         12    1    3    3    0    0 -0.27178992893E+01  0.60825291406E+01  0.15850215624E+02  0.17193413641E+02  0.00000000000E+00 0. -1.
</event>
<event>
 7    1  0.7383168E-013  0.5930193E+02  0.7816164E-02  0.1266605E+00
        -11   -1    0    0    0    0  0.00000000000E+00  0.00000000000E+00  0.45593999997E+02  0.45594000000E+02  0.51100000000E-03 0.  1.
         11   -1    0    0    0    0 -0.00000000000E+00 -0.00000000000E+00 -0.45593999997E+02  0.45594000000E+02  0.51100000000E-03 0. -1.
    9900012    2    1    2    0    0 -0.55882019213E+00  0.24117494939E+02 -0.20850787860E+02  0.59301934132E+02  0.49999981952E+02 0.  0.
        -12    1    1    2    0    0  0.55882019213E+00 -0.24117494939E+02  0.20850787860E+02  0.31886065868E+02  0.00000000000E+00 0.  1.
         11    1    3    3    0    0 -0.60586597347E+01  0.69494607619E+01  0.13406738424E+02  0.16270924930E+02  0.51100000000E-03 0. -1.
        -11    1    3    3    0    0  0.74666515907E-01  0.13100896846E+01  0.23934889726E+01  0.27295970020E+01  0.51100000000E-03 0.  1.
         12    1    3    3    0    0  0.54251730266E+01  0.15857944493E+02 -0.36651015257E+02  0.40301412199E+02  0.00000000000E+00 0. -1.
</event>
<event>
 7    1  0.7383168E-013  0.5930182E+02  0.7816164E-02  0.1266605E+00
        -11   -1    0    0    0    0  0.00000000000E+00  0.00000000000E+00  0.45593999997E+02  0.45594000000E+02  0.51100000000E-03 0. -1.
         11   -1    0    0    0    0 -0.00000000000E+00 -0.00000000000E+00 -0.45593999997E+02  0.45594000000E+02  0.51100000000E-03 0.  1.
    9900012    2    1    2    0    0 -0.91453511008E+01 -0.53572510550E+01  0.30073097564E+02  0.59301815175E+02  0.49999765003E+02 0.  0.
        -12    1    1    2    0    0  0.91453511008E+01  0.53572510550E+01 -0.30073097564E+02  0.31886184825E+02  0.00000000000E+00 0.  1.
         11    1    3    3    0    0 -0.16927379384E+02 -0.37416511533E+01  0.75603609460E+01  0.18912831201E+02  0.51100000000E-03 0. -1.
        -11    1    3    3    0    0 -0.11672034655E+02 -0.56606209897E+01  0.12978070961E+02  0.18349641661E+02  0.51100000000E-03 0.  1.
        -12    1    3    3    0    0  0.19454062938E+02  0.40450210880E+01  0.95346656571E+01  0.22039342313E+02  0.00000000000E+00 0.  1.
</event>
<event>
 7    1  0.7383168E-013  0.5930197E+02  0.7816164E-02  0.1266605E+00
        -11   -1    0    0    0    0  0.00000000000E+00  0.00000000000E+00  0.45593999997E+02  0.45594000000E+02  0.51100000000E-03 0.  1.
         11   -1    0    0    0    0 -0.00000000000E+00 -0.00000000000E+00 -0.45593999997E+02  0.45594000000E+02  0.51100000000E-03 0. -1.
    9900012    2    1    2    0    0 -0.23363984576E+02  0.14706321562E+02 -0.15955169618E+02  0.59301966903E+02  0.50000041718E+02 0.  0.
        -12    1    1    2    0    0  0.23363984576E+02 -0.14706321562E+02  0.15955169618E+02  0.31886033097E+02  0.00000000000E+00 0.  1.
         11    1    3    3    0    0 -0.78670073618E+01 -0.26068667148E+01 -0.17908820047E+02  0.19733509435E+02  0.51100000000E-03 0. -1.
        -11    1    3    3    0    0 -0.10455194514E+02 -0.40747360956E+01 -0.95773185013E+01  0.14752613210E+02  0.51100000000E-03 0.  1.
        -12    1    3    3    0    0 -0.50417827002E+01  0.21387924372E+02  0.11530968930E+02  0.24815844258E+02  0.00000000000E+00 0.  1.
</event>
<event>
 7    1  0.7383168E-013  0.5930197E+02  0.7816164E-02  0.1266605E+00
        -11   -1    0    0    0    0  0.00000000000E+00  0.00000000000E+00  0.45593999997E+02  0.45594000000E+02  0.51100000000E-03 0.  1.
         11   -1    0    0    0    0 -0.00000000000E+00 -0.00000000000E+00 -0.45593999997E+02  0.45594000000E+02  0.51100000000E-03 0. -1.
    9900012    2    1    2    0    0  0.35244024927E+01  0.23134533621E+02 -0.21658510306E+02  0.59301966577E+02  0.50000041125E+02 0.  0.
        -12    1    1    2    0    0 -0.35244024927E+01 -0.23134533621E+02  0.21658510306E+02  0.31886033423E+02  0.00000000000E+00 0.  1.
         11    1    3    3    0    0 -0.13564546425E+02  0.59473371341E+01 -0.21435306064E+02  0.26054559774E+02  0.51100000000E-03 0. -1.
        -11    1    3    3    0    0  0.72969775986E+01  0.82103964555E+01 -0.11441056223E+02  0.15860462155E+02  0.51100000000E-03 0.  1.
        -12    1    3    3    0    0  0.97919713187E+01  0.89768000311E+01  0.11217851981E+02  0.17386944648E+02  0.00000000000E+00 0.  1.
</event>
<event>
 7    1  0.7383168E-013  0.5930194E+02  0.7816164E-02  0.1266605E+00
        -11   -1    0    0    0    0  0.00000000000E+00  0.00000000000E+00  0.45593999997E+02  0.45594000000E+02  0.51100000000E-03 0.  1.
         11   -1    0    0    0    0 -0.00000000000E+00 -0.00000000000E+00 -0.45593999997E+02  0.45594000000E+02  0.51100000000E-03 0. -1.
    9900012    2    1    2    0    0 -0.23522093108E+02 -0.21510331166E+02  0.85883898399E+00  0.59301940108E+02  0.49999992851E+02 0.  0.
        -12    1    1    2    0    0  0.23522093108E+02  0.21510331166E+02 -0.85883898399E+00  0.31886059892E+02  0.00000000000E+00 0.  1.
         11    1    3    3    0    0 -0.14552453105E+02 -0.73267866662E+01  0.85345462492E+00  0.16315148767E+02  0.51100000000E-03 0. -1.
        -11    1    3    3    0    0 -0.29164676397E+01  0.69261228589E+00  0.18356839414E+02  0.18599974430E+02  0.51100000000E-03 0.  1.
        -12    1    3    3    0    0 -0.60531723632E+01 -0.14876156786E+02 -0.18351455055E+02  0.24386816910E+02  0.00000000000E+00 0.  1.
</event>
<event>
 7    1  0.7383168E-013  0.5930194E+02  0.7816164E-02  0.1266605E+00
        -11   -1    0    0    0    0  0.00000000000E+00  0.00000000000E+00  0.45593999997E+02  0.45594000000E+02  0.51100000000E-03 0.  1.
         11   -1    0    0    0    0 -0.00000000000E+00 -0.00000000000E+00 -0.45593999997E+02  0.45594000000E+02  0.51100000000E-03 0. -1.
    9900012    2    1    2    0    0 -0.88129577187E+01 -0.44098725564E+01 -0.30324997660E+02  0.59301942188E+02  0.49999996644E+02 0.  0.
        -12    1    1    2    0    0  0.88129577187E+01  0.44098725564E+01  0.30324997660E+02  0.31886057812E+02  0.00000000000E+00 0.  1.
         11    1    3    3    0    0 -0.27421085890E+00  0.37815264897E+01 -0.30759649871E+02  0.30992437701E+02  0.51100000000E-03 0. -1.
        -11    1    3    3    0    0 -0.32558657579E+01  0.86643805650E+01 -0.40215420976E+01  0.10091826074E+02  0.51100000000E-03 0.  1.
        -12    1    3    3    0    0 -0.52828811019E+01 -0.16855779611E+02  0.44561943083E+01  0.18217678413E+02  0.00000000000E+00 0.  1.
</event>
<event>
 7    1  0.7383168E-013  0.5930196E+02  0.7816164E-02  0.1266605E+00
        -11   -1    0    0    0    0  0.00000000000E+00  0.00000000000E+00  0.45593999997E+02  0.45594000000E+02  0.51100000000E-03 0. -1.
         11   -1    0    0    0    0 -0.00000000000E+00 -0.00000000000E+00 -0.45593999997E+02  0.45594000000E+02  0.51100000000E-03 0.  1.
    9900012    2    1    2    0    0 -0.89883880249E+00 -0.31345780779E+02  0.57752389269E+01  0.59301964366E+02  0.50000037091E+02 0.  0.
        -12    1    1    2    0    0  0.89883880249E+00  0.31345780779E+02 -0.57752389269E+01  0.31886035634E+02  0.00000000000E+00 0.  1.
         11    1    3    3    0    0 -0.10300933567E+02 -0.90472543706E+01  0.75153554045E+00  0.13730508000E+02  0.51100000000E-03 0. -1.
        -11    1    3    3    0    0 -0.38234168931E+01 -0.26800862821E+02  0.12395431831E+02  0.29775014613E+02  0.51100000000E-03 0.  1.
        -12    1    3    3    0    0  0.13225511658E+02  0.45023364129E+01 -0.73717284448E+01  0.15796441753E+02  0.00000000000E+00 0.  1.
</event>
<event>
 7    1  0.7383168E-013  0.5930193E+02  0.7816164E-02  0.1266605E+00
        -11   -1    0    0    0    0  0.00000000000E+00  0.00000000000E+00  0.45593999997E+02  0.45594000000E+02  0.51100000000E-03 0.  1.
         11   -1    0    0    0    0 -0.00000000000E+00 -0.00000000000E+00 -0.45593999997E+02  0.45594000000E+02  0.51100000000E-03 0. -1.
    9900012    2    1    2    0    0  0.19077280450E+02 -0.12807391117E+02 -0.22107675178E+02  0.59301934103E+02  0.49999981900E+02 0.  0.
        -12    1    1    2    0    0 -0.19077280450E+02  0.12807391117E+02  0.22107675178E+02  0.31886065897E+02  0.00000000000E+00 0.  1.
         11    1    3    3    0    0 -0.37579461090E+01  0.38349838087E+01 -0.60802631874E+01  0.81116496756E+01  0.51100000000E-03 0. -1.
        -11    1    3    3    0    0  0.14944960598E+02 -0.80405338160E+01 -0.29086261893E+02  0.33675104492E+02  0.51100000000E-03 0.  1.
        -12    1    3    3    0    0  0.78902659608E+01 -0.86018411095E+01  0.13058849903E+02  0.17515179936E+02  0.00000000000E+00 0.  1.
</event>
<event>
 7    1  0.7383168E-013  0.5930197E+02  0.7816164E-02  0.1266605E+00
        -11   -1    0    0    0    0  0.00000000000E+00  0.00000000000E+00  0.45593999997E+02  0.45594000000E+02  0.51100000000E-03 0. -1.
         11   -1    0    0    0    0 -0.00000000000E+00 -0.00000000000E+00 -0.45593999997E+02  0.45594000000E+02  0.51100000000E-03 0.  1.
    9900012    2    1    2    0    0  0.42069135303E+01 -0.31079477887E+02 -0.57521431029E+01  0.59301965166E+02  0.50000038550E+02 0.  0.
        -12    1    1    2    0    0 -0.42069135303E+01  0.31079477887E+02  0.57521431029E+01  0.31886034834E+02  0.00000000000E+00 0.  1.
         11    1    3    3    0    0  0.10588890376E+02 -0.45025758719E+01  0.16107137430E+02  0.19794889879E+02  0.51100000000E-03 0. -1.
        -11    1    3    3    0    0 -0.91663530490E+01 -0.11618070584E+02 -0.27035906319E+01  0.15043636358E+02  0.51100000000E-03 0.  1.
        -12    1    3    3    0    0  0.27843762036E+01 -0.14958831431E+02 -0.19155689901E+02  0.24463438928E+02  0.00000000000E+00 0.  1.
</event>
<event>
 7    1  0.7383168E-013  0.5930193E+02  0.7816164E-02  0.1266605E+00
        -11   -1    0    0    0    0  0.00000000000E+00  0.00000000000E+00  0.45593999997E+02  0.45594000000E+02  0.51100000000E-03 0. -1.
         11   -1    0    0    0    0 -0.00000000000E+00 -0.00000000000E+00 -0.45593999997E+02  0.45594000000E+02  0.51100000000E-03 0.  1.
    9900012    2    1    2    0    0  0.22057689906E+02  0.19010062310E+02 -0.12992191971E+02  0.59301933996E+02  0.49999981704E+02 0.  0.
        -12    1    1    2    0    0 -0.22057689906E+02 -0.19010062310E+02  0.12992191971E+02  0.31886066004E+02  0.00000000000E+00 0.  1.
         11    1    3    3    0    0  0.73882953678E+01  0.17580595298E+02  0.15549943493E+02  0.24606198048E+02  0.51100000000E-03 0. -1.
        -11    1    3    3    0    0 -0.12878327456E+01 -0.25813622389E+00  0.58753926688E+00  0.14388711346E+01  0.51100000000E-03 0.  1.
        -12    1    3    3    0    0  0.15957227284E+02  0.16876032353E+01 -0.29129674731E+02  0.33256864813E+02  0.00000000000E+00 0.  1.
</event>
<event>
 7    1  0.7383168E-013  0.5930191E+02  0.7816164E-02  0.1266605E+00
        -11   -1    0    0    0    0  0.00000000000E+00  0.00000000000E+00  0.45593999997E+02  0.45594000000E+02  0.51100000000E-03 0.  1.
         11   -1    0    0    0    0 -0.00000000000E+00 -0.00000000000E+00 -0.45593999997E+02  0.45594000000E+02  0.51100000000E-03 0. -1.
    9900012    2    1    2    0    0  0.25174796133E+02 -0.14046876099E+02  0.13624888020E+02  0.59301911152E+02  0.49999940043E+02 0.  0.
        -12    1    1    2    0    0 -0.25174796133E+02  0.14046876099E+02 -0.13624888020E+02  0.31886088848E+02  0.00000000000E+00 0.  1.
         11    1    3    3    0    0 -0.62487371749E+01 -0.38182595002E+01 -0.21995966736E+01  0.76461786325E+01  0.51100000000E-03 0. -1.
        -11    1    3    3    0    0  0.36060813897E+01 -0.12758382834E+02  0.19397804707E+02  0.23495850341E+02  0.51100000000E-03 0.  1.
         12    1    3    3    0    0  0.27817451918E+02  0.25297662357E+01 -0.35733200135E+01  0.28159882179E+02  0.00000000000E+00 0. -1.
</event>
<event>
 7    1  0.7383168E-013  0.5930195E+02  0.7816164E-02  0.1266605E+00
        -11   -1    0    0    0    0  0.00000000000E+00  0.00000000000E+00  0.45593999997E+02  0.45594000000E+02  0.51100000000E-03 0. -1.
         11   -1    0    0    0    0 -0.00000000000E+00 -0.00000000000E+00 -0.45593999997E+02  0.45594000000E+02  0.51100000000E-03 0.  1.
    9900012    2    1    2    0    0  0.60411492588E+01 -0.45839402521E+01  0.30971152836E+02  0.59301948181E+02  0.50000007575E+02 0.  0.
        -12    1    1    2    0    0 -0.60411492588E+01  0.45839402521E+01 -0.30971152836E+02  0.31886051819E+02  0.00000000000E+00 0.  1.
         11    1    3    3    0    0 -0.11879764697E+02 -0.12398965567E+02  0.11311685944E+02  0.20562524056E+02  0.51100000000E-03 0. -1.
        -11    1    3    3    0    0  0.11007010247E+01  0.14540304067E+02  0.49326997756E+01  0.15393619212E+02  0.51100000000E-03 0.  1.
        -12    1    3    3    0    0  0.16820212931E+02 -0.67252787518E+01  0.14726767116E+02  0.23345804913E+02  0.00000000000E+00 0.  1.
</event>
<event>
 7    1  0.7383168E-013  0.5930194E+02  0.7816164E-02  0.1266605E+00
        -11   -1    0    0    0    0  0.00000000000E+00  0.00000000000E+00  0.45593999997E+02  0.45594000000E+02  0.51100000000E-03 0. -1.
         11   -1    0    0    0    0 -0.00000000000E+00 -0.00000000000E+00 -0.45593999997E+02  0.45594000000E+02  0.51100000000E-03 0.  1.
    9900012    2    1    2    0    0 -0.20638896908E+02 -0.16774124350E+02 -0.17589352255E+02  0.59301943078E+02  0.49999998268E+02 0.  0.
        -12    1    1    2    0    0  0.20638896908E+02  0.16774124350E+02  0.17589352255E+02  0.31886056922E+02  0.00000000000E+00 0.  1.
         11    1    3    3    0    0 -0.52108207075E+01 -0.41263446936E+01 -0.47946419791E+01  0.81956064415E+01  0.51100000000E-03 0. -1.
        -11    1    3    3    0    0 -0.22964721118E+02 -0.18202947105E+02 -0.23003425389E+02  0.37254305512E+02  0.51100000000E-03 0.  1.
         12    1    3    3    0    0  0.75366449169E+01  0.55551674483E+01  0.10208715114E+02  0.13852031124E+02  0.00000000000E+00 0. -1.
</event>
<event>
 7    1  0.7383168E-013  0.5930185E+02  0.7816164E-02  0.1266605E+00
        -11   -1    0    0    0    0  0.00000000000E+00  0.00000000000E+00  0.45593999997E+02  0.45594000000E+02  0.51100000000E-03 0.  1.
         11   -1    0    0    0    0 -0.00000000000E+00 -0.00000000000E+00 -0.45593999997E+02  0.45594000000E+02  0.51100000000E-03 0. -1.
    9900012    2    1    2    0    0 -0.21414682412E+02  0.13765906138E+02 -0.19199934152E+02  0.59301854638E+02  0.49999836975E+02 0.  0.
        -12    1    1    2    0    0  0.21414682412E+02 -0.13765906138E+02  0.19199934152E+02  0.31886145362E+02  0.00000000000E+00 0.  1.
         11    1    3    3    0    0 -0.18531410524E+01 -0.74160282732E+01 -0.40142075648E+00  0.76545898645E+01  0.51100000000E-03 0. -1.
        -11    1    3    3    0    0 -0.81824084807E+01  0.18097087831E+02  0.87340838202E+01  0.21696557721E+02  0.51100000000E-03 0.  1.
         12    1    3    3    0    0 -0.11379132879E+02  0.30848465797E+01 -0.27532597216E+02  0.29950707052E+02  0.00000000000E+00 0. -1.
</event>
<event>
 7    1  0.7383168E-013  0.5930194E+02  0.7816164E-02  0.1266605E+00
        -11   -1    0    0    0    0  0.00000000000E+00  0.00000000000E+00  0.45593999997E+02  0.45594000000E+02  0.51100000000E-03 0.  1.
         11   -1    0    0    0    0 -0.00000000000E+00 -0.00000000000E+00 -0.45593999997E+02  0.45594000000E+02  0.51100000000E-03 0. -1.
    9900012    2    1    2    0    0  0.83634624246E+01 -0.93688696482E+01 -0.29308656366E+02  0.59301944110E+02  0.50000000150E+02 0.  0.
        -12    1    1    2    0    0 -0.83634624246E+01  0.93688696482E+01  0.29308656366E+02  0.31886055890E+02  0.00000000000E+00 0.  1.
         11    1    3    3    0    0  0.71324978004E+01 -0.98274695136E+01 -0.18605541875E+01  0.12284679241E+02  0.51100000000E-03 0. -1.
        -11    1    3    3    0    0  0.17979605707E+02 -0.27406758495E+01 -0.23136466151E+02  0.29429128287E+02  0.51100000000E-03 0.  1.
         12    1    3    3    0    0 -0.16748641082E+02  0.31992757149E+01 -0.43116360274E+01  0.17588136582E+02  0.00000000000E+00 0. -1.
</event>
<event>
 7    1  0.7383168E-013  0.5930186E+02  0.7816164E-02  0.1266605E+00
        -11   -1    0    0    0    0  0.00000000000E+00  0.00000000000E+00  0.45593999997E+02  0.45594000000E+02  0.51100000000E-03 0.  1.
         11   -1    0    0    0    0 -0.00000000000E+00 -0.00000000000E+00 -0.45593999997E+02  0.45594000000E+02  0.51100000000E-03 0. -1.
    9900012    2    1    2    0    0  0.15038340849E+02 -0.10160986222E+02 -0.26216953828E+02  0.59301858739E+02  0.49999844454E+02 0.  0.
        -12    1    1    2    0    0 -0.15038340849E+02  0.10160986222E+02  0.26216953828E+02  0.31886141261E+02  0.00000000000E+00 0.  1.
         11    1    3    3    0    0  0.76575498102E+01 -0.21803194210E+01 -0.69782072784E+00  0.79924224051E+01  0.51100000000E-03 0. -1.
        -11    1    3    3    0    0  0.22300646741E+02 -0.12443691307E+02 -0.58095985976E+01  0.26189993023E+02  0.51100000000E-03 0.  1.
         12    1    3    3    0    0 -0.14919855703E+02  0.44630245056E+01 -0.19709534503E+02  0.25119443311E+02  0.00000000000E+00 0. -1.
</event>
<event>
 7    1  0.7383168E-013  0.5930208E+02  0.7816164E-02  0.1266604E+00
        -11   -1    0    0    0    0  0.00000000000E+00  0.00000000000E+00  0.45593999997E+02  0.45594000000E+02  0.51100000000E-03 0. -1.
         11   -1    0    0    0    0 -0.00000000000E+00 -0.00000000000E+00 -0.45593999997E+02  0.45594000000E+02  0.51100000000E-03 0.  1.
    9900012    2    1    2    0    0 -0.22721817333E+02  0.15585883754E+02  0.16047157917E+02  0.59302077832E+02  0.50000244026E+02 0.  0.
        -12    1    1    2    0    0  0.22721817333E+02 -0.15585883754E+02 -0.16047157917E+02  0.31885922168E+02  0.00000000000E+00 0.  1.
         11    1    3    3    0    0  0.58161389171E+01  0.10927085004E+02  0.16259339472E+02  0.20435135892E+02  0.51100000000E-03 0. -1.
        -11    1    3    3    0    0 -0.97871138923E+01  0.12951197324E+02 -0.64022994716E+01  0.17450230636E+02  0.51100000000E-03 0.  1.
        -12    1    3    3    0    0 -0.18750842358E+02 -0.82923985748E+01  0.61901179165E+01  0.21416711304E+02  0.00000000000E+00 0.  1.
</event>
<event>
 7    1  0.7383168E-013  0.5930208E+02  0.7816164E-02  0.1266604E+00
        -11   -1    0    0    0    0  0.00000000000E+00  0.00000000000E+00  0.45593999997E+02  0.45594000000E+02  0.51100000000E-03 0.  1.
         11   -1    0    0    0    0 -0.00000000000E+00 -0.00000000000E+00 -0.45593999997E+02  0.45594000000E+02  0.51100000000E-03 0. -1.
    9900012    2    1    2    0    0  0.37077704593E+01  0.22717704211E+02 -0.22065130282E+02  0.59302084288E+02  0.50000255800E+02 0.  0.
        -12    1    1    2    0    0 -0.37077704593E+01 -0.22717704211E+02  0.22065130282E+02  0.31885915712E+02  0.00000000000E+00 0.  1.
         11    1    3    3    0    0 -0.45042244189E+01 -0.69237414069E+01 -0.94115986813E+01  0.12522157270E+02  0.51100000000E-03 0. -1.
        -11    1    3    3    0    0 -0.21675950459E+01  0.17334975449E+01 -0.16522469734E+02  0.16753969333E+02  0.51100000000E-03 0.  1.
        -12    1    3    3    0    0  0.10379589924E+02  0.27907948074E+02  0.38689381330E+01  0.30025957686E+02  0.00000000000E+00 0.  1.
</event>
<event>
 7    1  0.7383168E-013  0.5930191E+02  0.7816164E-02  0.1266605E+00
        -11   -1    0    0    0    0  0.00000000000E+00  0.00000000000E+00  0.45593999997E+02  0.45594000000E+02  0.51100000000E-03 0. -1.
         11   -1    0    0    0    0 -0.00000000000E+00 -0.00000000000E+00 -0.45593999997E+02  0.45594000000E+02  0.51100000000E-03 0.  1.
    9900012    2    1    2    0    0  0.25470489569E+02  0.18896094659E+02  0.33037329788E+01  0.59301907674E+02  0.49999933700E+02 0.  0.
        -12    1    1    2    0    0 -0.25470489569E+02 -0.18896094659E+02 -0.33037329788E+01  0.31886092326E+02  0.00000000000E+00 0.  1.
         11    1    3    3    0    0  0.16633810771E+02 -0.14099999735E+02  0.14576536761E+01  0.21854482556E+02  0.51100000000E-03 0. -1.
        -11    1    3    3    0    0  0.33835534467E+01  0.29073046610E+01  0.50064219649E+01  0.67056032891E+01  0.51100000000E-03 0.  1.
        -12    1    3    3    0    0  0.54531253513E+01  0.30088789732E+02 -0.31603426622E+01  0.30741821829E+02  0.00000000000E+00 0.  1.
</event>
<event>
 7    1  0.7383168E-013  0.5930198E+02  0.7816164E-02  0.1266605E+00
        -11   -1    0    0    0    0  0.00000000000E+00  0.00000000000E+00  0.45593999997E+02  0.45594000000E+02  0.51100000000E-03 0.  1.
         11   -1    0    0    0    0 -0.00000000000E+00 -0.00000000000E+00 -0.45593999997E+02  0.45594000000E+02  0.51100000000E-03 0. -1.
    9900012    2    1    2    0    0 -0.28658586405E+02  0.10176829619E+01 -0.13941583700E+02  0.59301984109E+02  0.50000073098E+02 0.  0.
        -12    1    1    2    0    0  0.28658586405E+02 -0.10176829619E+01  0.13941583700E+02  0.31886015891E+02  0.00000000000E+00 0.  1.
         11    1    3    3    0    0 -0.96598986109E+01  0.10555943694E+00  0.80425771370E+01  0.12570116596E+02  0.51100000000E-03 0. -1.
        -11    1    3    3    0    0 -0.22832128727E+02  0.57282606319E+01  0.37310819389E+00  0.23542690629E+02  0.51100000000E-03 0.  1.
         12    1    3    3    0    0  0.38334409331E+01 -0.48161371070E+01 -0.22357269031E+02  0.23189176884E+02  0.00000000000E+00 0. -1.
</event>
<event>
 7    1  0.7383168E-013  0.5930185E+02  0.7816164E-02  0.1266605E+00
        -11   -1    0    0    0    0  0.00000000000E+00  0.00000000000E+00  0.45593999997E+02  0.45594000000E+02  0.51100000000E-03 0.  1.
         11   -1    0    0    0    0 -0.00000000000E+00 -0.00000000000E+00 -0.45593999997E+02  0.45594000000E+02  0.51100000000E-03 0. -1.
    9900012    2    1    2    0    0  0.16658195395E+01  0.62059984709E+00 -0.31836562620E+02  0.59301845977E+02  0.49999821178E+02 0.  0.
        -12    1    1    2    0    0 -0.16658195395E+01 -0.62059984709E+00  0.31836562620E+02  0.31886154023E+02  0.00000000000E+00 0.  1.
         11    1    3    3    0    0  0.28222741541E+01 -0.19588141882E+01 -0.27681146754E+02  0.27893513051E+02  0.51100000000E-03 0. -1.
        -11    1    3    3    0    0  0.74558075826E+01 -0.31620387359E+01 -0.14605059088E+02  0.16700158888E+02  0.51100000000E-03 0.  1.
        -12    1    3    3    0    0 -0.86122621973E+01  0.57414527712E+01  0.10449643221E+02  0.14708174038E+02  0.00000000000E+00 0.  1.
</event>
<event>
 7    1  0.7383168E-013  0.5930195E+02  0.7816164E-02  0.1266605E+00
        -11   -1    0    0    0    0  0.00000000000E+00  0.00000000000E+00  0.45593999997E+02  0.45594000000E+02  0.51100000000E-03 0.  1.
         11   -1    0    0    0    0 -0.00000000000E+00 -0.00000000000E+00 -0.45593999997E+02  0.45594000000E+02  0.51100000000E-03 0. -1.
    9900012    2    1    2    0    0 -0.17894724795E+02  0.15422134821E+02 -0.21416272216E+02  0.59301950800E+02  0.50000012351E+02 0.  0.
        -12    1    1    2    0    0  0.17894724795E+02 -0.15422134821E+02  0.21416272216E+02  0.31886049200E+02  0.00000000000E+00 0.  1.
         11    1    3    3    0    0 -0.49785221918E+00 -0.69614104373E+00 -0.89949030688E+00  0.12415926297E+01  0.51100000000E-03 0. -1.
        -11    1    3    3    0    0 -0.24041049200E+02 -0.59761137079E+01 -0.24275871881E+02  0.34684347155E+02  0.51100000000E-03 0.  1.
        -12    1    3    3    0    0  0.66441766243E+01  0.22094389572E+02  0.37590899717E+01  0.23376011016E+02  0.00000000000E+00 0.  1.
</event>
<event>
 7    1  0.7383168E-013  0.5930192E+02  0.7816164E-02  0.1266605E+00
        -11   -1    0    0    0    0  0.00000000000E+00  0.00000000000E+00  0.45593999997E+02  0.45594000000E+02  0.51100000000E-03 0.  1.
         11   -1    0    0    0    0 -0.00000000000E+00 -0.00000000000E+00 -0.45593999997E+02  0.45594000000E+02  0.51100000000E-03 0. -1.
    9900012    2    1    2    0    0  0.10843940728E+02 -0.13738501649E+02 -0.26653036466E+02  0.59301924184E+02  0.49999963811E+02 0.  0.
        -12    1    1    2    0    0 -0.10843940728E+02  0.13738501649E+02  0.26653036466E+02  0.31886075816E+02  0.00000000000E+00 0.  1.
         11    1    3    3    0    0  0.58007395678E+01  0.13813448801E+02 -0.31683799555E+01  0.15313346438E+02  0.51100000000E-03 0. -1.
        -11    1    3    3    0    0  0.14987728028E+01 -0.40541089436E+01  0.51852595572E+01  0.67504841439E+01  0.51100000000E-03 0.  1.
         12    1    3    3    0    0  0.35444283570E+01 -0.23497841506E+02 -0.28669916068E+02  0.37238093603E+02  0.00000000000E+00 0. -1.
</event>
<event>
 7    1  0.7773796E-013  0.5930174E+02  0.7816164E-02  0.1266605E+00
        -11   -1    0    0    0    0  0.00000000000E+00  0.00000000000E+00  0.45593999997E+02  0.45594000000E+02  0.51100000000E-03 0.  1.
         11   -1    0    0    0    0 -0.00000000000E+00 -0.00000000000E+00 -0.45593999997E+02  0.45594000000E+02  0.51100000000E-03 0. -1.
    9900012    2    1    2    0    0 -0.19393252423E+02  0.23770916102E+02  0.86936088290E+01  0.59301740791E+02  0.49999629343E+02 0.  0.
        -12    1    1    2    0    0  0.19393252423E+02 -0.23770916102E+02 -0.86936088290E+01  0.31886259209E+02  0.00000000000E+00 0.  1.
         11    1    3    3    0    0 -0.40995345506E+01  0.12028732181E+02 -0.88489746610E+01  0.15485507232E+02  0.51100000000E-03 0. -1.
        -11    1    3    3    0    0  0.45550217493E+01 -0.97141900447E+01  0.28456971669E+01  0.11100076756E+02  0.51100000000E-03 0.  1.
         12    1    3    3    0    0 -0.19848739622E+02  0.21456373966E+02  0.14696886323E+02  0.32716156803E+02  0.00000000000E+00 0. -1.
</event>
<event>
 7    1  0.7383168E-013  0.5930195E+02  0.7816164E-02  0.1266605E+00
        -11   -1    0    0    0    0  0.00000000000E+00  0.00000000000E+00  0.45593999997E+02  0.45594000000E+02  0.51100000000E-03 0.  1.
         11   -1    0    0    0    0 -0.00000000000E+00 -0.00000000000E+00 -0.45593999997E+02  0.45594000000E+02  0.51100000000E-03 0. -1.
    9900012    2    1    2    0    0 -0.97280327758E+01  0.94154469991E+01 -0.28869277239E+02  0.59301946117E+02  0.50000003811E+02 0.  0.
        -12    1    1    2    0    0  0.97280327758E+01 -0.94154469991E+01  0.28869277239E+02  0.31886053883E+02  0.00000000000E+00 0.  1.
         11    1    3    3    0    0  0.87647150491E+01 -0.16619732068E+02 -0.15155148500E+02  0.24139474936E+02  0.51100000000E-03 0. -1.
        -11    1    3    3    0    0 -0.91509774497E+01  0.92679143705E+01 -0.38463382826E+01  0.13580461830E+02  0.51100000000E-03 0.  1.
        -12    1    3    3    0    0 -0.93417703752E+01  0.16767264696E+02 -0.98677904570E+01  0.21582009351E+02  0.00000000000E+00 0.  1.
</event>
<event>
 7    1  0.7383168E-013  0.5930196E+02  0.7816164E-02  0.1266605E+00
        -11   -1    0    0    0    0  0.00000000000E+00  0.00000000000E+00  0.45593999997E+02  0.45594000000E+02  0.51100000000E-03 0. -1.
         11   -1    0    0    0    0 -0.00000000000E+00 -0.00000000000E+00 -0.45593999997E+02  0.45594000000E+02  0.51100000000E-03 0.  1.
    9900012    2    1    2    0    0  0.18167649670E+02 -0.10991819251E+02  0.23787300938E+02  0.59301964327E+02  0.50000037022E+02 0.  0.
        -12    1    1    2    0    0 -0.18167649670E+02  0.10991819251E+02 -0.23787300938E+02  0.31886035673E+02  0.00000000000E+00 0.  1.
         11    1    3    3    0    0  0.47101736247E+01  0.20188257912E+01  0.57722250569E+01  0.77188066123E+01  0.51100000000E-03 0. -1.
        -11    1    3    3    0    0  0.26367066494E+02 -0.20150053173E+02  0.93617556236E+01  0.34480274172E+02  0.51100000000E-03 0.  1.
         12    1    3    3    0    0 -0.12909590448E+02  0.71394081312E+01  0.86533202579E+01  0.17102883543E+02  0.00000000000E+00 0. -1.
</event>
<event>
 7    1  0.7383168E-013  0.5930197E+02  0.7816164E-02  0.1266605E+00
        -11   -1    0    0    0    0  0.00000000000E+00  0.00000000000E+00  0.45593999997E+02  0.45594000000E+02  0.51100000000E-03 0. -1.
         11   -1    0    0    0    0 -0.00000000000E+00 -0.00000000000E+00 -0.45593999997E+02  0.45594000000E+02  0.51100000000E-03 0.  1.
    9900012    2    1    2    0    0  0.24005366025E+02 -0.18747404927E+02  0.94337825559E+01  0.59301967904E+02  0.50000043545E+02 0.  0.
        -12    1    1    2    0    0 -0.24005366025E+02  0.18747404927E+02 -0.94337825559E+01  0.31886032096E+02  0.00000000000E+00 0.  1.
         11    1    3    3    0    0  0.14719934289E+02 -0.27122060134E+00 -0.60452925268E+01  0.15915262740E+02  0.51100000000E-03 0. -1.
        -11    1    3    3    0    0  0.10007127029E+02  0.60051747085E+01 -0.37388494337E+01  0.12254946348E+02  0.51100000000E-03 0.  1.
        -12    1    3    3    0    0 -0.72169529281E+00 -0.24481359034E+02  0.19217924516E+02  0.31131758816E+02  0.00000000000E+00 0.  1.
</event>
<event>
 7    1  0.7383168E-013  0.5930195E+02  0.7816164E-02  0.1266605E+00
        -11   -1    0    0    0    0  0.00000000000E+00  0.00000000000E+00  0.45593999997E+02  0.45594000000E+02  0.51100000000E-03 0.  1.
         11   -1    0    0    0    0 -0.00000000000E+00 -0.00000000000E+00 -0.45593999997E+02  0.45594000000E+02  0.51100000000E-03 0. -1.
    9900012    2    1    2    0    0 -0.68258267187E+01  0.21122758259E+02 -0.22890120699E+02  0.59301945800E+02  0.50000003232E+02 0.  0.
        -12    1    1    2    0    0  0.68258267187E+01 -0.21122758259E+02  0.22890120699E+02  0.31886054200E+02  0.00000000000E+00 0.  1.
         11    1    3    3    0    0  0.56000198967E+01 -0.49449558476E+01 -0.10887995716E+02  0.13204592464E+02  0.51100000000E-03 0. -1.
        -11    1    3    3    0    0 -0.38266893190E+01 -0.81552182665E+01 -0.65987512678E+00  0.90325285254E+01  0.51100000000E-03 0.  1.
         12    1    3    3    0    0 -0.85991572964E+01  0.34222932373E+02 -0.11342249857E+02  0.37064824810E+02  0.00000000000E+00 0. -1.
</event>
<event>
 7    1  0.7383168E-013  0.5930194E+02  0.7816164E-02  0.1266605E+00
        -11   -1    0    0    0    0  0.00000000000E+00  0.00000000000E+00  0.45593999997E+02  0.45594000000E+02  0.51100000000E-03 0.  1.
         11   -1    0    0    0    0 -0.00000000000E+00 -0.00000000000E+00 -0.45593999997E+02  0.45594000000E+02  0.51100000000E-03 0. -1.
    9900012    2    1    2    0    0  0.58398996217E+01 -0.28998458563E+02 -0.11904028281E+02  0.59301938532E+02  0.49999989978E+02 0.  0.
        -12    1    1    2    0    0 -0.58398996217E+01  0.28998458563E+02  0.11904028281E+02  0.31886061468E+02  0.00000000000E+00 0.  1.
         11    1    3    3    0    0 -0.71688993491E+01 -0.76679235531E+00 -0.15811160840E+02  0.17377396116E+02  0.51100000000E-03 0.  1.
        -11    1    3    3    0    0 -0.61232365914E+01 -0.19820217010E+02  0.33826953382E+01  0.21018507480E+02  0.51100000000E-03 0. -1.
         12    1    3    3    0    0  0.19132035562E+02 -0.84114491974E+01  0.52443722078E+00  0.20906034936E+02  0.00000000000E+00 0. -1.
</event>
<event>
 7    1  0.7383168E-013  0.5930193E+02  0.7816164E-02  0.1266605E+00
        -11   -1    0    0    0    0  0.00000000000E+00  0.00000000000E+00  0.45593999997E+02  0.45594000000E+02  0.51100000000E-03 0.  1.
         11   -1    0    0    0    0 -0.00000000000E+00 -0.00000000000E+00 -0.45593999997E+02  0.45594000000E+02  0.51100000000E-03 0. -1.
    9900012    2    1    2    0    0 -0.57116989979E+01  0.36459200823E+01 -0.31157744424E+02  0.59301932881E+02  0.49999979672E+02 0.  0.
        -12    1    1    2    0    0  0.57116989979E+01 -0.36459200823E+01  0.31157744424E+02  0.31886067119E+02  0.00000000000E+00 0.  1.
         11    1    3    3    0    0 -0.12928754219E+02 -0.78564603899E+01 -0.23508764482E+02  0.27956013007E+02  0.51100000000E-03 0. -1.
        -11    1    3    3    0    0 -0.97310417438E+01  0.82255534544E+01 -0.57523362345E+01  0.13980067077E+02  0.51100000000E-03 0.  1.
        -12    1    3    3    0    0  0.16948096965E+02  0.32768270179E+01 -0.18966437082E+01  0.17365852798E+02  0.00000000000E+00 0.  1.
</event>
<event>
 7    1  0.7383168E-013  0.5930194E+02  0.7816164E-02  0.1266605E+00
        -11   -1    0    0    0    0  0.00000000000E+00  0.00000000000E+00  0.45593999997E+02  0.45594000000E+02  0.51100000000E-03 0. -1.
         11   -1    0    0    0    0 -0.00000000000E+00 -0.00000000000E+00 -0.45593999997E+02  0.45594000000E+02  0.51100000000E-03 0.  1.
    9900012    2    1    2    0    0 -0.14285658462E+02  0.11209194665E+02  0.26210579486E+02  0.59301944118E+02  0.50000000165E+02 0.  0.
        -12    1    1    2    0    0  0.14285658462E+02 -0.11209194665E+02 -0.26210579486E+02  0.31886055882E+02  0.00000000000E+00 0.  1.
         11    1    3    3    0    0 -0.58736062391E+01  0.54153130304E+01  0.32610642284E+02  0.33574973655E+02  0.51100000000E-03 0. -1.
        -11    1    3    3    0    0 -0.38229756140E+01 -0.20751666687E+01  0.77563971160E+01  0.88928710623E+01  0.51100000000E-03 0.  1.
        -12    1    3    3    0    0 -0.45890766091E+01  0.78690483036E+01 -0.14156459915E+02  0.16834099401E+02  0.00000000000E+00 0.  1.
</event>
<event>
 7    1  0.7383168E-013  0.5930194E+02  0.7816164E-02  0.1266605E+00
        -11   -1    0    0    0    0  0.00000000000E+00  0.00000000000E+00  0.45593999997E+02  0.45594000000E+02  0.51100000000E-03 0.  1.
         11   -1    0    0    0    0 -0.00000000000E+00 -0.00000000000E+00 -0.45593999997E+02  0.45594000000E+02  0.51100000000E-03 0. -1.
    9900012    2    1    2    0    0 -0.13338649891E+02 -0.26319668329E+02  0.12086195119E+02  0.59301942948E+02  0.49999998030E+02 0.  0.
        -12    1    1    2    0    0  0.13338649891E+02  0.26319668329E+02 -0.12086195119E+02  0.31886057052E+02  0.00000000000E+00 0.  1.
         11    1    3    3    0    0  0.16339086075E+02 -0.20110327029E+01  0.96562119306E+01  0.19085397963E+02  0.51100000000E-03 0. -1.
        -11    1    3    3    0    0 -0.10926677164E+01 -0.43699913821E+00  0.27306119242E+01  0.29734042320E+01  0.51100000000E-03 0.  1.
        -12    1    3    3    0    0 -0.28585068250E+02 -0.23871636488E+02 -0.30062873548E+00  0.37243140753E+02  0.00000000000E+00 0.  1.
</event>
<event>
 7    1  0.7383168E-013  0.5930191E+02  0.7816164E-02  0.1266605E+00
        -11   -1    0    0    0    0  0.00000000000E+00  0.00000000000E+00  0.45593999997E+02  0.45594000000E+02  0.51100000000E-03 0. -1.
         11   -1    0    0    0    0 -0.00000000000E+00 -0.00000000000E+00 -0.45593999997E+02  0.45594000000E+02  0.51100000000E-03 0.  1.
    9900012    2    1    2    0    0  0.17545337734E+02 -0.21701203849E+02  0.15425345945E+02  0.59301914912E+02  0.49999946901E+02 0.  0.
        -12    1    1    2    0    0 -0.17545337734E+02  0.21701203849E+02 -0.15425345945E+02  0.31886085088E+02  0.00000000000E+00 0.  1.
         11    1    3    3    0    0  0.10283844547E+02 -0.70713196459E+01  0.53585838521E+01  0.13582173661E+02  0.51100000000E-03 0. -1.
        -11    1    3    3    0    0  0.23203547178E+02 -0.16560875681E+02  0.56084387712E+01  0.29053774121E+02  0.51100000000E-03 0.  1.
         12    1    3    3    0    0 -0.15942053991E+02  0.19309914779E+01  0.44583233216E+01  0.16665967130E+02  0.00000000000E+00 0. -1.
</event>
<event>
 7    1  0.7383168E-013  0.5930194E+02  0.7816164E-02  0.1266605E+00
        -11   -1    0    0    0    0  0.00000000000E+00  0.00000000000E+00  0.45593999997E+02  0.45594000000E+02  0.51100000000E-03 0.  1.
         11   -1    0    0    0    0 -0.00000000000E+00 -0.00000000000E+00 -0.45593999997E+02  0.45594000000E+02  0.51100000000E-03 0. -1.
    9900012    2    1    2    0    0 -0.19409372585E+02 -0.24490771058E+02 -0.63402821679E+01  0.59301940521E+02  0.49999993604E+02 0.  0.
        -12    1    1    2    0    0  0.19409372585E+02  0.24490771058E+02  0.63402821679E+01  0.31886059479E+02  0.00000000000E+00 0.  1.
         11    1    3    3    0    0 -0.21491129268E+02 -0.24295382358E+02 -0.11222093466E+02  0.34323018853E+02  0.51100000000E-03 0. -1.
        -11    1    3    3    0    0 -0.26085605061E+01 -0.10071248185E+02 -0.37398761442E+01  0.11055374338E+02  0.51100000000E-03 0.  1.
        -12    1    3    3    0    0  0.46903171896E+01  0.98758594850E+01  0.86216874420E+01  0.13923547330E+02  0.00000000000E+00 0.  1.
</event>
<event>
 7    1  0.7383168E-013  0.5930197E+02  0.7816164E-02  0.1266605E+00
        -11   -1    0    0    0    0  0.00000000000E+00  0.00000000000E+00  0.45593999997E+02  0.45594000000E+02  0.51100000000E-03 0.  1.
         11   -1    0    0    0    0 -0.00000000000E+00 -0.00000000000E+00 -0.45593999997E+02  0.45594000000E+02  0.51100000000E-03 0. -1.
    9900012    2    1    2    0    0  0.11067833483E+02  0.29902324823E+02 -0.27005993846E+00  0.59301970140E+02  0.50000047623E+02 0.  0.
        -12    1    1    2    0    0 -0.11067833483E+02 -0.29902324823E+02  0.27005993846E+00  0.31886029860E+02  0.00000000000E+00 0.  1.
         11    1    3    3    0    0  0.33556174020E+01 -0.46231497949E+01 -0.12064082888E+02  0.13348250011E+02  0.51100000000E-03 0. -1.
        -11    1    3    3    0    0  0.71377602588E+01  0.23320514766E+02 -0.58168897310E+01  0.25072499614E+02  0.51100000000E-03 0.  1.
        -12    1    3    3    0    0  0.57445582265E+00  0.11204959852E+02  0.17610912680E+02  0.20881220515E+02  0.00000000000E+00 0.  1.
</event>
<event>
 7    1  0.7383168E-013  0.5930203E+02  0.7816164E-02  0.1266604E+00
        -11   -1    0    0    0    0  0.00000000000E+00  0.00000000000E+00  0.45593999997E+02  0.45594000000E+02  0.51100000000E-03 0. -1.
         11   -1    0    0    0    0 -0.00000000000E+00 -0.00000000000E+00 -0.45593999997E+02  0.45594000000E+02  0.51100000000E-03 0.  1.
    9900012    2    1    2    0    0 -0.19114001467E+02  0.24622968885E+02 -0.67141435600E+01  0.59302025457E+02  0.50000148508E+02 0.  0.
        -12    1    1    2    0    0  0.19114001467E+02 -0.24622968885E+02  0.67141435600E+01  0.31885974543E+02  0.00000000000E+00 0.  1.
         11    1    3    3    0    0 -0.17154354898E+02 -0.11456009638E+02 -0.54546032789E+01  0.21336933847E+02  0.51100000000E-03 0. -1.
        -11    1    3    3    0    0 -0.59309207011E+01  0.18283693147E+02  0.23925234022E+01  0.19369910272E+02  0.51100000000E-03 0.  1.
        -12    1    3    3    0    0  0.39712741322E+01  0.17795285376E+02 -0.36520636833E+01  0.18595181338E+02  0.00000000000E+00 0.  1.
</event>
<event>
 7    1  0.7383168E-013  0.5930194E+02  0.7816164E-02  0.1266605E+00
        -11   -1    0    0    0    0  0.00000000000E+00  0.00000000000E+00  0.45593999997E+02  0.45594000000E+02  0.51100000000E-03 0.  1.
         11   -1    0    0    0    0 -0.00000000000E+00 -0.00000000000E+00 -0.45593999997E+02  0.45594000000E+02  0.51100000000E-03 0. -1.
    9900012    2    1    2    0    0  0.25002647790E+02  0.19731016332E+02 -0.15084305823E+01  0.59301940901E+02  0.49999994298E+02 0.  0.
        -12    1    1    2    0    0 -0.25002647790E+02 -0.19731016332E+02  0.15084305823E+01  0.31886059099E+02  0.00000000000E+00 0.  1.
         11    1    3    3    0    0  0.20629943488E+02 -0.62904191291E+01  0.33269415683E+01  0.21822751468E+02  0.51100000000E-03 0. -1.
        -11    1    3    3    0    0  0.17747206378E+01  0.89333454774E+01  0.10830906000E+02  0.14151424656E+02  0.51100000000E-03 0.  1.
         12    1    3    3    0    0  0.25979836641E+01  0.17088089984E+02 -0.15666278151E+02  0.23327764777E+02  0.00000000000E+00 0. -1.
</event>
<event>
 7    1  0.7383168E-013  0.5930198E+02  0.7816164E-02  0.1266605E+00
        -11   -1    0    0    0    0  0.00000000000E+00  0.00000000000E+00  0.45593999997E+02  0.45594000000E+02  0.51100000000E-03 0. -1.
         11   -1    0    0    0    0 -0.00000000000E+00 -0.00000000000E+00 -0.45593999997E+02  0.45594000000E+02  0.51100000000E-03 0.  1.
    9900012    2    1    2    0    0  0.29449269942E+02 -0.11056906615E+02 -0.52156857084E+01  0.59301983293E+02  0.50000071610E+02 0.  0.
        -12    1    1    2    0    0 -0.29449269942E+02  0.11056906615E+02  0.52156857084E+01  0.31886016707E+02  0.00000000000E+00 0.  1.
         11    1    3    3    0    0  0.12812636798E+02 -0.13746821468E+02  0.11222607611E+02  0.21888026043E+02  0.51100000000E-03 0. -1.
        -11    1    3    3    0    0  0.62538372398E+01  0.11913858222E+02  0.27433744779E+01  0.13732319605E+02  0.51100000000E-03 0.  1.
        -12    1    3    3    0    0  0.10382795905E+02 -0.92239433688E+01 -0.19181667797E+02  0.23681637645E+02  0.00000000000E+00 0.  1.
</event>
<event>
 7    1  0.7383168E-013  0.5930200E+02  0.7816164E-02  0.1266605E+00
        -11   -1    0    0    0    0  0.00000000000E+00  0.00000000000E+00  0.45593999997E+02  0.45594000000E+02  0.51100000000E-03 0.  1.
         11   -1    0    0    0    0 -0.00000000000E+00 -0.00000000000E+00 -0.45593999997E+02  0.45594000000E+02  0.51100000000E-03 0. -1.
    9900012    2    1    2    0    0  0.17560157882E+02 -0.12040305764E+02 -0.23735812425E+02  0.59302001518E+02  0.50000104848E+02 0.  0.
        -12    1    1    2    0    0 -0.17560157882E+02  0.12040305764E+02  0.23735812425E+02  0.31885998482E+02  0.00000000000E+00 0.  1.
         11    1    3    3    0    0  0.13373658590E+02  0.59815982252E+01  0.24008207114E+01  0.14845814284E+02  0.51100000000E-03 0. -1.
        -11    1    3    3    0    0  0.13356358098E+02 -0.21014253937E+01 -0.13287039267E+01  0.13585792016E+02  0.51100000000E-03 0.  1.
        -12    1    3    3    0    0 -0.91698588057E+01 -0.15920478595E+02 -0.24807929210E+02  0.30870395218E+02  0.00000000000E+00 0.  1.
</event>
<event>
 7    1  0.7383168E-013  0.5930194E+02  0.7816164E-02  0.1266605E+00
        -11   -1    0    0    0    0  0.00000000000E+00  0.00000000000E+00  0.45593999997E+02  0.45594000000E+02  0.51100000000E-03 0.  1.
         11   -1    0    0    0    0 -0.00000000000E+00 -0.00000000000E+00 -0.45593999997E+02  0.45594000000E+02  0.51100000000E-03 0. -1.
    9900012    2    1    2    0    0 -0.16266890450E+02 -0.37687089332E+01 -0.27164426691E+02  0.59301937694E+02  0.49999988449E+02 0.  0.
        -12    1    1    2    0    0  0.16266890450E+02  0.37687089332E+01  0.27164426691E+02  0.31886062306E+02  0.00000000000E+00 0.  1.
         11    1    3    3    0    0 -0.14260617515E+02  0.12969959498E+02 -0.17779735832E+02  0.26224112336E+02  0.51100000000E-03 0. -1.
        -11    1    3    3    0    0  0.35877600428E+01  0.53899928969E+01  0.29703286638E+01  0.71236857164E+01  0.51100000000E-03 0.  1.
        -12    1    3    3    0    0 -0.55940329782E+01 -0.22128661328E+02 -0.12355019522E+02  0.25954139642E+02  0.00000000000E+00 0.  1.
</event>
<event>
 7    1  0.7383168E-013  0.5930194E+02  0.7816164E-02  0.1266605E+00
        -11   -1    0    0    0    0  0.00000000000E+00  0.00000000000E+00  0.45593999997E+02  0.45594000000E+02  0.51100000000E-03 0. -1.
         11   -1    0    0    0    0 -0.00000000000E+00 -0.00000000000E+00 -0.45593999997E+02  0.45594000000E+02  0.51100000000E-03 0.  1.
    9900012    2    1    2    0    0 -0.24396502711E+02  0.14054782207E+02  0.14966439753E+02  0.59301944015E+02  0.49999999976E+02 0.  0.
        -12    1    1    2    0    0  0.24396502711E+02 -0.14054782207E+02 -0.14966439753E+02  0.31886055985E+02  0.00000000000E+00 0.  1.
         11    1    3    3    0    0 -0.40695672470E+01  0.40633818729E+00  0.98075106093E-01  0.40909787689E+01  0.51100000000E-03 0. -1.
        -11    1    3    3    0    0 -0.17410476497E+02  0.19564789205E+02 -0.11080139448E+02  0.28437214331E+02  0.51100000000E-03 0.  1.
         12    1    3    3    0    0 -0.29164589674E+01 -0.59163451850E+01  0.25948504095E+02  0.26773750914E+02  0.00000000000E+00 0. -1.
</event>
<event>
 7    1  0.7383168E-013  0.5930192E+02  0.7816164E-02  0.1266605E+00
        -11   -1    0    0    0    0  0.00000000000E+00  0.00000000000E+00  0.45593999997E+02  0.45594000000E+02  0.51100000000E-03 0.  1.
         11   -1    0    0    0    0 -0.00000000000E+00 -0.00000000000E+00 -0.45593999997E+02  0.45594000000E+02  0.51100000000E-03 0. -1.
    9900012    2    1    2    0    0 -0.18041683639E+02 -0.11147723960E+02 -0.23810668884E+02  0.59301920738E+02  0.49999957525E+02 0.  0.
        -12    1    1    2    0    0  0.18041683639E+02  0.11147723960E+02  0.23810668884E+02  0.31886079262E+02  0.00000000000E+00 0.  1.
         11    1    3    3    0    0 -0.13839361971E+02 -0.35643249946E+01 -0.12415503663E+02  0.18930850058E+02  0.51100000000E-03 0. -1.
        -11    1    3    3    0    0 -0.18969749523E+02 -0.20209746109E+01  0.26317344273E+01  0.19257771462E+02  0.51100000000E-03 0.  1.
         12    1    3    3    0    0  0.14767427855E+02 -0.55624243542E+01 -0.14026899648E+02  0.21113299218E+02  0.00000000000E+00 0. -1.
</event>
<event>
 7    1  0.7383168E-013  0.5930191E+02  0.7816164E-02  0.1266605E+00
        -11   -1    0    0    0    0  0.00000000000E+00  0.00000000000E+00  0.45593999997E+02  0.45594000000E+02  0.51100000000E-03 0.  1.
         11   -1    0    0    0    0 -0.00000000000E+00 -0.00000000000E+00 -0.45593999997E+02  0.45594000000E+02  0.51100000000E-03 0. -1.
    9900012    2    1    2    0    0 -0.26449854641E+02  0.39585380274E+01  0.17362546287E+02  0.59301908245E+02  0.49999934741E+02 0.  0.
        -12    1    1    2    0    0  0.26449854641E+02 -0.39585380274E+01 -0.17362546287E+02  0.31886091755E+02  0.00000000000E+00 0.  1.
         11    1    3    3    0    0 -0.18014742213E+02  0.14639501086E+02 -0.41420745316E+01  0.23579709725E+02  0.51100000000E-03 0.  1.
        -11    1    3    3    0    0 -0.11997199221E+02 -0.13925026771E+02  0.57674252347E+01  0.19264017073E+02  0.51100000000E-03 0. -1.
        -12    1    3    3    0    0  0.35620867927E+01  0.32440637117E+01  0.15737195584E+02  0.16458181446E+02  0.00000000000E+00 0.  1.
</event>
<event>
 7    1  0.9754065E-013  0.5930200E+02  0.7816164E-02  0.1266605E+00
        -11   -1    0    0    0    0  0.00000000000E+00  0.00000000000E+00  0.45593999997E+02  0.45594000000E+02  0.51100000000E-03 0.  1.
         11   -1    0    0    0    0 -0.00000000000E+00 -0.00000000000E+00 -0.45593999997E+02  0.45594000000E+02  0.51100000000E-03 0. -1.
    9900012    2    1    2    0    0 -0.31047706031E+02 -0.19163013772E+01  0.70060701857E+01  0.59301995543E+02  0.50000093952E+02 0.  0.
        -12    1    1    2    0    0  0.31047706031E+02  0.19163013772E+01 -0.70060701857E+01  0.31886004457E+02  0.00000000000E+00 0.  1.
         11    1    3    3    0    0 -0.26942272064E+02  0.53715828021E+00 -0.11071832232E+02  0.29133486441E+02  0.51100000000E-03 0. -1.
        -11    1    3    3    0    0  0.48771364733E+01  0.56944632104E+01 -0.99828710715E+00  0.75637258573E+01  0.51100000000E-03 0.  1.
        -12    1    3    3    0    0 -0.89825704410E+01 -0.81479228679E+01  0.19076189524E+02  0.22604783245E+02  0.00000000000E+00 0.  1.
</event>
<event>
 7    1  0.7383168E-013  0.5930195E+02  0.7816164E-02  0.1266605E+00
        -11   -1    0    0    0    0  0.00000000000E+00  0.00000000000E+00  0.45593999997E+02  0.45594000000E+02  0.51100000000E-03 0. -1.
         11   -1    0    0    0    0 -0.00000000000E+00 -0.00000000000E+00 -0.45593999997E+02  0.45594000000E+02  0.51100000000E-03 0.  1.
    9900012    2    1    2    0    0 -0.14018492511E+02 -0.75476455944E+01  0.27626705381E+02  0.59301953891E+02  0.50000017988E+02 0.  0.
        -12    1    1    2    0    0  0.14018492511E+02  0.75476455944E+01 -0.27626705381E+02  0.31886046109E+02  0.00000000000E+00 0.  1.
         11    1    3    3    0    0 -0.14908995248E+02 -0.55902578518E+01  0.85152878918E+00  0.15945351162E+02  0.51100000000E-03 0. -1.
        -11    1    3    3    0    0 -0.15317346430E+02 -0.34139296789E+01  0.56256382989E+01  0.16671047479E+02  0.51100000000E-03 0.  1.
        -12    1    3    3    0    0  0.16207849167E+02  0.14565419363E+01  0.21149538293E+02  0.26685555250E+02  0.00000000000E+00 0.  1.
</event>
<event>
 7    1  0.7383168E-013  0.5930196E+02  0.7816164E-02  0.1266605E+00
        -11   -1    0    0    0    0  0.00000000000E+00  0.00000000000E+00  0.45593999997E+02  0.45594000000E+02  0.51100000000E-03 0. -1.
         11   -1    0    0    0    0 -0.00000000000E+00 -0.00000000000E+00 -0.45593999997E+02  0.45594000000E+02  0.51100000000E-03 0.  1.
    9900012    2    1    2    0    0 -0.12013152392E+01 -0.31372640996E+02  0.55708006011E+01  0.59301959469E+02  0.50000028162E+02 0.  0.
        -12    1    1    2    0    0  0.12013152392E+01  0.31372640996E+02 -0.55708006011E+01  0.31886040531E+02  0.00000000000E+00 0.  1.
         11    1    3    3    0    0  0.34762208092E+01 -0.95749070051E+01  0.12144349675E+02  0.15850810218E+02  0.51100000000E-03 0. -1.
        -11    1    3    3    0    0 -0.20530833248E+02 -0.15780724276E+02 -0.25245535717E+01  0.26017681364E+02  0.51100000000E-03 0.  1.
         12    1    3    3    0    0  0.15853297200E+02 -0.60170097151E+01 -0.40489955021E+01  0.17433467888E+02  0.00000000000E+00 0. -1.
</event>
<event>
 7    1  0.7383168E-013  0.5930193E+02  0.7816164E-02  0.1266605E+00
        -11   -1    0    0    0    0  0.00000000000E+00  0.00000000000E+00  0.45593999997E+02  0.45594000000E+02  0.51100000000E-03 0.  1.
         11   -1    0    0    0    0 -0.00000000000E+00 -0.00000000000E+00 -0.45593999997E+02  0.45594000000E+02  0.51100000000E-03 0. -1.
    9900012    2    1    2    0    0  0.88764156656E+01 -0.28775449025E+02 -0.10483517241E+02  0.59301931641E+02  0.49999977410E+02 0.  0.
        -12    1    1    2    0    0 -0.88764156656E+01  0.28775449025E+02  0.10483517241E+02  0.31886068359E+02  0.00000000000E+00 0.  1.
         11    1    3    3    0    0 -0.66219030190E+01 -0.27521318412E+01 -0.15729328606E+02  0.17286862292E+02  0.51100000000E-03 0. -1.
        -11    1    3    3    0    0 -0.10091088595E+01  0.40200254670E+01  0.65038896561E+01  0.77122944943E+01  0.51100000000E-03 0.  1.
        -12    1    3    3    0    0  0.16507427544E+02 -0.30043342651E+02 -0.12580782907E+01  0.34302774855E+02  0.00000000000E+00 0.  1.
</event>
<event>
 7    1  0.7383168E-013  0.5930196E+02  0.7816164E-02  0.1266605E+00
        -11   -1    0    0    0    0  0.00000000000E+00  0.00000000000E+00  0.45593999997E+02  0.45594000000E+02  0.51100000000E-03 0.  1.
         11   -1    0    0    0    0 -0.00000000000E+00 -0.00000000000E+00 -0.45593999997E+02  0.45594000000E+02  0.51100000000E-03 0. -1.
    9900012    2    1    2    0    0  0.22470826392E+02 -0.17877073771E+02 -0.13863323888E+02  0.59301959879E+02  0.50000028909E+02 0.  0.
        -12    1    1    2    0    0 -0.22470826392E+02  0.17877073771E+02  0.13863323888E+02  0.31886040121E+02  0.00000000000E+00 0.  1.
         11    1    3    3    0    0  0.10753088613E+02 -0.17031995339E+02 -0.13374038063E+01  0.20186788480E+02  0.51100000000E-03 0. -1.
        -11    1    3    3    0    0 -0.54965336191E+01 -0.23512854988E+01  0.94358112764E+01  0.11170271260E+02  0.51100000000E-03 0.  1.
         12    1    3    3    0    0  0.17214271398E+02  0.15062070667E+01 -0.21961731358E+02  0.27944900139E+02  0.00000000000E+00 0. -1.
</event>
<event>
 7    1  0.7383168E-013  0.5930194E+02  0.7816164E-02  0.1266605E+00
        -11   -1    0    0    0    0  0.00000000000E+00  0.00000000000E+00  0.45593999997E+02  0.45594000000E+02  0.51100000000E-03 0. -1.
         11   -1    0    0    0    0 -0.00000000000E+00 -0.00000000000E+00 -0.45593999997E+02  0.45594000000E+02  0.51100000000E-03 0.  1.
    9900012    2    1    2    0    0 -0.62365048640E+00 -0.31711469770E+02 -0.32733532689E+01  0.59301935700E+02  0.49999984813E+02 0.  0.
        -12    1    1    2    0    0  0.62365048640E+00  0.31711469770E+02  0.32733532689E+01  0.31886064300E+02  0.00000000000E+00 0.  1.
         11    1    3    3    0    0 -0.94490046962E+01 -0.16134277773E+02 -0.11656046622E+02  0.22033202947E+02  0.51100000000E-03 0. -1.
        -11    1    3    3    0    0  0.13322114684E+02 -0.12239975997E+02 -0.81287006397E+01  0.19833595903E+02  0.51100000000E-03 0.  1.
         12    1    3    3    0    0 -0.44967604744E+01 -0.33372159998E+01  0.16511393993E+02  0.17435136850E+02  0.00000000000E+00 0. -1.
</event>
<event>
 7    1  0.7383168E-013  0.5930202E+02  0.7816164E-02  0.1266605E+00
        -11   -1    0    0    0    0  0.00000000000E+00  0.00000000000E+00  0.45593999997E+02  0.45594000000E+02  0.51100000000E-03 0.  1.
         11   -1    0    0    0    0 -0.00000000000E+00 -0.00000000000E+00 -0.45593999997E+02  0.45594000000E+02  0.51100000000E-03 0. -1.
    9900012    2    1    2    0    0  0.91152851744E+01  0.27209552717E+01 -0.30433927028E+02  0.59302016625E+02  0.50000132401E+02 0.  0.
        -12    1    1    2    0    0 -0.91152851744E+01 -0.27209552717E+01  0.30433927028E+02  0.31885983375E+02  0.00000000000E+00 0.  1.
         11    1    3    3    0    0 -0.19425958888E+01  0.72699484812E+01 -0.26754943017E+02  0.27793035203E+02  0.51100000000E-03 0. -1.
        -11    1    3    3    0    0  0.65534352045E+01  0.15671224589E+01 -0.15815701812E+02  0.17191271328E+02  0.51100000000E-03 0.  1.
        -12    1    3    3    0    0  0.45044458588E+01 -0.61161156684E+01  0.12136717801E+02  0.14317710094E+02  0.00000000000E+00 0.  1.
</event>
<event>
 7    1  0.7383168E-013  0.5930196E+02  0.7816164E-02  0.1266605E+00
        -11   -1    0    0    0    0  0.00000000000E+00  0.00000000000E+00  0.45593999997E+02  0.45594000000E+02  0.51100000000E-03 0.  1.
         11   -1    0    0    0    0 -0.00000000000E+00 -0.00000000000E+00 -0.45593999997E+02  0.45594000000E+02  0.51100000000E-03 0. -1.
    9900012    2    1    2    0    0 -0.11032704211E+02 -0.18343996272E+02 -0.23632534951E+02  0.59301961211E+02  0.50000031339E+02 0.  0.
        -12    1    1    2    0    0  0.11032704211E+02  0.18343996272E+02  0.23632534951E+02  0.31886038789E+02  0.00000000000E+00 0.  1.
         11    1    3    3    0    0 -0.49324355273E+01  0.20238983395E+00  0.18189740532E+01  0.52610406522E+01  0.51100000000E-03 0. -1.
        -11    1    3    3    0    0  0.62543299230E+01 -0.23991982309E+02  0.48734411922E+00  0.24798575815E+02  0.51100000000E-03 0.  1.
         12    1    3    3    0    0 -0.12354598607E+02  0.54455962036E+01 -0.25938853123E+02  0.29242344744E+02  0.00000000000E+00 0. -1.
</event>
<event>
 7    1  0.7383168E-013  0.5930195E+02  0.7816164E-02  0.1266605E+00
        -11   -1    0    0    0    0  0.00000000000E+00  0.00000000000E+00  0.45593999997E+02  0.45594000000E+02  0.51100000000E-03 0. -1.
         11   -1    0    0    0    0 -0.00000000000E+00 -0.00000000000E+00 -0.45593999997E+02  0.45594000000E+02  0.51100000000E-03 0.  1.
    9900012    2    1    2    0    0  0.51979552745E+01  0.26398827175E+02 -0.17111494861E+02  0.59301951772E+02  0.50000014123E+02 0.  0.
        -12    1    1    2    0    0 -0.51979552745E+01 -0.26398827175E+02  0.17111494861E+02  0.31886048228E+02  0.00000000000E+00 0.  1.
         11    1    3    3    0    0 -0.68410792740E+01  0.20985632866E+02  0.47964333022E+01  0.22587671972E+02  0.51100000000E-03 0. -1.
        -11    1    3    3    0    0 -0.62005534848E+01  0.82276789544E+01 -0.41629680217E+01  0.11111789573E+02  0.51100000000E-03 0.  1.
        -12    1    3    3    0    0  0.18239588033E+02 -0.28144846451E+01 -0.17744960141E+02  0.25602490227E+02  0.00000000000E+00 0.  1.
</event>
<event>
 7    1  0.7383168E-013  0.5930194E+02  0.7816164E-02  0.1266605E+00
        -11   -1    0    0    0    0  0.00000000000E+00  0.00000000000E+00  0.45593999997E+02  0.45594000000E+02  0.51100000000E-03 0.  1.
         11   -1    0    0    0    0 -0.00000000000E+00 -0.00000000000E+00 -0.45593999997E+02  0.45594000000E+02  0.51100000000E-03 0. -1.
    9900012    2    1    2    0    0  0.16842560576E+02 -0.15442521796E+02 -0.22239101323E+02  0.59301937938E+02  0.49999988893E+02 0.  0.
        -12    1    1    2    0    0 -0.16842560576E+02  0.15442521796E+02  0.22239101323E+02  0.31886062062E+02  0.00000000000E+00 0.  1.
         11    1    3    3    0    0  0.11237466841E+02 -0.95229813247E+01 -0.14862861540E+02  0.20925402929E+02  0.51100000000E-03 0. -1.
        -11    1    3    3    0    0  0.12448274886E+02 -0.19095510014E+02 -0.50652438263E+01  0.23350690474E+02  0.51100000000E-03 0.  1.
        -12    1    3    3    0    0 -0.68431811511E+01  0.13175969543E+02 -0.23109959566E+01  0.15025844535E+02  0.00000000000E+00 0.  1.
</event>
<event>
 7    1  0.7383168E-013  0.5930195E+02  0.7816164E-02  0.1266605E+00
        -11   -1    0    0    0    0  0.00000000000E+00  0.00000000000E+00  0.45593999997E+02  0.45594000000E+02  0.51100000000E-03 0. -1.
         11   -1    0    0    0    0 -0.00000000000E+00 -0.00000000000E+00 -0.45593999997E+02  0.45594000000E+02  0.51100000000E-03 0.  1.
    9900012    2    1    2    0    0 -0.12624311319E+02 -0.26622311894E+02  0.12190149856E+02  0.59301945362E+02  0.50000002434E+02 0.  0.
        -12    1    1    2    0    0  0.12624311319E+02  0.26622311894E+02 -0.12190149856E+02  0.31886054638E+02  0.00000000000E+00 0.  1.
         11    1    3    3    0    0 -0.13527959556E+02 -0.21989344072E+02  0.18342857572E+02  0.31670133669E+02  0.51100000000E-03 0. -1.
        -11    1    3    3    0    0  0.10697127956E+02  0.29264739491E+01  0.38320597631E+01  0.11733604671E+02  0.51100000000E-03 0.  1.
        -12    1    3    3    0    0 -0.97934797196E+01 -0.75594417716E+01 -0.99847674791E+01  0.15898207022E+02  0.00000000000E+00 0.  1.
</event>
<event>
 7    1  0.7383168E-013  0.5930195E+02  0.7816164E-02  0.1266605E+00
        -11   -1    0    0    0    0  0.00000000000E+00  0.00000000000E+00  0.45593999997E+02  0.45594000000E+02  0.51100000000E-03 0.  1.
         11   -1    0    0    0    0 -0.00000000000E+00 -0.00000000000E+00 -0.45593999997E+02  0.45594000000E+02  0.51100000000E-03 0. -1.
    9900012    2    1    2    0    0 -0.21403311849E+02  0.21237448496E+02  0.10372536368E+02  0.59301945252E+02  0.50000002232E+02 0.  0.
        -12    1    1    2    0    0  0.21403311849E+02 -0.21237448496E+02 -0.10372536368E+02  0.31886054748E+02  0.00000000000E+00 0.  1.
         11    1    3    3    0    0 -0.30109316562E+02  0.10684119574E+02  0.31849517827E+01  0.32107090697E+02  0.51100000000E-03 0. -1.
        -11    1    3    3    0    0  0.14865616582E+01 -0.57099750138E+01  0.73184128675E+01  0.94006833466E+01  0.51100000000E-03 0.  1.
        -12    1    3    3    0    0  0.72194430555E+01  0.16263303935E+02 -0.13082828173E+00  0.17794171208E+02  0.00000000000E+00 0.  1.
</event>
<event>
 7    1  0.7383168E-013  0.5930197E+02  0.7816164E-02  0.1266605E+00
        -11   -1    0    0    0    0  0.00000000000E+00  0.00000000000E+00  0.45593999997E+02  0.45594000000E+02  0.51100000000E-03 0.  1.
         11   -1    0    0    0    0 -0.00000000000E+00 -0.00000000000E+00 -0.45593999997E+02  0.45594000000E+02  0.51100000000E-03 0. -1.
    9900012    2    1    2    0    0 -0.22968744936E+02  0.14624553806E+02 -0.16591503229E+02  0.59301971753E+02  0.50000050565E+02 0.  0.
        -12    1    1    2    0    0  0.22968744936E+02 -0.14624553806E+02  0.16591503229E+02  0.31886028247E+02  0.00000000000E+00 0.  1.
         11    1    3    3    0    0 -0.10371029757E+02  0.25263919861E+01  0.89475948122E+01  0.13928401483E+02  0.51100000000E-03 0. -1.
        -11    1    3    3    0    0 -0.15338062023E+02 -0.76627362699E+01 -0.15152552725E+02  0.22881729133E+02  0.51100000000E-03 0.  1.
         12    1    3    3    0    0  0.27403468438E+01  0.19760898090E+02 -0.10386545316E+02  0.22491841138E+02  0.00000000000E+00 0. -1.
</event>
<event>
 7    1  0.7383168E-013  0.5930209E+02  0.7816164E-02  0.1266604E+00
        -11   -1    0    0    0    0  0.00000000000E+00  0.00000000000E+00  0.45593999997E+02  0.45594000000E+02  0.51100000000E-03 0. -1.
         11   -1    0    0    0    0 -0.00000000000E+00 -0.00000000000E+00 -0.45593999997E+02  0.45594000000E+02  0.51100000000E-03 0.  1.
    9900012    2    1    2    0    0  0.11639499126E+02 -0.29671016256E+02 -0.92944081485E+00  0.59302093932E+02  0.50000273389E+02 0.  0.
        -12    1    1    2    0    0 -0.11639499126E+02  0.29671016256E+02  0.92944081485E+00  0.31885906068E+02  0.00000000000E+00 0.  1.
         11    1    3    3    0    0  0.82849176982E+00 -0.12174907254E+02  0.13876426124E+02  0.18478906014E+02  0.51100000000E-03 0.  1.
        -11    1    3    3    0    0  0.20393424615E+02 -0.52324088069E+01 -0.29527524598E+01  0.21260023914E+02  0.51100000000E-03 0. -1.
        -12    1    3    3    0    0 -0.95824172596E+01 -0.12263700195E+02 -0.11853114479E+02  0.19563164004E+02  0.00000000000E+00 0.  1.
</event>
<event>
 7    1  0.7383168E-013  0.5930197E+02  0.7816164E-02  0.1266605E+00
        -11   -1    0    0    0    0  0.00000000000E+00  0.00000000000E+00  0.45593999997E+02  0.45594000000E+02  0.51100000000E-03 0. -1.
         11   -1    0    0    0    0 -0.00000000000E+00 -0.00000000000E+00 -0.45593999997E+02  0.45594000000E+02  0.51100000000E-03 0.  1.
    9900012    2    1    2    0    0 -0.16382287025E+02 -0.26279631300E+02  0.75973912862E+01  0.59301973220E+02  0.50000053240E+02 0.  0.
        -12    1    1    2    0    0  0.16382287025E+02  0.26279631300E+02 -0.75973912862E+01  0.31886026780E+02  0.00000000000E+00 0.  1.
         11    1    3    3    0    0  0.23158293406E+01 -0.69303719162E+01 -0.94473796183E+01  0.11943454372E+02  0.51100000000E-03 0. -1.
        -11    1    3    3    0    0 -0.33474617971E+01 -0.45343974572E+01 -0.10858578807E+02  0.12234173235E+02  0.51100000000E-03 0.  1.
         12    1    3    3    0    0 -0.15350654568E+02 -0.14814861927E+02  0.27903349712E+02  0.35124345613E+02  0.00000000000E+00 0. -1.
</event>
<event>
 7    1  0.7383168E-013  0.5930194E+02  0.7816164E-02  0.1266605E+00
        -11   -1    0    0    0    0  0.00000000000E+00  0.00000000000E+00  0.45593999997E+02  0.45594000000E+02  0.51100000000E-03 0. -1.
         11   -1    0    0    0    0 -0.00000000000E+00 -0.00000000000E+00 -0.45593999997E+02  0.45594000000E+02  0.51100000000E-03 0.  1.
    9900012    2    1    2    0    0 -0.15500709833E+02  0.27583829827E+02  0.39472881885E+01  0.59301941019E+02  0.49999994514E+02 0.  0.
        -12    1    1    2    0    0  0.15500709833E+02 -0.27583829827E+02 -0.39472881885E+01  0.31886058981E+02  0.00000000000E+00 0.  1.
         11    1    3    3    0    0 -0.17984277593E+02  0.26150812495E+02 -0.10824149373E+01  0.31756430169E+02  0.51100000000E-03 0. -1.
        -11    1    3    3    0    0 -0.65322978697E+01 -0.15261763006E+01  0.13340114282E+02  0.14931804274E+02  0.51100000000E-03 0.  1.
        -12    1    3    3    0    0  0.90158656302E+01  0.29591936326E+01 -0.83104111561E+01  0.12613706577E+02  0.00000000000E+00 0.  1.
</event>
<event>
 7    1  0.7383168E-013  0.5930194E+02  0.7816164E-02  0.1266605E+00
        -11   -1    0    0    0    0  0.00000000000E+00  0.00000000000E+00  0.45593999997E+02  0.45594000000E+02  0.51100000000E-03 0.  1.
         11   -1    0    0    0    0 -0.00000000000E+00 -0.00000000000E+00 -0.45593999997E+02  0.45594000000E+02  0.51100000000E-03 0. -1.
    9900012    2    1    2    0    0  0.23393537257E+02 -0.19762695101E+02  0.88825223457E+01  0.59301938683E+02  0.49999990253E+02 0.  0.
        -12    1    1    2    0    0 -0.23393537257E+02  0.19762695101E+02 -0.88825223457E+01  0.31886061317E+02  0.00000000000E+00 0.  1.
         11    1    3    3    0    0  0.24262005737E+02 -0.97298366396E+01  0.15976212699E+02  0.30635828956E+02  0.51100000000E-03 0. -1.
        -11    1    3    3    0    0 -0.24179156865E+00 -0.16330362739E+02  0.31423147385E+01  0.16631697223E+02  0.51100000000E-03 0.  1.
         12    1    3    3    0    0 -0.62667691061E+00  0.62975042774E+01 -0.10236005091E+02  0.12034412504E+02  0.00000000000E+00 0. -1.
</event>
<event>
 7    1  0.7383168E-013  0.5930194E+02  0.7816164E-02  0.1266605E+00
        -11   -1    0    0    0    0  0.00000000000E+00  0.00000000000E+00  0.45593999997E+02  0.45594000000E+02  0.51100000000E-03 0.  1.
         11   -1    0    0    0    0 -0.00000000000E+00 -0.00000000000E+00 -0.45593999997E+02  0.45594000000E+02  0.51100000000E-03 0. -1.
    9900012    2    1    2    0    0  0.75513954365E+01 -0.14229869438E+02 -0.27517418174E+02  0.59301936269E+02  0.49999985850E+02 0.  0.
        -12    1    1    2    0    0 -0.75513954365E+01  0.14229869438E+02  0.27517418174E+02  0.31886063731E+02  0.00000000000E+00 0.  1.
         11    1    3    3    0    0 -0.17560663414E+01  0.37449990550E+01 -0.51640193585E+01  0.66163345678E+01  0.51100000000E-03 0. -1.
        -11    1    3    3    0    0  0.41487921742E+01  0.11742052681E+02 -0.18468676125E+02  0.22275104393E+02  0.51100000000E-03 0.  1.
         12    1    3    3    0    0  0.51586696036E+01 -0.29716921174E+02 -0.38847226908E+01  0.30410497308E+02  0.00000000000E+00 0. -1.
</event>
<event>
 7    1  0.7383168E-013  0.5930194E+02  0.7816164E-02  0.1266605E+00
        -11   -1    0    0    0    0  0.00000000000E+00  0.00000000000E+00  0.45593999997E+02  0.45594000000E+02  0.51100000000E-03 0.  1.
         11   -1    0    0    0    0 -0.00000000000E+00 -0.00000000000E+00 -0.45593999997E+02  0.45594000000E+02  0.51100000000E-03 0. -1.
    9900012    2    1    2    0    0 -0.12114146886E+02 -0.14488540647E+02 -0.25691451598E+02  0.59301936428E+02  0.49999986140E+02 0.  0.
        -12    1    1    2    0    0  0.12114146886E+02  0.14488540647E+02  0.25691451598E+02  0.31886063572E+02  0.00000000000E+00 0.  1.
         11    1    3    3    0    0 -0.14009008491E+02  0.18872058168E+01  0.73845535557E+01  0.15948212946E+02  0.51100000000E-03 0. -1.
        -11    1    3    3    0    0 -0.47127048747E+01 -0.34889146337E+01  0.13400478074E+01  0.60148018209E+01  0.51100000000E-03 0.  1.
         12    1    3    3    0    0  0.66075664790E+01 -0.12886831830E+02 -0.34416052961E+02  0.37338921661E+02  0.00000000000E+00 0. -1.
</event>
<event>
 7    1  0.7383168E-013  0.5930195E+02  0.7816164E-02  0.1266605E+00
        -11   -1    0    0    0    0  0.00000000000E+00  0.00000000000E+00  0.45593999997E+02  0.45594000000E+02  0.51100000000E-03 0.  1.
         11   -1    0    0    0    0 -0.00000000000E+00 -0.00000000000E+00 -0.45593999997E+02  0.45594000000E+02  0.51100000000E-03 0. -1.
    9900012    2    1    2    0    0 -0.19784697740E+02  0.20264559494E+02 -0.14650375966E+02  0.59301950510E+02  0.50000011821E+02 0.  0.
        -12    1    1    2    0    0  0.19784697740E+02 -0.20264559494E+02  0.14650375966E+02  0.31886049490E+02  0.00000000000E+00 0.  1.
         11    1    3    3    0    0 -0.17474026376E+02  0.13749828536E+02 -0.11283517279E+01  0.22263705002E+02  0.51100000000E-03 0. -1.
        -11    1    3    3    0    0  0.96553806897E+01  0.16352729515E+02 -0.73912354265E+01  0.20378137801E+02  0.51100000000E-03 0.  1.
        -12    1    3    3    0    0 -0.11966052054E+02 -0.98379985559E+01 -0.61307888113E+01  0.16660107706E+02  0.00000000000E+00 0.  1.
</event>
<event>
 7    1  0.7383168E-013  0.5930195E+02  0.7816164E-02  0.1266605E+00
        -11   -1    0    0    0    0  0.00000000000E+00  0.00000000000E+00  0.45593999997E+02  0.45594000000E+02  0.51100000000E-03 0. -1.
         11   -1    0    0    0    0 -0.00000000000E+00 -0.00000000000E+00 -0.45593999997E+02  0.45594000000E+02  0.51100000000E-03 0.  1.
    9900012    2    1    2    0    0  0.17352960690E+02 -0.22834112296E+02 -0.13935502363E+02  0.59301950462E+02  0.50000011734E+02 0.  0.
        -12    1    1    2    0    0 -0.17352960690E+02  0.22834112296E+02  0.13935502363E+02  0.31886049538E+02  0.00000000000E+00 0.  1.
         11    1    3    3    0    0 -0.77638304313E+01 -0.11889067435E+02 -0.33159595961E+01  0.14581583445E+02  0.51100000000E-03 0. -1.
        -11    1    3    3    0    0  0.70125325215E+01 -0.21263015491E+02 -0.32853005068E+01  0.22629287214E+02  0.51100000000E-03 0.  1.
        -12    1    3    3    0    0  0.18104258599E+02  0.10317970630E+02 -0.73342422603E+01  0.22091079803E+02  0.00000000000E+00 0.  1.
</event>
<event>
 7    1  0.7383168E-013  0.5930191E+02  0.7816164E-02  0.1266605E+00
        -11   -1    0    0    0    0  0.00000000000E+00  0.00000000000E+00  0.45593999997E+02  0.45594000000E+02  0.51100000000E-03 0.  1.
         11   -1    0    0    0    0 -0.00000000000E+00 -0.00000000000E+00 -0.45593999997E+02  0.45594000000E+02  0.51100000000E-03 0. -1.
    9900012    2    1    2    0    0  0.16165875966E+02  0.17040233624E+01 -0.27431431429E+02  0.59301911002E+02  0.49999939768E+02 0.  0.
        -12    1    1    2    0    0 -0.16165875966E+02 -0.17040233624E+01  0.27431431429E+02  0.31886088998E+02  0.00000000000E+00 0.  1.
         11    1    3    3    0    0 -0.51407226200E+01 -0.22212019786E+01  0.42448062441E+01  0.70270297848E+01  0.51100000000E-03 0. -1.
        -11    1    3    3    0    0  0.51989946068E+01  0.17966755419E+02 -0.78902271619E+01  0.20299988427E+02  0.51100000000E-03 0.  1.
         12    1    3    3    0    0  0.16107603979E+02 -0.14041530078E+02 -0.23786010511E+02  0.31974892790E+02  0.00000000000E+00 0. -1.
</event>
<event>
 7    1  0.7383168E-013  0.5930194E+02  0.7816164E-02  0.1266605E+00
        -11   -1    0    0    0    0  0.00000000000E+00  0.00000000000E+00  0.45593999997E+02  0.45594000000E+02  0.51100000000E-03 0.  1.
         11   -1    0    0    0    0 -0.00000000000E+00 -0.00000000000E+00 -0.45593999997E+02  0.45594000000E+02  0.51100000000E-03 0. -1.
    9900012    2    1    2    0    0  0.25316060177E+01  0.60742599515E+01 -0.31199599521E+02  0.59301942337E+02  0.49999996917E+02 0.  0.
        -12    1    1    2    0    0 -0.25316060177E+01 -0.60742599515E+01  0.31199599521E+02  0.31886057663E+02  0.00000000000E+00 0.  1.
         11    1    3    3    0    0  0.13655750209E+02 -0.19503826429E+01 -0.28453560252E+02  0.31621015125E+02  0.51100000000E-03 0. -1.
        -11    1    3    3    0    0 -0.98295795900E+00  0.13665147567E+02 -0.69198913691E+01  0.15348855371E+02  0.51100000000E-03 0.  1.
        -12    1    3    3    0    0 -0.10141186232E+02 -0.56405049728E+01  0.41738521003E+01  0.12332071842E+02  0.00000000000E+00 0.  1.
</event>
<event>
 7    1  0.7383168E-013  0.5930196E+02  0.7816164E-02  0.1266605E+00
        -11   -1    0    0    0    0  0.00000000000E+00  0.00000000000E+00  0.45593999997E+02  0.45594000000E+02  0.51100000000E-03 0.  1.
         11   -1    0    0    0    0 -0.00000000000E+00 -0.00000000000E+00 -0.45593999997E+02  0.45594000000E+02  0.51100000000E-03 0. -1.
    9900012    2    1    2    0    0  0.18823700938E+02 -0.23432355255E+02  0.10644838636E+02  0.59301959491E+02  0.50000028200E+02 0.  0.
        -12    1    1    2    0    0 -0.18823700938E+02  0.23432355255E+02 -0.10644838636E+02  0.31886040509E+02  0.00000000000E+00 0.  1.
         11    1    3    3    0    0  0.58803326739E+01 -0.47121470970E+01 -0.14545272394E+02  0.16381318381E+02  0.51100000000E-03 0. -1.
        -11    1    3    3    0    0 -0.60056084191E+01  0.10939363831E+01  0.67400530080E+00  0.61415236465E+01  0.51100000000E-03 0.  1.
        -12    1    3    3    0    0  0.18948976683E+02 -0.19814144541E+02  0.24516105730E+02  0.36779117463E+02  0.00000000000E+00 0.  1.
</event>
<event>
 7    1  0.7383168E-013  0.5930191E+02  0.7816164E-02  0.1266605E+00
        -11   -1    0    0    0    0  0.00000000000E+00  0.00000000000E+00  0.45593999997E+02  0.45594000000E+02  0.51100000000E-03 0. -1.
         11   -1    0    0    0    0 -0.00000000000E+00 -0.00000000000E+00 -0.45593999997E+02  0.45594000000E+02  0.51100000000E-03 0.  1.
    9900012    2    1    2    0    0 -0.20455417510E+02 -0.68810786472E+01  0.23472308697E+02  0.59301911742E+02  0.49999941118E+02 0.  0.
        -12    1    1    2    0    0  0.20455417510E+02  0.68810786472E+01 -0.23472308697E+02  0.31886088258E+02  0.00000000000E+00 0.  1.
         11    1    3    3    0    0 -0.23139998062E+01 -0.95659922765E+01  0.88153860997E+01  0.13212639240E+02  0.51100000000E-03 0. -1.
        -11    1    3    3    0    0  0.12261974330E+02  0.12180956474E+01  0.86713620644E+01  0.15067590776E+02  0.51100000000E-03 0.  1.
         12    1    3    3    0    0 -0.30403392034E+02  0.14668179819E+01  0.59855605330E+01  0.31021681725E+02  0.00000000000E+00 0. -1.
</event>
<event>
 7    1  0.7383168E-013  0.5930192E+02  0.7816164E-02  0.1266605E+00
        -11   -1    0    0    0    0  0.00000000000E+00  0.00000000000E+00  0.45593999997E+02  0.45594000000E+02  0.51100000000E-03 0.  1.
         11   -1    0    0    0    0 -0.00000000000E+00 -0.00000000000E+00 -0.45593999997E+02  0.45594000000E+02  0.51100000000E-03 0. -1.
    9900012    2    1    2    0    0  0.10115042128E+02  0.10992265688E+02 -0.28170516284E+02  0.59301922005E+02  0.49999959836E+02 0.  0.
        -12    1    1    2    0    0 -0.10115042128E+02 -0.10992265688E+02  0.28170516284E+02  0.31886077995E+02  0.00000000000E+00 0.  1.
         11    1    3    3    0    0  0.44292885630E+01  0.33755415957E+01 -0.76532711809E+01  0.94649584399E+01  0.51100000000E-03 0. -1.
        -11    1    3    3    0    0  0.19119199523E+02 -0.18021830943E+01 -0.26191027832E+02  0.32477093366E+02  0.51100000000E-03 0.  1.
        -12    1    3    3    0    0 -0.13433445958E+02  0.94189071863E+01  0.56737827292E+01  0.17359870200E+02  0.00000000000E+00 0.  1.
</event>
<event>
 7    1  0.7383168E-013  0.5930196E+02  0.7816164E-02  0.1266605E+00
        -11   -1    0    0    0    0  0.00000000000E+00  0.00000000000E+00  0.45593999997E+02  0.45594000000E+02  0.51100000000E-03 0.  1.
         11   -1    0    0    0    0 -0.00000000000E+00 -0.00000000000E+00 -0.45593999997E+02  0.45594000000E+02  0.51100000000E-03 0. -1.
    9900012    2    1    2    0    0 -0.15726421528E+02 -0.88303337850E+01 -0.26294947110E+02  0.59301962737E+02  0.50000034122E+02 0.  0.
        -12    1    1    2    0    0  0.15726421528E+02  0.88303337850E+01  0.26294947110E+02  0.31886037263E+02  0.00000000000E+00 0.  1.
         11    1    3    3    0    0 -0.65157435824E+01  0.66020698080E+01  0.65845137653E+01  0.11375326895E+02  0.51100000000E-03 0. -1.
        -11    1    3    3    0    0 -0.11312735652E+02 -0.16424589253E+02 -0.58310138257E+01  0.20778494713E+02  0.51100000000E-03 0.  1.
         12    1    3    3    0    0  0.21020577068E+01  0.99218565968E+00 -0.27048447049E+02  0.27148141129E+02  0.00000000000E+00 0. -1.
</event>
<event>
 7    1  0.7383168E-013  0.5930193E+02  0.7816164E-02  0.1266605E+00
        -11   -1    0    0    0    0  0.00000000000E+00  0.00000000000E+00  0.45593999997E+02  0.45594000000E+02  0.51100000000E-03 0. -1.
         11   -1    0    0    0    0 -0.00000000000E+00 -0.00000000000E+00 -0.45593999997E+02  0.45594000000E+02  0.51100000000E-03 0.  1.
    9900012    2    1    2    0    0  0.28600948701E+00 -0.26359033350E+02  0.17939931109E+02  0.59301928295E+02  0.49999971308E+02 0.  0.
        -12    1    1    2    0    0 -0.28600948701E+00  0.26359033350E+02 -0.17939931109E+02  0.31886071705E+02  0.00000000000E+00 0.  1.
         11    1    3    3    0    0 -0.71468930313E+01 -0.27239911459E+02  0.38332440001E+01  0.28421551965E+02  0.51100000000E-03 0.  1.
        -11    1    3    3    0    0 -0.50053159395E+01 -0.69565906630E+01  0.13716410985E+02  0.16173659817E+02  0.51100000000E-03 0. -1.
        -12    1    3    3    0    0  0.12438218458E+02  0.78374687721E+01  0.39027612426E+00  0.14706716514E+02  0.00000000000E+00 0.  1.
</event>
<event>
 7    1  0.7383168E-013  0.5930193E+02  0.7816164E-02  0.1266605E+00
        -11   -1    0    0    0    0  0.00000000000E+00  0.00000000000E+00  0.45593999997E+02  0.45594000000E+02  0.51100000000E-03 0. -1.
         11   -1    0    0    0    0 -0.00000000000E+00 -0.00000000000E+00 -0.45593999997E+02  0.45594000000E+02  0.51100000000E-03 0.  1.
    9900012    2    1    2    0    0 -0.95337658235E+00  0.22705467000E+02  0.22366812042E+02  0.59301930322E+02  0.49999975004E+02 0.  0.
        -12    1    1    2    0    0  0.95337658235E+00 -0.22705467000E+02 -0.22366812042E+02  0.31886069678E+02  0.00000000000E+00 0.  1.
         11    1    3    3    0    0  0.35323778146E+01 -0.40910813182E+01  0.38210369744E+01  0.66192872123E+01  0.51100000000E-03 0. -1.
        -11    1    3    3    0    0 -0.20865526833E+02  0.40153874995E+01  0.83049021044E+01  0.22813700839E+02  0.51100000000E-03 0.  1.
         12    1    3    3    0    0  0.16379772436E+02  0.22781160819E+02  0.10240872963E+02  0.29868942270E+02  0.00000000000E+00 0. -1.
</event>
<event>
 7    1  0.7383168E-013  0.5930194E+02  0.7816164E-02  0.1266605E+00
        -11   -1    0    0    0    0  0.00000000000E+00  0.00000000000E+00  0.45593999997E+02  0.45594000000E+02  0.51100000000E-03 0. -1.
         11   -1    0    0    0    0 -0.00000000000E+00 -0.00000000000E+00 -0.45593999997E+02  0.45594000000E+02  0.51100000000E-03 0.  1.
    9900012    2    1    2    0    0  0.15482199943E+02 -0.13376973290E+02  0.24455648708E+02  0.59301942182E+02  0.49999996633E+02 0.  0.
        -12    1    1    2    0    0 -0.15482199943E+02  0.13376973290E+02 -0.24455648708E+02  0.31886057818E+02  0.00000000000E+00 0.  1.
         11    1    3    3    0    0  0.82031168909E+01 -0.37215883425E+01  0.23507241323E+02  0.25174029106E+02  0.51100000000E-03 0. -1.
        -11    1    3    3    0    0 -0.60231621394E+01  0.28375483996E+01  0.11323483149E+02  0.13135883448E+02  0.51100000000E-03 0.  1.
         12    1    3    3    0    0  0.13302245191E+02 -0.12492933348E+02 -0.10375075765E+02  0.20992029628E+02  0.00000000000E+00 0. -1.
</event>
<event>
 7    1  0.7383168E-013  0.5930197E+02  0.7816164E-02  0.1266605E+00
        -11   -1    0    0    0    0  0.00000000000E+00  0.00000000000E+00  0.45593999997E+02  0.45594000000E+02  0.51100000000E-03 0. -1.
         11   -1    0    0    0    0 -0.00000000000E+00 -0.00000000000E+00 -0.45593999997E+02  0.45594000000E+02  0.51100000000E-03 0.  1.
    9900012    2    1    2    0    0  0.24566748629E+02  0.29715811419E+01  0.20108786227E+02  0.59301973026E+02  0.50000052885E+02 0.  0.
        -12    1    1    2    0    0 -0.24566748629E+02 -0.29715811419E+01 -0.20108786227E+02  0.31886026974E+02  0.00000000000E+00 0.  1.
         11    1    3    3    0    0  0.17150288400E+02  0.18063944955E-02  0.11267993326E+02  0.20520722924E+02  0.51100000000E-03 0. -1.
        -11    1    3    3    0    0  0.17192601308E+02  0.44664470896E+01  0.18008956428E+02  0.25295398815E+02  0.51100000000E-03 0.  1.
        -12    1    3    3    0    0 -0.97761410777E+01 -0.14966723422E+01 -0.91681635274E+01  0.13485851287E+02  0.00000000000E+00 0.  1.
</event>
<event>
 7    1  0.7383168E-013  0.5930198E+02  0.7816164E-02  0.1266605E+00
        -11   -1    0    0    0    0  0.00000000000E+00  0.00000000000E+00  0.45593999997E+02  0.45594000000E+02  0.51100000000E-03 0.  1.
         11   -1    0    0    0    0 -0.00000000000E+00 -0.00000000000E+00 -0.45593999997E+02  0.45594000000E+02  0.51100000000E-03 0. -1.
    9900012    2    1    2    0    0 -0.25632399027E+01  0.90599493244E+01 -0.30464168889E+02  0.59301976939E+02  0.50000060022E+02 0.  0.
        -12    1    1    2    0    0  0.25632399027E+01 -0.90599493244E+01  0.30464168889E+02  0.31886023061E+02  0.00000000000E+00 0.  1.
         11    1    3    3    0    0  0.77278811492E+01 -0.17989026700E+01  0.56572546392E+01  0.97447795350E+01  0.51100000000E-03 0. -1.
        -11    1    3    3    0    0  0.57410913462E+01  0.11734322509E+02 -0.29360801123E+02  0.32135822651E+02  0.51100000000E-03 0.  1.
         12    1    3    3    0    0 -0.16032212398E+02 -0.87547051454E+00 -0.67606224051E+01  0.17421374754E+02  0.00000000000E+00 0. -1.
</event>
<event>
 7    1  0.7383168E-013  0.5930201E+02  0.7816164E-02  0.1266605E+00
        -11   -1    0    0    0    0  0.00000000000E+00  0.00000000000E+00  0.45593999997E+02  0.45594000000E+02  0.51100000000E-03 0. -1.
         11   -1    0    0    0    0 -0.00000000000E+00 -0.00000000000E+00 -0.45593999997E+02  0.45594000000E+02  0.51100000000E-03 0.  1.
    9900012    2    1    2    0    0 -0.30022782133E+02  0.85732692328E+01  0.64689939619E+01  0.59302011303E+02  0.50000122693E+02 0.  0.
        -12    1    1    2    0    0  0.30022782133E+02 -0.85732692328E+01 -0.64689939619E+01  0.31885988697E+02  0.00000000000E+00 0.  1.
         11    1    3    3    0    0 -0.37764643753E+01  0.40902915315E+01  0.21759764900E+01  0.59772102136E+01  0.51100000000E-03 0. -1.
        -11    1    3    3    0    0 -0.29164307574E+02 -0.58251736909E+01 -0.13416839750E+02  0.32626692660E+02  0.51100000000E-03 0.  1.
         12    1    3    3    0    0  0.29179898168E+01  0.10308151392E+02  0.17709857222E+02  0.20698108429E+02  0.00000000000E+00 0. -1.
</event>
<event>
 7    1  0.7383168E-013  0.5930178E+02  0.7816164E-02  0.1266605E+00
        -11   -1    0    0    0    0  0.00000000000E+00  0.00000000000E+00  0.45593999997E+02  0.45594000000E+02  0.51100000000E-03 0.  1.
         11   -1    0    0    0    0 -0.00000000000E+00 -0.00000000000E+00 -0.45593999997E+02  0.45594000000E+02  0.51100000000E-03 0. -1.
    9900012    2    1    2    0    0  0.25898920637E+02  0.18054759939E+02  0.44724592894E+01  0.59301775094E+02  0.49999691905E+02 0.  0.
        -12    1    1    2    0    0 -0.25898920637E+02 -0.18054759939E+02 -0.44724592894E+01  0.31886224906E+02  0.00000000000E+00 0.  1.
         11    1    3    3    0    0  0.26405115143E+01 -0.74212440719E+01  0.97514393908E+01  0.12535459110E+02  0.51100000000E-03 0. -1.
        -11    1    3    3    0    0  0.11180826201E+02  0.14173962275E+02  0.12899966393E+02  0.22188312562E+02  0.51100000000E-03 0.  1.
        -12    1    3    3    0    0  0.12077582921E+02  0.11302041736E+02 -0.18178946495E+02  0.24578003423E+02  0.00000000000E+00 0.  1.
</event>
<event>
 7    1  0.7383168E-013  0.5930193E+02  0.7816164E-02  0.1266605E+00
        -11   -1    0    0    0    0  0.00000000000E+00  0.00000000000E+00  0.45593999997E+02  0.45594000000E+02  0.51100000000E-03 0. -1.
         11   -1    0    0    0    0 -0.00000000000E+00 -0.00000000000E+00 -0.45593999997E+02  0.45594000000E+02  0.51100000000E-03 0.  1.
    9900012    2    1    2    0    0  0.23503085338E+02 -0.18616066529E+02  0.10852108708E+02  0.59301933814E+02  0.49999981373E+02 0.  0.
        -12    1    1    2    0    0 -0.23503085338E+02  0.18616066529E+02 -0.10852108708E+02  0.31886066186E+02  0.00000000000E+00 0.  1.
         11    1    3    3    0    0  0.13554894062E+02 -0.21442790166E+02 -0.49639954413E+01  0.25848977817E+02  0.51100000000E-03 0. -1.
        -11    1    3    3    0    0 -0.67794146164E+01 -0.50633964083E+01  0.11811009610E+02  0.14529225512E+02  0.51100000000E-03 0.  1.
         12    1    3    3    0    0  0.16727605892E+02  0.78901200461E+01  0.40050945394E+01  0.18923730485E+02  0.00000000000E+00 0. -1.
</event>
<event>
 7    1  0.7827413E-013  0.5930191E+02  0.7816164E-02  0.1266605E+00
        -11   -1    0    0    0    0  0.00000000000E+00  0.00000000000E+00  0.45593999997E+02  0.45594000000E+02  0.51100000000E-03 0. -1.
         11   -1    0    0    0    0 -0.00000000000E+00 -0.00000000000E+00 -0.45593999997E+02  0.45594000000E+02  0.51100000000E-03 0.  1.
    9900012    2    1    2    0    0  0.10415494138E+02  0.10417716171E+02  0.28279164045E+02  0.59301914517E+02  0.49999946179E+02 0.  0.
        -12    1    1    2    0    0 -0.10415494138E+02 -0.10417716171E+02 -0.28279164045E+02  0.31886085483E+02  0.00000000000E+00 0.  1.
         11    1    3    3    0    0  0.23525503469E+02  0.56820227032E+01  0.20904566207E+02  0.31980237398E+02  0.51100000000E-03 0. -1.
        -11    1    3    3    0    0  0.10633359180E+01  0.55401392091E+01 -0.57017653270E+01  0.80208449577E+01  0.51100000000E-03 0.  1.
        -12    1    3    3    0    0 -0.14173345249E+02 -0.80444574168E+00  0.13076363165E+02  0.19300832161E+02  0.00000000000E+00 0.  1.
</event>
<event>
 7    1  0.7383168E-013  0.5930195E+02  0.7816164E-02  0.1266605E+00
        -11   -1    0    0    0    0  0.00000000000E+00  0.00000000000E+00  0.45593999997E+02  0.45594000000E+02  0.51100000000E-03 0.  1.
         11   -1    0    0    0    0 -0.00000000000E+00 -0.00000000000E+00 -0.45593999997E+02  0.45594000000E+02  0.51100000000E-03 0. -1.
    9900012    2    1    2    0    0  0.20021978740E+02  0.24270749499E+02  0.51740905973E+01  0.59301950897E+02  0.50000012528E+02 0.  0.
        -12    1    1    2    0    0 -0.20021978740E+02 -0.24270749499E+02 -0.51740905973E+01  0.31886049103E+02  0.00000000000E+00 0.  1.
         11    1    3    3    0    0  0.14386322597E+02  0.29315218831E+02  0.21206860992E+02  0.38936862821E+02  0.51100000000E-03 0. -1.
        -11    1    3    3    0    0 -0.63735452679E+00 -0.18753088954E+00  0.12124336905E+01  0.13825282429E+01  0.51100000000E-03 0.  1.
         12    1    3    3    0    0  0.62730106692E+01 -0.48569384423E+01 -0.17245204085E+02  0.18982559833E+02  0.00000000000E+00 0. -1.
</event>
<event>
 7    1  0.7383168E-013  0.5930194E+02  0.7816164E-02  0.1266605E+00
        -11   -1    0    0    0    0  0.00000000000E+00  0.00000000000E+00  0.45593999997E+02  0.45594000000E+02  0.51100000000E-03 0.  1.
         11   -1    0    0    0    0 -0.00000000000E+00 -0.00000000000E+00 -0.45593999997E+02  0.45594000000E+02  0.51100000000E-03 0. -1.
    9900012    2    1    2    0    0  0.98681453055E+01 -0.40446960384E+01 -0.30049641111E+02  0.59301940527E+02  0.49999993616E+02 0.  0.
        -12    1    1    2    0    0 -0.98681453055E+01  0.40446960384E+01  0.30049641111E+02  0.31886059473E+02  0.00000000000E+00 0.  1.
         11    1    3    3    0    0 -0.37458543018E+01 -0.87604977696E+01  0.45345437075E+01  0.10551769165E+02  0.51100000000E-03 0. -1.
        -11    1    3    3    0    0  0.59615352079E+01 -0.12471274475E+02 -0.73671383430E+01  0.15663566538E+02  0.51100000000E-03 0.  1.
         12    1    3    3    0    0  0.76524643993E+01  0.17187076206E+02 -0.27217046475E+02  0.33086604824E+02  0.00000000000E+00 0. -1.
</event>
<event>
 7    1  0.7383168E-013  0.5930193E+02  0.7816164E-02  0.1266605E+00
        -11   -1    0    0    0    0  0.00000000000E+00  0.00000000000E+00  0.45593999997E+02  0.45594000000E+02  0.51100000000E-03 0.  1.
         11   -1    0    0    0    0 -0.00000000000E+00 -0.00000000000E+00 -0.45593999997E+02  0.45594000000E+02  0.51100000000E-03 0. -1.
    9900012    2    1    2    0    0  0.12596194183E+02 -0.11965831295E+02 -0.26737164737E+02  0.59301934005E+02  0.49999981721E+02 0.  0.
        -12    1    1    2    0    0 -0.12596194183E+02  0.11965831295E+02  0.26737164737E+02  0.31886065995E+02  0.00000000000E+00 0.  1.
         11    1    3    3    0    0  0.20921115579E+02  0.10528515210E+00 -0.16802920475E+01  0.20988748025E+02  0.51100000000E-03 0. -1.
        -11    1    3    3    0    0  0.92742230318E+00 -0.10615762303E+02  0.92345838906E+00  0.10696134678E+02  0.51100000000E-03 0.  1.
         12    1    3    3    0    0 -0.92523437000E+01 -0.14553541443E+01 -0.25980331078E+02  0.27617051301E+02  0.00000000000E+00 0. -1.
</event>
<event>
 7    1  0.7383168E-013  0.5930195E+02  0.7816164E-02  0.1266605E+00
        -11   -1    0    0    0    0  0.00000000000E+00  0.00000000000E+00  0.45593999997E+02  0.45594000000E+02  0.51100000000E-03 0.  1.
         11   -1    0    0    0    0 -0.00000000000E+00 -0.00000000000E+00 -0.45593999997E+02  0.45594000000E+02  0.51100000000E-03 0. -1.
    9900012    2    1    2    0    0 -0.10151029047E+02  0.18680903744E+02 -0.23763426701E+02  0.59301952833E+02  0.50000016058E+02 0.  0.
        -12    1    1    2    0    0  0.10151029047E+02 -0.18680903744E+02  0.23763426701E+02  0.31886047167E+02  0.00000000000E+00 0.  1.
         11    1    3    3    0    0 -0.28567649907E+01 -0.52654934298E+00 -0.20231518658E+02  0.20438999680E+02  0.51100000000E-03 0. -1.
        -11    1    3    3    0    0  0.48219513420E+01  0.21269623378E+02 -0.11056657097E+02  0.24451947976E+02  0.51100000000E-03 0.  1.
        -12    1    3    3    0    0 -0.12116215398E+02 -0.20621702913E+01  0.75247490542E+01  0.14411005177E+02  0.00000000000E+00 0.  1.
</event>
<event>
 7    1  0.7383168E-013  0.5930230E+02  0.7816164E-02  0.1266604E+00
        -11   -1    0    0    0    0  0.00000000000E+00  0.00000000000E+00  0.45593999997E+02  0.45594000000E+02  0.51100000000E-03 0.  1.
         11   -1    0    0    0    0 -0.00000000000E+00 -0.00000000000E+00 -0.45593999997E+02  0.45594000000E+02  0.51100000000E-03 0. -1.
    9900012    2    1    2    0    0  0.10345253141E+01  0.97214540815E+01 -0.30349978563E+02  0.59302296136E+02  0.50000642158E+02 0.  0.
        -12    1    1    2    0    0 -0.10345253141E+01 -0.97214540815E+01  0.30349978563E+02  0.31885703864E+02  0.00000000000E+00 0.  1.
         11    1    3    3    0    0 -0.56075606717E+01  0.70450163392E+01 -0.22952134502E+02  0.24655171270E+02  0.51100000000E-03 0. -1.
        -11    1    3    3    0    0 -0.83252654243E+01  0.10279084023E+02 -0.11317007303E+02  0.17408166684E+02  0.51100000000E-03 0.  1.
         12    1    3    3    0    0  0.14967351410E+02 -0.76026462803E+01  0.39191632420E+01  0.17238958182E+02  0.00000000000E+00 0. -1.
</event>
<event>
 7    1  0.7383168E-013  0.5930194E+02  0.7816164E-02  0.1266605E+00
        -11   -1    0    0    0    0  0.00000000000E+00  0.00000000000E+00  0.45593999997E+02  0.45594000000E+02  0.51100000000E-03 0. -1.
         11   -1    0    0    0    0 -0.00000000000E+00 -0.00000000000E+00 -0.45593999997E+02  0.45594000000E+02  0.51100000000E-03 0.  1.
    9900012    2    1    2    0    0  0.26920239778E+02 -0.32052777733E+01  0.16785350967E+02  0.59301935294E+02  0.49999984073E+02 0.  0.
        -12    1    1    2    0    0 -0.26920239778E+02  0.32052777733E+01 -0.16785350967E+02  0.31886064706E+02  0.00000000000E+00 0.  1.
         11    1    3    3    0    0 -0.88245411157E+01 -0.66639246431E+01  0.15181501498E+02  0.18781863740E+02  0.51100000000E-03 0. -1.
        -11    1    3    3    0    0  0.10790361019E+01  0.40037819717E+01 -0.35630185173E+01  0.54671464405E+01  0.51100000000E-03 0.  1.
        -12    1    3    3    0    0  0.34665744792E+02 -0.54513510190E+00  0.51668679865E+01  0.35052925114E+02  0.00000000000E+00 0.  1.
</event>
<event>
 7    1  0.7383168E-013  0.5930194E+02  0.7816164E-02  0.1266605E+00
        -11   -1    0    0    0    0  0.00000000000E+00  0.00000000000E+00  0.45593999997E+02  0.45594000000E+02  0.51100000000E-03 0.  1.
         11   -1    0    0    0    0 -0.00000000000E+00 -0.00000000000E+00 -0.45593999997E+02  0.45594000000E+02  0.51100000000E-03 0. -1.
    9900012    2    1    2    0    0 -0.19329342957E+02 -0.17790851953E+02 -0.18071603083E+02  0.59301941129E+02  0.49999994713E+02 0.  0.
        -12    1    1    2    0    0  0.19329342957E+02  0.17790851953E+02  0.18071603083E+02  0.31886058871E+02  0.00000000000E+00 0.  1.
         11    1    3    3    0    0 -0.38330616304E+01 -0.61158046676E+01 -0.12886583021E+02  0.14770221745E+02  0.51100000000E-03 0. -1.
        -11    1    3    3    0    0  0.64748108463E+01 -0.18810716151E+02  0.27996808676E+01  0.20089908682E+02  0.51100000000E-03 0.  1.
        -12    1    3    3    0    0 -0.21971092173E+02  0.71356688660E+01 -0.79847009299E+01  0.24441810702E+02  0.00000000000E+00 0.  1.
</event>
<event>
 7    1  0.7383168E-013  0.5930192E+02  0.7816164E-02  0.1266605E+00
        -11   -1    0    0    0    0  0.00000000000E+00  0.00000000000E+00  0.45593999997E+02  0.45594000000E+02  0.51100000000E-03 0. -1.
         11   -1    0    0    0    0 -0.00000000000E+00 -0.00000000000E+00 -0.45593999997E+02  0.45594000000E+02  0.51100000000E-03 0.  1.
    9900012    2    1    2    0    0  0.28860361404E+01  0.28010831419E+02  0.14959483775E+02  0.59301920966E+02  0.49999957941E+02 0.  0.
        -12    1    1    2    0    0 -0.28860361404E+01 -0.28010831419E+02 -0.14959483775E+02  0.31886079034E+02  0.00000000000E+00 0.  1.
         11    1    3    3    0    0  0.54131488166E+01 -0.14917196391E+01  0.49641402487E+00  0.56368284290E+01  0.51100000000E-03 0. -1.
        -11    1    3    3    0    0 -0.11319621068E+02 -0.70430095145E+01  0.79334637461E+01  0.15513789074E+02  0.51100000000E-03 0.  1.
         12    1    3    3    0    0  0.87925083921E+01  0.36545560572E+02  0.65296060036E+01  0.38151303463E+02  0.00000000000E+00 0. -1.
</event>
<event>
 7    1  0.7383168E-013  0.5930186E+02  0.7816164E-02  0.1266605E+00
        -11   -1    0    0    0    0  0.00000000000E+00  0.00000000000E+00  0.45593999997E+02  0.45594000000E+02  0.51100000000E-03 0. -1.
         11   -1    0    0    0    0 -0.00000000000E+00 -0.00000000000E+00 -0.45593999997E+02  0.45594000000E+02  0.51100000000E-03 0.  1.
    9900012    2    1    2    0    0 -0.28994958567E+02  0.13225313905E+02  0.10533488266E+01  0.59301857337E+02  0.49999841896E+02 0.  0.
        -12    1    1    2    0    0  0.28994958567E+02 -0.13225313905E+02 -0.10533488266E+01  0.31886142663E+02  0.00000000000E+00 0.  1.
         11    1    3    3    0    0  0.32192097357E+01 -0.10989455494E+02 -0.77697528015E+01  0.13838370650E+02  0.51100000000E-03 0. -1.
        -11    1    3    3    0    0 -0.24715956777E+02  0.74721226608E+01  0.20273641088E+01  0.25900218955E+02  0.51100000000E-03 0.  1.
        -12    1    3    3    0    0 -0.74982115262E+01  0.16742646738E+02  0.67957375194E+01  0.19563267731E+02  0.00000000000E+00 0.  1.
</event>
<event>
 7    1  0.7383168E-013  0.5930200E+02  0.7816164E-02  0.1266605E+00
        -11   -1    0    0    0    0  0.00000000000E+00  0.00000000000E+00  0.45593999997E+02  0.45594000000E+02  0.51100000000E-03 0.  1.
         11   -1    0    0    0    0 -0.00000000000E+00 -0.00000000000E+00 -0.45593999997E+02  0.45594000000E+02  0.51100000000E-03 0. -1.
    9900012    2    1    2    0    0  0.30427268216E+02  0.61978900041E+01 -0.72446080062E+01  0.59302002497E+02  0.50000106634E+02 0.  0.
        -12    1    1    2    0    0 -0.30427268216E+02 -0.61978900041E+01  0.72446080062E+01  0.31885997503E+02  0.00000000000E+00 0.  1.
         11    1    3    3    0    0  0.66658956373E+01  0.92385522989E+01 -0.12842646956E+02  0.17167370047E+02  0.51100000000E-03 0. -1.
        -11    1    3    3    0    0  0.11256725227E+02 -0.18474373776E+02  0.55509637653E+00  0.21640805935E+02  0.51100000000E-03 0.  1.
        -12    1    3    3    0    0  0.12504647351E+02  0.15433711481E+02  0.50429425737E+01  0.20493826516E+02  0.00000000000E+00 0.  1.
</event>
<event>
 7    1  0.7383168E-013  0.5930198E+02  0.7816164E-02  0.1266605E+00
        -11   -1    0    0    0    0  0.00000000000E+00  0.00000000000E+00  0.45593999997E+02  0.45594000000E+02  0.51100000000E-03 0. -1.
         11   -1    0    0    0    0 -0.00000000000E+00 -0.00000000000E+00 -0.45593999997E+02  0.45594000000E+02  0.51100000000E-03 0.  1.
    9900012    2    1    2    0    0  0.21405639598E+02 -0.11443552082E+02  0.20677567659E+02  0.59301982764E+02  0.50000070646E+02 0.  0.
        -12    1    1    2    0    0 -0.21405639598E+02  0.11443552082E+02 -0.20677567659E+02  0.31886017236E+02  0.00000000000E+00 0.  1.
         11    1    3    3    0    0  0.63666439924E+00 -0.16249664639E+02  0.13088075009E+02  0.20874737128E+02  0.51100000000E-03 0. -1.
        -11    1    3    3    0    0  0.21262793597E+02 -0.79799988283E+01 -0.14554770519E+01  0.22757530326E+02  0.51100000000E-03 0.  1.
        -12    1    3    3    0    0 -0.49381839857E+00  0.12786111386E+02  0.90449697021E+01  0.15669715310E+02  0.00000000000E+00 0.  1.
</event>
<event>
 7    1  0.7383168E-013  0.5930195E+02  0.7816164E-02  0.1266605E+00
        -11   -1    0    0    0    0  0.00000000000E+00  0.00000000000E+00  0.45593999997E+02  0.45594000000E+02  0.51100000000E-03 0.  1.
         11   -1    0    0    0    0 -0.00000000000E+00 -0.00000000000E+00 -0.45593999997E+02  0.45594000000E+02  0.51100000000E-03 0. -1.
    9900012    2    1    2    0    0  0.28575129437E+00  0.28680696328E+02 -0.13930412901E+02  0.59301946634E+02  0.50000004753E+02 0.  0.
        -12    1    1    2    0    0 -0.28575129437E+00 -0.28680696328E+02  0.13930412901E+02  0.31886053366E+02  0.00000000000E+00 0.  1.
         11    1    3    3    0    0 -0.10526020691E+01 -0.11300954144E+02 -0.45916101627E+01  0.12243464372E+02  0.51100000000E-03 0. -1.
        -11    1    3    3    0    0  0.54375173917E+01  0.15615987802E+01  0.31209556483E+01  0.64610796741E+01  0.51100000000E-03 0.  1.
         12    1    3    3    0    0 -0.40991640283E+01  0.38420051693E+02 -0.12459758387E+02  0.40597402587E+02  0.00000000000E+00 0. -1.
</event>
<event>
 7    1  0.7383168E-013  0.5930189E+02  0.7816164E-02  0.1266605E+00
        -11   -1    0    0    0    0  0.00000000000E+00  0.00000000000E+00  0.45593999997E+02  0.45594000000E+02  0.51100000000E-03 0.  1.
         11   -1    0    0    0    0 -0.00000000000E+00 -0.00000000000E+00 -0.45593999997E+02  0.45594000000E+02  0.51100000000E-03 0. -1.
    9900012    2    1    2    0    0 -0.20419033417E+02 -0.16953200026E+02  0.17674168048E+02  0.59301888086E+02  0.49999897976E+02 0.  0.
        -12    1    1    2    0    0  0.20419033417E+02  0.16953200026E+02 -0.17674168048E+02  0.31886111914E+02  0.00000000000E+00 0.  1.
         11    1    3    3    0    0  0.24522552237E-01  0.11520440100E+02  0.23620717605E+01  0.11760124350E+02  0.51100000000E-03 0.  1.
        -11    1    3    3    0    0  0.47527893941E+01 -0.30165196300E+01 -0.39463277888E+01  0.68747291569E+01  0.51100000000E-03 0. -1.
        -12    1    3    3    0    0 -0.25196345363E+02 -0.25457120496E+02  0.19258424076E+02  0.40667034580E+02  0.00000000000E+00 0.  1.
</event>
<event>
 7    1  0.7383168E-013  0.5930193E+02  0.7816164E-02  0.1266605E+00
        -11   -1    0    0    0    0  0.00000000000E+00  0.00000000000E+00  0.45593999997E+02  0.45594000000E+02  0.51100000000E-03 0. -1.
         11   -1    0    0    0    0 -0.00000000000E+00 -0.00000000000E+00 -0.45593999997E+02  0.45594000000E+02  0.51100000000E-03 0.  1.
    9900012    2    1    2    0    0 -0.25536292138E+02  0.35131260507E+01  0.18769040271E+02  0.59301934964E+02  0.49999983469E+02 0.  0.
        -12    1    1    2    0    0  0.25536292138E+02 -0.35131260507E+01 -0.18769040271E+02  0.31886065036E+02  0.00000000000E+00 0.  1.
         11    1    3    3    0    0 -0.21975942511E+01  0.95060512388E+01  0.10264936823E+02  0.14162039362E+02  0.51100000000E-03 0. -1.
        -11    1    3    3    0    0  0.12099994673E+01  0.11865530592E+02  0.87319099871E+01  0.14781784981E+02  0.51100000000E-03 0.  1.
        -12    1    3    3    0    0 -0.24548697354E+02 -0.17858455780E+02 -0.22780653916E+00  0.30358110621E+02  0.00000000000E+00 0.  1.
</event>
<event>
 7    1  0.7383168E-013  0.5930215E+02  0.7816164E-02  0.1266604E+00
        -11   -1    0    0    0    0  0.00000000000E+00  0.00000000000E+00  0.45593999997E+02  0.45594000000E+02  0.51100000000E-03 0.  1.
         11   -1    0    0    0    0 -0.00000000000E+00 -0.00000000000E+00 -0.45593999997E+02  0.45594000000E+02  0.51100000000E-03 0. -1.
    9900012    2    1    2    0    0  0.50870080440E+01 -0.89057248342E+01 -0.30191356399E+02  0.59302147544E+02  0.50000371163E+02 0.  0.
        -12    1    1    2    0    0 -0.50870080440E+01  0.89057248342E+01  0.30191356399E+02  0.31885852456E+02  0.00000000000E+00 0.  1.
         11    1    3    3    0    0  0.11709765351E+02 -0.14569988804E+02 -0.69709236044E+01  0.19949861014E+02  0.51100000000E-03 0.  1.
        -11    1    3    3    0    0  0.15756770021E+01 -0.46172793784E+01 -0.25537752447E+02  0.25999592827E+02  0.51100000000E-03 0. -1.
         12    1    3    3    0    0 -0.81984343090E+01  0.10281543349E+02  0.23173196523E+01  0.13352693703E+02  0.00000000000E+00 0. -1.
</event>
<event>
 7    1  0.7383168E-013  0.5930192E+02  0.7816164E-02  0.1266605E+00
        -11   -1    0    0    0    0  0.00000000000E+00  0.00000000000E+00  0.45593999997E+02  0.45594000000E+02  0.51100000000E-03 0. -1.
         11   -1    0    0    0    0 -0.00000000000E+00 -0.00000000000E+00 -0.45593999997E+02  0.45594000000E+02  0.51100000000E-03 0.  1.
    9900012    2    1    2    0    0  0.92178222055E+01  0.30370571522E+02  0.30630024229E+01  0.59301923970E+02  0.49999963419E+02 0.  0.
        -12    1    1    2    0    0 -0.92178222055E+01 -0.30370571522E+02 -0.30630024229E+01  0.31886076030E+02  0.00000000000E+00 0.  1.
         11    1    3    3    0    0  0.54721539337E+01  0.99321707354E+01 -0.73285875125E+01  0.13501876884E+02  0.51100000000E-03 0. -1.
        -11    1    3    3    0    0  0.44435017410E+01  0.84685906048E+01 -0.14960218540E+02  0.17755840549E+02  0.51100000000E-03 0.  1.
         12    1    3    3    0    0 -0.69783346928E+00  0.11969810181E+02  0.25351808476E+02  0.28044206537E+02  0.00000000000E+00 0. -1.
</event>
<event>
 7    1  0.7383168E-013  0.5930194E+02  0.7816164E-02  0.1266605E+00
        -11   -1    0    0    0    0  0.00000000000E+00  0.00000000000E+00  0.45593999997E+02  0.45594000000E+02  0.51100000000E-03 0.  1.
         11   -1    0    0    0    0 -0.00000000000E+00 -0.00000000000E+00 -0.45593999997E+02  0.45594000000E+02  0.51100000000E-03 0. -1.
    9900012    2    1    2    0    0 -0.51606742667E+01 -0.31289720660E+02 -0.33229444058E+01  0.59301935059E+02  0.49999983644E+02 0.  0.
        -12    1    1    2    0    0  0.51606742667E+01  0.31289720660E+02  0.33229444058E+01  0.31886064941E+02  0.00000000000E+00 0.  1.
         11    1    3    3    0    0  0.64608184334E+01 -0.17446766508E+02 -0.10367152930E+02  0.21298114859E+02  0.51100000000E-03 0. -1.
        -11    1    3    3    0    0  0.44688565556E+00 -0.21032972958E+02  0.10535926561E+02  0.23528523264E+02  0.51100000000E-03 0.  1.
        -12    1    3    3    0    0 -0.12068378356E+02  0.71900188054E+01 -0.34917180363E+01  0.14475296937E+02  0.00000000000E+00 0.  1.
</event>
<event>
 7    1  0.7383168E-013  0.5930193E+02  0.7816164E-02  0.1266605E+00
        -11   -1    0    0    0    0  0.00000000000E+00  0.00000000000E+00  0.45593999997E+02  0.45594000000E+02  0.51100000000E-03 0.  1.
         11   -1    0    0    0    0 -0.00000000000E+00 -0.00000000000E+00 -0.45593999997E+02  0.45594000000E+02  0.51100000000E-03 0. -1.
    9900012    2    1    2    0    0 -0.24924153824E+02 -0.15690702007E+02  0.12219238642E+02  0.59301931469E+02  0.49999977097E+02 0.  0.
        -12    1    1    2    0    0  0.24924153824E+02  0.15690702007E+02 -0.12219238642E+02  0.31886068531E+02  0.00000000000E+00 0.  1.
         11    1    3    3    0    0 -0.29616159190E+02 -0.13584751534E+01  0.17595010197E+02  0.34475306003E+02  0.51100000000E-03 0. -1.
        -11    1    3    3    0    0 -0.16430997104E+01 -0.52038525881E+01  0.65509267074E+01  0.85261069313E+01  0.51100000000E-03 0.  1.
         12    1    3    3    0    0  0.63351050765E+01 -0.91283742657E+01 -0.11926698262E+02  0.16300518535E+02  0.00000000000E+00 0. -1.
</event>
<event>
 7    1  0.7383168E-013  0.5930193E+02  0.7816164E-02  0.1266605E+00
        -11   -1    0    0    0    0  0.00000000000E+00  0.00000000000E+00  0.45593999997E+02  0.45594000000E+02  0.51100000000E-03 0.  1.
         11   -1    0    0    0    0 -0.00000000000E+00 -0.00000000000E+00 -0.45593999997E+02  0.45594000000E+02  0.51100000000E-03 0. -1.
    9900012    2    1    2    0    0 -0.27075924444E+01 -0.24013679221E+02 -0.20802252217E+02  0.59301928685E+02  0.49999972019E+02 0.  0.
        -12    1    1    2    0    0  0.27075924444E+01  0.24013679221E+02  0.20802252217E+02  0.31886071315E+02  0.00000000000E+00 0.  1.
         11    1    3    3    0    0  0.16440035480E+01  0.10013872955E+02  0.33619706791E+01  0.10690334248E+02  0.51100000000E-03 0. -1.
        -11    1    3    3    0    0  0.10283942347E+02 -0.14417871370E+02 -0.10343804524E+02  0.20509236391E+02  0.51100000000E-03 0.  1.
         12    1    3    3    0    0 -0.14635538339E+02 -0.19609680806E+02 -0.13820418372E+02  0.28102358047E+02  0.00000000000E+00 0. -1.
</event>
<event>
 7    1  0.7383168E-013  0.5930196E+02  0.7816164E-02  0.1266605E+00
        -11   -1    0    0    0    0  0.00000000000E+00  0.00000000000E+00  0.45593999997E+02  0.45594000000E+02  0.51100000000E-03 0.  1.
         11   -1    0    0    0    0 -0.00000000000E+00 -0.00000000000E+00 -0.45593999997E+02  0.45594000000E+02  0.51100000000E-03 0. -1.
    9900012    2    1    2    0    0 -0.21070600361E+02  0.13035356358E+02 -0.20070589225E+02  0.59301964392E+02  0.50000037140E+02 0.  0.
        -12    1    1    2    0    0  0.21070600361E+02 -0.13035356358E+02  0.20070589225E+02  0.31886035608E+02  0.00000000000E+00 0.  1.
         11    1    3    3    0    0 -0.27145859771E+02  0.36290926920E+01 -0.26459130369E+01  0.27514884563E+02  0.51100000000E-03 0. -1.
        -11    1    3    3    0    0 -0.23611938362E+01  0.90291692433E-01  0.53086823004E+01  0.58108086314E+01  0.51100000000E-03 0.  1.
        -12    1    3    3    0    0  0.84364532463E+01  0.93159719740E+01 -0.22733358488E+02  0.25976271198E+02  0.00000000000E+00 0.  1.
</event>
<event>
 7    1  0.7383168E-013  0.5930202E+02  0.7816164E-02  0.1266604E+00
        -11   -1    0    0    0    0  0.00000000000E+00  0.00000000000E+00  0.45593999997E+02  0.45594000000E+02  0.51100000000E-03 0.  1.
         11   -1    0    0    0    0 -0.00000000000E+00 -0.00000000000E+00 -0.45593999997E+02  0.45594000000E+02  0.51100000000E-03 0. -1.
    9900012    2    1    2    0    0 -0.29632839798E+02 -0.45950225234E+01 -0.10839565920E+02  0.59302021643E+02  0.50000141551E+02 0.  0.
        -12    1    1    2    0    0  0.29632839798E+02  0.45950225234E+01  0.10839565920E+02  0.31885978357E+02  0.00000000000E+00 0.  1.
         11    1    3    3    0    0 -0.54911234045E+01  0.15817068483E+01  0.14334290044E+02  0.15431335138E+02  0.51100000000E-03 0. -1.
        -11    1    3    3    0    0  0.37237218735E+01 -0.54589462307E+00  0.22382161984E+01  0.43787803716E+01  0.51100000000E-03 0.  1.
        -12    1    3    3    0    0 -0.27865438267E+02 -0.56308347487E+01 -0.27412072163E+02  0.39491906133E+02  0.00000000000E+00 0.  1.
</event>
<event>
 7    1  0.7383168E-013  0.5930194E+02  0.7816164E-02  0.1266605E+00
        -11   -1    0    0    0    0  0.00000000000E+00  0.00000000000E+00  0.45593999997E+02  0.45594000000E+02  0.51100000000E-03 0. -1.
         11   -1    0    0    0    0 -0.00000000000E+00 -0.00000000000E+00 -0.45593999997E+02  0.45594000000E+02  0.51100000000E-03 0.  1.
    9900012    2    1    2    0    0  0.77042211573E+01  0.28881754830E+02  0.11099996307E+02  0.59301941860E+02  0.49999996047E+02 0.  0.
        -12    1    1    2    0    0 -0.77042211573E+01 -0.28881754830E+02 -0.11099996307E+02  0.31886058140E+02  0.00000000000E+00 0.  1.
         11    1    3    3    0    0  0.71363874718E+01 -0.43176640391E+01  0.87869760265E+01  0.12115329003E+02  0.51100000000E-03 0. -1.
        -11    1    3    3    0    0  0.10671240865E+02  0.27463046340E+02  0.12240195160E+02  0.31904806435E+02  0.51100000000E-03 0.  1.
         12    1    3    3    0    0 -0.10103407180E+02  0.57363725292E+01 -0.99271748790E+01  0.15281806422E+02  0.00000000000E+00 0. -1.
</event>
<event>
 7    1  0.7383168E-013  0.5930199E+02  0.7816164E-02  0.1266605E+00
        -11   -1    0    0    0    0  0.00000000000E+00  0.00000000000E+00  0.45593999997E+02  0.45594000000E+02  0.51100000000E-03 0.  1.
         11   -1    0    0    0    0 -0.00000000000E+00 -0.00000000000E+00 -0.45593999997E+02  0.45594000000E+02  0.51100000000E-03 0. -1.
    9900012    2    1    2    0    0  0.52627652697E+00  0.19953501736E+02 -0.24865605606E+02  0.59301991459E+02  0.50000086503E+02 0.  0.
        -12    1    1    2    0    0 -0.52627652697E+00 -0.19953501736E+02  0.24865605606E+02  0.31886008541E+02  0.00000000000E+00 0.  1.
         11    1    3    3    0    0  0.24493621402E+01 -0.11266980959E+02 -0.60688541942E+01  0.13029782282E+02  0.51100000000E-03 0. -1.
        -11    1    3    3    0    0  0.92035465189E+01  0.12502814289E+02  0.26031765018E+01  0.15741733127E+02  0.51100000000E-03 0.  1.
         12    1    3    3    0    0 -0.11126632132E+02  0.18717668405E+02 -0.21399927914E+02  0.30530476050E+02  0.00000000000E+00 0. -1.
</event>
<event>
 7    1  0.7383168E-013  0.5930197E+02  0.7816164E-02  0.1266605E+00
        -11   -1    0    0    0    0  0.00000000000E+00  0.00000000000E+00  0.45593999997E+02  0.45594000000E+02  0.51100000000E-03 0. -1.
         11   -1    0    0    0    0 -0.00000000000E+00 -0.00000000000E+00 -0.45593999997E+02  0.45594000000E+02  0.51100000000E-03 0.  1.
    9900012    2    1    2    0    0  0.18148651879E+02 -0.18994083337E+02  0.18071251214E+02  0.59301970343E+02  0.50000047992E+02 0.  0.
        -12    1    1    2    0    0 -0.18148651879E+02  0.18994083337E+02 -0.18071251214E+02  0.31886029657E+02  0.00000000000E+00 0.  1.
         11    1    3    3    0    0  0.11318775419E+02 -0.20859492454E+02  0.67935802167E+01  0.24685741529E+02  0.51100000000E-03 0. -1.
        -11    1    3    3    0    0  0.35061273855E+01  0.69410089403E+01 -0.98987040639E+01  0.12587886112E+02  0.51100000000E-03 0.  1.
         12    1    3    3    0    0  0.33237490751E+01 -0.50755998242E+01  0.21176375061E+02  0.22028342702E+02  0.00000000000E+00 0. -1.
</event>
<event>
 7    1  0.7383168E-013  0.5930194E+02  0.7816164E-02  0.1266605E+00
        -11   -1    0    0    0    0  0.00000000000E+00  0.00000000000E+00  0.45593999997E+02  0.45594000000E+02  0.51100000000E-03 0.  1.
         11   -1    0    0    0    0 -0.00000000000E+00 -0.00000000000E+00 -0.45593999997E+02  0.45594000000E+02  0.51100000000E-03 0. -1.
    9900012    2    1    2    0    0 -0.25278625661E+02 -0.14908131865E+02 -0.12468335580E+02  0.59301941869E+02  0.49999996064E+02 0.  0.
        -12    1    1    2    0    0  0.25278625661E+02  0.14908131865E+02  0.12468335580E+02  0.31886058131E+02  0.00000000000E+00 0.  1.
         11    1    3    3    0    0  0.39571596457E+00  0.10480853679E+02 -0.11542566000E+02  0.15596016001E+02  0.51100000000E-03 0. -1.
        -11    1    3    3    0    0 -0.59799876885E+01 -0.12219546272E+02 -0.11450315410E+02  0.17781655915E+02  0.51100000000E-03 0.  1.
        -12    1    3    3    0    0 -0.19694353937E+02 -0.13169439272E+02  0.10524545829E+02  0.25924269954E+02  0.00000000000E+00 0.  1.
</event>
<event>
 7    1  0.7383168E-013  0.5930198E+02  0.7816164E-02  0.1266605E+00
        -11   -1    0    0    0    0  0.00000000000E+00  0.00000000000E+00  0.45593999997E+02  0.45594000000E+02  0.51100000000E-03 0. -1.
         11   -1    0    0    0    0 -0.00000000000E+00 -0.00000000000E+00 -0.45593999997E+02  0.45594000000E+02  0.51100000000E-03 0.  1.
    9900012    2    1    2    0    0  0.15371847896E+02 -0.27928709751E+02 -0.64190004707E+00  0.59301975291E+02  0.50000057016E+02 0.  0.
        -12    1    1    2    0    0 -0.15371847896E+02  0.27928709751E+02  0.64190004707E+00  0.31886024709E+02  0.00000000000E+00 0.  1.
         11    1    3    3    0    0  0.88356218725E+01 -0.16905080928E+02  0.44806549449E+01  0.19594035931E+02  0.51100000000E-03 0. -1.
        -11    1    3    3    0    0  0.11649005365E+02 -0.23279064410E+02 -0.44760222320E+01  0.26413044903E+02  0.51100000000E-03 0.  1.
        -12    1    3    3    0    0 -0.51127793418E+01  0.12255435586E+02 -0.64653276000E+00  0.13294894457E+02  0.00000000000E+00 0.  1.
</event>
<event>
 7    1  0.7383168E-013  0.5930195E+02  0.7816164E-02  0.1266605E+00
        -11   -1    0    0    0    0  0.00000000000E+00  0.00000000000E+00  0.45593999997E+02  0.45594000000E+02  0.51100000000E-03 0.  1.
         11   -1    0    0    0    0 -0.00000000000E+00 -0.00000000000E+00 -0.45593999997E+02  0.45594000000E+02  0.51100000000E-03 0. -1.
    9900012    2    1    2    0    0  0.13287424763E+02 -0.58540741409E+01 -0.28388276377E+02  0.59301951695E+02  0.50000013983E+02 0.  0.
        -12    1    1    2    0    0 -0.13287424763E+02  0.58540741409E+01  0.28388276377E+02  0.31886048305E+02  0.00000000000E+00 0.  1.
         11    1    3    3    0    0 -0.55917792651E+01  0.94291319193E+01 -0.68082003211E+00  0.10983626008E+02  0.51100000000E-03 0. -1.
        -11    1    3    3    0    0 -0.66417491949E+01 -0.12058452372E+02 -0.11267999624E+02  0.17790079307E+02  0.51100000000E-03 0.  1.
         12    1    3    3    0    0  0.25520953223E+02 -0.32247536882E+01 -0.16439456721E+02  0.30528246380E+02  0.00000000000E+00 0. -1.
</event>
<event>
 7    1  0.7383168E-013  0.5930195E+02  0.7816164E-02  0.1266605E+00
        -11   -1    0    0    0    0  0.00000000000E+00  0.00000000000E+00  0.45593999997E+02  0.45594000000E+02  0.51100000000E-03 0. -1.
         11   -1    0    0    0    0 -0.00000000000E+00 -0.00000000000E+00 -0.45593999997E+02  0.45594000000E+02  0.51100000000E-03 0.  1.
    9900012    2    1    2    0    0  0.37631078519E+01 -0.26828819808E+02 -0.16815869870E+02  0.59301952385E+02  0.50000015242E+02 0.  0.
        -12    1    1    2    0    0 -0.37631078519E+01  0.26828819808E+02  0.16815869870E+02  0.31886047615E+02  0.00000000000E+00 0.  1.
         11    1    3    3    0    0 -0.37337616422E+01 -0.28582082102E+02 -0.52657333315E+01  0.29301951148E+02  0.51100000000E-03 0. -1.
        -11    1    3    3    0    0  0.56767579973E+01 -0.10621818463E+02 -0.12621911908E+02  0.17445952805E+02  0.51100000000E-03 0.  1.
        -12    1    3    3    0    0  0.18201114968E+01  0.12375080757E+02  0.10717753690E+01  0.12554048432E+02  0.00000000000E+00 0.  1.
</event>
<event>
 7    1  0.7383168E-013  0.5930193E+02  0.7816164E-02  0.1266605E+00
        -11   -1    0    0    0    0  0.00000000000E+00  0.00000000000E+00  0.45593999997E+02  0.45594000000E+02  0.51100000000E-03 0. -1.
         11   -1    0    0    0    0 -0.00000000000E+00 -0.00000000000E+00 -0.45593999997E+02  0.45594000000E+02  0.51100000000E-03 0.  1.
    9900012    2    1    2    0    0  0.15057820379E+02 -0.27163259258E+02  0.72208616714E+01  0.59301930136E+02  0.49999974665E+02 0.  0.
        -12    1    1    2    0    0 -0.15057820379E+02  0.27163259258E+02 -0.72208616714E+01  0.31886069864E+02  0.00000000000E+00 0.  1.
         11    1    3    3    0    0 -0.11261927066E+02 -0.10904933569E+02 -0.47185627844E+01  0.16371115185E+02  0.51100000000E-03 0. -1.
        -11    1    3    3    0    0  0.43461277862E+01 -0.13906625302E+02  0.14655299686E+02  0.20665450955E+02  0.51100000000E-03 0.  1.
        -12    1    3    3    0    0  0.21973619659E+02 -0.23517003871E+01 -0.27158752302E+01  0.22265363996E+02  0.00000000000E+00 0.  1.
</event>
<event>
 7    1  0.7383168E-013  0.5930193E+02  0.7816164E-02  0.1266605E+00
        -11   -1    0    0    0    0  0.00000000000E+00  0.00000000000E+00  0.45593999997E+02  0.45594000000E+02  0.51100000000E-03 0. -1.
         11   -1    0    0    0    0 -0.00000000000E+00 -0.00000000000E+00 -0.45593999997E+02  0.45594000000E+02  0.51100000000E-03 0.  1.
    9900012    2    1    2    0    0 -0.31847154108E+02 -0.15348142680E+01 -0.35314668959E+00  0.59301927928E+02  0.49999970637E+02 0.  0.
        -12    1    1    2    0    0  0.31847154108E+02  0.15348142680E+01  0.35314668959E+00  0.31886072072E+02  0.00000000000E+00 0.  1.
         11    1    3    3    0    0 -0.38854963040E+01  0.11953147496E+02  0.10527710920E+02  0.16395350379E+02  0.51100000000E-03 0. -1.
        -11    1    3    3    0    0  0.19074754158E+01  0.50315039817E+01  0.15966537524E+01  0.56128244446E+01  0.51100000000E-03 0.  1.
        -12    1    3    3    0    0 -0.29869133220E+02 -0.18519465745E+02 -0.12477511362E+02  0.37293753104E+02  0.00000000000E+00 0.  1.
</event>
<event>
 7    1  0.7383168E-013  0.5930197E+02  0.7816164E-02  0.1266605E+00
        -11   -1    0    0    0    0  0.00000000000E+00  0.00000000000E+00  0.45593999997E+02  0.45594000000E+02  0.51100000000E-03 0.  1.
         11   -1    0    0    0    0 -0.00000000000E+00 -0.00000000000E+00 -0.45593999997E+02  0.45594000000E+02  0.51100000000E-03 0. -1.
    9900012    2    1    2    0    0 -0.30265003211E+02  0.80784828865E+01  0.59570774121E+01  0.59301967378E+02  0.50000042585E+02 0.  0.
        -12    1    1    2    0    0  0.30265003211E+02 -0.80784828865E+01 -0.59570774121E+01  0.31886032622E+02  0.00000000000E+00 0.  1.
         11    1    3    3    0    0 -0.17138489320E+02  0.22425347490E+02 -0.30420247856E+01  0.28387989384E+02  0.51100000000E-03 0. -1.
        -11    1    3    3    0    0 -0.52300303176E+01  0.36117232062E+01  0.93347125276E+01  0.11293122680E+02  0.51100000000E-03 0.  1.
         12    1    3    3    0    0 -0.78964835725E+01 -0.17958587810E+02 -0.33561032988E+00  0.19620855313E+02  0.00000000000E+00 0. -1.
</event>
<event>
 7    1  0.7383168E-013  0.5930200E+02  0.7816164E-02  0.1266605E+00
        -11   -1    0    0    0    0  0.00000000000E+00  0.00000000000E+00  0.45593999997E+02  0.45594000000E+02  0.51100000000E-03 0. -1.
         11   -1    0    0    0    0 -0.00000000000E+00 -0.00000000000E+00 -0.45593999997E+02  0.45594000000E+02  0.51100000000E-03 0.  1.
    9900012    2    1    2    0    0 -0.14925667596E+02  0.28014693162E+02 -0.30196939506E+01  0.59301997778E+02  0.50000098027E+02 0.  0.
        -12    1    1    2    0    0  0.14925667596E+02 -0.28014693162E+02  0.30196939506E+01  0.31886002222E+02  0.00000000000E+00 0.  1.
         11    1    3    3    0    0  0.15161700005E+01 -0.63842321644E+00 -0.34977748138E+01  0.38653311090E+01  0.51100000000E-03 0. -1.
        -11    1    3    3    0    0  0.12425974932E+02  0.15685448543E+02 -0.96399933970E+01  0.22211880198E+02  0.51100000000E-03 0.  1.
         12    1    3    3    0    0 -0.28867812528E+02  0.12967667836E+02  0.10118074260E+02  0.33224786471E+02  0.00000000000E+00 0. -1.
</event>
<event>
 7    1  0.7383168E-013  0.5930196E+02  0.7816164E-02  0.1266605E+00
        -11   -1    0    0    0    0  0.00000000000E+00  0.00000000000E+00  0.45593999997E+02  0.45594000000E+02  0.51100000000E-03 0. -1.
         11   -1    0    0    0    0 -0.00000000000E+00 -0.00000000000E+00 -0.45593999997E+02  0.45594000000E+02  0.51100000000E-03 0.  1.
    9900012    2    1    2    0    0  0.20695605888E+02  0.35298370303E+01  0.23998987697E+02  0.59301964452E+02  0.50000037249E+02 0.  0.
        -12    1    1    2    0    0 -0.20695605888E+02 -0.35298370303E+01 -0.23998987697E+02  0.31886035548E+02  0.00000000000E+00 0.  1.
         11    1    3    3    0    0  0.11323015716E+02  0.14106620840E+02  0.60119970549E+01  0.19061782322E+02  0.51100000000E-03 0. -1.
        -11    1    3    3    0    0  0.41715527714E+01 -0.89971165157E+01 -0.85856478578E+01  0.13117290403E+02  0.51100000000E-03 0.  1.
         12    1    3    3    0    0  0.52010373997E+01 -0.15796672941E+01  0.26572638499E+02  0.27122891727E+02  0.00000000000E+00 0. -1.
</event>
<event>
 7    1  0.7383168E-013  0.5930198E+02  0.7816164E-02  0.1266605E+00
        -11   -1    0    0    0    0  0.00000000000E+00  0.00000000000E+00  0.45593999997E+02  0.45594000000E+02  0.51100000000E-03 0.  1.
         11   -1    0    0    0    0 -0.00000000000E+00 -0.00000000000E+00 -0.45593999997E+02  0.45594000000E+02  0.51100000000E-03 0. -1.
    9900012    2    1    2    0    0  0.29882467918E+02 -0.82134725294E+01  0.75030362336E+01  0.59301975278E+02  0.50000056993E+02 0.  0.
        -12    1    1    2    0    0 -0.29882467918E+02  0.82134725294E+01 -0.75030362336E+01  0.31886024722E+02  0.00000000000E+00 0.  1.
         11    1    3    3    0    0  0.18969887786E+02  0.79318357818E+01 -0.14428695754E+01  0.20611951250E+02  0.51100000000E-03 0. -1.
        -11    1    3    3    0    0 -0.14113378649E+01 -0.15144075025E+02 -0.84101802076E+01  0.17380046442E+02  0.51100000000E-03 0.  1.
        -12    1    3    3    0    0  0.12323917997E+02 -0.10012332858E+01  0.17356086017E+02  0.21309977586E+02  0.00000000000E+00 0.  1.
</event>
<event>
 7    1  0.7383168E-013  0.5930194E+02  0.7816164E-02  0.1266605E+00
        -11   -1    0    0    0    0  0.00000000000E+00  0.00000000000E+00  0.45593999997E+02  0.45594000000E+02  0.51100000000E-03 0. -1.
         11   -1    0    0    0    0 -0.00000000000E+00 -0.00000000000E+00 -0.45593999997E+02  0.45594000000E+02  0.51100000000E-03 0.  1.
    9900012    2    1    2    0    0  0.31149565957E+02 -0.66116445337E+01 -0.16467389224E+01  0.59301936401E+02  0.49999986091E+02 0.  0.
        -12    1    1    2    0    0 -0.31149565957E+02  0.66116445337E+01  0.16467389224E+01  0.31886063599E+02  0.00000000000E+00 0.  1.
         11    1    3    3    0    0  0.25591922310E+02 -0.12302819059E+02  0.15360498006E+02  0.32283908431E+02  0.51100000000E-03 0. -1.
        -11    1    3    3    0    0  0.58796622609E+01 -0.20705248985E+01  0.19494986641E+01  0.65313128053E+01  0.51100000000E-03 0.  1.
        -12    1    3    3    0    0 -0.32201861417E+00  0.77616994236E+01 -0.18956735592E+02  0.20486715165E+02  0.00000000000E+00 0.  1.
</event>
<event>
 7    1  0.7383168E-013  0.5930197E+02  0.7816164E-02  0.1266605E+00
        -11   -1    0    0    0    0  0.00000000000E+00  0.00000000000E+00  0.45593999997E+02  0.45594000000E+02  0.51100000000E-03 0.  1.
         11   -1    0    0    0    0 -0.00000000000E+00 -0.00000000000E+00 -0.45593999997E+02  0.45594000000E+02  0.51100000000E-03 0. -1.
    9900012    2    1    2    0    0  0.24416606205E+02  0.15638553208E+02 -0.13265887277E+02  0.59301972179E+02  0.50000051340E+02 0.  0.
        -12    1    1    2    0    0 -0.24416606205E+02 -0.15638553208E+02  0.13265887277E+02  0.31886027821E+02  0.00000000000E+00 0.  1.
         11    1    3    3    0    0  0.56547889980E+01  0.23960384156E+01 -0.33280959607E+01  0.69852603162E+01  0.51100000000E-03 0. -1.
        -11    1    3    3    0    0  0.31138423237E+02  0.10250282486E+02 -0.17848663739E+02  0.37326190407E+02  0.51100000000E-03 0.  1.
        -12    1    3    3    0    0 -0.12376606031E+02  0.29922323063E+01  0.79108724228E+01  0.14990521456E+02  0.00000000000E+00 0.  1.
</event>
<event>
 7    1  0.7383168E-013  0.5930193E+02  0.7816164E-02  0.1266605E+00
        -11   -1    0    0    0    0  0.00000000000E+00  0.00000000000E+00  0.45593999997E+02  0.45594000000E+02  0.51100000000E-03 0. -1.
         11   -1    0    0    0    0 -0.00000000000E+00 -0.00000000000E+00 -0.45593999997E+02  0.45594000000E+02  0.51100000000E-03 0.  1.
    9900012    2    1    2    0    0  0.21376494907E+02 -0.71349435250E+01  0.22557911046E+02  0.59301932441E+02  0.49999978869E+02 0.  0.
        -12    1    1    2    0    0 -0.21376494907E+02  0.71349435250E+01 -0.22557911046E+02  0.31886067559E+02  0.00000000000E+00 0.  1.
         11    1    3    3    0    0  0.13871200935E+02 -0.93576135411E+01  0.20185388772E+01  0.16853772457E+02  0.51100000000E-03 0. -1.
        -11    1    3    3    0    0  0.16624049542E+02  0.73896358194E+01  0.25115207538E+02  0.31011923363E+02  0.51100000000E-03 0.  1.
        -12    1    3    3    0    0 -0.91187555693E+01 -0.51669658033E+01 -0.45758353695E+01  0.11436236622E+02  0.00000000000E+00 0.  1.
</event>
<event>
 7    1  0.7383168E-013  0.5930194E+02  0.7816164E-02  0.1266605E+00
        -11   -1    0    0    0    0  0.00000000000E+00  0.00000000000E+00  0.45593999997E+02  0.45594000000E+02  0.51100000000E-03 0.  1.
         11   -1    0    0    0    0 -0.00000000000E+00 -0.00000000000E+00 -0.45593999997E+02  0.45594000000E+02  0.51100000000E-03 0. -1.
    9900012    2    1    2    0    0 -0.38684582662E+01  0.23669081998E+02 -0.21012620502E+02  0.59301942979E+02  0.49999998088E+02 0.  0.
        -12    1    1    2    0    0  0.38684582662E+01 -0.23669081998E+02  0.21012620502E+02  0.31886057021E+02  0.00000000000E+00 0.  1.
         11    1    3    3    0    0 -0.11853911192E+02 -0.73859059535E+00 -0.13496301979E+02  0.17978067026E+02  0.51100000000E-03 0. -1.
        -11    1    3    3    0    0  0.24382925295E+01  0.41405023667E+01 -0.17437082326E+02  0.18087035982E+02  0.51100000000E-03 0.  1.
        -12    1    3    3    0    0  0.55471603960E+01  0.20267170226E+02  0.99207638027E+01  0.23236839972E+02  0.00000000000E+00 0.  1.
</event>
<event>
 7    1  0.7383168E-013  0.5930191E+02  0.7816164E-02  0.1266605E+00
        -11   -1    0    0    0    0  0.00000000000E+00  0.00000000000E+00  0.45593999997E+02  0.45594000000E+02  0.51100000000E-03 0. -1.
         11   -1    0    0    0    0 -0.00000000000E+00 -0.00000000000E+00 -0.45593999997E+02  0.45594000000E+02  0.51100000000E-03 0.  1.
    9900012    2    1    2    0    0  0.31701706098E+02 -0.33082782837E+01  0.88305381796E+00  0.59301911203E+02  0.49999940136E+02 0.  0.
        -12    1    1    2    0    0 -0.31701706098E+02  0.33082782837E+01 -0.88305381796E+00  0.31886088797E+02  0.00000000000E+00 0.  1.
         11    1    3    3    0    0  0.11456289526E+02 -0.61576575532E+01  0.59094318046E+01  0.14285821669E+02  0.51100000000E-03 0. -1.
        -11    1    3    3    0    0  0.24260079699E+02 -0.55198759668E+00 -0.18524337869E+02  0.30528793803E+02  0.51100000000E-03 0.  1.
         12    1    3    3    0    0 -0.40146631275E+01  0.34013668661E+01  0.13497959883E+02  0.14487295731E+02  0.00000000000E+00 0. -1.
</event>
<event>
 7    1  0.7383168E-013  0.5930196E+02  0.7816164E-02  0.1266605E+00
        -11   -1    0    0    0    0  0.00000000000E+00  0.00000000000E+00  0.45593999997E+02  0.45594000000E+02  0.51100000000E-03 0.  1.
         11   -1    0    0    0    0 -0.00000000000E+00 -0.00000000000E+00 -0.45593999997E+02  0.45594000000E+02  0.51100000000E-03 0. -1.
    9900012    2    1    2    0    0 -0.20100935117E+01  0.21111008011E+02 -0.23811848426E+02  0.59301964489E+02  0.50000037316E+02 0.  0.
        -12    1    1    2    0    0  0.20100935117E+01 -0.21111008011E+02  0.23811848426E+02  0.31886035511E+02  0.00000000000E+00 0.  1.
         11    1    3    3    0    0  0.93409137058E+01  0.59905219041E+01 -0.61088632153E+01  0.12667171412E+02  0.51100000000E-03 0. -1.
        -11    1    3    3    0    0  0.14029004360E+02  0.77156494210E+01 -0.10791848314E+02  0.19308241753E+02  0.51100000000E-03 0.  1.
         12    1    3    3    0    0 -0.25380011578E+02  0.74048366855E+01 -0.69111368970E+01  0.27326551323E+02  0.00000000000E+00 0. -1.
</event>
<event>
 7    1  0.7383168E-013  0.5930219E+02  0.7816164E-02  0.1266604E+00
        -11   -1    0    0    0    0  0.00000000000E+00  0.00000000000E+00  0.45593999997E+02  0.45594000000E+02  0.51100000000E-03 0.  1.
         11   -1    0    0    0    0 -0.00000000000E+00 -0.00000000000E+00 -0.45593999997E+02  0.45594000000E+02  0.51100000000E-03 0. -1.
    9900012    2    1    2    0    0  0.10658743495E+02 -0.21699522569E+02  0.20790066694E+02  0.59302188645E+02  0.50000446121E+02 0.  0.
        -12    1    1    2    0    0 -0.10658743495E+02  0.21699522569E+02 -0.20790066694E+02  0.31885811355E+02  0.00000000000E+00 0.  1.
         11    1    3    3    0    0  0.45095007095E+01 -0.13561114630E+02  0.95257850692E+01  0.17174982041E+02  0.51100000000E-03 0. -1.
        -11    1    3    3    0    0  0.78073556184E+01  0.30396494068E+01  0.23810861962E+02  0.25241858448E+02  0.51100000000E-03 0.  1.
        -12    1    3    3    0    0 -0.16581128324E+01 -0.11178057346E+02 -0.12546580337E+02  0.16885348156E+02  0.00000000000E+00 0.  1.
</event>
<event>
 7    1  0.7383168E-013  0.5930195E+02  0.7816164E-02  0.1266605E+00
        -11   -1    0    0    0    0  0.00000000000E+00  0.00000000000E+00  0.45593999997E+02  0.45594000000E+02  0.51100000000E-03 0. -1.
         11   -1    0    0    0    0 -0.00000000000E+00 -0.00000000000E+00 -0.45593999997E+02  0.45594000000E+02  0.51100000000E-03 0.  1.
    9900012    2    1    2    0    0  0.27131163558E+02 -0.13098351038E+02  0.10442873009E+02  0.59301946111E+02  0.50000003799E+02 0.  0.
        -12    1    1    2    0    0 -0.27131163558E+02  0.13098351038E+02 -0.10442873009E+02  0.31886053889E+02  0.00000000000E+00 0.  1.
         11    1    3    3    0    0 -0.38386463443E+01 -0.16158393913E+02  0.11090214741E+01  0.16645084215E+02  0.51100000000E-03 0. -1.
        -11    1    3    3    0    0  0.20413285021E+02 -0.11497743275E+02  0.31427224807E+01  0.23638464642E+02  0.51100000000E-03 0.  1.
        -12    1    3    3    0    0  0.10556524882E+02  0.14557786151E+02  0.61911290538E+01  0.19018397255E+02  0.00000000000E+00 0.  1.
</event>
<event>
 7    1  0.7383168E-013  0.5930195E+02  0.7816164E-02  0.1266605E+00
        -11   -1    0    0    0    0  0.00000000000E+00  0.00000000000E+00  0.45593999997E+02  0.45594000000E+02  0.51100000000E-03 0.  1.
         11   -1    0    0    0    0 -0.00000000000E+00 -0.00000000000E+00 -0.45593999997E+02  0.45594000000E+02  0.51100000000E-03 0. -1.
    9900012    2    1    2    0    0  0.26619041085E+02  0.83408413922E+01 -0.15445946078E+02  0.59301949231E+02  0.50000009489E+02 0.  0.
        -12    1    1    2    0    0 -0.26619041085E+02 -0.83408413922E+01  0.15445946078E+02  0.31886050769E+02  0.00000000000E+00 0.  1.
         11    1    3    3    0    0  0.15781175087E+01  0.66421367657E+01 -0.17913806012E+02  0.19170625492E+02  0.51100000000E-03 0.  1.
        -11    1    3    3    0    0  0.29931417090E+02 -0.39019121013E+01  0.75630303038E+01  0.31117745334E+02  0.51100000000E-03 0. -1.
         12    1    3    3    0    0 -0.48904935140E+01  0.56006167277E+01 -0.50951703705E+01  0.90135784040E+01  0.00000000000E+00 0. -1.
</event>
<event>
 7    1  0.7383168E-013  0.5930195E+02  0.7816164E-02  0.1266605E+00
        -11   -1    0    0    0    0  0.00000000000E+00  0.00000000000E+00  0.45593999997E+02  0.45594000000E+02  0.51100000000E-03 0.  1.
         11   -1    0    0    0    0 -0.00000000000E+00 -0.00000000000E+00 -0.45593999997E+02  0.45594000000E+02  0.51100000000E-03 0. -1.
    9900012    2    1    2    0    0 -0.60025213733E+01  0.16086195787E+02 -0.26868648550E+02  0.59301949247E+02  0.50000009519E+02 0.  0.
        -12    1    1    2    0    0  0.60025213733E+01 -0.16086195787E+02  0.26868648550E+02  0.31886050753E+02  0.00000000000E+00 0.  1.
         11    1    3    3    0    0  0.22335582620E+01  0.15131355309E+02 -0.10142047195E+02  0.18352324582E+02  0.51100000000E-03 0. -1.
        -11    1    3    3    0    0 -0.12643744274E+02  0.16710749366E+02 -0.82210444885E+01  0.22509975264E+02  0.51100000000E-03 0.  1.
         12    1    3    3    0    0  0.44076646383E+01 -0.15755908888E+02 -0.85055568658E+01  0.18439649402E+02  0.00000000000E+00 0. -1.
</event>
<event>
 7    1  0.7383168E-013  0.5930183E+02  0.7816164E-02  0.1266605E+00
        -11   -1    0    0    0    0  0.00000000000E+00  0.00000000000E+00  0.45593999997E+02  0.45594000000E+02  0.51100000000E-03 0.  1.
         11   -1    0    0    0    0 -0.00000000000E+00 -0.00000000000E+00 -0.45593999997E+02  0.45594000000E+02  0.51100000000E-03 0. -1.
    9900012    2    1    2    0    0 -0.12188912394E+01  0.24310695764E+02 -0.20596902734E+02  0.59301827031E+02  0.49999786625E+02 0.  0.
        -12    1    1    2    0    0  0.12188912394E+01 -0.24310695764E+02  0.20596902734E+02  0.31886172969E+02  0.00000000000E+00 0.  1.
         11    1    3    3    0    0  0.42056430526E+00 -0.26026079203E+01  0.44524504846E+00  0.26737026267E+01  0.51100000000E-03 0. -1.
        -11    1    3    3    0    0  0.49675489180E+01  0.16103792990E+02  0.12363223364E+02  0.20901147890E+02  0.51100000000E-03 0.  1.
         12    1    3    3    0    0 -0.66070044626E+01  0.10809510694E+02 -0.33405371146E+02  0.35726976514E+02  0.00000000000E+00 0. -1.
</event>
<event>
 7    1  0.7383168E-013  0.5930196E+02  0.7816164E-02  0.1266605E+00
        -11   -1    0    0    0    0  0.00000000000E+00  0.00000000000E+00  0.45593999997E+02  0.45594000000E+02  0.51100000000E-03 0.  1.
         11   -1    0    0    0    0 -0.00000000000E+00 -0.00000000000E+00 -0.45593999997E+02  0.45594000000E+02  0.51100000000E-03 0. -1.
    9900012    2    1    2    0    0  0.88829683026E+01  0.80165529279E+01 -0.29555829221E+02  0.59301964065E+02  0.50000036544E+02 0.  0.
        -12    1    1    2    0    0 -0.88829683026E+01 -0.80165529279E+01  0.29555829221E+02  0.31886035935E+02  0.00000000000E+00 0.  1.
         11    1    3    3    0    0  0.29839713939E+00  0.76729730549E+01 -0.20216644062E+02  0.21625823770E+02  0.51100000000E-03 0. -1.
        -11    1    3    3    0    0  0.16603690492E+02 -0.10429148112E+02 -0.13278522558E+02  0.23680558057E+02  0.51100000000E-03 0.  1.
        -12    1    3    3    0    0 -0.80191193289E+01  0.10772727985E+02  0.39393373989E+01  0.13995582239E+02  0.00000000000E+00 0.  1.
</event>
<event>
 7    1  0.7383168E-013  0.5930195E+02  0.7816164E-02  0.1266605E+00
        -11   -1    0    0    0    0  0.00000000000E+00  0.00000000000E+00  0.45593999997E+02  0.45594000000E+02  0.51100000000E-03 0. -1.
         11   -1    0    0    0    0 -0.00000000000E+00 -0.00000000000E+00 -0.45593999997E+02  0.45594000000E+02  0.51100000000E-03 0.  1.
    9900012    2    1    2    0    0 -0.16991243500E+02 -0.19752974415E+02  0.18380371919E+02  0.59301946218E+02  0.50000003994E+02 0.  0.
        -12    1    1    2    0    0  0.16991243500E+02  0.19752974415E+02 -0.18380371919E+02  0.31886053782E+02  0.00000000000E+00 0.  1.
         11    1    3    3    0    0 -0.88147122600E+01 -0.20148611565E+02 -0.17165902203E+01  0.22059292429E+02  0.51100000000E-03 0. -1.
        -11    1    3    3    0    0 -0.10465216563E+02 -0.11920867311E+02  0.31571390960E+01  0.16173909938E+02  0.51100000000E-03 0.  1.
        -12    1    3    3    0    0  0.22886853223E+01  0.12316504462E+02  0.16939823043E+02  0.21068743850E+02  0.00000000000E+00 0.  1.
</event>
<event>
 7    1  0.7383168E-013  0.5930195E+02  0.7816164E-02  0.1266605E+00
        -11   -1    0    0    0    0  0.00000000000E+00  0.00000000000E+00  0.45593999997E+02  0.45594000000E+02  0.51100000000E-03 0. -1.
         11   -1    0    0    0    0 -0.00000000000E+00 -0.00000000000E+00 -0.45593999997E+02  0.45594000000E+02  0.51100000000E-03 0.  1.
    9900012    2    1    2    0    0  0.61025771393E+01 -0.18552102441E+02  0.25205119439E+02  0.59301952916E+02  0.50000016210E+02 0.  0.
        -12    1    1    2    0    0 -0.61025771393E+01  0.18552102441E+02 -0.25205119439E+02  0.31886047084E+02  0.00000000000E+00 0.  1.
         11    1    3    3    0    0 -0.88255236759E+01 -0.96352181086E+01 -0.40987099425E+01  0.13694039565E+02  0.51100000000E-03 0. -1.
        -11    1    3    3    0    0 -0.43878084293E+01 -0.94188859579E+01 -0.13807321575E+00  0.10391695722E+02  0.51100000000E-03 0.  1.
         12    1    3    3    0    0  0.19315909244E+02  0.50200162545E+00  0.29441902597E+02  0.35216217629E+02  0.00000000000E+00 0. -1.
</event>
<event>
 7    1  0.7383168E-013  0.5930185E+02  0.7816164E-02  0.1266605E+00
        -11   -1    0    0    0    0  0.00000000000E+00  0.00000000000E+00  0.45593999997E+02  0.45594000000E+02  0.51100000000E-03 0. -1.
         11   -1    0    0    0    0 -0.00000000000E+00 -0.00000000000E+00 -0.45593999997E+02  0.45594000000E+02  0.51100000000E-03 0.  1.
    9900012    2    1    2    0    0 -0.10058862317E+02  0.26819063998E+02  0.14010116404E+02  0.59301854631E+02  0.49999836961E+02 0.  0.
        -12    1    1    2    0    0  0.10058862317E+02 -0.26819063998E+02 -0.14010116404E+02  0.31886145369E+02  0.00000000000E+00 0.  1.
         11    1    3    3    0    0 -0.45036999437E+01  0.25369415933E+02  0.21084523444E+02  0.33293358303E+02  0.51100000000E-03 0. -1.
        -11    1    3    3    0    0  0.69802346153E+01  0.70610038941E+01 -0.72154945510E+01  0.12273744871E+02  0.51100000000E-03 0.  1.
         12    1    3    3    0    0 -0.12535396989E+02 -0.56113558287E+01  0.14108751030E+00  0.13734751457E+02  0.00000000000E+00 0. -1.
</event>
<event>
 7    1  0.7383168E-013  0.5930194E+02  0.7816164E-02  0.1266605E+00
        -11   -1    0    0    0    0  0.00000000000E+00  0.00000000000E+00  0.45593999997E+02  0.45594000000E+02  0.51100000000E-03 0. -1.
         11   -1    0    0    0    0 -0.00000000000E+00 -0.00000000000E+00 -0.45593999997E+02  0.45594000000E+02  0.51100000000E-03 0.  1.
    9900012    2    1    2    0    0  0.27512825126E+01  0.30284540718E+02  0.95915485824E+01  0.59301940880E+02  0.49999994260E+02 0.  0.
        -12    1    1    2    0    0 -0.27512825126E+01 -0.30284540718E+02 -0.95915485824E+01  0.31886059120E+02  0.00000000000E+00 0.  1.
         11    1    3    3    0    0 -0.11436473871E+02  0.11318896037E+02  0.14660864102E+01  0.16157343585E+02  0.51100000000E-03 0. -1.
        -11    1    3    3    0    0 -0.12941991389E+01  0.59252840189E+01  0.19155282985E+02  0.20092506280E+02  0.51100000000E-03 0.  1.
         12    1    3    3    0    0  0.15481955523E+02  0.13040360662E+02 -0.11029820813E+02  0.23052091015E+02  0.00000000000E+00 0. -1.
</event>
<event>
 7    1  0.7383168E-013  0.5930177E+02  0.7816164E-02  0.1266605E+00
        -11   -1    0    0    0    0  0.00000000000E+00  0.00000000000E+00  0.45593999997E+02  0.45594000000E+02  0.51100000000E-03 0. -1.
         11   -1    0    0    0    0 -0.00000000000E+00 -0.00000000000E+00 -0.45593999997E+02  0.45594000000E+02  0.51100000000E-03 0.  1.
    9900012    2    1    2    0    0 -0.91307485392E+01  0.16794109753E+02  0.25520955688E+02  0.59301766756E+02  0.49999676698E+02 0.  0.
        -12    1    1    2    0    0  0.91307485392E+01 -0.16794109753E+02 -0.25520955688E+02  0.31886233244E+02  0.00000000000E+00 0.  1.
         11    1    3    3    0    0  0.70971223367E+01  0.91776069577E+01 -0.36012275892E+01  0.12147693417E+02  0.51100000000E-03 0. -1.
        -11    1    3    3    0    0  0.51371232395E+00  0.16008336097E+02  0.53391873011E+01  0.16883057965E+02  0.51100000000E-03 0.  1.
         12    1    3    3    0    0 -0.16741583200E+02 -0.83918333022E+01  0.23782995976E+02  0.30271015374E+02  0.00000000000E+00 0. -1.
</event>
<event>
 7    1  0.7383168E-013  0.5930195E+02  0.7816164E-02  0.1266605E+00
        -11   -1    0    0    0    0  0.00000000000E+00  0.00000000000E+00  0.45593999997E+02  0.45594000000E+02  0.51100000000E-03 0. -1.
         11   -1    0    0    0    0 -0.00000000000E+00 -0.00000000000E+00 -0.45593999997E+02  0.45594000000E+02  0.51100000000E-03 0.  1.
    9900012    2    1    2    0    0  0.83109388678E+01  0.66084816066E+01  0.30066203316E+02  0.59301947942E+02  0.50000007138E+02 0.  0.
        -12    1    1    2    0    0 -0.83109388678E+01 -0.66084816066E+01 -0.30066203316E+02  0.31886052058E+02  0.00000000000E+00 0.  1.
         11    1    3    3    0    0  0.16418860270E+02  0.86724111261E+01 -0.45418630329E+01  0.19115915028E+02  0.51100000000E-03 0. -1.
        -11    1    3    3    0    0 -0.10240195936E+01  0.15375660733E+01 -0.20015860656E+01  0.27237974588E+01  0.51100000000E-03 0.  1.
        -12    1    3    3    0    0 -0.70839018085E+01 -0.36014955928E+01  0.36609652415E+02  0.37462235455E+02  0.00000000000E+00 0.  1.
</event>
<event>
 7    1  0.7383168E-013  0.5930196E+02  0.7816164E-02  0.1266605E+00
        -11   -1    0    0    0    0  0.00000000000E+00  0.00000000000E+00  0.45593999997E+02  0.45594000000E+02  0.51100000000E-03 0.  1.
         11   -1    0    0    0    0 -0.00000000000E+00 -0.00000000000E+00 -0.45593999997E+02  0.45594000000E+02  0.51100000000E-03 0. -1.
    9900012    2    1    2    0    0 -0.15909934936E+02  0.16110838665E+02 -0.22450710962E+02  0.59301959561E+02  0.50000028329E+02 0.  0.
        -12    1    1    2    0    0  0.15909934936E+02 -0.16110838665E+02  0.22450710962E+02  0.31886040439E+02  0.00000000000E+00 0.  1.
         11    1    3    3    0    0  0.71065698091E+01 -0.94818668264E+00 -0.15992216342E+01  0.73457404346E+01  0.51100000000E-03 0. -1.
        -11    1    3    3    0    0 -0.40616700568E+01  0.16421642184E+01  0.10984086683E+02  0.11825566688E+02  0.51100000000E-03 0.  1.
         12    1    3    3    0    0 -0.18954834688E+02  0.15416861129E+02 -0.31835576011E+02  0.40130652438E+02  0.00000000000E+00 0. -1.
</event>
<event>
 7    1  0.7383168E-013  0.5930194E+02  0.7816164E-02  0.1266605E+00
        -11   -1    0    0    0    0  0.00000000000E+00  0.00000000000E+00  0.45593999997E+02  0.45594000000E+02  0.51100000000E-03 0. -1.
         11   -1    0    0    0    0 -0.00000000000E+00 -0.00000000000E+00 -0.45593999997E+02  0.45594000000E+02  0.51100000000E-03 0.  1.
    9900012    2    1    2    0    0 -0.24011677641E+02 -0.20724165663E+02 -0.32663805406E+01  0.59301938039E+02  0.49999989078E+02 0.  0.
        -12    1    1    2    0    0  0.24011677641E+02  0.20724165663E+02  0.32663805406E+01  0.31886061961E+02  0.00000000000E+00 0.  1.
         11    1    3    3    0    0  0.11793424921E+01  0.65731062831E+01  0.56571252068E+01  0.87521220735E+01  0.51100000000E-03 0. -1.
        -11    1    3    3    0    0 -0.94581581015E+01  0.67918874564E+01 -0.54150103791E+01  0.12841683206E+02  0.51100000000E-03 0.  1.
         12    1    3    3    0    0 -0.15732862032E+02 -0.34089159402E+02 -0.35084953683E+01  0.37708132760E+02  0.00000000000E+00 0. -1.
</event>
<event>
 7    1  0.7383168E-013  0.5930193E+02  0.7816164E-02  0.1266605E+00
        -11   -1    0    0    0    0  0.00000000000E+00  0.00000000000E+00  0.45593999997E+02  0.45594000000E+02  0.51100000000E-03 0.  1.
         11   -1    0    0    0    0 -0.00000000000E+00 -0.00000000000E+00 -0.45593999997E+02  0.45594000000E+02  0.51100000000E-03 0. -1.
    9900012    2    1    2    0    0  0.31571578555E+02 -0.21085023865E+01 -0.39383883879E+01  0.59301933171E+02  0.49999980199E+02 0.  0.
        -12    1    1    2    0    0 -0.31571578555E+02  0.21085023865E+01  0.39383883879E+01  0.31886066829E+02  0.00000000000E+00 0.  1.
         11    1    3    3    0    0  0.30896594115E+02  0.57149517126E+01  0.16078730878E+01  0.31461809501E+02  0.51100000000E-03 0. -1.
        -11    1    3    3    0    0  0.83924959086E+01 -0.83255494133E+01  0.65258608017E+01  0.13503170741E+02  0.51100000000E-03 0.  1.
        -12    1    3    3    0    0 -0.77175114686E+01  0.50209531415E+00 -0.12072122277E+02  0.14336952928E+02  0.00000000000E+00 0.  1.
</event>
<event>
 7    1  0.7383168E-013  0.5930200E+02  0.7816164E-02  0.1266605E+00
        -11   -1    0    0    0    0  0.00000000000E+00  0.00000000000E+00  0.45593999997E+02  0.45594000000E+02  0.51100000000E-03 0.  1.
         11   -1    0    0    0    0 -0.00000000000E+00 -0.00000000000E+00 -0.45593999997E+02  0.45594000000E+02  0.51100000000E-03 0. -1.
    9900012    2    1    2    0    0 -0.37103206423E+01 -0.27708914542E+02 -0.15335141502E+02  0.59302000106E+02  0.50000102273E+02 0.  0.
        -12    1    1    2    0    0  0.37103206423E+01  0.27708914542E+02  0.15335141502E+02  0.31885999894E+02  0.00000000000E+00 0.  1.
         11    1    3    3    0    0 -0.18501507887E+01 -0.14838623398E+02 -0.20173362818E+02  0.25111200089E+02  0.51100000000E-03 0. -1.
        -11    1    3    3    0    0 -0.20662031109E+00 -0.22774489219E+02 -0.57629665638E+00  0.22782716459E+02  0.51100000000E-03 0.  1.
         12    1    3    3    0    0 -0.16535495425E+01  0.99041980750E+01  0.54145179718E+01  0.11408083558E+02  0.00000000000E+00 0. -1.
</event>
<event>
 7    1  0.7383168E-013  0.5930191E+02  0.7816164E-02  0.1266605E+00
        -11   -1    0    0    0    0  0.00000000000E+00  0.00000000000E+00  0.45593999997E+02  0.45594000000E+02  0.51100000000E-03 0.  1.
         11   -1    0    0    0    0 -0.00000000000E+00 -0.00000000000E+00 -0.45593999997E+02  0.45594000000E+02  0.51100000000E-03 0. -1.
    9900012    2    1    2    0    0 -0.11324932624E+02  0.11990726742E+02 -0.27289024526E+02  0.59301913907E+02  0.49999945067E+02 0.  0.
        -12    1    1    2    0    0  0.11324932624E+02 -0.11990726742E+02  0.27289024526E+02  0.31886086093E+02  0.00000000000E+00 0.  1.
         11    1    3    3    0    0  0.85470900956E+00 -0.95496618932E+01 -0.24518952087E+01  0.98963811639E+01  0.51100000000E-03 0.  1.
        -11    1    3    3    0    0 -0.23181207594E+01  0.79115605777E+01 -0.30547419501E+02  0.31640343125E+02  0.51100000000E-03 0. -1.
         12    1    3    3    0    0 -0.98615208741E+01  0.13628828058E+02  0.57102901840E+01  0.17765189618E+02  0.00000000000E+00 0. -1.
</event>
<event>
 7    1  0.7383168E-013  0.5930195E+02  0.7816164E-02  0.1266605E+00
        -11   -1    0    0    0    0  0.00000000000E+00  0.00000000000E+00  0.45593999997E+02  0.45594000000E+02  0.51100000000E-03 0.  1.
         11   -1    0    0    0    0 -0.00000000000E+00 -0.00000000000E+00 -0.45593999997E+02  0.45594000000E+02  0.51100000000E-03 0. -1.
    9900012    2    1    2    0    0  0.27658959640E+02 -0.77051352755E+00 -0.15846402893E+02  0.59301949381E+02  0.50000009763E+02 0.  0.
        -12    1    1    2    0    0 -0.27658959640E+02  0.77051352755E+00  0.15846402893E+02  0.31886050619E+02  0.00000000000E+00 0.  1.
         11    1    3    3    0    0  0.16316413478E+02 -0.64714682058E+01 -0.28313210279E+01  0.17779809576E+02  0.51100000000E-03 0. -1.
        -11    1    3    3    0    0 -0.59550859879E+01 -0.12500491821E+02 -0.15972550324E+01  0.13938312982E+02  0.51100000000E-03 0.  1.
         12    1    3    3    0    0  0.17297632150E+02  0.18201446499E+02 -0.11417826833E+02  0.27583826823E+02  0.00000000000E+00 0. -1.
</event>
<event>
 7    1  0.7383168E-013  0.5930194E+02  0.7816164E-02  0.1266605E+00
        -11   -1    0    0    0    0  0.00000000000E+00  0.00000000000E+00  0.45593999997E+02  0.45594000000E+02  0.51100000000E-03 0. -1.
         11   -1    0    0    0    0 -0.00000000000E+00 -0.00000000000E+00 -0.45593999997E+02  0.45594000000E+02  0.51100000000E-03 0.  1.
    9900012    2    1    2    0    0  0.13585916228E+02  0.19186700765E+02  0.21540985158E+02  0.59301942740E+02  0.49999997651E+02 0.  0.
        -12    1    1    2    0    0 -0.13585916228E+02 -0.19186700765E+02 -0.21540985158E+02  0.31886057260E+02  0.00000000000E+00 0.  1.
         11    1    3    3    0    0  0.32597221608E+01  0.95109996738E+01  0.11218364222E+02  0.15064415005E+02  0.51100000000E-03 0. -1.
        -11    1    3    3    0    0  0.15156757039E+02  0.98038815680E+01  0.23828144371E+02  0.29893541814E+02  0.51100000000E-03 0.  1.
        -12    1    3    3    0    0 -0.48305629712E+01 -0.12818047688E+00 -0.13505523435E+02  0.14343985921E+02  0.00000000000E+00 0.  1.
</event>
<event>
 7    1  0.7383168E-013  0.5930193E+02  0.7816164E-02  0.1266605E+00
        -11   -1    0    0    0    0  0.00000000000E+00  0.00000000000E+00  0.45593999997E+02  0.45594000000E+02  0.51100000000E-03 0.  1.
         11   -1    0    0    0    0 -0.00000000000E+00 -0.00000000000E+00 -0.45593999997E+02  0.45594000000E+02  0.51100000000E-03 0. -1.
    9900012    2    1    2    0    0  0.16689231538E+02 -0.26069572563E+02  0.76529862972E+01  0.59301933102E+02  0.49999980075E+02 0.  0.
        -12    1    1    2    0    0 -0.16689231538E+02  0.26069572563E+02 -0.76529862972E+01  0.31886066898E+02  0.00000000000E+00 0.  1.
         11    1    3    3    0    0  0.50083709668E+01  0.26971838827E+01 -0.38071771482E+01  0.68449381836E+01  0.51100000000E-03 0. -1.
        -11    1    3    3    0    0  0.54426177988E+01  0.16460607511E+01 -0.12175483456E+02  0.13437782636E+02  0.51100000000E-03 0.  1.
        -12    1    3    3    0    0  0.62382427719E+01 -0.30412817197E+02  0.23635646902E+02  0.39019212283E+02  0.00000000000E+00 0.  1.
</event>
<event>
 7    1  0.7383168E-013  0.5930183E+02  0.7816164E-02  0.1266605E+00
        -11   -1    0    0    0    0  0.00000000000E+00  0.00000000000E+00  0.45593999997E+02  0.45594000000E+02  0.51100000000E-03 0. -1.
         11   -1    0    0    0    0 -0.00000000000E+00 -0.00000000000E+00 -0.45593999997E+02  0.45594000000E+02  0.51100000000E-03 0.  1.
    9900012    2    1    2    0    0 -0.16737471711E+02  0.17996702537E+01  0.27080358628E+02  0.59301833788E+02  0.49999798949E+02 0.  0.
        -12    1    1    2    0    0  0.16737471711E+02 -0.17996702537E+01 -0.27080358628E+02  0.31886166212E+02  0.00000000000E+00 0.  1.
         11    1    3    3    0    0  0.37607031438E+01 -0.95532516175E+01 -0.16936125611E+01  0.10405567182E+02  0.51100000000E-03 0.  1.
        -11    1    3    3    0    0 -0.10934613512E+02 -0.95616765836E+01  0.18979329010E+02  0.23899923885E+02  0.51100000000E-03 0. -1.
        -12    1    3    3    0    0 -0.95635613421E+01  0.20914598455E+02  0.97946421782E+01  0.24996342722E+02  0.00000000000E+00 0.  1.
</event>
<event>
 7    1  0.7383168E-013  0.5930196E+02  0.7816164E-02  0.1266605E+00
        -11   -1    0    0    0    0  0.00000000000E+00  0.00000000000E+00  0.45593999997E+02  0.45594000000E+02  0.51100000000E-03 0.  1.
         11   -1    0    0    0    0 -0.00000000000E+00 -0.00000000000E+00 -0.45593999997E+02  0.45594000000E+02  0.51100000000E-03 0. -1.
    9900012    2    1    2    0    0 -0.13309750203E+02 -0.11724443855E+02 -0.26497314379E+02  0.59301957545E+02  0.50000024652E+02 0.  0.
        -12    1    1    2    0    0  0.13309750203E+02  0.11724443855E+02  0.26497314379E+02  0.31886042455E+02  0.00000000000E+00 0.  1.
         11    1    3    3    0    0 -0.45795525127E+01 -0.47484847427E+01 -0.26549635644E+02  0.27356965506E+02  0.51100000000E-03 0. -1.
        -11    1    3    3    0    0  0.49871881240E+01 -0.14884412413E+02 -0.25352837218E+01  0.15901114491E+02  0.51100000000E-03 0.  1.
        -12    1    3    3    0    0 -0.13717385815E+02  0.79084533007E+01  0.25876049873E+01  0.16043877548E+02  0.00000000000E+00 0.  1.
</event>
<event>
 7    1  0.7383168E-013  0.5930190E+02  0.7816164E-02  0.1266605E+00
        -11   -1    0    0    0    0  0.00000000000E+00  0.00000000000E+00  0.45593999997E+02  0.45594000000E+02  0.51100000000E-03 0.  1.
         11   -1    0    0    0    0 -0.00000000000E+00 -0.00000000000E+00 -0.45593999997E+02  0.45594000000E+02  0.51100000000E-03 0. -1.
    9900012    2    1    2    0    0  0.34540784409E+00  0.94678751146E+01 -0.30446077736E+02  0.59301896204E+02  0.49999912781E+02 0.  0.
        -12    1    1    2    0    0 -0.34540784409E+00 -0.94678751146E+01  0.30446077736E+02  0.31886103796E+02  0.00000000000E+00 0.  1.
         11    1    3    3    0    0  0.78005623081E+00  0.79521031399E+01 -0.21869114233E+02  0.23283096651E+02  0.51100000000E-03 0. -1.
        -11    1    3    3    0    0  0.34888501840E+01 -0.67247713139E+01 -0.20006166756E+02  0.21392553222E+02  0.51100000000E-03 0.  1.
         12    1    3    3    0    0 -0.39234985707E+01  0.82405432886E+01  0.11429203253E+02  0.14626246331E+02  0.00000000000E+00 0. -1.
</event>
<event>
 7    1  0.7383168E-013  0.5930195E+02  0.7816164E-02  0.1266605E+00
        -11   -1    0    0    0    0  0.00000000000E+00  0.00000000000E+00  0.45593999997E+02  0.45594000000E+02  0.51100000000E-03 0.  1.
         11   -1    0    0    0    0 -0.00000000000E+00 -0.00000000000E+00 -0.45593999997E+02  0.45594000000E+02  0.51100000000E-03 0. -1.
    9900012    2    1    2    0    0  0.19006672961E+02  0.54006521232E+00 -0.25596388701E+02  0.59301946591E+02  0.50000004676E+02 0.  0.
        -12    1    1    2    0    0 -0.19006672961E+02 -0.54006521232E+00  0.25596388701E+02  0.31886053409E+02  0.00000000000E+00 0.  1.
         11    1    3    3    0    0  0.20906099233E+02  0.85263925711E+01 -0.13259745577E+02  0.26183682102E+02  0.51100000000E-03 0. -1.
        -11    1    3    3    0    0 -0.64989453196E+01 -0.63272076189E+01 -0.21164788495E+02  0.23026465617E+02  0.51100000000E-03 0.  1.
        -12    1    3    3    0    0  0.45995190474E+01 -0.16591197398E+01  0.88281453712E+01  0.10091798872E+02  0.00000000000E+00 0.  1.
</event>
<event>
 7    1  0.7383168E-013  0.5930196E+02  0.7816164E-02  0.1266605E+00
        -11   -1    0    0    0    0  0.00000000000E+00  0.00000000000E+00  0.45593999997E+02  0.45594000000E+02  0.51100000000E-03 0. -1.
         11   -1    0    0    0    0 -0.00000000000E+00 -0.00000000000E+00 -0.45593999997E+02  0.45594000000E+02  0.51100000000E-03 0.  1.
    9900012    2    1    2    0    0  0.26107194234E+02 -0.16947678820E+02 -0.69217270168E+01  0.59301957394E+02  0.50000024377E+02 0.  0.
        -12    1    1    2    0    0 -0.26107194234E+02  0.16947678820E+02  0.69217270168E+01  0.31886042606E+02  0.00000000000E+00 0.  1.
         11    1    3    3    0    0 -0.39775999933E+01  0.79502299393E+00 -0.44328379315E+01  0.60086117910E+01  0.51100000000E-03 0. -1.
        -11    1    3    3    0    0  0.21553615696E+02 -0.83316797654E+01 -0.20744537266E+02  0.31053358336E+02  0.51100000000E-03 0.  1.
         12    1    3    3    0    0  0.85311785318E+01 -0.94110220486E+01  0.18255648181E+02  0.22239987267E+02  0.00000000000E+00 0. -1.
</event>
<event>
 7    1  0.7383168E-013  0.5930194E+02  0.7816164E-02  0.1266605E+00
        -11   -1    0    0    0    0  0.00000000000E+00  0.00000000000E+00  0.45593999997E+02  0.45594000000E+02  0.51100000000E-03 0.  1.
         11   -1    0    0    0    0 -0.00000000000E+00 -0.00000000000E+00 -0.45593999997E+02  0.45594000000E+02  0.51100000000E-03 0. -1.
    9900012    2    1    2    0    0  0.55317177993E+01 -0.10323981085E+02 -0.29656979532E+02  0.59301938434E+02  0.49999989798E+02 0.  0.
        -12    1    1    2    0    0 -0.55317177993E+01  0.10323981085E+02  0.29656979532E+02  0.31886061566E+02  0.00000000000E+00 0.  1.
         11    1    3    3    0    0 -0.11429841229E+02  0.19556901164E+01  0.29400122720E+01  0.11962845263E+02  0.51100000000E-03 0. -1.
        -11    1    3    3    0    0  0.91048666429E+00 -0.17201554920E+02 -0.19697019689E+02  0.26166678477E+02  0.51100000000E-03 0.  1.
        -12    1    3    3    0    0  0.16051072364E+02  0.49218837195E+01 -0.12899972115E+02  0.21172414694E+02  0.00000000000E+00 0.  1.
</event>
<event>
 7    1  0.7383168E-013  0.5930202E+02  0.7816164E-02  0.1266605E+00
        -11   -1    0    0    0    0  0.00000000000E+00  0.00000000000E+00  0.45593999997E+02  0.45594000000E+02  0.51100000000E-03 0.  1.
         11   -1    0    0    0    0 -0.00000000000E+00 -0.00000000000E+00 -0.45593999997E+02  0.45594000000E+02  0.51100000000E-03 0. -1.
    9900012    2    1    2    0    0 -0.15955288372E+02 -0.24440266111E+02 -0.12838149648E+02  0.59302016857E+02  0.50000132824E+02 0.  0.
        -12    1    1    2    0    0  0.15955288372E+02  0.24440266111E+02  0.12838149648E+02  0.31885983143E+02  0.00000000000E+00 0.  1.
         11    1    3    3    0    0 -0.11595297458E+02 -0.18858124642E+01 -0.82918442093E+01  0.14379217379E+02  0.51100000000E-03 0. -1.
        -11    1    3    3    0    0 -0.13211964237E+02 -0.11647363355E+02 -0.18204503355E+02  0.25330239138E+02  0.51100000000E-03 0.  1.
        -12    1    3    3    0    0  0.88519733231E+01 -0.10907090291E+02  0.13658197917E+02  0.19592560340E+02  0.00000000000E+00 0.  1.
</event>
<event>
 7    1  0.7383168E-013  0.5930196E+02  0.7816164E-02  0.1266605E+00
        -11   -1    0    0    0    0  0.00000000000E+00  0.00000000000E+00  0.45593999997E+02  0.45594000000E+02  0.51100000000E-03 0.  1.
         11   -1    0    0    0    0 -0.00000000000E+00 -0.00000000000E+00 -0.45593999997E+02  0.45594000000E+02  0.51100000000E-03 0. -1.
    9900012    2    1    2    0    0 -0.26012521914E+02 -0.15372589150E+02 -0.10185852028E+02  0.59301962695E+02  0.50000034045E+02 0.  0.
        -12    1    1    2    0    0  0.26012521914E+02  0.15372589150E+02  0.10185852028E+02  0.31886037305E+02  0.00000000000E+00 0.  1.
         11    1    3    3    0    0  0.90071231201E+01 -0.70047074801E+01 -0.17167033836E+01  0.11538685564E+02  0.51100000000E-03 0. -1.
        -11    1    3    3    0    0  0.47206170772E+01 -0.36180012604E+01 -0.46667540182E+01  0.75599439176E+01  0.51100000000E-03 0.  1.
         12    1    3    3    0    0 -0.39740262111E+02 -0.47498804092E+01 -0.38023946265E+01  0.40203333213E+02  0.00000000000E+00 0. -1.
</event>
<event>
 7    1  0.7383168E-013  0.5930193E+02  0.7816164E-02  0.1266605E+00
        -11   -1    0    0    0    0  0.00000000000E+00  0.00000000000E+00  0.45593999997E+02  0.45594000000E+02  0.51100000000E-03 0.  1.
         11   -1    0    0    0    0 -0.00000000000E+00 -0.00000000000E+00 -0.45593999997E+02  0.45594000000E+02  0.51100000000E-03 0. -1.
    9900012    2    1    2    0    0 -0.29955188997E+02  0.25470090763E+01  0.10626417259E+02  0.59301931775E+02  0.49999977654E+02 0.  0.
        -12    1    1    2    0    0  0.29955188997E+02 -0.25470090763E+01 -0.10626417259E+02  0.31886068225E+02  0.00000000000E+00 0.  1.
         11    1    3    3    0    0 -0.38822587450E+01 -0.64968920181E+00 -0.25880656266E+01  0.47108505570E+01  0.51100000000E-03 0. -1.
        -11    1    3    3    0    0 -0.26958772968E+02  0.15040516406E+02 -0.65262751628E+01  0.31552889590E+02  0.51100000000E-03 0.  1.
        -12    1    3    3    0    0  0.88584271602E+00 -0.11843818128E+02  0.19740758048E+02  0.23038191628E+02  0.00000000000E+00 0.  1.
</event>
<event>
 7    1  0.7383168E-013  0.5930190E+02  0.7816164E-02  0.1266605E+00
        -11   -1    0    0    0    0  0.00000000000E+00  0.00000000000E+00  0.45593999997E+02  0.45594000000E+02  0.51100000000E-03 0.  1.
         11   -1    0    0    0    0 -0.00000000000E+00 -0.00000000000E+00 -0.45593999997E+02  0.45594000000E+02  0.51100000000E-03 0. -1.
    9900012    2    1    2    0    0 -0.16942052626E+02 -0.89567381125E+01 -0.25484642088E+02  0.59301901349E+02  0.49999922164E+02 0.  0.
        -12    1    1    2    0    0  0.16942052626E+02  0.89567381125E+01  0.25484642088E+02  0.31886098651E+02  0.00000000000E+00 0.  1.
         11    1    3    3    0    0  0.68401070749E+01  0.36688773755E+01  0.22048729577E+01  0.80690266460E+01  0.51100000000E-03 0. -1.
        -11    1    3    3    0    0  0.57328678527E+01 -0.10097771278E+02 -0.15092995442E+02  0.19042827266E+02  0.51100000000E-03 0.  1.
         12    1    3    3    0    0 -0.29515027554E+02 -0.25278442097E+01 -0.12596519604E+02  0.32190047437E+02  0.00000000000E+00 0. -1.
</event>
<event>
 7    1  0.7383168E-013  0.5930197E+02  0.7816164E-02  0.1266605E+00
        -11   -1    0    0    0    0  0.00000000000E+00  0.00000000000E+00  0.45593999997E+02  0.45594000000E+02  0.51100000000E-03 0.  1.
         11   -1    0    0    0    0 -0.00000000000E+00 -0.00000000000E+00 -0.45593999997E+02  0.45594000000E+02  0.51100000000E-03 0. -1.
    9900012    2    1    2    0    0  0.33693243823E+01 -0.13600330162E+02 -0.28642579844E+02  0.59301973164E+02  0.50000053137E+02 0.  0.
        -12    1    1    2    0    0 -0.33693243823E+01  0.13600330162E+02  0.28642579844E+02  0.31886026836E+02  0.00000000000E+00 0.  1.
         11    1    3    3    0    0 -0.12107115141E+02  0.47801369472E+01 -0.37636779856E+01  0.13549805110E+02  0.51100000000E-03 0. -1.
        -11    1    3    3    0    0  0.22032173910E+01 -0.17742082763E+01  0.69345745331E+01  0.74893461728E+01  0.51100000000E-03 0.  1.
         12    1    3    3    0    0  0.13273222133E+02 -0.16606258833E+02 -0.31813476391E+02  0.38262821881E+02  0.00000000000E+00 0. -1.
</event>
<event>
 7    1  0.7383168E-013  0.5930195E+02  0.7816164E-02  0.1266605E+00
        -11   -1    0    0    0    0  0.00000000000E+00  0.00000000000E+00  0.45593999997E+02  0.45594000000E+02  0.51100000000E-03 0.  1.
         11   -1    0    0    0    0 -0.00000000000E+00 -0.00000000000E+00 -0.45593999997E+02  0.45594000000E+02  0.51100000000E-03 0. -1.
    9900012    2    1    2    0    0  0.69715243779E+01  0.16617486875E+01 -0.31070191172E+02  0.59301947558E+02  0.50000006439E+02 0.  0.
        -12    1    1    2    0    0 -0.69715243779E+01 -0.16617486875E+01  0.31070191172E+02  0.31886052442E+02  0.00000000000E+00 0.  1.
         11    1    3    3    0    0 -0.65857290202E+01  0.10009237267E+02 -0.21150494286E+02  0.24308436112E+02  0.51100000000E-03 0. -1.
        -11    1    3    3    0    0 -0.85992081633E+01 -0.72779613501E+01 -0.46912393067E+01  0.12203394157E+02  0.51100000000E-03 0.  1.
        -12    1    3    3    0    0  0.22156461561E+02 -0.10695272294E+01 -0.52284575794E+01  0.22790117290E+02  0.00000000000E+00 0.  1.
</event>
<event>
 7    1  0.7383168E-013  0.5930187E+02  0.7816164E-02  0.1266605E+00
        -11   -1    0    0    0    0  0.00000000000E+00  0.00000000000E+00  0.45593999997E+02  0.45594000000E+02  0.51100000000E-03 0.  1.
         11   -1    0    0    0    0 -0.00000000000E+00 -0.00000000000E+00 -0.45593999997E+02  0.45594000000E+02  0.51100000000E-03 0. -1.
    9900012    2    1    2    0    0  0.27374817168E+02 -0.13862295511E+02  0.86707366572E+01  0.59301866243E+02  0.49999858139E+02 0.  0.
        -12    1    1    2    0    0 -0.27374817168E+02  0.13862295511E+02 -0.86707366572E+01  0.31886133757E+02  0.00000000000E+00 0.  1.
         11    1    3    3    0    0  0.16150460521E+02  0.37897833747E+01  0.25144458608E+01  0.16778625430E+02  0.51100000000E-03 0. -1.
        -11    1    3    3    0    0  0.18995553622E+02  0.18004870207E+01  0.94930279783E+01  0.21311743040E+02  0.51100000000E-03 0.  1.
         12    1    3    3    0    0 -0.77711969755E+01 -0.19452565906E+02 -0.33367371819E+01  0.21211497773E+02  0.00000000000E+00 0. -1.
</event>
<event>
 7    1  0.7383168E-013  0.5930193E+02  0.7816164E-02  0.1266605E+00
        -11   -1    0    0    0    0  0.00000000000E+00  0.00000000000E+00  0.45593999997E+02  0.45594000000E+02  0.51100000000E-03 0. -1.
         11   -1    0    0    0    0 -0.00000000000E+00 -0.00000000000E+00 -0.45593999997E+02  0.45594000000E+02  0.51100000000E-03 0.  1.
    9900012    2    1    2    0    0  0.97903792879E+01  0.67972806079E+01  0.29574765810E+02  0.59301932149E+02  0.49999978336E+02 0.  0.
        -12    1    1    2    0    0 -0.97903792879E+01 -0.67972806079E+01 -0.29574765810E+02  0.31886067851E+02  0.00000000000E+00 0.  1.
         11    1    3    3    0    0  0.11164822360E+02 -0.18201601690E+02  0.16681287442E+02  0.27096437283E+02  0.51100000000E-03 0.  1.
        -11    1    3    3    0    0 -0.79361936259E+01  0.81862828528E+01  0.60185250907E+01  0.12892673918E+02  0.51100000000E-03 0. -1.
        -12    1    3    3    0    0  0.65617505540E+01  0.16812599446E+02  0.68749532774E+01  0.19312820949E+02  0.00000000000E+00 0.  1.
</event>
<event>
 7    1  0.7383168E-013  0.5930194E+02  0.7816164E-02  0.1266605E+00
        -11   -1    0    0    0    0  0.00000000000E+00  0.00000000000E+00  0.45593999997E+02  0.45594000000E+02  0.51100000000E-03 0. -1.
         11   -1    0    0    0    0 -0.00000000000E+00 -0.00000000000E+00 -0.45593999997E+02  0.45594000000E+02  0.51100000000E-03 0.  1.
    9900012    2    1    2    0    0  0.49854028488E+01  0.30134999519E+02  0.91514050566E+01  0.59301942669E+02  0.49999997523E+02 0.  0.
        -12    1    1    2    0    0 -0.49854028488E+01 -0.30134999519E+02 -0.91514050566E+01  0.31886057331E+02  0.00000000000E+00 0.  1.
         11    1    3    3    0    0 -0.15824859795E+02  0.10882832868E+02  0.33820009283E+01  0.19501286350E+02  0.51100000000E-03 0. -1.
        -11    1    3    3    0    0  0.23470943241E+01  0.20451748503E+02  0.61989712320E+00  0.20595318431E+02  0.51100000000E-03 0.  1.
        -12    1    3    3    0    0  0.18463168319E+02 -0.11995818516E+01  0.51495070050E+01  0.19205337888E+02  0.00000000000E+00 0.  1.
</event>
<event>
 7    1  0.7383168E-013  0.5930193E+02  0.7816164E-02  0.1266605E+00
        -11   -1    0    0    0    0  0.00000000000E+00  0.00000000000E+00  0.45593999997E+02  0.45594000000E+02  0.51100000000E-03 0. -1.
         11   -1    0    0    0    0 -0.00000000000E+00 -0.00000000000E+00 -0.45593999997E+02  0.45594000000E+02  0.51100000000E-03 0.  1.
    9900012    2    1    2    0    0  0.22796402285E+02  0.40459096806E+01  0.21924333042E+02  0.59301925898E+02  0.49999966936E+02 0.  0.
        -12    1    1    2    0    0 -0.22796402285E+02 -0.40459096806E+01 -0.21924333042E+02  0.31886074102E+02  0.00000000000E+00 0.  1.
         11    1    3    3    0    0  0.83452579617E+01  0.15919698094E+02  0.48702796113E+01  0.18622560017E+02  0.51100000000E-03 0. -1.
        -11    1    3    3    0    0  0.48907627308E+01  0.10563576953E+02  0.14625857267E+01  0.11732343134E+02  0.51100000000E-03 0.  1.
         12    1    3    3    0    0  0.95603815921E+01 -0.22437365366E+02  0.15591467704E+02  0.28947022748E+02  0.00000000000E+00 0. -1.
</event>
<event>
 7    1  0.7383168E-013  0.5930192E+02  0.7816164E-02  0.1266605E+00
        -11   -1    0    0    0    0  0.00000000000E+00  0.00000000000E+00  0.45593999997E+02  0.45594000000E+02  0.51100000000E-03 0.  1.
         11   -1    0    0    0    0 -0.00000000000E+00 -0.00000000000E+00 -0.45593999997E+02  0.45594000000E+02  0.51100000000E-03 0. -1.
    9900012    2    1    2    0    0 -0.18681924566E+02 -0.24393523410E+02 -0.85243150936E+01  0.59301917806E+02  0.49999952179E+02 0.  0.
        -12    1    1    2    0    0  0.18681924566E+02  0.24393523410E+02  0.85243150936E+01  0.31886082194E+02  0.00000000000E+00 0.  1.
         11    1    3    3    0    0  0.71042352821E+01 -0.72093499582E+01 -0.63341424768E+01  0.11940110843E+02  0.51100000000E-03 0. -1.
        -11    1    3    3    0    0 -0.46249899272E+01 -0.14671200276E+02 -0.15819952880E+02  0.22065936616E+02  0.51100000000E-03 0.  1.
        -12    1    3    3    0    0 -0.21161169921E+02 -0.25129731761E+01  0.13629780263E+02  0.25295870348E+02  0.00000000000E+00 0.  1.
</event>
<event>
 7    1  0.7383168E-013  0.5930193E+02  0.7816164E-02  0.1266605E+00
        -11   -1    0    0    0    0  0.00000000000E+00  0.00000000000E+00  0.45593999997E+02  0.45594000000E+02  0.51100000000E-03 0. -1.
         11   -1    0    0    0    0 -0.00000000000E+00 -0.00000000000E+00 -0.45593999997E+02  0.45594000000E+02  0.51100000000E-03 0.  1.
    9900012    2    1    2    0    0  0.83120685236E+01  0.27517144310E+02  0.13799912280E+02  0.59301932619E+02  0.49999979193E+02 0.  0.
        -12    1    1    2    0    0 -0.83120685236E+01 -0.27517144310E+02 -0.13799912280E+02  0.31886067381E+02  0.00000000000E+00 0.  1.
         11    1    3    3    0    0  0.27811826122E+00  0.22995036156E+02  0.13437822621E+02  0.26635016700E+02  0.51100000000E-03 0. -1.
        -11    1    3    3    0    0  0.68203771669E+01 -0.22352298394E+01  0.14928183935E+02  0.16563951008E+02  0.51100000000E-03 0.  1.
        -12    1    3    3    0    0  0.12135730955E+01  0.67573379934E+01 -0.14566094277E+02  0.16102964910E+02  0.00000000000E+00 0.  1.
</event>
<event>
 7    1  0.7383168E-013  0.5930192E+02  0.7816164E-02  0.1266605E+00
        -11   -1    0    0    0    0  0.00000000000E+00  0.00000000000E+00  0.45593999997E+02  0.45594000000E+02  0.51100000000E-03 0.  1.
         11   -1    0    0    0    0 -0.00000000000E+00 -0.00000000000E+00 -0.45593999997E+02  0.45594000000E+02  0.51100000000E-03 0. -1.
    9900012    2    1    2    0    0 -0.49645324918E+01  0.31431290400E+02  0.20370927347E+01  0.59301916109E+02  0.49999949084E+02 0.  0.
        -12    1    1    2    0    0  0.49645324918E+01 -0.31431290400E+02 -0.20370927347E+01  0.31886083891E+02  0.00000000000E+00 0.  1.
         11    1    3    3    0    0 -0.14279219187E+02  0.21788038936E+02  0.47247497156E+01  0.26475233736E+02  0.51100000000E-03 0. -1.
        -11    1    3    3    0    0 -0.35535656170E+01 -0.59720721476E+01  0.74557348445E+01  0.10192225305E+02  0.51100000000E-03 0.  1.
         12    1    3    3    0    0  0.12868252312E+02  0.15615323612E+02 -0.10143391825E+02  0.22634457068E+02  0.00000000000E+00 0. -1.
</event>
<event>
 7    1  0.7383168E-013  0.5930193E+02  0.7816164E-02  0.1266605E+00
        -11   -1    0    0    0    0  0.00000000000E+00  0.00000000000E+00  0.45593999997E+02  0.45594000000E+02  0.51100000000E-03 0. -1.
         11   -1    0    0    0    0 -0.00000000000E+00 -0.00000000000E+00 -0.45593999997E+02  0.45594000000E+02  0.51100000000E-03 0.  1.
    9900012    2    1    2    0    0  0.88392784869E+01 -0.30455962323E+02 -0.33201337091E+01  0.59301925092E+02  0.49999965465E+02 0.  0.
        -12    1    1    2    0    0 -0.88392784869E+01  0.30455962323E+02  0.33201337091E+01  0.31886074908E+02  0.00000000000E+00 0.  1.
         11    1    3    3    0    0  0.91986918370E+00  0.14561511451E+01 -0.11402359058E+01  0.20655928095E+01  0.51100000000E-03 0.  1.
        -11    1    3    3    0    0 -0.15875001786E+02 -0.18998458795E+02  0.11040386981E+02  0.27108066387E+02  0.51100000000E-03 0. -1.
         12    1    3    3    0    0  0.23794411089E+02 -0.12913654673E+02 -0.13220284784E+02  0.30128265896E+02  0.00000000000E+00 0. -1.
</event>
<event>
 7    1  0.7383168E-013  0.5930195E+02  0.7816164E-02  0.1266605E+00
        -11   -1    0    0    0    0  0.00000000000E+00  0.00000000000E+00  0.45593999997E+02  0.45594000000E+02  0.51100000000E-03 0. -1.
         11   -1    0    0    0    0 -0.00000000000E+00 -0.00000000000E+00 -0.45593999997E+02  0.45594000000E+02  0.51100000000E-03 0.  1.
    9900012    2    1    2    0    0  0.19986647715E+02 -0.12449191909E+02  0.21500498947E+02  0.59301954133E+02  0.50000018430E+02 0.  0.
        -12    1    1    2    0    0 -0.19986647715E+02  0.12449191909E+02 -0.21500498947E+02  0.31886045867E+02  0.00000000000E+00 0.  1.
         11    1    3    3    0    0  0.66946120182E+01 -0.26235805486E+02  0.10987551612E+01  0.27098756110E+02  0.51100000000E-03 0. -1.
        -11    1    3    3    0    0 -0.23307288185E+01  0.11412178265E+01 -0.10565145234E+01  0.28019454227E+01  0.51100000000E-03 0.  1.
        -12    1    3    3    0    0  0.15622764515E+02  0.12645395751E+02  0.21458258309E+02  0.29401252600E+02  0.00000000000E+00 0.  1.
</event>
<event>
 7    1  0.7383168E-013  0.5930192E+02  0.7816164E-02  0.1266605E+00
        -11   -1    0    0    0    0  0.00000000000E+00  0.00000000000E+00  0.45593999997E+02  0.45594000000E+02  0.51100000000E-03 0.  1.
         11   -1    0    0    0    0 -0.00000000000E+00 -0.00000000000E+00 -0.45593999997E+02  0.45594000000E+02  0.51100000000E-03 0. -1.
    9900012    2    1    2    0    0  0.32305317671E+01 -0.28075479566E+02 -0.14766630518E+02  0.59301917374E+02  0.49999951391E+02 0.  0.
        -12    1    1    2    0    0 -0.32305317671E+01  0.28075479566E+02  0.14766630518E+02  0.31886082626E+02  0.00000000000E+00 0.  1.
         11    1    3    3    0    0 -0.51237903705E+00 -0.22084752552E+01  0.62897014521E+01  0.66858237972E+01  0.51100000000E-03 0. -1.
        -11    1    3    3    0    0  0.12700928768E+02 -0.27038832607E+02 -0.18552205372E+00  0.29873842722E+02  0.51100000000E-03 0.  1.
         12    1    3    3    0    0 -0.89580179639E+01  0.11718282957E+01 -0.20870809916E+02  0.22742250855E+02  0.00000000000E+00 0. -1.
</event>
<event>
 7    1  0.7383168E-013  0.5930195E+02  0.7816164E-02  0.1266605E+00
        -11   -1    0    0    0    0  0.00000000000E+00  0.00000000000E+00  0.45593999997E+02  0.45594000000E+02  0.51100000000E-03 0.  1.
         11   -1    0    0    0    0 -0.00000000000E+00 -0.00000000000E+00 -0.45593999997E+02  0.45594000000E+02  0.51100000000E-03 0. -1.
    9900012    2    1    2    0    0  0.42449502343E+00 -0.28299459396E+02  0.14686076880E+02  0.59301945803E+02  0.50000003237E+02 0.  0.
        -12    1    1    2    0    0 -0.42449502343E+00  0.28299459396E+02 -0.14686076880E+02  0.31886054197E+02  0.00000000000E+00 0.  1.
         11    1    3    3    0    0 -0.72487397448E+01 -0.19105010665E+02 -0.32966249575E+01  0.20698149598E+02  0.51100000000E-03 0. -1.
        -11    1    3    3    0    0  0.14031365678E+02 -0.94396047953E+01 -0.25550027954E+01  0.17103023155E+02  0.51100000000E-03 0.  1.
        -12    1    3    3    0    0 -0.63581309100E+01  0.24515606420E+00  0.20537704633E+02  0.21500773050E+02  0.00000000000E+00 0.  1.
</event>
<event>
 7    1  0.7383168E-013  0.5930198E+02  0.7816164E-02  0.1266605E+00
        -11   -1    0    0    0    0  0.00000000000E+00  0.00000000000E+00  0.45593999997E+02  0.45594000000E+02  0.51100000000E-03 0.  1.
         11   -1    0    0    0    0 -0.00000000000E+00 -0.00000000000E+00 -0.45593999997E+02  0.45594000000E+02  0.51100000000E-03 0. -1.
    9900012    2    1    2    0    0  0.21557613514E+02 -0.31551143513E+01 -0.23281598229E+02  0.59301980131E+02  0.50000065844E+02 0.  0.
        -12    1    1    2    0    0 -0.21557613514E+02  0.31551143513E+01  0.23281598229E+02  0.31886019869E+02  0.00000000000E+00 0.  1.
         11    1    3    3    0    0  0.11099370840E+02 -0.10688416043E+02 -0.13326697839E+02  0.20372509568E+02  0.51100000000E-03 0. -1.
        -11    1    3    3    0    0  0.71161310889E+01 -0.12125821526E+02 -0.12517222369E+02  0.18824338646E+02  0.51100000000E-03 0.  1.
         12    1    3    3    0    0  0.33421115842E+01  0.19659123217E+02  0.25623219792E+01  0.20105131917E+02  0.00000000000E+00 0. -1.
</event>
<event>
 7    1  0.7383168E-013  0.5930195E+02  0.7816164E-02  0.1266605E+00
        -11   -1    0    0    0    0  0.00000000000E+00  0.00000000000E+00  0.45593999997E+02  0.45594000000E+02  0.51100000000E-03 0. -1.
         11   -1    0    0    0    0 -0.00000000000E+00 -0.00000000000E+00 -0.45593999997E+02  0.45594000000E+02  0.51100000000E-03 0.  1.
    9900012    2    1    2    0    0  0.10083641456E+02 -0.96266324227E+01  0.28676961971E+02  0.59301952508E+02  0.50000015465E+02 0.  0.
        -12    1    1    2    0    0 -0.10083641456E+02  0.96266324227E+01 -0.28676961971E+02  0.31886047492E+02  0.00000000000E+00 0.  1.
         11    1    3    3    0    0  0.10530433916E+02 -0.11869838315E+02  0.57258781390E+01  0.16869166572E+02  0.51100000000E-03 0. -1.
        -11    1    3    3    0    0  0.14257789777E+02 -0.45182204622E+01  0.77210826893E+00  0.14976482795E+02  0.51100000000E-03 0.  1.
         12    1    3    3    0    0 -0.14704582238E+02  0.67614263548E+01  0.22178975563E+02  0.27456303141E+02  0.00000000000E+00 0. -1.
</event>
<event>
 7    1  0.7383168E-013  0.5930196E+02  0.7816164E-02  0.1266605E+00
        -11   -1    0    0    0    0  0.00000000000E+00  0.00000000000E+00  0.45593999997E+02  0.45594000000E+02  0.51100000000E-03 0.  1.
         11   -1    0    0    0    0 -0.00000000000E+00 -0.00000000000E+00 -0.45593999997E+02  0.45594000000E+02  0.51100000000E-03 0. -1.
    9900012    2    1    2    0    0 -0.58559181542E+01  0.25010646684E+01 -0.31243754307E+02  0.59301964105E+02  0.50000036616E+02 0.  0.
        -12    1    1    2    0    0  0.58559181542E+01 -0.25010646684E+01  0.31243754307E+02  0.31886035895E+02  0.00000000000E+00 0.  1.
         11    1    3    3    0    0 -0.72168443218E+01  0.35126190073E+01 -0.26291095844E+02  0.27488962425E+02  0.51100000000E-03 0. -1.
        -11    1    3    3    0    0  0.46480206605E+01 -0.15684288337E+02 -0.32767586612E+01  0.16683469192E+02  0.51100000000E-03 0.  1.
         12    1    3    3    0    0 -0.32870944929E+01  0.14672733998E+02 -0.16758998019E+01  0.15129532489E+02  0.00000000000E+00 0. -1.
</event>
<event>
 7    1  0.7383168E-013  0.5930194E+02  0.7816164E-02  0.1266605E+00
        -11   -1    0    0    0    0  0.00000000000E+00  0.00000000000E+00  0.45593999997E+02  0.45594000000E+02  0.51100000000E-03 0.  1.
         11   -1    0    0    0    0 -0.00000000000E+00 -0.00000000000E+00 -0.45593999997E+02  0.45594000000E+02  0.51100000000E-03 0. -1.
    9900012    2    1    2    0    0  0.15779781419E+02  0.19151028810E+02  0.20023914781E+02  0.59301943968E+02  0.49999999890E+02 0.  0.
        -12    1    1    2    0    0 -0.15779781419E+02 -0.19151028810E+02 -0.20023914781E+02  0.31886056032E+02  0.00000000000E+00 0.  1.
         11    1    3    3    0    0  0.14352691767E+01 -0.97146642275E+01  0.23905242942E+02  0.25843671160E+02  0.51100000000E-03 0. -1.
        -11    1    3    3    0    0  0.13826179103E+01 -0.16474492740E+00 -0.52819984056E+00  0.14892174152E+01  0.51100000000E-03 0.  1.
        -12    1    3    3    0    0  0.12961894332E+02  0.29030437965E+02 -0.33531283202E+01  0.31969055392E+02  0.00000000000E+00 0.  1.
</event>
<event>
 7    1  0.7383168E-013  0.5930189E+02  0.7816164E-02  0.1266605E+00
        -11   -1    0    0    0    0  0.00000000000E+00  0.00000000000E+00  0.45593999997E+02  0.45594000000E+02  0.51100000000E-03 0.  1.
         11   -1    0    0    0    0 -0.00000000000E+00 -0.00000000000E+00 -0.45593999997E+02  0.45594000000E+02  0.51100000000E-03 0. -1.
    9900012    2    1    2    0    0  0.29390733853E+02  0.11491555963E+02 -0.45665097760E+01  0.59301888503E+02  0.49999898737E+02 0.  0.
        -12    1    1    2    0    0 -0.29390733853E+02 -0.11491555963E+02  0.45665097760E+01  0.31886111497E+02  0.00000000000E+00 0.  1.
         11    1    3    3    0    0 -0.64193323232E+00  0.10775818836E+01 -0.46564127481E+01  0.48223895459E+01  0.51100000000E-03 0. -1.
        -11    1    3    3    0    0  0.72999664890E+01  0.73921226351E+01 -0.20932751547E+02  0.23369062356E+02  0.51100000000E-03 0.  1.
        -12    1    3    3    0    0  0.22732700596E+02  0.30218514443E+01  0.21022654519E+02  0.31110436602E+02  0.00000000000E+00 0.  1.
</event>
<event>
 7    1  0.7383168E-013  0.5930195E+02  0.7816164E-02  0.1266605E+00
        -11   -1    0    0    0    0  0.00000000000E+00  0.00000000000E+00  0.45593999997E+02  0.45594000000E+02  0.51100000000E-03 0.  1.
         11   -1    0    0    0    0 -0.00000000000E+00 -0.00000000000E+00 -0.45593999997E+02  0.45594000000E+02  0.51100000000E-03 0. -1.
    9900012    2    1    2    0    0  0.93385702497E+01 -0.68492367532E+01 -0.29708570193E+02  0.59301951619E+02  0.50000013845E+02 0.  0.
        -12    1    1    2    0    0 -0.93385702497E+01  0.68492367532E+01  0.29708570193E+02  0.31886048381E+02  0.00000000000E+00 0.  1.
         11    1    3    3    0    0  0.34551362528E+01 -0.19672400565E+01 -0.13433320919E+02  0.14009357984E+02  0.51100000000E-03 0. -1.
        -11    1    3    3    0    0 -0.69450742560E+01 -0.19027039822E+02 -0.16608809853E+02  0.26193794414E+02  0.51100000000E-03 0.  1.
        -12    1    3    3    0    0  0.12828508253E+02  0.14145043125E+02  0.33356057795E+00  0.19098799221E+02  0.00000000000E+00 0.  1.
</event>
<event>
 7    1  0.7383168E-013  0.5930192E+02  0.7816164E-02  0.1266605E+00
        -11   -1    0    0    0    0  0.00000000000E+00  0.00000000000E+00  0.45593999997E+02  0.45594000000E+02  0.51100000000E-03 0.  1.
         11   -1    0    0    0    0 -0.00000000000E+00 -0.00000000000E+00 -0.45593999997E+02  0.45594000000E+02  0.51100000000E-03 0. -1.
    9900012    2    1    2    0    0  0.64630649522E+01 -0.18726230684E+02 -0.24985578805E+02  0.59301920398E+02  0.49999956905E+02 0.  0.
        -12    1    1    2    0    0 -0.64630649522E+01  0.18726230684E+02  0.24985578805E+02  0.31886079602E+02  0.00000000000E+00 0.  1.
         11    1    3    3    0    0  0.78029596180E+01 -0.64194041749E+01 -0.63829402692E+01  0.11951437382E+02  0.51100000000E-03 0. -1.
        -11    1    3    3    0    0  0.19539727259E+02 -0.11349931283E+02 -0.85912349207E+01  0.24175011876E+02  0.51100000000E-03 0.  1.
         12    1    3    3    0    0 -0.20879621925E+02 -0.95689522556E+00 -0.10011403615E+02  0.23175471139E+02  0.00000000000E+00 0. -1.
</event>
<event>
 7    1  0.7383168E-013  0.5930194E+02  0.7816164E-02  0.1266605E+00
        -11   -1    0    0    0    0  0.00000000000E+00  0.00000000000E+00  0.45593999997E+02  0.45594000000E+02  0.51100000000E-03 0.  1.
         11   -1    0    0    0    0 -0.00000000000E+00 -0.00000000000E+00 -0.45593999997E+02  0.45594000000E+02  0.51100000000E-03 0. -1.
    9900012    2    1    2    0    0  0.26154292691E+02  0.50249049619E+00 -0.18232417166E+02  0.59301944136E+02  0.50000000197E+02 0.  0.
        -12    1    1    2    0    0 -0.26154292691E+02 -0.50249049619E+00  0.18232417166E+02  0.31886055864E+02  0.00000000000E+00 0.  1.
         11    1    3    3    0    0  0.35001938524E+00  0.13304276989E+02 -0.26129315276E+01  0.13562953631E+02  0.51100000000E-03 0. -1.
        -11    1    3    3    0    0  0.36828021984E+01  0.19653684317E+01  0.87314300054E+01  0.96779943844E+01  0.51100000000E-03 0.  1.
         12    1    3    3    0    0  0.22121471107E+02 -0.14767154924E+02 -0.24350915644E+02  0.36060996121E+02  0.00000000000E+00 0. -1.
</event>
<event>
 7    1  0.7383168E-013  0.5930194E+02  0.7816164E-02  0.1266605E+00
        -11   -1    0    0    0    0  0.00000000000E+00  0.00000000000E+00  0.45593999997E+02  0.45594000000E+02  0.51100000000E-03 0.  1.
         11   -1    0    0    0    0 -0.00000000000E+00 -0.00000000000E+00 -0.45593999997E+02  0.45594000000E+02  0.51100000000E-03 0. -1.
    9900012    2    1    2    0    0  0.18202572218E+02 -0.23678036581E+02 -0.11168593784E+02  0.59301944446E+02  0.50000000762E+02 0.  0.
        -12    1    1    2    0    0 -0.18202572218E+02  0.23678036581E+02  0.11168593784E+02  0.31886055554E+02  0.00000000000E+00 0.  1.
         11    1    3    3    0    0  0.67982703782E+01 -0.13790765307E+02  0.32597766663E+01  0.15717119077E+02  0.51100000000E-03 0. -1.
        -11    1    3    3    0    0 -0.13394666156E+02 -0.26968514547E+01  0.65955347975E+00  0.13679367684E+02  0.51100000000E-03 0.  1.
         12    1    3    3    0    0  0.24798967995E+02 -0.71904198194E+01 -0.15087923930E+02  0.29905457685E+02  0.00000000000E+00 0. -1.
</event>
<event>
 7    1  0.7383168E-013  0.5930195E+02  0.7816164E-02  0.1266605E+00
        -11   -1    0    0    0    0  0.00000000000E+00  0.00000000000E+00  0.45593999997E+02  0.45594000000E+02  0.51100000000E-03 0. -1.
         11   -1    0    0    0    0 -0.00000000000E+00 -0.00000000000E+00 -0.45593999997E+02  0.45594000000E+02  0.51100000000E-03 0.  1.
    9900012    2    1    2    0    0 -0.12459793956E+02  0.28879604644E+02  0.52385457644E+01  0.59301946755E+02  0.50000004974E+02 0.  0.
        -12    1    1    2    0    0  0.12459793956E+02 -0.28879604644E+02 -0.52385457644E+01  0.31886053245E+02  0.00000000000E+00 0.  1.
         11    1    3    3    0    0 -0.12893602528E+02 -0.26876626082E+00 -0.10172085363E+02  0.16425241013E+02  0.51100000000E-03 0. -1.
        -11    1    3    3    0    0  0.92249588633E-01  0.13205253395E-01 -0.64499495050E+01  0.64506227020E+01  0.51100000000E-03 0.  1.
         12    1    3    3    0    0  0.34155898335E+00  0.29135165652E+02  0.21860580632E+02  0.36426083040E+02  0.00000000000E+00 0. -1.
</event>
<event>
 7    1  0.7383168E-013  0.5930197E+02  0.7816164E-02  0.1266605E+00
        -11   -1    0    0    0    0  0.00000000000E+00  0.00000000000E+00  0.45593999997E+02  0.45594000000E+02  0.51100000000E-03 0. -1.
         11   -1    0    0    0    0 -0.00000000000E+00 -0.00000000000E+00 -0.45593999997E+02  0.45594000000E+02  0.51100000000E-03 0.  1.
    9900012    2    1    2    0    0  0.20916652076E+01  0.65436655470E+01  0.31137186034E+02  0.59301968948E+02  0.50000045448E+02 0.  0.
        -12    1    1    2    0    0 -0.20916652076E+01 -0.65436655470E+01 -0.31137186034E+02  0.31886031052E+02  0.00000000000E+00 0.  1.
         11    1    3    3    0    0  0.19960702653E+02  0.67185742150E+01  0.14565464642E+02  0.25607062510E+02  0.51100000000E-03 0. -1.
        -11    1    3    3    0    0  0.23000612350E+01 -0.31500584293E+01 -0.33859453304E+01  0.51650533235E+01  0.51100000000E-03 0.  1.
         12    1    3    3    0    0 -0.20169098681E+02  0.29751497613E+01  0.19957666723E+02  0.28529853114E+02  0.00000000000E+00 0. -1.
</event>
<event>
 7    1  0.7383168E-013  0.5930194E+02  0.7816164E-02  0.1266605E+00
        -11   -1    0    0    0    0  0.00000000000E+00  0.00000000000E+00  0.45593999997E+02  0.45594000000E+02  0.51100000000E-03 0. -1.
         11   -1    0    0    0    0 -0.00000000000E+00 -0.00000000000E+00 -0.45593999997E+02  0.45594000000E+02  0.51100000000E-03 0.  1.
    9900012    2    1    2    0    0 -0.97752940490E+01 -0.23093617601E+02  0.19693882635E+02  0.59301944099E+02  0.50000000131E+02 0.  0.
        -12    1    1    2    0    0  0.97752940490E+01  0.23093617601E+02 -0.19693882635E+02  0.31886055901E+02  0.00000000000E+00 0.  1.
         11    1    3    3    0    0 -0.18072281877E+02  0.79175880348E+01  0.31648723685E+01  0.19982792345E+02  0.51100000000E-03 0. -1.
        -11    1    3    3    0    0 -0.43482568082E+01 -0.46640588422E+01  0.20041846712E+01  0.66841258674E+01  0.51100000000E-03 0.  1.
         12    1    3    3    0    0  0.12645244636E+02 -0.26347146794E+02  0.14524825596E+02  0.32635025887E+02  0.00000000000E+00 0. -1.
</event>
<event>
 7    1  0.7383168E-013  0.5930195E+02  0.7816164E-02  0.1266605E+00
        -11   -1    0    0    0    0  0.00000000000E+00  0.00000000000E+00  0.45593999997E+02  0.45594000000E+02  0.51100000000E-03 0. -1.
         11   -1    0    0    0    0 -0.00000000000E+00 -0.00000000000E+00 -0.45593999997E+02  0.45594000000E+02  0.51100000000E-03 0.  1.
    9900012    2    1    2    0    0 -0.24109144785E+02  0.13228825939E+02 -0.16138997009E+02  0.59301954111E+02  0.50000018390E+02 0.  0.
        -12    1    1    2    0    0  0.24109144785E+02 -0.13228825939E+02  0.16138997009E+02  0.31886045889E+02  0.00000000000E+00 0.  1.
         11    1    3    3    0    0  0.15907045386E+01  0.77206073642E+01 -0.11993289215E+02  0.14351902503E+02  0.51100000000E-03 0. -1.
        -11    1    3    3    0    0  0.70014109062E+01 -0.52304003488E+01 -0.58034883203E+01  0.10490820722E+02  0.51100000000E-03 0.  1.
         12    1    3    3    0    0 -0.32701260229E+02  0.10738618924E+02  0.16577805257E+01  0.34459230886E+02  0.00000000000E+00 0. -1.
</event>
<event>
 7    1  0.7383168E-013  0.5930196E+02  0.7816164E-02  0.1266605E+00
        -11   -1    0    0    0    0  0.00000000000E+00  0.00000000000E+00  0.45593999997E+02  0.45594000000E+02  0.51100000000E-03 0.  1.
         11   -1    0    0    0    0 -0.00000000000E+00 -0.00000000000E+00 -0.45593999997E+02  0.45594000000E+02  0.51100000000E-03 0. -1.
    9900012    2    1    2    0    0  0.48034665044E+01 -0.23162210753E+02 -0.21381259603E+02  0.59301959800E+02  0.50000028764E+02 0.  0.
        -12    1    1    2    0    0 -0.48034665044E+01  0.23162210753E+02  0.21381259603E+02  0.31886040200E+02  0.00000000000E+00 0.  1.
         11    1    3    3    0    0 -0.21257212674E+01 -0.10572267262E+01 -0.18389885755E+02  0.18542500306E+02  0.51100000000E-03 0. -1.
        -11    1    3    3    0    0 -0.66278675095E+01  0.61189016789E+01  0.14455859146E+01  0.91356064044E+01  0.51100000000E-03 0.  1.
        -12    1    3    3    0    0  0.13557055281E+02 -0.28223885706E+02 -0.44369597622E+01  0.31623853089E+02  0.00000000000E+00 0.  1.
</event>
<event>
 7    1  0.7383168E-013  0.5930194E+02  0.7816164E-02  0.1266605E+00
        -11   -1    0    0    0    0  0.00000000000E+00  0.00000000000E+00  0.45593999997E+02  0.45594000000E+02  0.51100000000E-03 0. -1.
         11   -1    0    0    0    0 -0.00000000000E+00 -0.00000000000E+00 -0.45593999997E+02  0.45594000000E+02  0.51100000000E-03 0.  1.
    9900012    2    1    2    0    0 -0.29315075442E+02 -0.12517469295E+02 -0.81263275220E+00  0.59301936309E+02  0.49999985923E+02 0.  0.
        -12    1    1    2    0    0  0.29315075442E+02  0.12517469295E+02  0.81263275220E+00  0.31886063691E+02  0.00000000000E+00 0.  1.
         11    1    3    3    0    0 -0.99451503976E+01  0.12327668552E+02 -0.56652346835E+01  0.16821780900E+02  0.51100000000E-03 0. -1.
        -11    1    3    3    0    0 -0.68681540844E+01  0.13996106917E+01 -0.80510467471E+01  0.10674727378E+02  0.51100000000E-03 0.  1.
         12    1    3    3    0    0 -0.12501770960E+02 -0.26244748539E+02  0.12903648678E+02  0.31805428031E+02  0.00000000000E+00 0. -1.
</event>
<event>
 7    1  0.7383168E-013  0.5930188E+02  0.7816164E-02  0.1266605E+00
        -11   -1    0    0    0    0  0.00000000000E+00  0.00000000000E+00  0.45593999997E+02  0.45594000000E+02  0.51100000000E-03 0.  1.
         11   -1    0    0    0    0 -0.00000000000E+00 -0.00000000000E+00 -0.45593999997E+02  0.45594000000E+02  0.51100000000E-03 0. -1.
    9900012    2    1    2    0    0 -0.26389978046E+02 -0.14404022283E+02 -0.10621572596E+02  0.59301880706E+02  0.49999884517E+02 0.  0.
        -12    1    1    2    0    0  0.26389978046E+02  0.14404022283E+02  0.10621572596E+02  0.31886119294E+02  0.00000000000E+00 0.  1.
         11    1    3    3    0    0  0.78370085066E+01 -0.68763293636E+01 -0.27463850310E+01  0.10781708531E+02  0.51100000000E-03 0.  1.
        -11    1    3    3    0    0 -0.26233834303E+02 -0.10367429457E+02 -0.19381665552E+02  0.34224941426E+02  0.51100000000E-03 0. -1.
         12    1    3    3    0    0 -0.79931522502E+01  0.28397365381E+01  0.11506477987E+02  0.14295230749E+02  0.00000000000E+00 0. -1.
</event>
<event>
 7    1  0.7383168E-013  0.5930193E+02  0.7816164E-02  0.1266605E+00
        -11   -1    0    0    0    0  0.00000000000E+00  0.00000000000E+00  0.45593999997E+02  0.45594000000E+02  0.51100000000E-03 0.  1.
         11   -1    0    0    0    0 -0.00000000000E+00 -0.00000000000E+00 -0.45593999997E+02  0.45594000000E+02  0.51100000000E-03 0. -1.
    9900012    2    1    2    0    0  0.25366806471E+01  0.20158884465E+02 -0.24574497255E+02  0.59301932715E+02  0.49999979368E+02 0.  0.
        -12    1    1    2    0    0 -0.25366806471E+01 -0.20158884465E+02  0.24574497255E+02  0.31886067285E+02  0.00000000000E+00 0.  1.
         11    1    3    3    0    0 -0.40895511345E+01 -0.56448766418E+01 -0.15350901411E+01  0.71376160436E+01  0.51100000000E-03 0. -1.
        -11    1    3    3    0    0  0.25146295789E+01  0.11198810099E+02  0.10371609196E+02  0.15469550321E+02  0.51100000000E-03 0.  1.
         12    1    3    3    0    0  0.41116022027E+01  0.14604951008E+02 -0.33411016310E+02  0.36694766350E+02  0.00000000000E+00 0. -1.
</event>
<event>
 7    1  0.7383168E-013  0.5930194E+02  0.7816164E-02  0.1266605E+00
        -11   -1    0    0    0    0  0.00000000000E+00  0.00000000000E+00  0.45593999997E+02  0.45594000000E+02  0.51100000000E-03 0.  1.
         11   -1    0    0    0    0 -0.00000000000E+00 -0.00000000000E+00 -0.45593999997E+02  0.45594000000E+02  0.51100000000E-03 0. -1.
    9900012    2    1    2    0    0 -0.29107564981E+02  0.12127263530E+02 -0.47328630634E+01  0.59301939525E+02  0.49999991787E+02 0.  0.
        -12    1    1    2    0    0  0.29107564981E+02 -0.12127263530E+02  0.47328630634E+01  0.31886060475E+02  0.00000000000E+00 0.  1.
         11    1    3    3    0    0 -0.80689877868E+01 -0.72192606442E+01  0.61991696080E+00  0.10844841421E+02  0.51100000000E-03 0. -1.
        -11    1    3    3    0    0 -0.95144739918E+01  0.25390025951E+02  0.94815946194E+01  0.28724193111E+02  0.51100000000E-03 0.  1.
         12    1    3    3    0    0 -0.11524103203E+02 -0.60435017769E+01 -0.14834374644E+02  0.19732904992E+02  0.00000000000E+00 0. -1.
</event>
<event>
 7    1  0.7383168E-013  0.5930193E+02  0.7816164E-02  0.1266605E+00
        -11   -1    0    0    0    0  0.00000000000E+00  0.00000000000E+00  0.45593999997E+02  0.45594000000E+02  0.51100000000E-03 0. -1.
         11   -1    0    0    0    0 -0.00000000000E+00 -0.00000000000E+00 -0.45593999997E+02  0.45594000000E+02  0.51100000000E-03 0.  1.
    9900012    2    1    2    0    0  0.88925434065E+01  0.36110299842E+01  0.30407315269E+02  0.59301926431E+02  0.49999967908E+02 0.  0.
        -12    1    1    2    0    0 -0.88925434065E+01 -0.36110299842E+01 -0.30407315269E+02  0.31886073569E+02  0.00000000000E+00 0.  1.
         11    1    3    3    0    0  0.93245763925E+01 -0.13019902504E+01 -0.39461439667E+01  0.10208572671E+02  0.51100000000E-03 0. -1.
        -11    1    3    3    0    0  0.59529005263E+01 -0.17937478697E+01 -0.54249499876E+01  0.82513416318E+01  0.51100000000E-03 0.  1.
         12    1    3    3    0    0 -0.63849335122E+01  0.67067681044E+01  0.39778409223E+02  0.40842012128E+02  0.00000000000E+00 0. -1.
</event>
<event>
 7    1  0.7383168E-013  0.5930218E+02  0.7816164E-02  0.1266604E+00
        -11   -1    0    0    0    0  0.00000000000E+00  0.00000000000E+00  0.45593999997E+02  0.45594000000E+02  0.51100000000E-03 0. -1.
         11   -1    0    0    0    0 -0.00000000000E+00 -0.00000000000E+00 -0.45593999997E+02  0.45594000000E+02  0.51100000000E-03 0.  1.
    9900012    2    1    2    0    0 -0.83369418716E+01 -0.28946998868E+02  0.10453341178E+02  0.59302177367E+02  0.50000425552E+02 0.  0.
        -12    1    1    2    0    0  0.83369418716E+01  0.28946998868E+02 -0.10453341178E+02  0.31885822633E+02  0.00000000000E+00 0.  1.
         11    1    3    3    0    0  0.53359761997E+01  0.38439855880E+01  0.91539200066E+01  0.11271340601E+02  0.51100000000E-03 0. -1.
        -11    1    3    3    0    0 -0.20984968058E+02 -0.86301329632E+01 -0.76786636708E+00  0.22703253035E+02  0.51100000000E-03 0.  1.
         12    1    3    3    0    0  0.73120499865E+01 -0.24160851493E+02  0.20672875383E+01  0.25327583730E+02  0.00000000000E+00 0. -1.
</event>
<event>
 7    1  0.7383168E-013  0.5930200E+02  0.7816164E-02  0.1266605E+00
        -11   -1    0    0    0    0  0.00000000000E+00  0.00000000000E+00  0.45593999997E+02  0.45594000000E+02  0.51100000000E-03 0. -1.
         11   -1    0    0    0    0 -0.00000000000E+00 -0.00000000000E+00 -0.45593999997E+02  0.45594000000E+02  0.51100000000E-03 0.  1.
    9900012    2    1    2    0    0 -0.17917312797E+02  0.81584216160E+01  0.25082408716E+02  0.59301997301E+02  0.50000097157E+02 0.  0.
        -12    1    1    2    0    0  0.17917312797E+02 -0.81584216160E+01 -0.25082408716E+02  0.31886002699E+02  0.00000000000E+00 0.  1.
         11    1    3    3    0    0 -0.50365530403E+01  0.66222890615E+01  0.53354672918E+01  0.98837639806E+01  0.51100000000E-03 0. -1.
        -11    1    3    3    0    0 -0.14348483996E+01  0.20140965922E+02  0.33400977603E+00  0.20194773111E+02  0.51100000000E-03 0.  1.
        -12    1    3    3    0    0 -0.11445911357E+02 -0.18604833368E+02  0.19412931648E+02  0.29223460209E+02  0.00000000000E+00 0.  1.
</event>
<event>
 7    1  0.7383168E-013  0.5930196E+02  0.7816164E-02  0.1266605E+00
        -11   -1    0    0    0    0  0.00000000000E+00  0.00000000000E+00  0.45593999997E+02  0.45594000000E+02  0.51100000000E-03 0.  1.
         11   -1    0    0    0    0 -0.00000000000E+00 -0.00000000000E+00 -0.45593999997E+02  0.45594000000E+02  0.51100000000E-03 0. -1.
    9900012    2    1    2    0    0 -0.28977360726E+02 -0.42846827195E+01  0.12596575830E+02  0.59301958174E+02  0.50000025800E+02 0.  0.
        -12    1    1    2    0    0  0.28977360726E+02  0.42846827195E+01 -0.12596575830E+02  0.31886041826E+02  0.00000000000E+00 0.  1.
         11    1    3    3    0    0  0.90268242847E+01 -0.64877446972E+01  0.53952998529E+01  0.12356522516E+02  0.51100000000E-03 0. -1.
        -11    1    3    3    0    0 -0.17710308954E+02 -0.10806222168E+02 -0.26284655631E+01  0.20912635230E+02  0.51100000000E-03 0.  1.
        -12    1    3    3    0    0 -0.20293876057E+02  0.13009284146E+02  0.98297415401E+01  0.26032800428E+02  0.00000000000E+00 0.  1.
</event>
<event>
 7    1  0.7383168E-013  0.5930194E+02  0.7816164E-02  0.1266605E+00
        -11   -1    0    0    0    0  0.00000000000E+00  0.00000000000E+00  0.45593999997E+02  0.45594000000E+02  0.51100000000E-03 0.  1.
         11   -1    0    0    0    0 -0.00000000000E+00 -0.00000000000E+00 -0.45593999997E+02  0.45594000000E+02  0.51100000000E-03 0. -1.
    9900012    2    1    2    0    0 -0.15206374754E+02 -0.67957450414E-01 -0.28026459623E+02  0.59301938933E+02  0.49999990708E+02 0.  0.
        -12    1    1    2    0    0  0.15206374754E+02  0.67957450414E-01  0.28026459623E+02  0.31886061067E+02  0.00000000000E+00 0.  1.
         11    1    3    3    0    0 -0.22126352000E+01 -0.50851449432E+01 -0.21232811226E+02  0.21945084335E+02  0.51100000000E-03 0. -1.
        -11    1    3    3    0    0 -0.11979081016E+02 -0.31408622766E+01 -0.18976405467E+02  0.22659818237E+02  0.51100000000E-03 0.  1.
        -12    1    3    3    0    0 -0.10146585378E+01  0.81580497695E+01  0.12182757070E+02  0.14697036361E+02  0.00000000000E+00 0.  1.
</event>
<event>
 7    1  0.7383168E-013  0.5930194E+02  0.7816164E-02  0.1266605E+00
        -11   -1    0    0    0    0  0.00000000000E+00  0.00000000000E+00  0.45593999997E+02  0.45594000000E+02  0.51100000000E-03 0.  1.
         11   -1    0    0    0    0 -0.00000000000E+00 -0.00000000000E+00 -0.45593999997E+02  0.45594000000E+02  0.51100000000E-03 0. -1.
    9900012    2    1    2    0    0 -0.21355759711E+02 -0.14219262919E+02 -0.18933173984E+02  0.59301937403E+02  0.49999987918E+02 0.  0.
        -12    1    1    2    0    0  0.21355759711E+02  0.14219262919E+02  0.18933173984E+02  0.31886062597E+02  0.00000000000E+00 0.  1.
         11    1    3    3    0    0 -0.51193728008E+01  0.59039531935E+01 -0.11956514438E+02  0.14283657758E+02  0.51100000000E-03 0. -1.
        -11    1    3    3    0    0  0.38892131489E+01  0.57597840988E+01 -0.99061407379E+01  0.12100938656E+02  0.51100000000E-03 0.  1.
        -12    1    3    3    0    0 -0.20125600060E+02 -0.25883000211E+02  0.29294811917E+01  0.32917340989E+02  0.00000000000E+00 0.  1.
</event>
<event>
 7    1  0.7383168E-013  0.5930195E+02  0.7816164E-02  0.1266605E+00
        -11   -1    0    0    0    0  0.00000000000E+00  0.00000000000E+00  0.45593999997E+02  0.45594000000E+02  0.51100000000E-03 0.  1.
         11   -1    0    0    0    0 -0.00000000000E+00 -0.00000000000E+00 -0.45593999997E+02  0.45594000000E+02  0.51100000000E-03 0. -1.
    9900012    2    1    2    0    0  0.26946324456E+02 -0.77720479285E+01 -0.15172713458E+02  0.59301947181E+02  0.50000005752E+02 0.  0.
        -12    1    1    2    0    0 -0.26946324456E+02  0.77720479285E+01  0.15172713458E+02  0.31886052819E+02  0.00000000000E+00 0.  1.
         11    1    3    3    0    0  0.89302554585E+00 -0.45792075392E+01 -0.39711495684E+01  0.61267173485E+01  0.51100000000E-03 0. -1.
        -11    1    3    3    0    0  0.34409385254E+02 -0.10865354825E+02 -0.17603720077E+02  0.40149130624E+02  0.51100000000E-03 0.  1.
        -12    1    3    3    0    0 -0.83560863441E+01  0.76725144358E+01  0.64021561875E+01  0.13026099209E+02  0.00000000000E+00 0.  1.
</event>
<event>
 7    1  0.7383168E-013  0.5930196E+02  0.7816164E-02  0.1266605E+00
        -11   -1    0    0    0    0  0.00000000000E+00  0.00000000000E+00  0.45593999997E+02  0.45594000000E+02  0.51100000000E-03 0. -1.
         11   -1    0    0    0    0 -0.00000000000E+00 -0.00000000000E+00 -0.45593999997E+02  0.45594000000E+02  0.51100000000E-03 0.  1.
    9900012    2    1    2    0    0  0.20763074223E+02  0.22734151143E+02  0.82929191207E+01  0.59301962508E+02  0.50000033704E+02 0.  0.
        -12    1    1    2    0    0 -0.20763074223E+02 -0.22734151143E+02 -0.82929191207E+01  0.31886037492E+02  0.00000000000E+00 0.  1.
         11    1    3    3    0    0 -0.51372593481E+00  0.50300557869E+01 -0.24940844637E+00  0.50623690491E+01  0.51100000000E-03 0. -1.
        -11    1    3    3    0    0  0.98473770675E+01  0.32198330827E+02 -0.52434911282E+00  0.33674594064E+02  0.51100000000E-03 0.  1.
        -12    1    3    3    0    0  0.11429423091E+02 -0.14494235471E+02  0.90666766799E+01  0.20564999395E+02  0.00000000000E+00 0.  1.
</event>
<event>
 7    1  0.7383168E-013  0.5930195E+02  0.7816164E-02  0.1266605E+00
        -11   -1    0    0    0    0  0.00000000000E+00  0.00000000000E+00  0.45593999997E+02  0.45594000000E+02  0.51100000000E-03 0.  1.
         11   -1    0    0    0    0 -0.00000000000E+00 -0.00000000000E+00 -0.45593999997E+02  0.45594000000E+02  0.51100000000E-03 0. -1.
    9900012    2    1    2    0    0 -0.25612225817E+02 -0.17977871041E+02 -0.61262051204E+01  0.59301947443E+02  0.50000006229E+02 0.  0.
        -12    1    1    2    0    0  0.25612225817E+02  0.17977871041E+02  0.61262051204E+01  0.31886052557E+02  0.00000000000E+00 0.  1.
         11    1    3    3    0    0 -0.90115828979E+01  0.40185163518E+00 -0.21067848891E+02  0.22917774067E+02  0.51100000000E-03 0. -1.
        -11    1    3    3    0    0 -0.52407524997E+01  0.49575493188E+01  0.35191895532E+01  0.80266728714E+01  0.51100000000E-03 0.  1.
        -12    1    3    3    0    0 -0.11359890419E+02 -0.23337271995E+02  0.11422454217E+02  0.28357500504E+02  0.00000000000E+00 0.  1.
</event>
<event>
 7    1  0.7974537E-013  0.5930194E+02  0.7816164E-02  0.1266605E+00
        -11   -1    0    0    0    0  0.00000000000E+00  0.00000000000E+00  0.45593999997E+02  0.45594000000E+02  0.51100000000E-03 0. -1.
         11   -1    0    0    0    0 -0.00000000000E+00 -0.00000000000E+00 -0.45593999997E+02  0.45594000000E+02  0.51100000000E-03 0.  1.
    9900012    2    1    2    0    0 -0.30391705661E+02 -0.59846387548E+01  0.75663293239E+01  0.59301937003E+02  0.49999987188E+02 0.  0.
        -12    1    1    2    0    0  0.30391705661E+02  0.59846387548E+01 -0.75663293239E+01  0.31886062997E+02  0.00000000000E+00 0.  1.
         11    1    3    3    0    0 -0.28106776627E+02 -0.67557194573E+01  0.16381429560E+01  0.28953655216E+02  0.51100000000E-03 0. -1.
        -11    1    3    3    0    0 -0.66393083499E+01 -0.12474939290E+02  0.80200442761E+01  0.16248865686E+02  0.51100000000E-03 0.  1.
        -12    1    3    3    0    0  0.43543793161E+01  0.13246019992E+02 -0.20918579082E+01  0.14099416100E+02  0.00000000000E+00 0.  1.
</event>
<event>
 7    1  0.7383168E-013  0.5930195E+02  0.7816164E-02  0.1266605E+00
        -11   -1    0    0    0    0  0.00000000000E+00  0.00000000000E+00  0.45593999997E+02  0.45594000000E+02  0.51100000000E-03 0.  1.
         11   -1    0    0    0    0 -0.00000000000E+00 -0.00000000000E+00 -0.45593999997E+02  0.45594000000E+02  0.51100000000E-03 0. -1.
    9900012    2    1    2    0    0  0.10309412738E+02  0.10158520767E+02 -0.28411979746E+02  0.59301950884E+02  0.50000012504E+02 0.  0.
        -12    1    1    2    0    0 -0.10309412738E+02 -0.10158520767E+02  0.28411979746E+02  0.31886049116E+02  0.00000000000E+00 0.  1.
         11    1    3    3    0    0 -0.10241034492E+01  0.18311138874E+02 -0.22589610077E+01  0.18478352195E+02  0.51100000000E-03 0. -1.
        -11    1    3    3    0    0  0.23918466363E+01  0.81675371534E+01  0.25867761142E+00  0.85144881145E+01  0.51100000000E-03 0.  1.
        -12    1    3    3    0    0  0.89416695514E+01 -0.16320155260E+02 -0.26411696349E+02  0.32309110575E+02  0.00000000000E+00 0.  1.
</event>
<event>
 7    1  0.7383168E-013  0.5930195E+02  0.7816164E-02  0.1266605E+00
        -11   -1    0    0    0    0  0.00000000000E+00  0.00000000000E+00  0.45593999997E+02  0.45594000000E+02  0.51100000000E-03 0. -1.
         11   -1    0    0    0    0 -0.00000000000E+00 -0.00000000000E+00 -0.45593999997E+02  0.45594000000E+02  0.51100000000E-03 0.  1.
    9900012    2    1    2    0    0 -0.77639274928E+01  0.79760993468E+01  0.29880150386E+02  0.59301951045E+02  0.50000012798E+02 0.  0.
        -12    1    1    2    0    0  0.77639274928E+01 -0.79760993468E+01 -0.29880150386E+02  0.31886048955E+02  0.00000000000E+00 0.  1.
         11    1    3    3    0    0  0.47196929905E+01  0.18899203319E+01  0.10961016539E+02  0.12082681184E+02  0.51100000000E-03 0. -1.
        -11    1    3    3    0    0  0.10991338447E+02  0.11531790316E+02 -0.98866405839E+00  0.15961490082E+02  0.51100000000E-03 0.  1.
         12    1    3    3    0    0 -0.23474958931E+02 -0.54456113012E+01  0.19907797905E+02  0.31257779778E+02  0.00000000000E+00 0. -1.
</event>
<event>
 7    1  0.7383168E-013  0.5930195E+02  0.7816164E-02  0.1266605E+00
        -11   -1    0    0    0    0  0.00000000000E+00  0.00000000000E+00  0.45593999997E+02  0.45594000000E+02  0.51100000000E-03 0.  1.
         11   -1    0    0    0    0 -0.00000000000E+00 -0.00000000000E+00 -0.45593999997E+02  0.45594000000E+02  0.51100000000E-03 0. -1.
    9900012    2    1    2    0    0 -0.15821032342E+02 -0.26694466874E+02 -0.73362540513E+01  0.59301948982E+02  0.50000009035E+02 0.  0.
        -12    1    1    2    0    0  0.15821032342E+02  0.26694466874E+02  0.73362540513E+01  0.31886051018E+02  0.00000000000E+00 0.  1.
         11    1    3    3    0    0 -0.86467753690E+01 -0.16772860471E+02 -0.10300052383E+02  0.21498526741E+02  0.51100000000E-03 0. -1.
        -11    1    3    3    0    0 -0.73500679437E+01  0.10937725291E+02 -0.67345785110E+01  0.14799050013E+02  0.51100000000E-03 0.  1.
         12    1    3    3    0    0  0.17581097080E+00 -0.20859331694E+02  0.96983768430E+01  0.23004372228E+02  0.00000000000E+00 0. -1.
</event>
<event>
 7    1  0.7383168E-013  0.5930194E+02  0.7816164E-02  0.1266605E+00
        -11   -1    0    0    0    0  0.00000000000E+00  0.00000000000E+00  0.45593999997E+02  0.45594000000E+02  0.51100000000E-03 0. -1.
         11   -1    0    0    0    0 -0.00000000000E+00 -0.00000000000E+00 -0.45593999997E+02  0.45594000000E+02  0.51100000000E-03 0.  1.
    9900012    2    1    2    0    0 -0.27198974169E+02  0.11333507084E+02  0.12185567093E+02  0.59301943109E+02  0.49999998325E+02 0.  0.
        -12    1    1    2    0    0  0.27198974169E+02 -0.11333507084E+02 -0.12185567093E+02  0.31886056891E+02  0.00000000000E+00 0.  1.
         11    1    3    3    0    0 -0.12707711013E+02 -0.10268617245E+02  0.46119526618E+01  0.16976469802E+02  0.51100000000E-03 0. -1.
        -11    1    3    3    0    0  0.15991379801E+01  0.22093034374E+01 -0.10800218659E+02  0.11139254342E+02  0.51100000000E-03 0.  1.
         12    1    3    3    0    0 -0.16090401136E+02  0.19392820892E+02  0.18373833091E+02  0.31186218965E+02  0.00000000000E+00 0. -1.
</event>
<event>
 7    1  0.7383168E-013  0.5930196E+02  0.7816164E-02  0.1266605E+00
        -11   -1    0    0    0    0  0.00000000000E+00  0.00000000000E+00  0.45593999997E+02  0.45594000000E+02  0.51100000000E-03 0.  1.
         11   -1    0    0    0    0 -0.00000000000E+00 -0.00000000000E+00 -0.45593999997E+02  0.45594000000E+02  0.51100000000E-03 0. -1.
    9900012    2    1    2    0    0  0.31430802411E+01 -0.24153232302E+02 -0.20578186926E+02  0.59301962912E+02  0.50000034441E+02 0.  0.
        -12    1    1    2    0    0 -0.31430802411E+01  0.24153232302E+02  0.20578186926E+02  0.31886037088E+02  0.00000000000E+00 0.  1.
         11    1    3    3    0    0 -0.14655609448E+02 -0.88917840314E+01 -0.33471588502E+01  0.17465800417E+02  0.51100000000E-03 0. -1.
        -11    1    3    3    0    0  0.75021819985E+01 -0.23380796962E+02 -0.80958049068E+01  0.25855105079E+02  0.51100000000E-03 0.  1.
        -12    1    3    3    0    0  0.10296507691E+02  0.81193486917E+01 -0.91352231686E+01  0.15981057416E+02  0.00000000000E+00 0.  1.
</event>
<event>
 7    1  0.7383168E-013  0.5930191E+02  0.7816164E-02  0.1266605E+00
        -11   -1    0    0    0    0  0.00000000000E+00  0.00000000000E+00  0.45593999997E+02  0.45594000000E+02  0.51100000000E-03 0. -1.
         11   -1    0    0    0    0 -0.00000000000E+00 -0.00000000000E+00 -0.45593999997E+02  0.45594000000E+02  0.51100000000E-03 0.  1.
    9900012    2    1    2    0    0  0.21037661617E+02  0.12294566891E+01  0.23929651331E+02  0.59301906120E+02  0.49999930866E+02 0.  0.
        -12    1    1    2    0    0 -0.21037661617E+02 -0.12294566891E+01 -0.23929651331E+02  0.31886093880E+02  0.00000000000E+00 0.  1.
         11    1    3    3    0    0  0.36661080537E+01 -0.59767322392E+01 -0.30591130573E+01  0.76498267613E+01  0.51100000000E-03 0. -1.
        -11    1    3    3    0    0 -0.77433277521E+01 -0.10583485934E+02  0.10047843663E+02  0.16520546654E+02  0.51100000000E-03 0.  1.
         12    1    3    3    0    0  0.25114881315E+02  0.17789674862E+02  0.16940920725E+02  0.35131532705E+02  0.00000000000E+00 0. -1.
</event>
<event>
 7    1  0.7383168E-013  0.5930200E+02  0.7816164E-02  0.1266605E+00
        -11   -1    0    0    0    0  0.00000000000E+00  0.00000000000E+00  0.45593999997E+02  0.45594000000E+02  0.51100000000E-03 0.  1.
         11   -1    0    0    0    0 -0.00000000000E+00 -0.00000000000E+00 -0.45593999997E+02  0.45594000000E+02  0.51100000000E-03 0. -1.
    9900012    2    1    2    0    0 -0.86541315840E+01 -0.28462960195E+02  0.11475307721E+02  0.59302003327E+02  0.50000108148E+02 0.  0.
        -12    1    1    2    0    0  0.86541315840E+01  0.28462960195E+02 -0.11475307721E+02  0.31885996673E+02  0.00000000000E+00 0.  1.
         11    1    3    3    0    0 -0.20609529512E+01  0.23554114139E+01 -0.97969120014E+01  0.10284696156E+02  0.51100000000E-03 0. -1.
        -11    1    3    3    0    0  0.66744222316E+00  0.22643074663E+01  0.14227986574E+02  0.14422488330E+02  0.51100000000E-03 0.  1.
        -12    1    3    3    0    0 -0.72606208560E+01 -0.33082679075E+02  0.70442331486E+01  0.34594818841E+02  0.00000000000E+00 0.  1.
</event>
<event>
 7    1  0.7383168E-013  0.5930195E+02  0.7816164E-02  0.1266605E+00
        -11   -1    0    0    0    0  0.00000000000E+00  0.00000000000E+00  0.45593999997E+02  0.45594000000E+02  0.51100000000E-03 0. -1.
         11   -1    0    0    0    0 -0.00000000000E+00 -0.00000000000E+00 -0.45593999997E+02  0.45594000000E+02  0.51100000000E-03 0.  1.
    9900012    2    1    2    0    0  0.30164297615E+02  0.56244345205E+01  0.86718434307E+01  0.59301953165E+02  0.50000016664E+02 0.  0.
        -12    1    1    2    0    0 -0.30164297615E+02 -0.56244345205E+01 -0.86718434307E+01  0.31886046835E+02  0.00000000000E+00 0.  1.
         11    1    3    3    0    0  0.29459950362E+01 -0.38676009935E+00 -0.43478321197E+01  0.52661289891E+01  0.51100000000E-03 0. -1.
        -11    1    3    3    0    0 -0.20948409912E+01 -0.84128459942E+01 -0.10620634957E+02  0.13709931570E+02  0.51100000000E-03 0.  1.
         12    1    3    3    0    0  0.29313143570E+02  0.14424040614E+02  0.23640310507E+02  0.40325892606E+02  0.00000000000E+00 0. -1.
</event>
<event>
 7    1  0.7383168E-013  0.5930202E+02  0.7816164E-02  0.1266604E+00
        -11   -1    0    0    0    0  0.00000000000E+00  0.00000000000E+00  0.45593999997E+02  0.45594000000E+02  0.51100000000E-03 0.  1.
         11   -1    0    0    0    0 -0.00000000000E+00 -0.00000000000E+00 -0.45593999997E+02  0.45594000000E+02  0.51100000000E-03 0. -1.
    9900012    2    1    2    0    0 -0.89891862386E+00  0.10568130502E+02 -0.30070286698E+02  0.59302022218E+02  0.50000142600E+02 0.  0.
        -12    1    1    2    0    0  0.89891862386E+00 -0.10568130502E+02  0.30070286698E+02  0.31885977782E+02  0.00000000000E+00 0.  1.
         11    1    3    3    0    0 -0.30717901048E+01  0.22537851634E+01  0.49639466173E+01  0.62574921727E+01  0.51100000000E-03 0. -1.
        -11    1    3    3    0    0 -0.16367843251E+02 -0.41778644466E+01 -0.10683563369E+02  0.19987480345E+02  0.51100000000E-03 0.  1.
         12    1    3    3    0    0  0.18540714732E+02  0.12492209786E+02 -0.24350669946E+02  0.33057049701E+02  0.00000000000E+00 0. -1.
</event>
<event>
 7    1  0.7383168E-013  0.5930189E+02  0.7816164E-02  0.1266605E+00
        -11   -1    0    0    0    0  0.00000000000E+00  0.00000000000E+00  0.45593999997E+02  0.45594000000E+02  0.51100000000E-03 0.  1.
         11   -1    0    0    0    0 -0.00000000000E+00 -0.00000000000E+00 -0.45593999997E+02  0.45594000000E+02  0.51100000000E-03 0. -1.
    9900012    2    1    2    0    0  0.29403562661E+02  0.11776405473E+02  0.36702657282E+01  0.59301889018E+02  0.49999899676E+02 0.  0.
        -12    1    1    2    0    0 -0.29403562661E+02 -0.11776405473E+02 -0.36702657282E+01  0.31886110982E+02  0.00000000000E+00 0.  1.
         11    1    3    3    0    0  0.27077926230E+02  0.69320867013E+01  0.11530339369E+02  0.30236015630E+02  0.51100000000E-03 0. -1.
        -11    1    3    3    0    0  0.36965611334E+01  0.13198487368E+02  0.41959973502E+01  0.14334260603E+02  0.51100000000E-03 0.  1.
         12    1    3    3    0    0 -0.13709247029E+01 -0.83541685968E+01 -0.12056070991E+02  0.14731612784E+02  0.00000000000E+00 0. -1.
</event>
<event>
 7    1  0.7383168E-013  0.5930194E+02  0.7816164E-02  0.1266605E+00
        -11   -1    0    0    0    0  0.00000000000E+00  0.00000000000E+00  0.45593999997E+02  0.45594000000E+02  0.51100000000E-03 0.  1.
         11   -1    0    0    0    0 -0.00000000000E+00 -0.00000000000E+00 -0.45593999997E+02  0.45594000000E+02  0.51100000000E-03 0. -1.
    9900012    2    1    2    0    0  0.29018571525E+02  0.13113941290E+02 -0.16332820298E+01  0.59301944118E+02  0.50000000165E+02 0.  0.
        -12    1    1    2    0    0 -0.29018571525E+02 -0.13113941290E+02  0.16332820298E+01  0.31886055882E+02  0.00000000000E+00 0.  1.
         11    1    3    3    0    0  0.41839717371E+01 -0.49403216958E+01  0.60465669057E+01  0.88585196032E+01  0.51100000000E-03 0. -1.
        -11    1    3    3    0    0 -0.98770864653E+01 -0.15199736958E+00 -0.52128498469E+01  0.11169321556E+02  0.51100000000E-03 0.  1.
         12    1    3    3    0    0  0.34711686254E+02  0.18206260355E+02 -0.24669990886E+01  0.39274102958E+02  0.00000000000E+00 0. -1.
</event>
<event>
 7    1  0.7383168E-013  0.5930194E+02  0.7816164E-02  0.1266605E+00
        -11   -1    0    0    0    0  0.00000000000E+00  0.00000000000E+00  0.45593999997E+02  0.45594000000E+02  0.51100000000E-03 0.  1.
         11   -1    0    0    0    0 -0.00000000000E+00 -0.00000000000E+00 -0.45593999997E+02  0.45594000000E+02  0.51100000000E-03 0. -1.
    9900012    2    1    2    0    0 -0.90653073522E+01 -0.26949377669E+02 -0.14431635348E+02  0.59301939520E+02  0.49999991779E+02 0.  0.
        -12    1    1    2    0    0  0.90653073522E+01  0.26949377669E+02  0.14431635348E+02  0.31886060480E+02  0.00000000000E+00 0.  1.
         11    1    3    3    0    0 -0.91522032112E+01  0.37554628303E+01 -0.45164483772E+00  0.99030453907E+01  0.51100000000E-03 0. -1.
        -11    1    3    3    0    0 -0.89448986650E+01  0.14122570113E+01  0.56652131920E+01  0.10681775263E+02  0.51100000000E-03 0.  1.
        -12    1    3    3    0    0  0.90317945240E+01 -0.32117097510E+02 -0.19645203702E+02  0.38717118866E+02  0.00000000000E+00 0.  1.
</event>
<event>
 7    1  0.7383168E-013  0.5930194E+02  0.7816164E-02  0.1266605E+00
        -11   -1    0    0    0    0  0.00000000000E+00  0.00000000000E+00  0.45593999997E+02  0.45594000000E+02  0.51100000000E-03 0. -1.
         11   -1    0    0    0    0 -0.00000000000E+00 -0.00000000000E+00 -0.45593999997E+02  0.45594000000E+02  0.51100000000E-03 0.  1.
    9900012    2    1    2    0    0 -0.76365659649E+01  0.23577912937E+02  0.20062054300E+02  0.59301935004E+02  0.49999983543E+02 0.  0.
        -12    1    1    2    0    0  0.76365659649E+01 -0.23577912937E+02 -0.20062054300E+02  0.31886064996E+02  0.00000000000E+00 0.  1.
         11    1    3    3    0    0  0.95649472434E+01  0.16232911312E+02 -0.19245085416E+01  0.18939360043E+02  0.51100000000E-03 0. -1.
        -11    1    3    3    0    0  0.35659437889E+01 -0.46599185778E+01  0.13834736013E+02  0.15027665057E+02  0.51100000000E-03 0.  1.
        -12    1    3    3    0    0 -0.20767456997E+02  0.12004920202E+02  0.81518268284E+01  0.25334909904E+02  0.00000000000E+00 0.  1.
</event>
<event>
 7    1  0.7383168E-013  0.5930199E+02  0.7816164E-02  0.1266605E+00
        -11   -1    0    0    0    0  0.00000000000E+00  0.00000000000E+00  0.45593999997E+02  0.45594000000E+02  0.51100000000E-03 0.  1.
         11   -1    0    0    0    0 -0.00000000000E+00 -0.00000000000E+00 -0.45593999997E+02  0.45594000000E+02  0.51100000000E-03 0. -1.
    9900012    2    1    2    0    0  0.14527154653E+02 -0.24877568335E+02  0.13666968594E+02  0.59301989602E+02  0.50000083116E+02 0.  0.
        -12    1    1    2    0    0 -0.14527154653E+02  0.24877568335E+02 -0.13666968594E+02  0.31886010398E+02  0.00000000000E+00 0.  1.
         11    1    3    3    0    0 -0.30635814116E+01  0.39655470786E+01  0.46823707039E+01  0.68582570940E+01  0.51100000000E-03 0.  1.
        -11    1    3    3    0    0  0.13119817479E+02 -0.10414136722E+02  0.23291018935E+02  0.28688942428E+02  0.51100000000E-03 0. -1.
         12    1    3    3    0    0  0.44709185859E+01 -0.18428978692E+02 -0.14306421045E+02  0.23754790080E+02  0.00000000000E+00 0. -1.
</event>
<event>
 7    1  0.7383168E-013  0.5930196E+02  0.7816164E-02  0.1266605E+00
        -11   -1    0    0    0    0  0.00000000000E+00  0.00000000000E+00  0.45593999997E+02  0.45594000000E+02  0.51100000000E-03 0.  1.
         11   -1    0    0    0    0 -0.00000000000E+00 -0.00000000000E+00 -0.45593999997E+02  0.45594000000E+02  0.51100000000E-03 0. -1.
    9900012    2    1    2    0    0 -0.17986483619E+02 -0.65486623143E+00 -0.26320663974E+02  0.59301956112E+02  0.50000022040E+02 0.  0.
        -12    1    1    2    0    0  0.17986483619E+02  0.65486623143E+00  0.26320663974E+02  0.31886043888E+02  0.00000000000E+00 0.  1.
         11    1    3    3    0    0  0.77682733587E+01  0.52066171146E+01 -0.34924167104E+01  0.99825802022E+01  0.51100000000E-03 0. -1.
        -11    1    3    3    0    0 -0.16358915032E+02  0.14111322458E+02 -0.10219660122E+02  0.23899476475E+02  0.51100000000E-03 0.  1.
         12    1    3    3    0    0 -0.93958419457E+01 -0.19972805804E+02 -0.12608587142E+02  0.25419899435E+02  0.00000000000E+00 0. -1.
</event>
<event>
 7    1  0.7383168E-013  0.5930195E+02  0.7816164E-02  0.1266605E+00
        -11   -1    0    0    0    0  0.00000000000E+00  0.00000000000E+00  0.45593999997E+02  0.45594000000E+02  0.51100000000E-03 0.  1.
         11   -1    0    0    0    0 -0.00000000000E+00 -0.00000000000E+00 -0.45593999997E+02  0.45594000000E+02  0.51100000000E-03 0. -1.
    9900012    2    1    2    0    0 -0.12204571531E+02  0.27161246440E+02 -0.11403289195E+02  0.59301954794E+02  0.50000019636E+02 0.  0.
        -12    1    1    2    0    0  0.12204571531E+02 -0.27161246440E+02  0.11403289195E+02  0.31886045206E+02  0.00000000000E+00 0.  1.
         11    1    3    3    0    0  0.76065120299E+01 -0.46872496125E+00 -0.62390529725E+01  0.98490867904E+01  0.51100000000E-03 0. -1.
        -11    1    3    3    0    0 -0.12071094043E+02  0.22102534633E+01  0.12522272231E+02  0.17532935688E+02  0.51100000000E-03 0.  1.
         12    1    3    3    0    0 -0.77399895180E+01  0.25419717937E+02 -0.17686508453E+02  0.31919932315E+02  0.00000000000E+00 0. -1.
</event>
<event>
 7    1  0.7383168E-013  0.5930194E+02  0.7816164E-02  0.1266605E+00
        -11   -1    0    0    0    0  0.00000000000E+00  0.00000000000E+00  0.45593999997E+02  0.45594000000E+02  0.51100000000E-03 0. -1.
         11   -1    0    0    0    0 -0.00000000000E+00 -0.00000000000E+00 -0.45593999997E+02  0.45594000000E+02  0.51100000000E-03 0.  1.
    9900012    2    1    2    0    0 -0.77231168835E+01  0.29150314370E+02  0.10360174634E+02  0.59301943789E+02  0.49999999564E+02 0.  0.
        -12    1    1    2    0    0  0.77231168835E+01 -0.29150314370E+02 -0.10360174634E+02  0.31886056211E+02  0.00000000000E+00 0.  1.
         11    1    3    3    0    0  0.86079058486E+01  0.27528135446E+02 -0.49211659428E+01  0.29259394367E+02  0.51100000000E-03 0. -1.
        -11    1    3    3    0    0  0.36623319550E+01  0.43084144781E+01  0.26841303281E+01  0.62593663052E+01  0.51100000000E-03 0.  1.
        -12    1    3    3    0    0 -0.19993354687E+02 -0.26862355539E+01  0.12597210249E+02  0.23783183116E+02  0.00000000000E+00 0.  1.
</event>
<event>
 7    1  0.7383168E-013  0.5930195E+02  0.7816164E-02  0.1266605E+00
        -11   -1    0    0    0    0  0.00000000000E+00  0.00000000000E+00  0.45593999997E+02  0.45594000000E+02  0.51100000000E-03 0.  1.
         11   -1    0    0    0    0 -0.00000000000E+00 -0.00000000000E+00 -0.45593999997E+02  0.45594000000E+02  0.51100000000E-03 0. -1.
    9900012    2    1    2    0    0 -0.19023786666E+02  0.93604749128E+01 -0.23815904354E+02  0.59301948976E+02  0.50000009024E+02 0.  0.
        -12    1    1    2    0    0  0.19023786666E+02 -0.93604749128E+01  0.23815904354E+02  0.31886051024E+02  0.00000000000E+00 0.  1.
         11    1    3    3    0    0  0.55330842041E+01 -0.16287088248E+01 -0.41114156169E+01  0.70831809155E+01  0.51100000000E-03 0.  1.
        -11    1    3    3    0    0 -0.35806972684E+02  0.79675467116E+01 -0.15693934748E+02  0.39898880705E+02  0.51100000000E-03 0. -1.
         12    1    3    3    0    0  0.11250101814E+02  0.30216370260E+01 -0.40105539892E+01  0.12319887355E+02  0.00000000000E+00 0. -1.
</event>
<event>
 7    1  0.7383168E-013  0.5930229E+02  0.7816164E-02  0.1266604E+00
        -11   -1    0    0    0    0  0.00000000000E+00  0.00000000000E+00  0.45593999997E+02  0.45594000000E+02  0.51100000000E-03 0. -1.
         11   -1    0    0    0    0 -0.00000000000E+00 -0.00000000000E+00 -0.45593999997E+02  0.45594000000E+02  0.51100000000E-03 0.  1.
    9900012    2    1    2    0    0 -0.74428789748E+01  0.39395486894E+01  0.30753572289E+02  0.59302286901E+02  0.50000625314E+02 0.  0.
        -12    1    1    2    0    0  0.74428789748E+01 -0.39395486894E+01 -0.30753572289E+02  0.31885713099E+02  0.00000000000E+00 0.  1.
         11    1    3    3    0    0  0.22786337612E+01  0.50939167703E+01 -0.38492154522E+01  0.67791311935E+01  0.51100000000E-03 0. -1.
        -11    1    3    3    0    0 -0.23746460335E+01 -0.62615749882E+00 -0.84732147226E+01  0.88219263766E+01  0.51100000000E-03 0.  1.
         12    1    3    3    0    0 -0.73468667025E+01 -0.52821058204E+00  0.43076002464E+02  0.43701229331E+02  0.00000000000E+00 0. -1.
</event>
<event>
 7    1  0.7383168E-013  0.5930197E+02  0.7816164E-02  0.1266605E+00
        -11   -1    0    0    0    0  0.00000000000E+00  0.00000000000E+00  0.45593999997E+02  0.45594000000E+02  0.51100000000E-03 0.  1.
         11   -1    0    0    0    0 -0.00000000000E+00 -0.00000000000E+00 -0.45593999997E+02  0.45594000000E+02  0.51100000000E-03 0. -1.
    9900012    2    1    2    0    0 -0.73023220286E+01 -0.25414946534E+02 -0.17817833418E+02  0.59301974816E+02  0.50000056150E+02 0.  0.
        -12    1    1    2    0    0  0.73023220286E+01  0.25414946534E+02  0.17817833418E+02  0.31886025184E+02  0.00000000000E+00 0.  1.
         11    1    3    3    0    0 -0.39925138731E+01  0.35189111904E+01 -0.70736070916E+01  0.88520517700E+01  0.51100000000E-03 0. -1.
        -11    1    3    3    0    0 -0.13799500978E+02  0.42730886871E+01 -0.24619565529E+01  0.14654239813E+02  0.51100000000E-03 0.  1.
        -12    1    3    3    0    0  0.10489692823E+02 -0.33206946412E+02 -0.82822697733E+01  0.35795683233E+02  0.00000000000E+00 0.  1.
</event>
<event>
 7    1  0.7383168E-013  0.5930191E+02  0.7816164E-02  0.1266605E+00
        -11   -1    0    0    0    0  0.00000000000E+00  0.00000000000E+00  0.45593999997E+02  0.45594000000E+02  0.51100000000E-03 0.  1.
         11   -1    0    0    0    0 -0.00000000000E+00 -0.00000000000E+00 -0.45593999997E+02  0.45594000000E+02  0.51100000000E-03 0. -1.
    9900012    2    1    2    0    0 -0.25874196764E+02 -0.50182487435E+01 -0.17946197134E+02  0.59301907887E+02  0.49999934089E+02 0.  0.
        -12    1    1    2    0    0  0.25874196764E+02  0.50182487435E+01  0.17946197134E+02  0.31886092113E+02  0.00000000000E+00 0.  1.
         11    1    3    3    0    0  0.35068237176E+01  0.43094884768E+01 -0.38060959681E+01  0.67346767032E+01  0.51100000000E-03 0. -1.
        -11    1    3    3    0    0  0.44930804561E+01 -0.10200011718E+02 -0.14979879312E+02  0.18671496873E+02  0.51100000000E-03 0.  1.
         12    1    3    3    0    0 -0.33874100938E+02  0.87227449787E+00  0.83977814534E+00  0.33895734311E+02  0.00000000000E+00 0. -1.
</event>
<event>
 7    1  0.7383168E-013  0.5930191E+02  0.7816164E-02  0.1266605E+00
        -11   -1    0    0    0    0  0.00000000000E+00  0.00000000000E+00  0.45593999997E+02  0.45594000000E+02  0.51100000000E-03 0.  1.
         11   -1    0    0    0    0 -0.00000000000E+00 -0.00000000000E+00 -0.45593999997E+02  0.45594000000E+02  0.51100000000E-03 0. -1.
    9900012    2    1    2    0    0  0.13493374580E+02 -0.38268390687E+01 -0.28635762615E+02  0.59301909688E+02  0.49999937373E+02 0.  0.
        -12    1    1    2    0    0 -0.13493374580E+02  0.38268390687E+01  0.28635762615E+02  0.31886090312E+02  0.00000000000E+00 0.  1.
         11    1    3    3    0    0  0.11230401808E+02 -0.29606067278E+01 -0.24435598601E+02  0.27055232326E+02  0.51100000000E-03 0. -1.
        -11    1    3    3    0    0  0.28328733272E+01 -0.16091768869E+02 -0.47016543920E+01  0.17002227822E+02  0.51100000000E-03 0.  1.
        -12    1    3    3    0    0 -0.56990055478E+00  0.15225536528E+02  0.50149037783E+00  0.15244449541E+02  0.00000000000E+00 0.  1.
</event>
<event>
 7    1  0.7383168E-013  0.5930194E+02  0.7816164E-02  0.1266605E+00
        -11   -1    0    0    0    0  0.00000000000E+00  0.00000000000E+00  0.45593999997E+02  0.45594000000E+02  0.51100000000E-03 0. -1.
         11   -1    0    0    0    0 -0.00000000000E+00 -0.00000000000E+00 -0.45593999997E+02  0.45594000000E+02  0.51100000000E-03 0.  1.
    9900012    2    1    2    0    0  0.30181613676E+02 -0.10276459589E+02 -0.43084111558E+00  0.59301936433E+02  0.49999986149E+02 0.  0.
        -12    1    1    2    0    0 -0.30181613676E+02  0.10276459589E+02  0.43084111558E+00  0.31886063567E+02  0.00000000000E+00 0.  1.
         11    1    3    3    0    0  0.19256144552E+02  0.35448947270E+01 -0.14843005538E+02  0.24569904259E+02  0.51100000000E-03 0. -1.
        -11    1    3    3    0    0 -0.73965482565E+01 -0.68717127885E+00 -0.89621744108E+00  0.74822681347E+01  0.51100000000E-03 0.  1.
         12    1    3    3    0    0  0.18322017380E+02 -0.13134183037E+02  0.15308381863E+02  0.27249764039E+02  0.00000000000E+00 0. -1.
</event>
<event>
 7    1  0.7383168E-013  0.5930194E+02  0.7816164E-02  0.1266605E+00
        -11   -1    0    0    0    0  0.00000000000E+00  0.00000000000E+00  0.45593999997E+02  0.45594000000E+02  0.51100000000E-03 0. -1.
         11   -1    0    0    0    0 -0.00000000000E+00 -0.00000000000E+00 -0.45593999997E+02  0.45594000000E+02  0.51100000000E-03 0.  1.
    9900012    2    1    2    0    0 -0.70822216021E+01 -0.27247545000E+02  0.14971108236E+02  0.59301942653E+02  0.49999997492E+02 0.  0.
        -12    1    1    2    0    0  0.70822216021E+01  0.27247545000E+02 -0.14971108236E+02  0.31886057347E+02  0.00000000000E+00 0.  1.
         11    1    3    3    0    0  0.40969306040E+01  0.61424912389E+00  0.13119112842E+02  0.13757662024E+02  0.51100000000E-03 0. -1.
        -11    1    3    3    0    0 -0.55066960969E+01  0.17428823119E+01  0.12343010806E+02  0.13627591741E+02  0.51100000000E-03 0.  1.
        -12    1    3    3    0    0 -0.56724561093E+01 -0.29604676436E+02 -0.10491015411E+02  0.31916688887E+02  0.00000000000E+00 0.  1.
</event>
<event>
 7    1  0.7383168E-013  0.5930200E+02  0.7816164E-02  0.1266605E+00
        -11   -1    0    0    0    0  0.00000000000E+00  0.00000000000E+00  0.45593999997E+02  0.45594000000E+02  0.51100000000E-03 0. -1.
         11   -1    0    0    0    0 -0.00000000000E+00 -0.00000000000E+00 -0.45593999997E+02  0.45594000000E+02  0.51100000000E-03 0.  1.
    9900012    2    1    2    0    0  0.28359574183E+02 -0.13120268545E+02  0.63490386430E+01  0.59301997017E+02  0.50000096640E+02 0.  0.
        -12    1    1    2    0    0 -0.28359574183E+02  0.13120268545E+02 -0.63490386430E+01  0.31886002983E+02  0.00000000000E+00 0.  1.
         11    1    3    3    0    0  0.41489987961E+01 -0.16370920835E+02  0.99258754834E+00  0.16917637846E+02  0.51100000000E-03 0. -1.
        -11    1    3    3    0    0 -0.95252684907E+00 -0.12376569572E+02  0.11490659408E+01  0.12466239793E+02  0.51100000000E-03 0.  1.
        -12    1    3    3    0    0  0.25163102236E+02  0.15627221862E+02  0.42073851538E+01  0.29918119378E+02  0.00000000000E+00 0.  1.
</event>
<event>
 7    1  0.7383168E-013  0.5930172E+02  0.7816164E-02  0.1266606E+00
        -11   -1    0    0    0    0  0.00000000000E+00  0.00000000000E+00  0.45593999997E+02  0.45594000000E+02  0.51100000000E-03 0.  1.
         11   -1    0    0    0    0 -0.00000000000E+00 -0.00000000000E+00 -0.45593999997E+02  0.45594000000E+02  0.51100000000E-03 0. -1.
    9900012    2    1    2    0    0 -0.31945451846E+01 -0.18211089459E+02 -0.25978562635E+02  0.59301723723E+02  0.49999598215E+02 0.  0.
        -12    1    1    2    0    0  0.31945451846E+01  0.18211089459E+02  0.25978562635E+02  0.31886276277E+02  0.00000000000E+00 0.  1.
         11    1    3    3    0    0  0.50968926371E+01  0.17995663135E+01 -0.14728719943E+01  0.56023303761E+01  0.51100000000E-03 0. -1.
        -11    1    3    3    0    0  0.36900671251E+01  0.11687541308E+02 -0.68051215697E+00  0.12275109542E+02  0.51100000000E-03 0.  1.
         12    1    3    3    0    0 -0.11981504947E+02 -0.31698197080E+02 -0.23825178484E+02  0.41424283805E+02  0.00000000000E+00 0. -1.
</event>
<event>
 7    1  0.7383168E-013  0.5930194E+02  0.7816164E-02  0.1266605E+00
        -11   -1    0    0    0    0  0.00000000000E+00  0.00000000000E+00  0.45593999997E+02  0.45594000000E+02  0.51100000000E-03 0. -1.
         11   -1    0    0    0    0 -0.00000000000E+00 -0.00000000000E+00 -0.45593999997E+02  0.45594000000E+02  0.51100000000E-03 0.  1.
    9900012    2    1    2    0    0  0.20156292209E+02  0.23421932835E+02  0.78649522512E+01  0.59301944627E+02  0.50000001093E+02 0.  0.
        -12    1    1    2    0    0 -0.20156292209E+02 -0.23421932835E+02 -0.78649522512E+01  0.31886055373E+02  0.00000000000E+00 0.  1.
         11    1    3    3    0    0  0.13925561155E+02 -0.28990077033E+01 -0.59269789380E+01  0.15409561277E+02  0.51100000000E-03 0. -1.
        -11    1    3    3    0    0 -0.10291506213E+02  0.70651315701E+01  0.13679942102E+02  0.18519503244E+02  0.51100000000E-03 0.  1.
         12    1    3    3    0    0  0.16522237266E+02  0.19255808968E+02  0.11198908697E+00  0.25372880106E+02  0.00000000000E+00 0. -1.
</event>
<event>
 7    1  0.7383168E-013  0.5930195E+02  0.7816164E-02  0.1266605E+00
        -11   -1    0    0    0    0  0.00000000000E+00  0.00000000000E+00  0.45593999997E+02  0.45594000000E+02  0.51100000000E-03 0.  1.
         11   -1    0    0    0    0 -0.00000000000E+00 -0.00000000000E+00 -0.45593999997E+02  0.45594000000E+02  0.51100000000E-03 0. -1.
    9900012    2    1    2    0    0 -0.10480600831E+02 -0.60826682055E-01 -0.30114343808E+02  0.59301946674E+02  0.50000004827E+02 0.  0.
        -12    1    1    2    0    0  0.10480600831E+02  0.60826682055E-01  0.30114343808E+02  0.31886053326E+02  0.00000000000E+00 0.  1.
         11    1    3    3    0    0 -0.12544868216E+02  0.64040276697E+01 -0.22507894278E+02  0.26551658970E+02  0.51100000000E-03 0. -1.
        -11    1    3    3    0    0 -0.57474921426E+01  0.47565112246E+01 -0.15328532467E+02  0.17047638336E+02  0.51100000000E-03 0.  1.
        -12    1    3    3    0    0  0.78117595274E+01 -0.11221365576E+02  0.77220829372E+01  0.15702649369E+02  0.00000000000E+00 0.  1.
</event>
<event>
 7    1  0.7383168E-013  0.5930193E+02  0.7816164E-02  0.1266605E+00
        -11   -1    0    0    0    0  0.00000000000E+00  0.00000000000E+00  0.45593999997E+02  0.45594000000E+02  0.51100000000E-03 0.  1.
         11   -1    0    0    0    0 -0.00000000000E+00 -0.00000000000E+00 -0.45593999997E+02  0.45594000000E+02  0.51100000000E-03 0. -1.
    9900012    2    1    2    0    0 -0.24198167533E+02 -0.16751860494E+02 -0.12269682890E+02  0.59301933134E+02  0.49999980133E+02 0.  0.
        -12    1    1    2    0    0  0.24198167533E+02  0.16751860494E+02  0.12269682890E+02  0.31886066866E+02  0.00000000000E+00 0.  1.
         11    1    3    3    0    0  0.10954259576E+02  0.16506936387E+01 -0.60198677425E+00  0.11094276934E+02  0.51100000000E-03 0. -1.
        -11    1    3    3    0    0  0.24104548618E+01 -0.79421935567E+00  0.32484709887E+01  0.41223344177E+01  0.51100000000E-03 0.  1.
         12    1    3    3    0    0 -0.37562881971E+02 -0.17608334777E+02 -0.14916167105E+02  0.44085321782E+02  0.00000000000E+00 0. -1.
</event>
<event>
 7    1  0.7383168E-013  0.5930194E+02  0.7816164E-02  0.1266605E+00
        -11   -1    0    0    0    0  0.00000000000E+00  0.00000000000E+00  0.45593999997E+02  0.45594000000E+02  0.51100000000E-03 0.  1.
         11   -1    0    0    0    0 -0.00000000000E+00 -0.00000000000E+00 -0.45593999997E+02  0.45594000000E+02  0.51100000000E-03 0. -1.
    9900012    2    1    2    0    0 -0.13833213123E+02  0.28705033187E+02  0.11765058132E+01  0.59301939072E+02  0.49999990962E+02 0.  0.
        -12    1    1    2    0    0  0.13833213123E+02 -0.28705033187E+02 -0.11765058132E+01  0.31886060928E+02  0.00000000000E+00 0.  1.
         11    1    3    3    0    0 -0.11540628754E+02  0.13591350781E+02 -0.75609654584E+01  0.19366959674E+02  0.51100000000E-03 0. -1.
        -11    1    3    3    0    0 -0.15495726090E+02  0.19529188818E+02  0.70726454408E+01  0.25913877686E+02  0.51100000000E-03 0.  1.
        -12    1    3    3    0    0  0.13203141720E+02 -0.44155064121E+01  0.16648258308E+01  0.14021101712E+02  0.00000000000E+00 0.  1.
</event>
<event>
 7    1  0.7383168E-013  0.5930194E+02  0.7816164E-02  0.1266605E+00
        -11   -1    0    0    0    0  0.00000000000E+00  0.00000000000E+00  0.45593999997E+02  0.45594000000E+02  0.51100000000E-03 0.  1.
         11   -1    0    0    0    0 -0.00000000000E+00 -0.00000000000E+00 -0.45593999997E+02  0.45594000000E+02  0.51100000000E-03 0. -1.
    9900012    2    1    2    0    0  0.12418287975E+01  0.60497100095E+01 -0.31282255602E+02  0.59301942773E+02  0.49999997712E+02 0.  0.
        -12    1    1    2    0    0 -0.12418287975E+01 -0.60497100095E+01  0.31282255602E+02  0.31886057227E+02  0.00000000000E+00 0.  1.
         11    1    3    3    0    0 -0.74486575660E+01  0.11036043375E+02 -0.30649728858E+02  0.33416801646E+02  0.51100000000E-03 0. -1.
        -11    1    3    3    0    0  0.34316594930E+01  0.84410949246E+01  0.50118064088E+01  0.10399354506E+02  0.51100000000E-03 0.  1.
         12    1    3    3    0    0  0.52588268705E+01 -0.13427428290E+02 -0.56443331527E+01  0.15485786621E+02  0.00000000000E+00 0. -1.
</event>
<event>
 7    1  0.7383168E-013  0.5930193E+02  0.7816164E-02  0.1266605E+00
        -11   -1    0    0    0    0  0.00000000000E+00  0.00000000000E+00  0.45593999997E+02  0.45594000000E+02  0.51100000000E-03 0. -1.
         11   -1    0    0    0    0 -0.00000000000E+00 -0.00000000000E+00 -0.45593999997E+02  0.45594000000E+02  0.51100000000E-03 0.  1.
    9900012    2    1    2    0    0 -0.16424581856E+02 -0.15689559597E+02  0.22378384750E+02  0.59301932925E+02  0.49999979750E+02 0.  0.
        -12    1    1    2    0    0  0.16424581856E+02  0.15689559597E+02 -0.22378384750E+02  0.31886067075E+02  0.00000000000E+00 0.  1.
         11    1    3    3    0    0 -0.51101877245E+01  0.37815781175E+01 -0.11906242249E+02  0.13497146231E+02  0.51100000000E-03 0. -1.
        -11    1    3    3    0    0 -0.42649257213E+01  0.17968934770E+00 -0.13738703761E+01  0.44843505373E+01  0.51100000000E-03 0.  1.
         12    1    3    3    0    0 -0.70494684106E+01 -0.19650827062E+02  0.35658497375E+02  0.41320436156E+02  0.00000000000E+00 0. -1.
</event>
<event>
 7    1  0.7383168E-013  0.5930200E+02  0.7816164E-02  0.1266605E+00
        -11   -1    0    0    0    0  0.00000000000E+00  0.00000000000E+00  0.45593999997E+02  0.45594000000E+02  0.51100000000E-03 0. -1.
         11   -1    0    0    0    0 -0.00000000000E+00 -0.00000000000E+00 -0.45593999997E+02  0.45594000000E+02  0.51100000000E-03 0.  1.
    9900012    2    1    2    0    0 -0.62418623311E+01 -0.23949833375E+02 -0.20103766396E+02  0.59302003272E+02  0.50000108047E+02 0.  0.
        -12    1    1    2    0    0  0.62418623311E+01  0.23949833375E+02  0.20103766396E+02  0.31885996728E+02  0.00000000000E+00 0.  1.
         11    1    3    3    0    0  0.20900791677E+00 -0.64034243840E+01 -0.14426980398E+01  0.65672601628E+01  0.51100000000E-03 0. -1.
        -11    1    3    3    0    0  0.22359584222E+01  0.13010882568E+02  0.39056661131E+01  0.13767236589E+02  0.51100000000E-03 0.  1.
         12    1    3    3    0    0 -0.86868286701E+01 -0.30557291559E+02 -0.22566734469E+02  0.38967506520E+02  0.00000000000E+00 0. -1.
</event>
<event>
 7    1  0.7383168E-013  0.5930195E+02  0.7816164E-02  0.1266605E+00
        -11   -1    0    0    0    0  0.00000000000E+00  0.00000000000E+00  0.45593999997E+02  0.45594000000E+02  0.51100000000E-03 0.  1.
         11   -1    0    0    0    0 -0.00000000000E+00 -0.00000000000E+00 -0.45593999997E+02  0.45594000000E+02  0.51100000000E-03 0. -1.
    9900012    2    1    2    0    0  0.23400137167E+01 -0.21851062362E+02 -0.23103586958E+02  0.59301947864E+02  0.50000006996E+02 0.  0.
        -12    1    1    2    0    0 -0.23400137167E+01  0.21851062362E+02  0.23103586958E+02  0.31886052136E+02  0.00000000000E+00 0.  1.
         11    1    3    3    0    0  0.48109582453E+01 -0.19900635426E+02 -0.38869740226E+01  0.20839605968E+02  0.51100000000E-03 0. -1.
        -11    1    3    3    0    0 -0.80047098447E+01 -0.15535731260E+02 -0.53516917637E+01  0.18277716774E+02  0.51100000000E-03 0.  1.
         12    1    3    3    0    0  0.55337653162E+01  0.13585304325E+02 -0.13864921171E+02  0.20184625121E+02  0.00000000000E+00 0. -1.
</event>
<event>
 7    1  0.7383168E-013  0.5930196E+02  0.7816164E-02  0.1266605E+00
        -11   -1    0    0    0    0  0.00000000000E+00  0.00000000000E+00  0.45593999997E+02  0.45594000000E+02  0.51100000000E-03 0.  1.
         11   -1    0    0    0    0 -0.00000000000E+00 -0.00000000000E+00 -0.45593999997E+02  0.45594000000E+02  0.51100000000E-03 0. -1.
    9900012    2    1    2    0    0 -0.15093982284E+02  0.14882331277E+02 -0.23820321987E+02  0.59301955639E+02  0.50000021176E+02 0.  0.
        -12    1    1    2    0    0  0.15093982284E+02 -0.14882331277E+02  0.23820321987E+02  0.31886044361E+02  0.00000000000E+00 0.  1.
         11    1    3    3    0    0 -0.30104436642E+01 -0.15491234247E+01 -0.65327523643E+01  0.73579486376E+01  0.51100000000E-03 0. -1.
        -11    1    3    3    0    0 -0.91813683282E+01 -0.14689386520E+02 -0.30128819594E+01  0.17582748894E+02  0.51100000000E-03 0.  1.
         12    1    3    3    0    0 -0.29021702918E+01  0.31120841222E+02 -0.14274687663E+02  0.34361258107E+02  0.00000000000E+00 0. -1.
</event>
<event>
 7    1  0.7383168E-013  0.5930195E+02  0.7816164E-02  0.1266605E+00
        -11   -1    0    0    0    0  0.00000000000E+00  0.00000000000E+00  0.45593999997E+02  0.45594000000E+02  0.51100000000E-03 0. -1.
         11   -1    0    0    0    0 -0.00000000000E+00 -0.00000000000E+00 -0.45593999997E+02  0.45594000000E+02  0.51100000000E-03 0.  1.
    9900012    2    1    2    0    0 -0.20815154687E+02 -0.11058318289E+02  0.21474711804E+02  0.59301947954E+02  0.50000007160E+02 0.  0.
        -12    1    1    2    0    0  0.20815154687E+02  0.11058318289E+02 -0.21474711804E+02  0.31886052046E+02  0.00000000000E+00 0.  1.
         11    1    3    3    0    0 -0.13421424237E+02 -0.12842117596E+01  0.23280299363E+02  0.26902716723E+02  0.51100000000E-03 0. -1.
        -11    1    3    3    0    0  0.35459322258E+01  0.85415562546E+01  0.43138057432E+01  0.10204936984E+02  0.51100000000E-03 0.  1.
         12    1    3    3    0    0 -0.10939662676E+02 -0.18315662784E+02 -0.61193933023E+01  0.22194294246E+02  0.00000000000E+00 0. -1.
</event>
<event>
 7    1  0.7383168E-013  0.5930192E+02  0.7816164E-02  0.1266605E+00
        -11   -1    0    0    0    0  0.00000000000E+00  0.00000000000E+00  0.45593999997E+02  0.45594000000E+02  0.51100000000E-03 0. -1.
         11   -1    0    0    0    0 -0.00000000000E+00 -0.00000000000E+00 -0.45593999997E+02  0.45594000000E+02  0.51100000000E-03 0.  1.
    9900012    2    1    2    0    0 -0.63335625325E+01  0.31034369569E+02 -0.36709321507E+01  0.59301923857E+02  0.49999963214E+02 0.  0.
        -12    1    1    2    0    0  0.63335625325E+01 -0.31034369569E+02  0.36709321507E+01  0.31886076143E+02  0.00000000000E+00 0.  1.
         11    1    3    3    0    0 -0.44761200636E+01  0.10955315899E+02  0.74059096583E+01  0.13960734056E+02  0.51100000000E-03 0. -1.
        -11    1    3    3    0    0 -0.20412796271E+02  0.10475191717E+02 -0.75377228159E+01  0.24150137860E+02  0.51100000000E-03 0.  1.
         12    1    3    3    0    0  0.18555353802E+02  0.96038619532E+01 -0.35391189931E+01  0.21191051942E+02  0.00000000000E+00 0. -1.
</event>
<event>
 7    1  0.7383168E-013  0.5930194E+02  0.7816164E-02  0.1266605E+00
        -11   -1    0    0    0    0  0.00000000000E+00  0.00000000000E+00  0.45593999997E+02  0.45594000000E+02  0.51100000000E-03 0. -1.
         11   -1    0    0    0    0 -0.00000000000E+00 -0.00000000000E+00 -0.45593999997E+02  0.45594000000E+02  0.51100000000E-03 0.  1.
    9900012    2    1    2    0    0  0.36551535120E+00 -0.30598832841E+02 -0.89609655749E+01  0.59301936011E+02  0.49999985379E+02 0.  0.
        -12    1    1    2    0    0 -0.36551535120E+00  0.30598832841E+02  0.89609655749E+01  0.31886063989E+02  0.00000000000E+00 0.  1.
         11    1    3    3    0    0  0.78993938336E+01 -0.19987924527E+02  0.13040652886E+01  0.21531793617E+02  0.51100000000E-03 0.  1.
        -11    1    3    3    0    0  0.25067588398E+01 -0.34130380081E+01 -0.20988324170E+02  0.21411268530E+02  0.51100000000E-03 0. -1.
         12    1    3    3    0    0 -0.10040637322E+02 -0.71978703058E+01  0.10723293306E+02  0.16358873864E+02  0.00000000000E+00 0. -1.
</event>
<event>
 7    1  0.7383168E-013  0.5930195E+02  0.7816164E-02  0.1266605E+00
        -11   -1    0    0    0    0  0.00000000000E+00  0.00000000000E+00  0.45593999997E+02  0.45594000000E+02  0.51100000000E-03 0.  1.
         11   -1    0    0    0    0 -0.00000000000E+00 -0.00000000000E+00 -0.45593999997E+02  0.45594000000E+02  0.51100000000E-03 0. -1.
    9900012    2    1    2    0    0  0.10802181630E+02  0.18556314039E+02 -0.23573213146E+02  0.59301948242E+02  0.50000007686E+02 0.  0.
        -12    1    1    2    0    0 -0.10802181630E+02 -0.18556314039E+02  0.23573213146E+02  0.31886051758E+02  0.00000000000E+00 0.  1.
         11    1    3    3    0    0  0.80779074321E+01  0.11382986934E+02 -0.61882785914E+01  0.15268260288E+02  0.51100000000E-03 0. -1.
        -11    1    3    3    0    0  0.13340505947E+02 -0.12096347113E+02 -0.45930668801E+01  0.18584589746E+02  0.51100000000E-03 0.  1.
         12    1    3    3    0    0 -0.10616231750E+02  0.19269674218E+02 -0.12791867675E+02  0.25449098208E+02  0.00000000000E+00 0. -1.
</event>
<event>
 7    1  0.7383168E-013  0.5930197E+02  0.7816164E-02  0.1266605E+00
        -11   -1    0    0    0    0  0.00000000000E+00  0.00000000000E+00  0.45593999997E+02  0.45594000000E+02  0.51100000000E-03 0. -1.
         11   -1    0    0    0    0 -0.00000000000E+00 -0.00000000000E+00 -0.45593999997E+02  0.45594000000E+02  0.51100000000E-03 0.  1.
    9900012    2    1    2    0    0 -0.21487052005E+01 -0.54010818757E+00  0.31808961567E+02  0.59301973486E+02  0.50000053724E+02 0.  0.
        -12    1    1    2    0    0  0.21487052005E+01  0.54010818757E+00 -0.31808961567E+02  0.31886026514E+02  0.00000000000E+00 0.  1.
         11    1    3    3    0    0  0.23673458360E+01 -0.86483086442E+01 -0.79282708654E+01  0.11968920080E+02  0.51100000000E-03 0.  1.
        -11    1    3    3    0    0 -0.41162393487E+01 -0.81909342464E+01  0.11269907594E+02  0.14527410218E+02  0.51100000000E-03 0. -1.
         12    1    3    3    0    0 -0.39981168782E+00  0.16299134703E+02  0.28467324839E+02  0.32805643187E+02  0.00000000000E+00 0. -1.
</event>
<event>
 7    1  0.7383168E-013  0.5930195E+02  0.7816164E-02  0.1266605E+00
        -11   -1    0    0    0    0  0.00000000000E+00  0.00000000000E+00  0.45593999997E+02  0.45594000000E+02  0.51100000000E-03 0.  1.
         11   -1    0    0    0    0 -0.00000000000E+00 -0.00000000000E+00 -0.45593999997E+02  0.45594000000E+02  0.51100000000E-03 0. -1.
    9900012    2    1    2    0    0  0.77587712312E+00 -0.23321242334E+02 -0.21731031562E+02  0.59301951921E+02  0.50000014396E+02 0.  0.
        -12    1    1    2    0    0 -0.77587712312E+00  0.23321242334E+02  0.21731031562E+02  0.31886048079E+02  0.00000000000E+00 0.  1.
         11    1    3    3    0    0 -0.40091939370E+01 -0.95710412726E+01  0.94414493495E+01  0.14029234945E+02  0.51100000000E-03 0. -1.
        -11    1    3    3    0    0 -0.10360742158E+02  0.19709538684E+01 -0.67779760353E+01  0.12536769784E+02  0.51100000000E-03 0.  1.
         12    1    3    3    0    0  0.15145813218E+02 -0.15721154930E+02 -0.24394504876E+02  0.32735947192E+02  0.00000000000E+00 0. -1.
</event>
<event>
 7    1  0.7383168E-013  0.5930179E+02  0.7816164E-02  0.1266605E+00
        -11   -1    0    0    0    0  0.00000000000E+00  0.00000000000E+00  0.45593999997E+02  0.45594000000E+02  0.51100000000E-03 0. -1.
         11   -1    0    0    0    0 -0.00000000000E+00 -0.00000000000E+00 -0.45593999997E+02  0.45594000000E+02  0.51100000000E-03 0.  1.
    9900012    2    1    2    0    0  0.20979869679E+02 -0.39941978654E+01  0.23677456205E+02  0.59301788549E+02  0.49999716444E+02 0.  0.
        -12    1    1    2    0    0 -0.20979869679E+02  0.39941978654E+01 -0.23677456205E+02  0.31886211451E+02  0.00000000000E+00 0.  1.
         11    1    3    3    0    0  0.16442318624E+01  0.74494563149E+01  0.28077169732E+01  0.81290327018E+01  0.51100000000E-03 0. -1.
        -11    1    3    3    0    0 -0.66321153636E+01  0.10481978883E+02  0.83565095645E+01  0.14956205664E+02  0.51100000000E-03 0.  1.
        -12    1    3    3    0    0  0.25967753180E+02 -0.21925633064E+02  0.12513229667E+02  0.36216550183E+02  0.00000000000E+00 0.  1.
</event>
<event>
 7    1  0.7383168E-013  0.5930188E+02  0.7816164E-02  0.1266605E+00
        -11   -1    0    0    0    0  0.00000000000E+00  0.00000000000E+00  0.45593999997E+02  0.45594000000E+02  0.51100000000E-03 0.  1.
         11   -1    0    0    0    0 -0.00000000000E+00 -0.00000000000E+00 -0.45593999997E+02  0.45594000000E+02  0.51100000000E-03 0. -1.
    9900012    2    1    2    0    0 -0.27219953174E+02 -0.16354511964E+02 -0.28859978589E+01  0.59301876121E+02  0.49999876155E+02 0.  0.
        -12    1    1    2    0    0  0.27219953174E+02  0.16354511964E+02  0.28859978589E+01  0.31886123879E+02  0.00000000000E+00 0.  1.
         11    1    3    3    0    0 -0.84674391359E+01  0.32639956447E+01 -0.71855581412E+01  0.11575121561E+02  0.51100000000E-03 0. -1.
        -11    1    3    3    0    0 -0.28641151008E+02 -0.47246741255E+01  0.64022003081E+01  0.29725851471E+02  0.51100000000E-03 0.  1.
         12    1    3    3    0    0  0.98886369701E+01 -0.14893833483E+02 -0.21026400258E+01  0.18000903089E+02  0.00000000000E+00 0. -1.
</event>
<event>
 7    1  0.7383168E-013  0.5930177E+02  0.7816164E-02  0.1266605E+00
        -11   -1    0    0    0    0  0.00000000000E+00  0.00000000000E+00  0.45593999997E+02  0.45594000000E+02  0.51100000000E-03 0. -1.
         11   -1    0    0    0    0 -0.00000000000E+00 -0.00000000000E+00 -0.45593999997E+02  0.45594000000E+02  0.51100000000E-03 0.  1.
    9900012    2    1    2    0    0 -0.78088046015E+01 -0.16556544594E+02  0.26108142919E+02  0.59301769039E+02  0.49999680862E+02 0.  0.
        -12    1    1    2    0    0  0.78088046015E+01  0.16556544594E+02 -0.26108142919E+02  0.31886230961E+02  0.00000000000E+00 0.  1.
         11    1    3    3    0    0  0.50948369185E+01  0.54019544360E+00  0.50131761567E+00  0.51478630475E+01  0.51100000000E-03 0. -1.
        -11    1    3    3    0    0  0.28340968666E+01  0.79167103372E+01 -0.64172172904E+01  0.10577669196E+02  0.51100000000E-03 0.  1.
         12    1    3    3    0    0 -0.15737738387E+02 -0.25013450375E+02  0.32024042594E+02  0.43576236795E+02  0.00000000000E+00 0. -1.
</event>
<event>
 7    1  0.7383168E-013  0.5930190E+02  0.7816164E-02  0.1266605E+00
        -11   -1    0    0    0    0  0.00000000000E+00  0.00000000000E+00  0.45593999997E+02  0.45594000000E+02  0.51100000000E-03 0. -1.
         11   -1    0    0    0    0 -0.00000000000E+00 -0.00000000000E+00 -0.45593999997E+02  0.45594000000E+02  0.51100000000E-03 0.  1.
    9900012    2    1    2    0    0 -0.45330872784E+01 -0.18615792796E+02  0.25487770816E+02  0.59301904553E+02  0.49999928008E+02 0.  0.
        -12    1    1    2    0    0  0.45330872784E+01  0.18615792796E+02 -0.25487770816E+02  0.31886095447E+02  0.00000000000E+00 0.  1.
         11    1    3    3    0    0  0.41941304699E+01 -0.24037375868E+02  0.23143055565E+02  0.33630152991E+02  0.51100000000E-03 0. -1.
        -11    1    3    3    0    0  0.52962173347E+01 -0.49743429936E+01  0.37166632755E+01  0.81613474646E+01  0.51100000000E-03 0.  1.
        -12    1    3    3    0    0 -0.14023435083E+02  0.10395926066E+02 -0.13719480252E+01  0.17510404098E+02  0.00000000000E+00 0.  1.
</event>
<event>
 7    1  0.7383168E-013  0.5930192E+02  0.7816164E-02  0.1266605E+00
        -11   -1    0    0    0    0  0.00000000000E+00  0.00000000000E+00  0.45593999997E+02  0.45594000000E+02  0.51100000000E-03 0.  1.
         11   -1    0    0    0    0 -0.00000000000E+00 -0.00000000000E+00 -0.45593999997E+02  0.45594000000E+02  0.51100000000E-03 0. -1.
    9900012    2    1    2    0    0 -0.79155087898E+01 -0.28082989006E+02 -0.12861269589E+02  0.59301924569E+02  0.49999964513E+02 0.  0.
        -12    1    1    2    0    0  0.79155087898E+01  0.28082989006E+02  0.12861269589E+02  0.31886075431E+02  0.00000000000E+00 0.  1.
         11    1    3    3    0    0  0.11953370650E+02 -0.27609129832E+02 -0.19975582809E+01  0.30151904738E+02  0.51100000000E-03 0. -1.
        -11    1    3    3    0    0 -0.46956492137E+01  0.82807768908E+01 -0.33978662686E+01  0.10107714029E+02  0.51100000000E-03 0.  1.
        -12    1    3    3    0    0 -0.15173230226E+02 -0.87546360648E+01 -0.74658450396E+01  0.19042305802E+02  0.00000000000E+00 0.  1.
</event>
<event>
 7    1  0.7383168E-013  0.5930189E+02  0.7816164E-02  0.1266605E+00
        -11   -1    0    0    0    0  0.00000000000E+00  0.00000000000E+00  0.45593999997E+02  0.45594000000E+02  0.51100000000E-03 0.  1.
         11   -1    0    0    0    0 -0.00000000000E+00 -0.00000000000E+00 -0.45593999997E+02  0.45594000000E+02  0.51100000000E-03 0. -1.
    9900012    2    1    2    0    0 -0.15239547721E+02 -0.27987322327E+02  0.10910085876E+01  0.59301885067E+02  0.49999892469E+02 0.  0.
        -12    1    1    2    0    0  0.15239547721E+02  0.27987322327E+02 -0.10910085876E+01  0.31886114933E+02  0.00000000000E+00 0.  1.
         11    1    3    3    0    0  0.51008077345E+01 -0.36652906698E+01 -0.13970377326E+00  0.62826835543E+01  0.51100000000E-03 0.  1.
        -11    1    3    3    0    0  0.27491583864E+01 -0.11774182899E+01  0.16619133526E+02  0.16886082585E+02  0.51100000000E-03 0. -1.
         12    1    3    3    0    0 -0.23089513842E+02 -0.23144613368E+02 -0.15388421165E+02  0.36133118927E+02  0.00000000000E+00 0. -1.
</event>
<event>
 7    1  0.7383168E-013  0.5930192E+02  0.7816164E-02  0.1266605E+00
        -11   -1    0    0    0    0  0.00000000000E+00  0.00000000000E+00  0.45593999997E+02  0.45594000000E+02  0.51100000000E-03 0. -1.
         11   -1    0    0    0    0 -0.00000000000E+00 -0.00000000000E+00 -0.45593999997E+02  0.45594000000E+02  0.51100000000E-03 0.  1.
    9900012    2    1    2    0    0 -0.22708847174E+02  0.22362744616E+02  0.96834869475E+00  0.59301924889E+02  0.49999965096E+02 0.  0.
        -12    1    1    2    0    0  0.22708847174E+02 -0.22362744616E+02 -0.96834869475E+00  0.31886075111E+02  0.00000000000E+00 0.  1.
         11    1    3    3    0    0  0.60533777320E+01  0.31606267195E+00 -0.17427828717E+01  0.63071839974E+01  0.51100000000E-03 0. -1.
        -11    1    3    3    0    0 -0.98145553504E+00 -0.26491574501E+01  0.13894030356E+02  0.14178341579E+02  0.51100000000E-03 0.  1.
         12    1    3    3    0    0 -0.27780769371E+02  0.24695839394E+02 -0.11182898789E+02  0.38816399312E+02  0.00000000000E+00 0. -1.
</event>
<event>
 7    1  0.7383168E-013  0.5930194E+02  0.7816164E-02  0.1266605E+00
        -11   -1    0    0    0    0  0.00000000000E+00  0.00000000000E+00  0.45593999997E+02  0.45594000000E+02  0.51100000000E-03 0. -1.
         11   -1    0    0    0    0 -0.00000000000E+00 -0.00000000000E+00 -0.45593999997E+02  0.45594000000E+02  0.51100000000E-03 0.  1.
    9900012    2    1    2    0    0  0.89011608761E+01  0.12375864038E+02  0.28005861917E+02  0.59301937569E+02  0.49999988221E+02 0.  0.
        -12    1    1    2    0    0 -0.89011608761E+01 -0.12375864038E+02 -0.28005861917E+02  0.31886062431E+02  0.00000000000E+00 0.  1.
         11    1    3    3    0    0  0.79571309129E+01  0.10251118386E+02  0.68979253276E+01  0.14696351065E+02  0.51100000000E-03 0. -1.
        -11    1    3    3    0    0  0.11648014292E+02  0.17060002038E+02  0.13735046160E+02  0.24806680547E+02  0.51100000000E-03 0.  1.
        -12    1    3    3    0    0 -0.10703984329E+02 -0.14935256386E+02  0.73728904297E+01  0.19798905958E+02  0.00000000000E+00 0.  1.
</event>
<event>
 7    1  0.7383168E-013  0.5930193E+02  0.7816164E-02  0.1266605E+00
        -11   -1    0    0    0    0  0.00000000000E+00  0.00000000000E+00  0.45593999997E+02  0.45594000000E+02  0.51100000000E-03 0.  1.
         11   -1    0    0    0    0 -0.00000000000E+00 -0.00000000000E+00 -0.45593999997E+02  0.45594000000E+02  0.51100000000E-03 0. -1.
    9900012    2    1    2    0    0 -0.29177870315E+01 -0.27980933906E+02 -0.15009176534E+02  0.59301929003E+02  0.49999972598E+02 0.  0.
        -12    1    1    2    0    0  0.29177870315E+01  0.27980933906E+02  0.15009176534E+02  0.31886070997E+02  0.00000000000E+00 0.  1.
         11    1    3    3    0    0 -0.65919383571E+01  0.16355664927E+01  0.31056110008E+01  0.74681690531E+01  0.51100000000E-03 0. -1.
        -11    1    3    3    0    0 -0.69287538986E+01 -0.21934985186E+01  0.91849344214E+01  0.11712475696E+02  0.51100000000E-03 0.  1.
         12    1    3    3    0    0  0.10602905224E+02 -0.27423001880E+02 -0.27299721956E+02  0.40121284254E+02  0.00000000000E+00 0. -1.
</event>
<event>
 7    1  0.7383168E-013  0.5930197E+02  0.7816164E-02  0.1266605E+00
        -11   -1    0    0    0    0  0.00000000000E+00  0.00000000000E+00  0.45593999997E+02  0.45594000000E+02  0.51100000000E-03 0.  1.
         11   -1    0    0    0    0 -0.00000000000E+00 -0.00000000000E+00 -0.45593999997E+02  0.45594000000E+02  0.51100000000E-03 0. -1.
    9900012    2    1    2    0    0  0.91117539405E+01  0.19993900639E+02 -0.23107117953E+02  0.59301968219E+02  0.50000044119E+02 0.  0.
        -12    1    1    2    0    0 -0.91117539405E+01 -0.19993900639E+02  0.23107117953E+02  0.31886031781E+02  0.00000000000E+00 0.  1.
         11    1    3    3    0    0 -0.77615433500E+01 -0.21178227848E+01 -0.16455106099E+02  0.18316583893E+02  0.51100000000E-03 0. -1.
        -11    1    3    3    0    0  0.97112617471E+00 -0.49771143556E+01  0.53385768013E+01  0.73630941785E+01  0.51100000000E-03 0.  1.
        -12    1    3    3    0    0  0.15902171116E+02  0.27088837779E+02 -0.11990588656E+02  0.33622290147E+02  0.00000000000E+00 0.  1.
</event>
<event>
 7    1  0.7383168E-013  0.5930194E+02  0.7816164E-02  0.1266605E+00
        -11   -1    0    0    0    0  0.00000000000E+00  0.00000000000E+00  0.45593999997E+02  0.45594000000E+02  0.51100000000E-03 0.  1.
         11   -1    0    0    0    0 -0.00000000000E+00 -0.00000000000E+00 -0.45593999997E+02  0.45594000000E+02  0.51100000000E-03 0. -1.
    9900012    2    1    2    0    0  0.18905317952E+02  0.12494742571E+01 -0.25646607156E+02  0.59301942053E+02  0.49999996398E+02 0.  0.
        -12    1    1    2    0    0 -0.18905317952E+02 -0.12494742571E+01  0.25646607156E+02  0.31886057947E+02  0.00000000000E+00 0.  1.
         11    1    3    3    0    0 -0.65297680412E+01 -0.36186426081E+00 -0.79876397053E+01  0.10323333025E+02  0.51100000000E-03 0. -1.
        -11    1    3    3    0    0 -0.10062312879E+02  0.99494930566E+00 -0.28008469524E+01  0.10492130790E+02  0.51100000000E-03 0.  1.
        -12    1    3    3    0    0  0.35497398873E+02  0.61638921228E+00 -0.14858120499E+02  0.38486478238E+02  0.00000000000E+00 0.  1.
</event>
<event>
 7    1  0.7383168E-013  0.5930196E+02  0.7816164E-02  0.1266605E+00
        -11   -1    0    0    0    0  0.00000000000E+00  0.00000000000E+00  0.45593999997E+02  0.45594000000E+02  0.51100000000E-03 0.  1.
         11   -1    0    0    0    0 -0.00000000000E+00 -0.00000000000E+00 -0.45593999997E+02  0.45594000000E+02  0.51100000000E-03 0. -1.
    9900012    2    1    2    0    0 -0.13896198793E+02 -0.19999188114E+02 -0.20582698756E+02  0.59301963021E+02  0.50000034639E+02 0.  0.
        -12    1    1    2    0    0  0.13896198793E+02  0.19999188114E+02  0.20582698756E+02  0.31886036979E+02  0.00000000000E+00 0.  1.
         11    1    3    3    0    0 -0.10884156925E+02  0.10670809825E+02 -0.86646537540E+01  0.17533033943E+02  0.51100000000E-03 0. -1.
        -11    1    3    3    0    0  0.98634834990E+01 -0.56359701224E+01 -0.44242235079E+00  0.11368738002E+02  0.51100000000E-03 0.  1.
         12    1    3    3    0    0 -0.12875525367E+02 -0.25034027817E+02 -0.11475622652E+02  0.30400191076E+02  0.00000000000E+00 0. -1.
</event>
<event>
 7    1  0.7383168E-013  0.5930193E+02  0.7816164E-02  0.1266605E+00
        -11   -1    0    0    0    0  0.00000000000E+00  0.00000000000E+00  0.45593999997E+02  0.45594000000E+02  0.51100000000E-03 0. -1.
         11   -1    0    0    0    0 -0.00000000000E+00 -0.00000000000E+00 -0.45593999997E+02  0.45594000000E+02  0.51100000000E-03 0.  1.
    9900012    2    1    2    0    0  0.18107858202E+02 -0.24865072746E+02  0.83996986141E+01  0.59301932382E+02  0.49999978761E+02 0.  0.
        -12    1    1    2    0    0 -0.18107858202E+02  0.24865072746E+02 -0.83996986141E+01  0.31886067618E+02  0.00000000000E+00 0.  1.
         11    1    3    3    0    0  0.67211583780E+01 -0.31845119136E+01 -0.49581973379E+01  0.89386132690E+01  0.51100000000E-03 0. -1.
        -11    1    3    3    0    0  0.71457796490E+01 -0.31596252510E+02 -0.99593370787E+00  0.32409523657E+02  0.51100000000E-03 0.  1.
         12    1    3    3    0    0  0.42409201752E+01  0.99156916778E+01  0.14353829660E+02  0.17953795456E+02  0.00000000000E+00 0. -1.
</event>
<event>
 7    1  0.7383168E-013  0.5930195E+02  0.7816164E-02  0.1266605E+00
        -11   -1    0    0    0    0  0.00000000000E+00  0.00000000000E+00  0.45593999997E+02  0.45594000000E+02  0.51100000000E-03 0. -1.
         11   -1    0    0    0    0 -0.00000000000E+00 -0.00000000000E+00 -0.45593999997E+02  0.45594000000E+02  0.51100000000E-03 0.  1.
    9900012    2    1    2    0    0 -0.10047169210E+02  0.17262540978E+02  0.24855166049E+02  0.59301949610E+02  0.50000010181E+02 0.  0.
        -12    1    1    2    0    0  0.10047169210E+02 -0.17262540978E+02 -0.24855166049E+02  0.31886050390E+02  0.00000000000E+00 0.  1.
         11    1    3    3    0    0  0.37800203328E+01  0.11532016273E+02 -0.23227637097E+01  0.12356018151E+02  0.51100000000E-03 0. -1.
        -11    1    3    3    0    0 -0.13877703193E+02  0.15281225967E+02  0.28850171934E+01  0.20842980532E+02  0.51100000000E-03 0.  1.
         12    1    3    3    0    0  0.50513650290E-01 -0.95507012623E+01  0.24292912565E+02  0.26102950927E+02  0.00000000000E+00 0. -1.
</event>
<event>
 7    1  0.7383168E-013  0.5930201E+02  0.7816164E-02  0.1266605E+00
        -11   -1    0    0    0    0  0.00000000000E+00  0.00000000000E+00  0.45593999997E+02  0.45594000000E+02  0.51100000000E-03 0. -1.
         11   -1    0    0    0    0 -0.00000000000E+00 -0.00000000000E+00 -0.45593999997E+02  0.45594000000E+02  0.51100000000E-03 0.  1.
    9900012    2    1    2    0    0  0.29114498669E+02  0.12804420050E+02  0.22602814940E+01  0.59302014395E+02  0.50000128333E+02 0.  0.
        -12    1    1    2    0    0 -0.29114498669E+02 -0.12804420050E+02 -0.22602814940E+01  0.31885985605E+02  0.00000000000E+00 0.  1.
         11    1    3    3    0    0  0.23454210770E+02  0.17769817874E+02 -0.30859285619E+01  0.29586979999E+02  0.51100000000E-03 0. -1.
        -11    1    3    3    0    0  0.13600680435E+02 -0.12167592030E+02  0.52694116613E+01  0.18994617754E+02  0.51100000000E-03 0.  1.
         12    1    3    3    0    0 -0.79403925357E+01  0.72021942057E+01  0.76798394611E-01  0.10720416643E+02  0.00000000000E+00 0. -1.
</event>
<event>
 7    1  0.7383168E-013  0.5930201E+02  0.7816164E-02  0.1266605E+00
        -11   -1    0    0    0    0  0.00000000000E+00  0.00000000000E+00  0.45593999997E+02  0.45594000000E+02  0.51100000000E-03 0.  1.
         11   -1    0    0    0    0 -0.00000000000E+00 -0.00000000000E+00 -0.45593999997E+02  0.45594000000E+02  0.51100000000E-03 0. -1.
    9900012    2    1    2    0    0  0.24176705020E+02 -0.20360047254E+02 -0.42037556461E+01  0.59302013245E+02  0.50000126236E+02 0.  0.
        -12    1    1    2    0    0 -0.24176705020E+02  0.20360047254E+02  0.42037556461E+01  0.31885986755E+02  0.00000000000E+00 0.  1.
         11    1    3    3    0    0 -0.12944537498E+01 -0.88664639796E+01 -0.14191531695E+02  0.16783604086E+02  0.51100000000E-03 0. -1.
        -11    1    3    3    0    0  0.22461370212E+02 -0.56106517957E+01 -0.70850173833E+01  0.24211361732E+02  0.51100000000E-03 0.  1.
        -12    1    3    3    0    0  0.30097885578E+01 -0.58829314785E+01  0.17072793432E+02  0.18307047427E+02  0.00000000000E+00 0.  1.
</event>
<event>
 7    1  0.7383168E-013  0.5930196E+02  0.7816164E-02  0.1266605E+00
        -11   -1    0    0    0    0  0.00000000000E+00  0.00000000000E+00  0.45593999997E+02  0.45594000000E+02  0.51100000000E-03 0.  1.
         11   -1    0    0    0    0 -0.00000000000E+00 -0.00000000000E+00 -0.45593999997E+02  0.45594000000E+02  0.51100000000E-03 0. -1.
    9900012    2    1    2    0    0  0.10094810852E+01 -0.64797427389E+01 -0.31204383907E+02  0.59301957708E+02  0.50000024950E+02 0.  0.
        -12    1    1    2    0    0 -0.10094810852E+01  0.64797427389E+01  0.31204383907E+02  0.31886042292E+02  0.00000000000E+00 0.  1.
         11    1    3    3    0    0 -0.71534642211E+01  0.52245079511E+01  0.65760914693E+01  0.11032339415E+02  0.51100000000E-03 0. -1.
        -11    1    3    3    0    0  0.74724648016E+01  0.38541325568E+01 -0.11757740695E+01  0.84896709536E+01  0.51100000000E-03 0.  1.
         12    1    3    3    0    0  0.69048050471E+00 -0.15558383247E+02 -0.36604701307E+02  0.39779947340E+02  0.00000000000E+00 0. -1.
</event>
<event>
 7    1  0.7383168E-013  0.5930193E+02  0.7816164E-02  0.1266605E+00
        -11   -1    0    0    0    0  0.00000000000E+00  0.00000000000E+00  0.45593999997E+02  0.45594000000E+02  0.51100000000E-03 0.  1.
         11   -1    0    0    0    0 -0.00000000000E+00 -0.00000000000E+00 -0.45593999997E+02  0.45594000000E+02  0.51100000000E-03 0. -1.
    9900012    2    1    2    0    0 -0.29207544992E+02  0.12766825818E+02  0.80543163341E+00  0.59301933356E+02  0.49999980538E+02 0.  0.
        -12    1    1    2    0    0  0.29207544992E+02 -0.12766825818E+02 -0.80543163341E+00  0.31886066644E+02  0.00000000000E+00 0.  1.
         11    1    3    3    0    0  0.89475468789E-01  0.82012295652E+01 -0.93527847999E+01  0.12439564141E+02  0.51100000000E-03 0. -1.
        -11    1    3    3    0    0  0.49376146804E+01  0.36875550626E+01 -0.63469380048E+01  0.88465656257E+01  0.51100000000E-03 0.  1.
        -12    1    3    3    0    0 -0.34234635141E+02  0.87804118986E+00  0.16505154438E+02  0.38015803590E+02  0.00000000000E+00 0.  1.
</event>
<event>
 7    1  0.7383168E-013  0.5930198E+02  0.7816164E-02  0.1266605E+00
        -11   -1    0    0    0    0  0.00000000000E+00  0.00000000000E+00  0.45593999997E+02  0.45594000000E+02  0.51100000000E-03 0. -1.
         11   -1    0    0    0    0 -0.00000000000E+00 -0.00000000000E+00 -0.45593999997E+02  0.45594000000E+02  0.51100000000E-03 0.  1.
    9900012    2    1    2    0    0  0.15657419053E+02  0.26882624277E+02 -0.69919956630E+01  0.59301980136E+02  0.50000065853E+02 0.  0.
        -12    1    1    2    0    0 -0.15657419053E+02 -0.26882624277E+02  0.69919956630E+01  0.31886019864E+02  0.00000000000E+00 0.  1.
         11    1    3    3    0    0  0.42595629731E+01  0.73976975780E+01  0.13066595148E+02  0.15607873500E+02  0.51100000000E-03 0. -1.
        -11    1    3    3    0    0 -0.93016780311E+00 -0.11476595671E+01  0.72014344433E+01  0.73513939444E+01  0.51100000000E-03 0.  1.
        -12    1    3    3    0    0  0.12328023883E+02  0.20632586266E+02 -0.27260025254E+02  0.36342712691E+02  0.00000000000E+00 0.  1.
</event>
<event>
 7    1  0.7383168E-013  0.5930194E+02  0.7816164E-02  0.1266605E+00
        -11   -1    0    0    0    0  0.00000000000E+00  0.00000000000E+00  0.45593999997E+02  0.45594000000E+02  0.51100000000E-03 0.  1.
         11   -1    0    0    0    0 -0.00000000000E+00 -0.00000000000E+00 -0.45593999997E+02  0.45594000000E+02  0.51100000000E-03 0. -1.
    9900012    2    1    2    0    0 -0.17511331391E+02 -0.17948349535E+02 -0.19695963481E+02  0.59301937911E+02  0.49999988845E+02 0.  0.
        -12    1    1    2    0    0  0.17511331391E+02  0.17948349535E+02  0.19695963481E+02  0.31886062089E+02  0.00000000000E+00 0.  1.
         11    1    3    3    0    0 -0.33514517810E+01 -0.11883553638E+02  0.37985958668E+01  0.12918219960E+02  0.51100000000E-03 0. -1.
        -11    1    3    3    0    0  0.50058699905E+01  0.76413140931E+01  0.41726345125E+01  0.10042872819E+02  0.51100000000E-03 0.  1.
         12    1    3    3    0    0 -0.19165749601E+02 -0.13706109989E+02 -0.27667193860E+02  0.36340845132E+02  0.00000000000E+00 0. -1.
</event>
<event>
 7    1  0.7383168E-013  0.5930194E+02  0.7816164E-02  0.1266605E+00
        -11   -1    0    0    0    0  0.00000000000E+00  0.00000000000E+00  0.45593999997E+02  0.45594000000E+02  0.51100000000E-03 0.  1.
         11   -1    0    0    0    0 -0.00000000000E+00 -0.00000000000E+00 -0.45593999997E+02  0.45594000000E+02  0.51100000000E-03 0. -1.
    9900012    2    1    2    0    0 -0.17151684325E+02 -0.80224646754E+01 -0.25655031750E+02  0.59301939272E+02  0.49999991327E+02 0.  0.
        -12    1    1    2    0    0  0.17151684325E+02  0.80224646754E+01  0.25655031750E+02  0.31886060728E+02  0.00000000000E+00 0.  1.
         11    1    3    3    0    0  0.45112729171E+01  0.24303135407E+01 -0.13322446074E+02  0.14273947488E+02  0.51100000000E-03 0.  1.
        -11    1    3    3    0    0 -0.87021414583E+01 -0.10082421398E+02 -0.24088965723E+02  0.27525638178E+02  0.51100000000E-03 0. -1.
         12    1    3    3    0    0 -0.12960815783E+02 -0.37035681807E+00  0.11756380047E+02  0.17502353606E+02  0.00000000000E+00 0. -1.
</event>
<event>
 7    1  0.7383168E-013  0.5930195E+02  0.7816164E-02  0.1266605E+00
        -11   -1    0    0    0    0  0.00000000000E+00  0.00000000000E+00  0.45593999997E+02  0.45594000000E+02  0.51100000000E-03 0.  1.
         11   -1    0    0    0    0 -0.00000000000E+00 -0.00000000000E+00 -0.45593999997E+02  0.45594000000E+02  0.51100000000E-03 0. -1.
    9900012    2    1    2    0    0  0.26537524677E+01 -0.11830281575E+02 -0.29491057729E+02  0.59301945834E+02  0.50000003294E+02 0.  0.
        -12    1    1    2    0    0 -0.26537524677E+01  0.11830281575E+02  0.29491057729E+02  0.31886054166E+02  0.00000000000E+00 0.  1.
         11    1    3    3    0    0  0.57560146560E+01 -0.13790828094E+02 -0.31108188674E+02  0.34511419082E+02  0.51100000000E-03 0.  1.
        -11    1    3    3    0    0 -0.68631161791E+01 -0.10745164904E+01 -0.10018443102E+02  0.12191232580E+02  0.51100000000E-03 0. -1.
        -12    1    3    3    0    0  0.37608539908E+01  0.30350630101E+01  0.11635574047E+02  0.12599294171E+02  0.00000000000E+00 0.  1.
</event>
<event>
 7    1  0.7383168E-013  0.5930195E+02  0.7816164E-02  0.1266605E+00
        -11   -1    0    0    0    0  0.00000000000E+00  0.00000000000E+00  0.45593999997E+02  0.45594000000E+02  0.51100000000E-03 0. -1.
         11   -1    0    0    0    0 -0.00000000000E+00 -0.00000000000E+00 -0.45593999997E+02  0.45594000000E+02  0.51100000000E-03 0.  1.
    9900012    2    1    2    0    0  0.51708598451E+01  0.78569163972E+00  0.31454170002E+02  0.59301954252E+02  0.50000018647E+02 0.  0.
        -12    1    1    2    0    0 -0.51708598451E+01 -0.78569163972E+00 -0.31454170002E+02  0.31886045748E+02  0.00000000000E+00 0.  1.
         11    1    3    3    0    0  0.36273012878E+01  0.34508246815E+01  0.66931962206E+01  0.83584915818E+01  0.51100000000E-03 0. -1.
        -11    1    3    3    0    0  0.15693308866E+02  0.15120267622E+02  0.12325418991E+02  0.25036341380E+02  0.51100000000E-03 0.  1.
         12    1    3    3    0    0 -0.14149750309E+02 -0.17785400664E+02  0.12435554790E+02  0.25907121290E+02  0.00000000000E+00 0. -1.
</event>
<event>
 7    1  0.7383168E-013  0.5930194E+02  0.7816164E-02  0.1266605E+00
        -11   -1    0    0    0    0  0.00000000000E+00  0.00000000000E+00  0.45593999997E+02  0.45594000000E+02  0.51100000000E-03 0.  1.
         11   -1    0    0    0    0 -0.00000000000E+00 -0.00000000000E+00 -0.45593999997E+02  0.45594000000E+02  0.51100000000E-03 0. -1.
    9900012    2    1    2    0    0 -0.63990240687E+01  0.32211523183E+01 -0.31070844132E+02  0.59301942132E+02  0.49999996543E+02 0.  0.
        -12    1    1    2    0    0  0.63990240687E+01 -0.32211523183E+01  0.31070844132E+02  0.31886057868E+02  0.00000000000E+00 0.  1.
         11    1    3    3    0    0  0.23004850851E+01  0.90575957996E+01 -0.70119216224E+01  0.11683292276E+02  0.51100000000E-03 0. -1.
        -11    1    3    3    0    0  0.10677364742E+02  0.30329213402E+00  0.52887532602E+01  0.11919270752E+02  0.51100000000E-03 0.  1.
         12    1    3    3    0    0 -0.19376873896E+02 -0.61397356153E+01 -0.29347675769E+02  0.35699379105E+02  0.00000000000E+00 0. -1.
</event>
<event>
 7    1  0.7383168E-013  0.5930190E+02  0.7816164E-02  0.1266605E+00
        -11   -1    0    0    0    0  0.00000000000E+00  0.00000000000E+00  0.45593999997E+02  0.45594000000E+02  0.51100000000E-03 0.  1.
         11   -1    0    0    0    0 -0.00000000000E+00 -0.00000000000E+00 -0.45593999997E+02  0.45594000000E+02  0.51100000000E-03 0. -1.
    9900012    2    1    2    0    0  0.19224168766E+02  0.22826807699E+02 -0.11229055300E+02  0.59301898053E+02  0.49999916152E+02 0.  0.
        -12    1    1    2    0    0 -0.19224168766E+02 -0.22826807699E+02  0.11229055300E+02  0.31886101947E+02  0.00000000000E+00 0.  1.
         11    1    3    3    0    0  0.13959144008E+02  0.17850632559E+02 -0.15687405290E+02  0.27560795873E+02  0.51100000000E-03 0. -1.
        -11    1    3    3    0    0  0.19218707074E-02  0.16890482846E+02  0.73150825668E+01  0.18406489282E+02  0.51100000000E-03 0.  1.
         12    1    3    3    0    0  0.52631028877E+01 -0.11914307706E+02 -0.28567325767E+01  0.13334612897E+02  0.00000000000E+00 0. -1.
</event>
<event>
 7    1  0.7383168E-013  0.5930198E+02  0.7816164E-02  0.1266605E+00
        -11   -1    0    0    0    0  0.00000000000E+00  0.00000000000E+00  0.45593999997E+02  0.45594000000E+02  0.51100000000E-03 0. -1.
         11   -1    0    0    0    0 -0.00000000000E+00 -0.00000000000E+00 -0.45593999997E+02  0.45594000000E+02  0.51100000000E-03 0.  1.
    9900012    2    1    2    0    0 -0.41171594528E+01  0.13806881670E+02  0.28445336179E+02  0.59301982159E+02  0.50000069543E+02 0.  0.
        -12    1    1    2    0    0  0.41171594528E+01 -0.13806881670E+02 -0.28445336179E+02  0.31886017841E+02  0.00000000000E+00 0.  1.
         11    1    3    3    0    0  0.12232309114E+01  0.10397306078E+02  0.17420036968E+02  0.20323827291E+02  0.51100000000E-03 0. -1.
        -11    1    3    3    0    0  0.10438182976E+02 -0.20263777518E+01  0.17987627909E+02  0.20895373381E+02  0.51100000000E-03 0.  1.
         12    1    3    3    0    0 -0.15778573341E+02  0.54359533438E+01 -0.69623286983E+01  0.18082781488E+02  0.00000000000E+00 0. -1.
</event>
<event>
 7    1  0.7383168E-013  0.5930196E+02  0.7816164E-02  0.1266605E+00
        -11   -1    0    0    0    0  0.00000000000E+00  0.00000000000E+00  0.45593999997E+02  0.45594000000E+02  0.51100000000E-03 0.  1.
         11   -1    0    0    0    0 -0.00000000000E+00 -0.00000000000E+00 -0.45593999997E+02  0.45594000000E+02  0.51100000000E-03 0. -1.
    9900012    2    1    2    0    0 -0.31088819264E+02 -0.70762260678E+01 -0.36339225950E+00  0.59301957403E+02  0.50000024393E+02 0.  0.
        -12    1    1    2    0    0  0.31088819264E+02  0.70762260678E+01  0.36339225950E+00  0.31886042597E+02  0.00000000000E+00 0.  1.
         11    1    3    3    0    0  0.23023225095E+01 -0.26700140711E+00  0.13059348626E+02  0.13263429627E+02  0.51100000000E-03 0. -1.
        -11    1    3    3    0    0 -0.10246280050E+02 -0.15576494291E+02 -0.19094793833E+01  0.18741919353E+02  0.51100000000E-03 0.  1.
         12    1    3    3    0    0 -0.23144861723E+02  0.87672696302E+01 -0.11513261502E+02  0.27296608422E+02  0.00000000000E+00 0. -1.
</event>
<event>
 7    1  0.7383168E-013  0.5930197E+02  0.7816164E-02  0.1266605E+00
        -11   -1    0    0    0    0  0.00000000000E+00  0.00000000000E+00  0.45593999997E+02  0.45594000000E+02  0.51100000000E-03 0.  1.
         11   -1    0    0    0    0 -0.00000000000E+00 -0.00000000000E+00 -0.45593999997E+02  0.45594000000E+02  0.51100000000E-03 0. -1.
    9900012    2    1    2    0    0  0.27089790040E+02  0.16554245273E+02  0.29696629988E+01  0.59301973918E+02  0.50000054513E+02 0.  0.
        -12    1    1    2    0    0 -0.27089790040E+02 -0.16554245273E+02 -0.29696629988E+01  0.31886026082E+02  0.00000000000E+00 0.  1.
         11    1    3    3    0    0  0.12251444236E+02  0.25618382847E+02  0.14647627721E+01  0.28434924930E+02  0.51100000000E-03 0. -1.
        -11    1    3    3    0    0 -0.37121784349E+01  0.99539718097E+00  0.79264880080E+01  0.88091030578E+01  0.51100000000E-03 0.  1.
        -12    1    3    3    0    0  0.18550524239E+02 -0.10059534755E+02 -0.64215877813E+01  0.22057945930E+02  0.00000000000E+00 0.  1.
</event>
<event>
 7    1  0.7383168E-013  0.5930195E+02  0.7816164E-02  0.1266605E+00
        -11   -1    0    0    0    0  0.00000000000E+00  0.00000000000E+00  0.45593999997E+02  0.45594000000E+02  0.51100000000E-03 0.  1.
         11   -1    0    0    0    0 -0.00000000000E+00 -0.00000000000E+00 -0.45593999997E+02  0.45594000000E+02  0.51100000000E-03 0. -1.
    9900012    2    1    2    0    0  0.29209460220E+00  0.19972088019E+01 -0.31822101318E+02  0.59301948276E+02  0.50000007748E+02 0.  0.
        -12    1    1    2    0    0 -0.29209460220E+00 -0.19972088019E+01  0.31822101318E+02  0.31886051724E+02  0.00000000000E+00 0.  1.
         11    1    3    3    0    0  0.16911195680E+02 -0.79326668371E+01 -0.41514297210E+01  0.19135049293E+02  0.51100000000E-03 0. -1.
        -11    1    3    3    0    0  0.22081203243E+01 -0.18782533839E+01  0.16809112580E+01  0.33509840434E+01  0.51100000000E-03 0.  1.
         12    1    3    3    0    0 -0.18827221402E+02  0.11808129023E+02 -0.29351582855E+02  0.36815914939E+02  0.00000000000E+00 0. -1.
</event>
<event>
 7    1  0.7383168E-013  0.5930195E+02  0.7816164E-02  0.1266605E+00
        -11   -1    0    0    0    0  0.00000000000E+00  0.00000000000E+00  0.45593999997E+02  0.45594000000E+02  0.51100000000E-03 0. -1.
         11   -1    0    0    0    0 -0.00000000000E+00 -0.00000000000E+00 -0.45593999997E+02  0.45594000000E+02  0.51100000000E-03 0.  1.
    9900012    2    1    2    0    0 -0.18077519674E+02  0.21954921426E+02  0.14418912442E+02  0.59301947745E+02  0.50000006780E+02 0.  0.
        -12    1    1    2    0    0  0.18077519674E+02 -0.21954921426E+02 -0.14418912442E+02  0.31886052255E+02  0.00000000000E+00 0.  1.
         11    1    3    3    0    0 -0.20085218629E+02 -0.50271206216E+01  0.13660897549E+02  0.24805404073E+02  0.51100000000E-03 0. -1.
        -11    1    3    3    0    0 -0.77281902254E+01  0.28716960074E+01 -0.15628884424E+01  0.83913159077E+01  0.51100000000E-03 0.  1.
        -12    1    3    3    0    0  0.97358891808E+01  0.24110346041E+02  0.23209033352E+01  0.26105227764E+02  0.00000000000E+00 0.  1.
</event>
<event>
 7    1  0.7383168E-013  0.5930193E+02  0.7816164E-02  0.1266605E+00
        -11   -1    0    0    0    0  0.00000000000E+00  0.00000000000E+00  0.45593999997E+02  0.45594000000E+02  0.51100000000E-03 0. -1.
         11   -1    0    0    0    0 -0.00000000000E+00 -0.00000000000E+00 -0.45593999997E+02  0.45594000000E+02  0.51100000000E-03 0.  1.
    9900012    2    1    2    0    0  0.30256052873E+02 -0.98967808675E+01 -0.18293184610E+01  0.59301930737E+02  0.49999975761E+02 0.  0.
        -12    1    1    2    0    0 -0.30256052873E+02  0.98967808675E+01  0.18293184610E+01  0.31886069263E+02  0.00000000000E+00 0.  1.
         11    1    3    3    0    0 -0.52777163480E+01 -0.34526350416E+01 -0.32754785495E+01  0.71065982418E+01  0.51100000000E-03 0. -1.
        -11    1    3    3    0    0 -0.20979812507E+01 -0.35675580834E+01 -0.11557692604E+02  0.12276369765E+02  0.51100000000E-03 0.  1.
        -12    1    3    3    0    0  0.37631750472E+02 -0.28765877425E+01  0.13003852693E+02  0.39918962730E+02  0.00000000000E+00 0.  1.
</event>
<event>
 7    1  0.7383168E-013  0.5930194E+02  0.7816164E-02  0.1266605E+00
        -11   -1    0    0    0    0  0.00000000000E+00  0.00000000000E+00  0.45593999997E+02  0.45594000000E+02  0.51100000000E-03 0.  1.
         11   -1    0    0    0    0 -0.00000000000E+00 -0.00000000000E+00 -0.45593999997E+02  0.45594000000E+02  0.51100000000E-03 0. -1.
    9900012    2    1    2    0    0  0.16638256268E+02  0.26683222759E+02  0.52815408546E+01  0.59301943137E+02  0.49999998376E+02 0.  0.
        -12    1    1    2    0    0 -0.16638256268E+02 -0.26683222759E+02 -0.52815408546E+01  0.31886056863E+02  0.00000000000E+00 0.  1.
         11    1    3    3    0    0  0.21673897502E+02  0.19020173349E+02 -0.80192312327E+01  0.29930467704E+02  0.51100000000E-03 0. -1.
        -11    1    3    3    0    0 -0.33933340914E+00  0.15497380622E+02  0.13002693279E+02  0.20232498265E+02  0.51100000000E-03 0.  1.
         12    1    3    3    0    0 -0.46963078253E+01 -0.78343312106E+01  0.29807880859E+00  0.91389771684E+01  0.00000000000E+00 0. -1.
</event>
<event>
 7    1  0.7383168E-013  0.5930195E+02  0.7816164E-02  0.1266605E+00
        -11   -1    0    0    0    0  0.00000000000E+00  0.00000000000E+00  0.45593999997E+02  0.45594000000E+02  0.51100000000E-03 0. -1.
         11   -1    0    0    0    0 -0.00000000000E+00 -0.00000000000E+00 -0.45593999997E+02  0.45594000000E+02  0.51100000000E-03 0.  1.
    9900012    2    1    2    0    0 -0.22721115571E+02 -0.20336212068E+02 -0.93225222503E+01  0.59301952343E+02  0.50000015165E+02 0.  0.
        -12    1    1    2    0    0  0.22721115571E+02  0.20336212068E+02  0.93225222503E+01  0.31886047657E+02  0.00000000000E+00 0.  1.
         11    1    3    3    0    0 -0.29436486627E+01  0.27469344340E+01 -0.49623255763E+01  0.63902575551E+01  0.51100000000E-03 0. -1.
        -11    1    3    3    0    0 -0.13560814912E+02 -0.24539179408E+02 -0.21038760836E+02  0.35052767150E+02  0.51100000000E-03 0.  1.
         12    1    3    3    0    0 -0.62166519967E+01  0.14560329059E+01  0.16678564162E+02  0.17858927638E+02  0.00000000000E+00 0. -1.
</event>
<event>
 7    1  0.7383168E-013  0.5930195E+02  0.7816164E-02  0.1266605E+00
        -11   -1    0    0    0    0  0.00000000000E+00  0.00000000000E+00  0.45593999997E+02  0.45594000000E+02  0.51100000000E-03 0.  1.
         11   -1    0    0    0    0 -0.00000000000E+00 -0.00000000000E+00 -0.45593999997E+02  0.45594000000E+02  0.51100000000E-03 0. -1.
    9900012    2    1    2    0    0 -0.14619218071E+02 -0.27549093914E+02 -0.66367186908E+01  0.59301950582E+02  0.50000011954E+02 0.  0.
        -12    1    1    2    0    0  0.14619218071E+02  0.27549093914E+02  0.66367186908E+01  0.31886049418E+02  0.00000000000E+00 0.  1.
         11    1    3    3    0    0 -0.96396960478E+01  0.89389662172E+00 -0.15591211808E+02  0.18352347996E+02  0.51100000000E-03 0. -1.
        -11    1    3    3    0    0  0.51887286420E+01  0.67218991550E+00  0.86489770342E+01  0.10108389991E+02  0.51100000000E-03 0.  1.
         12    1    3    3    0    0 -0.10168250665E+02 -0.29115180451E+02  0.30551608308E+00  0.30841212596E+02  0.00000000000E+00 0. -1.
</event>
<event>
 7    1  0.7383168E-013  0.5930191E+02  0.7816164E-02  0.1266605E+00
        -11   -1    0    0    0    0  0.00000000000E+00  0.00000000000E+00  0.45593999997E+02  0.45594000000E+02  0.51100000000E-03 0.  1.
         11   -1    0    0    0    0 -0.00000000000E+00 -0.00000000000E+00 -0.45593999997E+02  0.45594000000E+02  0.51100000000E-03 0. -1.
    9900012    2    1    2    0    0 -0.16136445353E+02 -0.24542133151E+02  0.12410529792E+02  0.59301914980E+02  0.49999947023E+02 0.  0.
        -12    1    1    2    0    0  0.16136445353E+02  0.24542133151E+02 -0.12410529792E+02  0.31886085020E+02  0.00000000000E+00 0.  1.
         11    1    3    3    0    0 -0.82716364340E+01 -0.13759181695E+02  0.23515471452E+01  0.16225437573E+02  0.51100000000E-03 0. -1.
        -11    1    3    3    0    0 -0.60916346730E+01 -0.25640906967E+02  0.97793002378E+01  0.28110475565E+02  0.51100000000E-03 0.  1.
        -12    1    3    3    0    0 -0.17731742457E+01  0.14857955511E+02  0.27968240873E+00  0.14966001842E+02  0.00000000000E+00 0.  1.
</event>
<event>
 7    1  0.7383168E-013  0.5930200E+02  0.7816164E-02  0.1266605E+00
        -11   -1    0    0    0    0  0.00000000000E+00  0.00000000000E+00  0.45593999997E+02  0.45594000000E+02  0.51100000000E-03 0.  1.
         11   -1    0    0    0    0 -0.00000000000E+00 -0.00000000000E+00 -0.45593999997E+02  0.45594000000E+02  0.51100000000E-03 0. -1.
    9900012    2    1    2    0    0 -0.31269761322E+01 -0.19834035238E+02 -0.24769947973E+02  0.59301995921E+02  0.50000094640E+02 0.  0.
        -12    1    1    2    0    0  0.31269761322E+01  0.19834035238E+02  0.24769947973E+02  0.31886004079E+02  0.00000000000E+00 0.  1.
         11    1    3    3    0    0 -0.39217936708E+01  0.41142003538E+01 -0.26546712036E+02  0.27148389092E+02  0.51100000000E-03 0. -1.
        -11    1    3    3    0    0 -0.42747112981E+01  0.25835388678E+01  0.11942410279E+01  0.51355663424E+01  0.51100000000E-03 0.  1.
        -12    1    3    3    0    0  0.50695288367E+01 -0.26531774460E+02  0.58252303493E+00  0.27018040486E+02  0.00000000000E+00 0.  1.
</event>
<event>
 7    1  0.7383168E-013  0.5930192E+02  0.7816164E-02  0.1266605E+00
        -11   -1    0    0    0    0  0.00000000000E+00  0.00000000000E+00  0.45593999997E+02  0.45594000000E+02  0.51100000000E-03 0.  1.
         11   -1    0    0    0    0 -0.00000000000E+00 -0.00000000000E+00 -0.45593999997E+02  0.45594000000E+02  0.51100000000E-03 0. -1.
    9900012    2    1    2    0    0 -0.20895358597E+01 -0.23066103896E+02 -0.21915999215E+02  0.59301916348E+02  0.49999949519E+02 0.  0.
        -12    1    1    2    0    0  0.20895358597E+01  0.23066103896E+02  0.21915999215E+02  0.31886083652E+02  0.00000000000E+00 0.  1.
         11    1    3    3    0    0  0.30667013473E+01 -0.29795816468E+02 -0.11309370442E+02  0.32017139101E+02  0.51100000000E-03 0. -1.
        -11    1    3    3    0    0  0.32618170935E+01  0.35230207098E+01  0.64231746140E+01  0.80192454792E+01  0.51100000000E-03 0.  1.
        -12    1    3    3    0    0 -0.84180543006E+01  0.32066918624E+01 -0.17029803387E+02  0.19265531769E+02  0.00000000000E+00 0.  1.
</event>
<event>
 7    1  0.7383168E-013  0.5930197E+02  0.7816164E-02  0.1266605E+00
        -11   -1    0    0    0    0  0.00000000000E+00  0.00000000000E+00  0.45593999997E+02  0.45594000000E+02  0.51100000000E-03 0.  1.
         11   -1    0    0    0    0 -0.00000000000E+00 -0.00000000000E+00 -0.45593999997E+02  0.45594000000E+02  0.51100000000E-03 0. -1.
    9900012    2    1    2    0    0 -0.17834257637E+01  0.30134348447E+02 -0.10269347526E+02  0.59301967597E+02  0.50000042984E+02 0.  0.
        -12    1    1    2    0    0  0.17834257637E+01 -0.30134348447E+02  0.10269347526E+02  0.31886032403E+02  0.00000000000E+00 0.  1.
         11    1    3    3    0    0 -0.74406880038E+01  0.57242685587E+01 -0.16364507634E+02  0.18866059442E+02  0.51100000000E-03 0. -1.
        -11    1    3    3    0    0  0.13475782584E+02 -0.63896468904E+00  0.41870881762E+01  0.14125745990E+02  0.51100000000E-03 0.  1.
        -12    1    3    3    0    0 -0.78185203438E+01  0.25049044578E+02  0.19080719319E+01  0.26310162165E+02  0.00000000000E+00 0.  1.
</event>
<event>
 7    1  0.7383168E-013  0.5930195E+02  0.7816164E-02  0.1266605E+00
        -11   -1    0    0    0    0  0.00000000000E+00  0.00000000000E+00  0.45593999997E+02  0.45594000000E+02  0.51100000000E-03 0.  1.
         11   -1    0    0    0    0 -0.00000000000E+00 -0.00000000000E+00 -0.45593999997E+02  0.45594000000E+02  0.51100000000E-03 0. -1.
    9900012    2    1    2    0    0 -0.33293483445E+01  0.10581706708E+02 -0.29894201208E+02  0.59301947515E+02  0.50000006359E+02 0.  0.
        -12    1    1    2    0    0  0.33293483445E+01 -0.10581706708E+02  0.29894201208E+02  0.31886052485E+02  0.00000000000E+00 0.  1.
         11    1    3    3    0    0 -0.20597465457E+02  0.84758181537E+01 -0.13359839416E+02  0.25972685384E+02  0.51100000000E-03 0. -1.
        -11    1    3    3    0    0  0.57407361890E+01  0.12240039799E+02 -0.65838344584E+01  0.15037336955E+02  0.51100000000E-03 0.  1.
        -12    1    3    3    0    0  0.11527380923E+02 -0.10134151244E+02 -0.99505273337E+01  0.18291925175E+02  0.00000000000E+00 0.  1.
</event>
<event>
 7    1  0.7383168E-013  0.5930196E+02  0.7816164E-02  0.1266605E+00
        -11   -1    0    0    0    0  0.00000000000E+00  0.00000000000E+00  0.45593999997E+02  0.45594000000E+02  0.51100000000E-03 0.  1.
         11   -1    0    0    0    0 -0.00000000000E+00 -0.00000000000E+00 -0.45593999997E+02  0.45594000000E+02  0.51100000000E-03 0. -1.
    9900012    2    1    2    0    0  0.29693396059E+02 -0.10816211334E+02 -0.42463637631E+01  0.59301955994E+02  0.50000021824E+02 0.  0.
        -12    1    1    2    0    0 -0.29693396059E+02  0.10816211334E+02  0.42463637631E+01  0.31886044006E+02  0.00000000000E+00 0.  1.
         11    1    3    3    0    0  0.15315478945E+02  0.10426560009E+02 -0.60224049629E+01  0.19481950897E+02  0.51100000000E-03 0. -1.
        -11    1    3    3    0    0  0.23698043346E+02 -0.18049393046E+02  0.27729382682E+01  0.29917670943E+02  0.51100000000E-03 0.  1.
         12    1    3    3    0    0 -0.93201262325E+01 -0.31933782976E+01 -0.99689706841E+00  0.99023341545E+01  0.00000000000E+00 0. -1.
</event>
<event>
 7    1  0.7383168E-013  0.5930195E+02  0.7816164E-02  0.1266605E+00
        -11   -1    0    0    0    0  0.00000000000E+00  0.00000000000E+00  0.45593999997E+02  0.45594000000E+02  0.51100000000E-03 0.  1.
         11   -1    0    0    0    0 -0.00000000000E+00 -0.00000000000E+00 -0.45593999997E+02  0.45594000000E+02  0.51100000000E-03 0. -1.
    9900012    2    1    2    0    0  0.75854668909E+01  0.10879287379E+02 -0.28996930740E+02  0.59301949850E+02  0.50000010618E+02 0.  0.
        -12    1    1    2    0    0 -0.75854668909E+01 -0.10879287379E+02  0.28996930740E+02  0.31886050150E+02  0.00000000000E+00 0.  1.
         11    1    3    3    0    0  0.10797190940E+02 -0.57073602015E+01 -0.21431811998E+02  0.24667303429E+02  0.51100000000E-03 0. -1.
        -11    1    3    3    0    0 -0.40396873383E+01  0.27598492245E+00 -0.15823755301E+02  0.16333599528E+02  0.51100000000E-03 0.  1.
        -12    1    3    3    0    0  0.82796328918E+00  0.16310662658E+02  0.82586365586E+01  0.18301046893E+02  0.00000000000E+00 0.  1.
</event>
<event>
 7    1  0.7383168E-013  0.5930196E+02  0.7816164E-02  0.1266605E+00
        -11   -1    0    0    0    0  0.00000000000E+00  0.00000000000E+00  0.45593999997E+02  0.45594000000E+02  0.51100000000E-03 0. -1.
         11   -1    0    0    0    0 -0.00000000000E+00 -0.00000000000E+00 -0.45593999997E+02  0.45594000000E+02  0.51100000000E-03 0.  1.
    9900012    2    1    2    0    0  0.37657572648E+01 -0.30403478704E+02  0.88412163784E+01  0.59301959918E+02  0.50000028980E+02 0.  0.
        -12    1    1    2    0    0 -0.37657572648E+01  0.30403478704E+02 -0.88412163784E+01  0.31886040082E+02  0.00000000000E+00 0.  1.
         11    1    3    3    0    0 -0.55929878048E+01  0.26880054734E+01 -0.15243670594E+02  0.16458322498E+02  0.51100000000E-03 0.  1.
        -11    1    3    3    0    0  0.47289278884E+01 -0.52684158540E+01  0.33229100331E+01  0.78205304125E+01  0.51100000000E-03 0. -1.
        -12    1    3    3    0    0  0.46298171813E+01 -0.27823068323E+02  0.20761976939E+02  0.35023107008E+02  0.00000000000E+00 0.  1.
</event>
<event>
 7    1  0.7383168E-013  0.5930205E+02  0.7816164E-02  0.1266604E+00
        -11   -1    0    0    0    0  0.00000000000E+00  0.00000000000E+00  0.45593999997E+02  0.45594000000E+02  0.51100000000E-03 0.  1.
         11   -1    0    0    0    0 -0.00000000000E+00 -0.00000000000E+00 -0.45593999997E+02  0.45594000000E+02  0.51100000000E-03 0. -1.
    9900012    2    1    2    0    0 -0.79928069744E+01 -0.19254651503E+01 -0.30807812325E+02  0.59302052003E+02  0.50000196921E+02 0.  0.
        -12    1    1    2    0    0  0.79928069744E+01  0.19254651503E+01  0.30807812325E+02  0.31885947997E+02  0.00000000000E+00 0.  1.
         11    1    3    3    0    0 -0.51839458111E+01 -0.69831822616E+01 -0.22794891753E+02  0.24397647816E+02  0.51100000000E-03 0. -1.
        -11    1    3    3    0    0 -0.28457543787E+01 -0.67509698671E+00 -0.20740266134E+02  0.20945470000E+02  0.51100000000E-03 0.  1.
        -12    1    3    3    0    0  0.36893215439E-01  0.57328140980E+01  0.12727345562E+02  0.13958934187E+02  0.00000000000E+00 0.  1.
</event>
<event>
 7    1  0.7383168E-013  0.5930195E+02  0.7816164E-02  0.1266605E+00
        -11   -1    0    0    0    0  0.00000000000E+00  0.00000000000E+00  0.45593999997E+02  0.45594000000E+02  0.51100000000E-03 0.  1.
         11   -1    0    0    0    0 -0.00000000000E+00 -0.00000000000E+00 -0.45593999997E+02  0.45594000000E+02  0.51100000000E-03 0. -1.
    9900012    2    1    2    0    0 -0.78654081856E+01  0.29486110457E+02 -0.92425585332E+01  0.59301949067E+02  0.50000009191E+02 0.  0.
        -12    1    1    2    0    0  0.78654081856E+01 -0.29486110457E+02  0.92425585332E+01  0.31886050933E+02  0.00000000000E+00 0.  1.
         11    1    3    3    0    0 -0.21101260037E+01  0.31288732656E+02 -0.23323114243E+01  0.31446416327E+02  0.51100000000E-03 0. -1.
        -11    1    3    3    0    0 -0.11989116035E+02  0.43035692050E+01  0.44834746814E+01  0.13504116287E+02  0.51100000000E-03 0.  1.
        -12    1    3    3    0    0  0.62338338535E+01 -0.61061914040E+01 -0.11393721790E+02  0.14351416453E+02  0.00000000000E+00 0.  1.
</event>
<event>
 7    1  0.7383168E-013  0.5930195E+02  0.7816164E-02  0.1266605E+00
        -11   -1    0    0    0    0  0.00000000000E+00  0.00000000000E+00  0.45593999997E+02  0.45594000000E+02  0.51100000000E-03 0. -1.
         11   -1    0    0    0    0 -0.00000000000E+00 -0.00000000000E+00 -0.45593999997E+02  0.45594000000E+02  0.51100000000E-03 0.  1.
    9900012    2    1    2    0    0 -0.25393291460E+01  0.13349448383E+02  0.28845521935E+02  0.59301951321E+02  0.50000013301E+02 0.  0.
        -12    1    1    2    0    0  0.25393291460E+01 -0.13349448383E+02 -0.28845521935E+02  0.31886048679E+02  0.00000000000E+00 0.  1.
         11    1    3    3    0    0 -0.37487228745E+01 -0.83938570878E+01 -0.43090623445E+01  0.10152722716E+02  0.51100000000E-03 0. -1.
        -11    1    3    3    0    0 -0.11256371065E+02  0.54547256672E+00  0.70875951511E+01  0.13313055065E+02  0.51100000000E-03 0.  1.
         12    1    3    3    0    0  0.12465764794E+02  0.21197832904E+02  0.26066989129E+02  0.35836173540E+02  0.00000000000E+00 0. -1.
</event>
<event>
 7    1  0.7383168E-013  0.5930192E+02  0.7816164E-02  0.1266605E+00
        -11   -1    0    0    0    0  0.00000000000E+00  0.00000000000E+00  0.45593999997E+02  0.45594000000E+02  0.51100000000E-03 0.  1.
         11   -1    0    0    0    0 -0.00000000000E+00 -0.00000000000E+00 -0.45593999997E+02  0.45594000000E+02  0.51100000000E-03 0. -1.
    9900012    2    1    2    0    0  0.22281268982E+02 -0.16491059034E+02 -0.15757916395E+02  0.59301923029E+02  0.49999961702E+02 0.  0.
        -12    1    1    2    0    0 -0.22281268982E+02  0.16491059034E+02  0.15757916395E+02  0.31886076971E+02  0.00000000000E+00 0.  1.
         11    1    3    3    0    0  0.16026298998E+02 -0.21687670303E+02 -0.24222593006E+02  0.36248190505E+02  0.51100000000E-03 0. -1.
        -11    1    3    3    0    0 -0.51402918793E+01 -0.29475859737E+01 -0.11879478266E+01  0.60433503934E+01  0.51100000000E-03 0.  1.
        -12    1    3    3    0    0  0.11395261864E+02  0.81441972427E+01  0.96526244374E+01  0.17010382130E+02  0.00000000000E+00 0.  1.
</event>
<event>
 7    1  0.7383168E-013  0.5930203E+02  0.7816164E-02  0.1266604E+00
        -11   -1    0    0    0    0  0.00000000000E+00  0.00000000000E+00  0.45593999997E+02  0.45594000000E+02  0.51100000000E-03 0.  1.
         11   -1    0    0    0    0 -0.00000000000E+00 -0.00000000000E+00 -0.45593999997E+02  0.45594000000E+02  0.51100000000E-03 0. -1.
    9900012    2    1    2    0    0  0.21598416950E+02 -0.33452844088E+01 -0.23217069569E+02  0.59302033465E+02  0.50000163111E+02 0.  0.
        -12    1    1    2    0    0 -0.21598416950E+02  0.33452844088E+01  0.23217069569E+02  0.31885966535E+02  0.00000000000E+00 0.  1.
         11    1    3    3    0    0 -0.72565673117E+00 -0.61381397242E+01  0.19559952923E+01  0.64829973631E+01  0.51100000000E-03 0. -1.
        -11    1    3    3    0    0  0.14600371755E+02 -0.22286982539E+00  0.93335607787E+01  0.17330201482E+02  0.51100000000E-03 0.  1.
         12    1    3    3    0    0  0.77237019264E+01  0.30157251408E+01 -0.34506625640E+02  0.35488834620E+02  0.00000000000E+00 0. -1.
</event>
<event>
 7    1  0.7383168E-013  0.5930193E+02  0.7816164E-02  0.1266605E+00
        -11   -1    0    0    0    0  0.00000000000E+00  0.00000000000E+00  0.45593999997E+02  0.45594000000E+02  0.51100000000E-03 0. -1.
         11   -1    0    0    0    0 -0.00000000000E+00 -0.00000000000E+00 -0.45593999997E+02  0.45594000000E+02  0.51100000000E-03 0.  1.
    9900012    2    1    2    0    0 -0.24367977808E+02  0.20549308216E+02 -0.80545955152E+00  0.59301934459E+02  0.49999982548E+02 0.  0.
        -12    1    1    2    0    0  0.24367977808E+02 -0.20549308216E+02  0.80545955152E+00  0.31886065541E+02  0.00000000000E+00 0.  1.
         11    1    3    3    0    0 -0.88950829046E+01 -0.73183386089E+01 -0.56655329632E+01  0.12836621202E+02  0.51100000000E-03 0. -1.
        -11    1    3    3    0    0 -0.16576245093E+02  0.10651393605E+02 -0.11395764820E+02  0.22761536486E+02  0.51100000000E-03 0.  1.
         12    1    3    3    0    0  0.11033501895E+01  0.17216253220E+02  0.16255838231E+02  0.23703776770E+02  0.00000000000E+00 0. -1.
</event>
<event>
 7    1  0.7383168E-013  0.5930201E+02  0.7816164E-02  0.1266605E+00
        -11   -1    0    0    0    0  0.00000000000E+00  0.00000000000E+00  0.45593999997E+02  0.45594000000E+02  0.51100000000E-03 0.  1.
         11   -1    0    0    0    0 -0.00000000000E+00 -0.00000000000E+00 -0.45593999997E+02  0.45594000000E+02  0.51100000000E-03 0. -1.
    9900012    2    1    2    0    0 -0.26502172913E+02 -0.76050325706E+01 -0.16016074187E+02  0.59302010571E+02  0.50000121358E+02 0.  0.
        -12    1    1    2    0    0  0.26502172913E+02  0.76050325706E+01  0.16016074187E+02  0.31885989429E+02  0.00000000000E+00 0.  1.
         11    1    3    3    0    0 -0.21505899754E+01 -0.13296265176E+02 -0.92328015814E+01  0.16329737602E+02  0.51100000000E-03 0. -1.
        -11    1    3    3    0    0 -0.24114716968E+02 -0.59384932594E+01  0.61421234991E+01  0.25583411774E+02  0.51100000000E-03 0.  1.
         12    1    3    3    0    0 -0.23686596974E+00  0.11629725864E+02 -0.12925396105E+02  0.17388861194E+02  0.00000000000E+00 0. -1.
</event>
<event>
 7    1  0.7383168E-013  0.5930193E+02  0.7816164E-02  0.1266605E+00
        -11   -1    0    0    0    0  0.00000000000E+00  0.00000000000E+00  0.45593999997E+02  0.45594000000E+02  0.51100000000E-03 0.  1.
         11   -1    0    0    0    0 -0.00000000000E+00 -0.00000000000E+00 -0.45593999997E+02  0.45594000000E+02  0.51100000000E-03 0. -1.
    9900012    2    1    2    0    0  0.29973538734E+02 -0.74091171156E+01 -0.79632614158E+01  0.59301928228E+02  0.49999971185E+02 0.  0.
        -12    1    1    2    0    0 -0.29973538734E+02  0.74091171156E+01  0.79632614158E+01  0.31886071772E+02  0.00000000000E+00 0.  1.
         11    1    3    3    0    0  0.12395674452E+02  0.93281036971E+01  0.44263506968E+01  0.16132539926E+02  0.51100000000E-03 0. -1.
        -11    1    3    3    0    0 -0.87452026152E+01 -0.46872515606E+01  0.30227170455E+01  0.10372353377E+02  0.51100000000E-03 0.  1.
         12    1    3    3    0    0  0.26323066897E+02 -0.12049969252E+02 -0.15412329158E+02  0.32797034926E+02  0.00000000000E+00 0. -1.
</event>
<event>
 7    1  0.7383168E-013  0.5930197E+02  0.7816164E-02  0.1266605E+00
        -11   -1    0    0    0    0  0.00000000000E+00  0.00000000000E+00  0.45593999997E+02  0.45594000000E+02  0.51100000000E-03 0.  1.
         11   -1    0    0    0    0 -0.00000000000E+00 -0.00000000000E+00 -0.45593999997E+02  0.45594000000E+02  0.51100000000E-03 0. -1.
    9900012    2    1    2    0    0  0.73192228283E+01  0.74905061015E+01 -0.30117108713E+02  0.59301969489E+02  0.50000046436E+02 0.  0.
        -12    1    1    2    0    0 -0.73192228283E+01 -0.74905061015E+01  0.30117108713E+02  0.31886030511E+02  0.00000000000E+00 0.  1.
         11    1    3    3    0    0  0.29449668861E+01 -0.58946977155E+01  0.23365256065E+01  0.69913978065E+01  0.51100000000E-03 0. -1.
        -11    1    3    3    0    0  0.10050264427E+02 -0.57736744862E+01  0.26760348792E+01  0.11895557787E+02  0.51100000000E-03 0.  1.
         12    1    3    3    0    0 -0.56760084849E+01  0.19158878303E+02 -0.35129669199E+02  0.40415013896E+02  0.00000000000E+00 0. -1.
</event>
<event>
 7    1  0.7383168E-013  0.5930195E+02  0.7816164E-02  0.1266605E+00
        -11   -1    0    0    0    0  0.00000000000E+00  0.00000000000E+00  0.45593999997E+02  0.45594000000E+02  0.51100000000E-03 0.  1.
         11   -1    0    0    0    0 -0.00000000000E+00 -0.00000000000E+00 -0.45593999997E+02  0.45594000000E+02  0.51100000000E-03 0. -1.
    9900012    2    1    2    0    0  0.12764675023E+02  0.14105692026E+02 -0.25589307073E+02  0.59301951131E+02  0.50000012955E+02 0.  0.
        -12    1    1    2    0    0 -0.12764675023E+02 -0.14105692026E+02  0.25589307073E+02  0.31886048869E+02  0.00000000000E+00 0.  1.
         11    1    3    3    0    0  0.28913111217E+02  0.86537581511E+01 -0.39414802079E+01  0.30436668623E+02  0.51100000000E-03 0. -1.
        -11    1    3    3    0    0 -0.92443408095E+00  0.19223521666E+01  0.40016961398E-01  0.21334520948E+01  0.51100000000E-03 0.  1.
        -12    1    3    3    0    0 -0.15224002114E+02  0.35295817084E+01 -0.21687843827E+02  0.26731830413E+02  0.00000000000E+00 0.  1.
</event>
<event>
 7    1  0.7383168E-013  0.5930197E+02  0.7816164E-02  0.1266605E+00
        -11   -1    0    0    0    0  0.00000000000E+00  0.00000000000E+00  0.45593999997E+02  0.45594000000E+02  0.51100000000E-03 0.  1.
         11   -1    0    0    0    0 -0.00000000000E+00 -0.00000000000E+00 -0.45593999997E+02  0.45594000000E+02  0.51100000000E-03 0. -1.
    9900012    2    1    2    0    0  0.16619996982E+02  0.10969128651E+02 -0.24903266718E+02  0.59301972084E+02  0.50000051168E+02 0.  0.
        -12    1    1    2    0    0 -0.16619996982E+02 -0.10969128651E+02  0.24903266718E+02  0.31886027916E+02  0.00000000000E+00 0.  1.
         11    1    3    3    0    0  0.17232981704E+02  0.18302150669E+02 -0.16518233718E+02  0.30079834157E+02  0.51100000000E-03 0. -1.
        -11    1    3    3    0    0  0.51511490777E+01 -0.91499262029E+01 -0.16223018983E+02  0.19324643115E+02  0.51100000000E-03 0.  1.
        -12    1    3    3    0    0 -0.57641338002E+01  0.18169041851E+01  0.78379859826E+01  0.98974948117E+01  0.00000000000E+00 0.  1.
</event>
<event>
 7    1  0.7383168E-013  0.5930195E+02  0.7816164E-02  0.1266605E+00
        -11   -1    0    0    0    0  0.00000000000E+00  0.00000000000E+00  0.45593999997E+02  0.45594000000E+02  0.51100000000E-03 0.  1.
         11   -1    0    0    0    0 -0.00000000000E+00 -0.00000000000E+00 -0.45593999997E+02  0.45594000000E+02  0.51100000000E-03 0. -1.
    9900012    2    1    2    0    0 -0.30775523187E+02  0.74418047661E+01 -0.37692264671E+01  0.59301947348E+02  0.50000006055E+02 0.  0.
        -12    1    1    2    0    0  0.30775523187E+02 -0.74418047661E+01  0.37692264671E+01  0.31886052652E+02  0.00000000000E+00 0.  1.
         11    1    3    3    0    0 -0.13633927977E+02  0.41938835069E+01  0.14774797432E+02  0.20536973740E+02  0.51100000000E-03 0. -1.
        -11    1    3    3    0    0 -0.14119266258E+01 -0.54174951782E+01  0.60948452338E+01  0.82758642744E+01  0.51100000000E-03 0.  1.
         12    1    3    3    0    0 -0.15729668584E+02  0.86654164374E+01 -0.24638869133E+02  0.30489109334E+02  0.00000000000E+00 0. -1.
</event>
<event>
 7    1  0.7383168E-013  0.5930194E+02  0.7816164E-02  0.1266605E+00
        -11   -1    0    0    0    0  0.00000000000E+00  0.00000000000E+00  0.45593999997E+02  0.45594000000E+02  0.51100000000E-03 0.  1.
         11   -1    0    0    0    0 -0.00000000000E+00 -0.00000000000E+00 -0.45593999997E+02  0.45594000000E+02  0.51100000000E-03 0. -1.
    9900012    2    1    2    0    0  0.15098898330E+02 -0.17771761532E+02 -0.21746455921E+02  0.59301943740E+02  0.49999999475E+02 0.  0.
        -12    1    1    2    0    0 -0.15098898330E+02  0.17771761532E+02  0.21746455921E+02  0.31886056260E+02  0.00000000000E+00 0.  1.
         11    1    3    3    0    0  0.20401267849E+01  0.81175886651E+01 -0.12877962252E+02  0.15359012828E+02  0.51100000000E-03 0. -1.
        -11    1    3    3    0    0  0.49347988408E+01  0.47322975912E+01 -0.10147719590E+02  0.12236138820E+02  0.51100000000E-03 0.  1.
         12    1    3    3    0    0  0.81239727039E+01 -0.30621647789E+02  0.12792259209E+01  0.31706792092E+02  0.00000000000E+00 0. -1.
</event>
<event>
 7    1  0.7383168E-013  0.5930194E+02  0.7816164E-02  0.1266605E+00
        -11   -1    0    0    0    0  0.00000000000E+00  0.00000000000E+00  0.45593999997E+02  0.45594000000E+02  0.51100000000E-03 0.  1.
         11   -1    0    0    0    0 -0.00000000000E+00 -0.00000000000E+00 -0.45593999997E+02  0.45594000000E+02  0.51100000000E-03 0. -1.
    9900012    2    1    2    0    0  0.19666118412E+02  0.24554486951E+02 -0.52001700744E+01  0.59301940168E+02  0.49999992961E+02 0.  0.
        -12    1    1    2    0    0 -0.19666118412E+02 -0.24554486951E+02  0.52001700744E+01  0.31886059832E+02  0.00000000000E+00 0.  1.
         11    1    3    3    0    0  0.21932257690E+02  0.22352397087E+02 -0.19869727117E+02  0.37087189687E+02  0.51100000000E-03 0. -1.
        -11    1    3    3    0    0 -0.15585389124E+01  0.48910699209E+01 -0.18547204818E+01  0.54581679014E+01  0.51100000000E-03 0.  1.
        -12    1    3    3    0    0 -0.70760036581E+00 -0.26889800571E+01  0.16524277525E+02  0.16756582579E+02  0.00000000000E+00 0.  1.
</event>
<event>
 7    1  0.7383168E-013  0.5930193E+02  0.7816164E-02  0.1266605E+00
        -11   -1    0    0    0    0  0.00000000000E+00  0.00000000000E+00  0.45593999997E+02  0.45594000000E+02  0.51100000000E-03 0.  1.
         11   -1    0    0    0    0 -0.00000000000E+00 -0.00000000000E+00 -0.45593999997E+02  0.45594000000E+02  0.51100000000E-03 0. -1.
    9900012    2    1    2    0    0  0.73506479728E+00 -0.31525191041E+02 -0.47268831540E+01  0.59301930710E+02  0.49999975711E+02 0.  0.
        -12    1    1    2    0    0 -0.73506479728E+00  0.31525191041E+02  0.47268831540E+01  0.31886069290E+02  0.00000000000E+00 0.  1.
         11    1    3    3    0    0  0.95835431016E+01 -0.27602978943E+01 -0.12092156410E+02  0.15674303486E+02  0.51100000000E-03 0. -1.
        -11    1    3    3    0    0  0.80494057427E+01 -0.89336414365E+01  0.12198383936E+02  0.17129023704E+02  0.51100000000E-03 0.  1.
         12    1    3    3    0    0 -0.16897884047E+02 -0.19831251710E+02 -0.48331106802E+01  0.26498603520E+02  0.00000000000E+00 0. -1.
</event>
<event>
 7    1  0.7383168E-013  0.5930196E+02  0.7816164E-02  0.1266605E+00
        -11   -1    0    0    0    0  0.00000000000E+00  0.00000000000E+00  0.45593999997E+02  0.45594000000E+02  0.51100000000E-03 0.  1.
         11   -1    0    0    0    0 -0.00000000000E+00 -0.00000000000E+00 -0.45593999997E+02  0.45594000000E+02  0.51100000000E-03 0. -1.
    9900012    2    1    2    0    0  0.99045049778E+01 -0.27248346925E+02 -0.13272074314E+02  0.59301959393E+02  0.50000028023E+02 0.  0.
        -12    1    1    2    0    0 -0.99045049778E+01  0.27248346925E+02  0.13272074314E+02  0.31886040607E+02  0.00000000000E+00 0.  1.
         11    1    3    3    0    0  0.10893752654E+02 -0.19905654209E+02  0.51320792920E+01  0.23264719093E+02  0.51100000000E-03 0. -1.
        -11    1    3    3    0    0  0.13795703261E+02  0.42576010698E+00 -0.11498215243E+02  0.17964176969E+02  0.51100000000E-03 0.  1.
        -12    1    3    3    0    0 -0.14784950937E+02 -0.77684528234E+01 -0.69059383626E+01  0.18073063331E+02  0.00000000000E+00 0.  1.
</event>
<event>
 7    1  0.7383168E-013  0.5930194E+02  0.7816164E-02  0.1266605E+00
        -11   -1    0    0    0    0  0.00000000000E+00  0.00000000000E+00  0.45593999997E+02  0.45594000000E+02  0.51100000000E-03 0. -1.
         11   -1    0    0    0    0 -0.00000000000E+00 -0.00000000000E+00 -0.45593999997E+02  0.45594000000E+02  0.51100000000E-03 0.  1.
    9900012    2    1    2    0    0 -0.17231884812E+02  0.23731292774E+02  0.12514341055E+02  0.59301939677E+02  0.49999992065E+02 0.  0.
        -12    1    1    2    0    0  0.17231884812E+02 -0.23731292774E+02 -0.12514341055E+02  0.31886060323E+02  0.00000000000E+00 0.  1.
         11    1    3    3    0    0  0.59052327902E+01  0.16870812316E+02  0.72822931213E+01  0.19300981215E+02  0.51100000000E-03 0. -1.
        -11    1    3    3    0    0  0.20952094543E+01  0.12951211564E+02 -0.14449122499E+01  0.13198922506E+02  0.51100000000E-03 0.  1.
         12    1    3    3    0    0 -0.25232327056E+02 -0.60907311057E+01  0.66769601834E+01  0.26802035956E+02  0.00000000000E+00 0. -1.
</event>
<event>
 7    1  0.7383168E-013  0.5930194E+02  0.7816164E-02  0.1266605E+00
        -11   -1    0    0    0    0  0.00000000000E+00  0.00000000000E+00  0.45593999997E+02  0.45594000000E+02  0.51100000000E-03 0.  1.
         11   -1    0    0    0    0 -0.00000000000E+00 -0.00000000000E+00 -0.45593999997E+02  0.45594000000E+02  0.51100000000E-03 0. -1.
    9900012    2    1    2    0    0 -0.13295044052E+01  0.22111619037E+02 -0.22935340550E+02  0.59301935261E+02  0.49999984012E+02 0.  0.
        -12    1    1    2    0    0  0.13295044052E+01 -0.22111619037E+02  0.22935340550E+02  0.31886064739E+02  0.00000000000E+00 0.  1.
         11    1    3    3    0    0 -0.14522062662E+01  0.77098078216E+01 -0.18151880922E+01  0.80526360750E+01  0.51100000000E-03 0. -1.
        -11    1    3    3    0    0  0.90909120944E+01  0.28232360871E+02 -0.17271562758E+02  0.34322263378E+02  0.51100000000E-03 0.  1.
         12    1    3    3    0    0 -0.89682102334E+01 -0.13830549655E+02 -0.38485896996E+01  0.16927035808E+02  0.00000000000E+00 0. -1.
</event>
<event>
 7    1  0.7383168E-013  0.5930196E+02  0.7816164E-02  0.1266605E+00
        -11   -1    0    0    0    0  0.00000000000E+00  0.00000000000E+00  0.45593999997E+02  0.45594000000E+02  0.51100000000E-03 0. -1.
         11   -1    0    0    0    0 -0.00000000000E+00 -0.00000000000E+00 -0.45593999997E+02  0.45594000000E+02  0.51100000000E-03 0.  1.
    9900012    2    1    2    0    0  0.95553720676E+01 -0.15186399032E+02  0.26358828340E+02  0.59301957875E+02  0.50000025255E+02 0.  0.
        -12    1    1    2    0    0 -0.95553720676E+01  0.15186399032E+02 -0.26358828340E+02  0.31886042125E+02  0.00000000000E+00 0.  1.
         11    1    3    3    0    0  0.85903039144E+01  0.66999328761E+01  0.14104966080E+02  0.17822247060E+02  0.51100000000E-03 0. -1.
        -11    1    3    3    0    0  0.97493061606E+01  0.49552252158E+01  0.62843741244E+01  0.12613349513E+02  0.51100000000E-03 0.  1.
        -12    1    3    3    0    0 -0.87842380074E+01 -0.26841557124E+02  0.59694881357E+01  0.28866361302E+02  0.00000000000E+00 0.  1.
</event>
<event>
 7    1  0.7383168E-013  0.5930194E+02  0.7816164E-02  0.1266605E+00
        -11   -1    0    0    0    0  0.00000000000E+00  0.00000000000E+00  0.45593999997E+02  0.45594000000E+02  0.51100000000E-03 0. -1.
         11   -1    0    0    0    0 -0.00000000000E+00 -0.00000000000E+00 -0.45593999997E+02  0.45594000000E+02  0.51100000000E-03 0.  1.
    9900012    2    1    2    0    0  0.17933889055E+02 -0.24271652070E+02  0.10294810047E+02  0.59301943725E+02  0.49999999448E+02 0.  0.
        -12    1    1    2    0    0 -0.17933889055E+02  0.24271652070E+02 -0.10294810047E+02  0.31886056275E+02  0.00000000000E+00 0.  1.
         11    1    3    3    0    0 -0.10271178952E+02 -0.75834396454E+01 -0.40390143970E+01  0.13391016073E+02  0.51100000000E-03 0. -1.
        -11    1    3    3    0    0  0.16181586029E+02 -0.19524187532E+02 -0.19939712465E+01  0.25436460972E+02  0.51100000000E-03 0.  1.
        -12    1    3    3    0    0  0.12023481979E+02  0.28359751079E+01  0.16327795691E+02  0.20474466680E+02  0.00000000000E+00 0.  1.
</event>
<event>
 7    1  0.7383168E-013  0.5930192E+02  0.7816164E-02  0.1266605E+00
        -11   -1    0    0    0    0  0.00000000000E+00  0.00000000000E+00  0.45593999997E+02  0.45594000000E+02  0.51100000000E-03 0. -1.
         11   -1    0    0    0    0 -0.00000000000E+00 -0.00000000000E+00 -0.45593999997E+02  0.45594000000E+02  0.51100000000E-03 0.  1.
    9900012    2    1    2    0    0 -0.20330644322E+02  0.24225833532E+02  0.40615519862E+01  0.59301916618E+02  0.49999950012E+02 0.  0.
        -12    1    1    2    0    0  0.20330644322E+02 -0.24225833532E+02 -0.40615519862E+01  0.31886083382E+02  0.00000000000E+00 0.  1.
         11    1    3    3    0    0  0.73877149628E+01  0.13049873856E+02  0.77436756155E+01  0.16877264362E+02  0.51100000000E-03 0. -1.
        -11    1    3    3    0    0 -0.62266959278E+01 -0.94406451768E+01  0.34066831030E+01  0.11811139384E+02  0.51100000000E-03 0.  1.
         12    1    3    3    0    0 -0.21491663357E+02  0.20616604853E+02 -0.70888067323E+01  0.30613512872E+02  0.00000000000E+00 0. -1.
</event>
<event>
 7    1  0.7383168E-013  0.5930197E+02  0.7816164E-02  0.1266605E+00
        -11   -1    0    0    0    0  0.00000000000E+00  0.00000000000E+00  0.45593999997E+02  0.45594000000E+02  0.51100000000E-03 0. -1.
         11   -1    0    0    0    0 -0.00000000000E+00 -0.00000000000E+00 -0.45593999997E+02  0.45594000000E+02  0.51100000000E-03 0.  1.
    9900012    2    1    2    0    0  0.22170937579E+02  0.11125811990E+02  0.20034591769E+02  0.59301968059E+02  0.50000043828E+02 0.  0.
        -12    1    1    2    0    0 -0.22170937579E+02 -0.11125811990E+02 -0.20034591769E+02  0.31886031941E+02  0.00000000000E+00 0.  1.
         11    1    3    3    0    0  0.13727599211E+02  0.18939924042E+01 -0.48652187190E-01  0.13857725449E+02  0.51100000000E-03 0. -1.
        -11    1    3    3    0    0  0.13796724429E+02 -0.62586351746E+01 -0.45843273669E+01  0.15828334622E+02  0.51100000000E-03 0.  1.
         12    1    3    3    0    0 -0.53533860609E+01  0.15490454761E+02  0.24667571323E+02  0.29615907989E+02  0.00000000000E+00 0. -1.
</event>
<event>
 7    1  0.7383168E-013  0.5930191E+02  0.7816164E-02  0.1266605E+00
        -11   -1    0    0    0    0  0.00000000000E+00  0.00000000000E+00  0.45593999997E+02  0.45594000000E+02  0.51100000000E-03 0.  1.
         11   -1    0    0    0    0 -0.00000000000E+00 -0.00000000000E+00 -0.45593999997E+02  0.45594000000E+02  0.51100000000E-03 0. -1.
    9900012    2    1    2    0    0  0.96974184753E+01  0.24079912742E+01 -0.30280098483E+02  0.59301910381E+02  0.49999938636E+02 0.  0.
        -12    1    1    2    0    0 -0.96974184753E+01 -0.24079912742E+01  0.30280098483E+02  0.31886089619E+02  0.00000000000E+00 0.  1.
         11    1    3    3    0    0  0.18425460147E+02 -0.10905449146E+02 -0.18322437439E+02  0.28180456289E+02  0.51100000000E-03 0. -1.
        -11    1    3    3    0    0  0.28729805989E+00  0.46616731685E+01 -0.17012938407E+02  0.17642386755E+02  0.51100000000E-03 0.  1.
        -12    1    3    3    0    0 -0.90153397317E+01  0.86517672515E+01  0.50552773626E+01  0.13479067337E+02  0.00000000000E+00 0.  1.
</event>
<event>
 7    1  0.7383168E-013  0.5930196E+02  0.7816164E-02  0.1266605E+00
        -11   -1    0    0    0    0  0.00000000000E+00  0.00000000000E+00  0.45593999997E+02  0.45594000000E+02  0.51100000000E-03 0.  1.
         11   -1    0    0    0    0 -0.00000000000E+00 -0.00000000000E+00 -0.45593999997E+02  0.45594000000E+02  0.51100000000E-03 0. -1.
    9900012    2    1    2    0    0 -0.93778800816E+01  0.23831212291E+02 -0.18996013758E+02  0.59301955204E+02  0.50000020382E+02 0.  0.
        -12    1    1    2    0    0  0.93778800816E+01 -0.23831212291E+02  0.18996013758E+02  0.31886044796E+02  0.00000000000E+00 0.  1.
         11    1    3    3    0    0  0.14032970663E+02 -0.29861853973E+01  0.49699383190E+00  0.14355785314E+02  0.51100000000E-03 0.  1.
        -11    1    3    3    0    0 -0.55478504315E+00 -0.27126138479E+01  0.11117434139E+00  0.27709962698E+01  0.51100000000E-03 0. -1.
         12    1    3    3    0    0 -0.22856065701E+02  0.29530011536E+02 -0.19604181931E+02  0.42175173620E+02  0.00000000000E+00 0. -1.
</event>
<event>
 7    1  0.7383168E-013  0.5930195E+02  0.7816164E-02  0.1266605E+00
        -11   -1    0    0    0    0  0.00000000000E+00  0.00000000000E+00  0.45593999997E+02  0.45594000000E+02  0.51100000000E-03 0.  1.
         11   -1    0    0    0    0 -0.00000000000E+00 -0.00000000000E+00 -0.45593999997E+02  0.45594000000E+02  0.51100000000E-03 0. -1.
    9900012    2    1    2    0    0 -0.19769210756E+02  0.19041100203E+02 -0.16227592167E+02  0.59301953860E+02  0.50000017932E+02 0.  0.
        -12    1    1    2    0    0  0.19769210756E+02 -0.19041100203E+02  0.16227592167E+02  0.31886046140E+02  0.00000000000E+00 0.  1.
         11    1    3    3    0    0 -0.20676876808E+01  0.98750990700E+01 -0.22916674813E+02  0.25039307073E+02  0.51100000000E-03 0. -1.
        -11    1    3    3    0    0 -0.19613864588E+01  0.29418225045E+01 -0.99305745352E+01  0.10541236519E+02  0.51100000000E-03 0.  1.
        -12    1    3    3    0    0 -0.15740136617E+02  0.62241786285E+01  0.16619657180E+02  0.23721410268E+02  0.00000000000E+00 0.  1.
</event>
<event>
 7    1  0.7659217E-013  0.5930197E+02  0.7816164E-02  0.1266605E+00
        -11   -1    0    0    0    0  0.00000000000E+00  0.00000000000E+00  0.45593999997E+02  0.45594000000E+02  0.51100000000E-03 0. -1.
         11   -1    0    0    0    0 -0.00000000000E+00 -0.00000000000E+00 -0.45593999997E+02  0.45594000000E+02  0.51100000000E-03 0.  1.
    9900012    2    1    2    0    0 -0.10009785432E+02  0.19500274786E+02  0.23157346049E+02  0.59301965484E+02  0.50000039131E+02 0.  0.
        -12    1    1    2    0    0  0.10009785432E+02 -0.19500274786E+02 -0.23157346049E+02  0.31886034516E+02  0.00000000000E+00 0.  1.
         11    1    3    3    0    0  0.99111328825E+01  0.57082303125E+01  0.16147788702E+02  0.19788014770E+02  0.51100000000E-03 0. -1.
        -11    1    3    3    0    0  0.78969647328E+00 -0.51644134039E+01 -0.65141537102E+01  0.83503883232E+01  0.51100000000E-03 0.  1.
         12    1    3    3    0    0 -0.20710614788E+02  0.18956457877E+02  0.13523711057E+02  0.31163562391E+02  0.00000000000E+00 0. -1.
</event>
<event>
 7    1  0.7383168E-013  0.5930194E+02  0.7816164E-02  0.1266605E+00
        -11   -1    0    0    0    0  0.00000000000E+00  0.00000000000E+00  0.45593999997E+02  0.45594000000E+02  0.51100000000E-03 0. -1.
         11   -1    0    0    0    0 -0.00000000000E+00 -0.00000000000E+00 -0.45593999997E+02  0.45594000000E+02  0.51100000000E-03 0.  1.
    9900012    2    1    2    0    0 -0.23405943942E+02 -0.21653642984E+02 -0.45932578182E-01  0.59301943861E+02  0.49999999695E+02 0.  0.
        -12    1    1    2    0    0  0.23405943942E+02  0.21653642984E+02  0.45932578182E-01  0.31886056139E+02  0.00000000000E+00 0.  1.
         11    1    3    3    0    0  0.40920927825E+00  0.18997175449E+01 -0.10341320651E+02  0.10522323510E+02  0.51100000000E-03 0. -1.
        -11    1    3    3    0    0  0.66807606824E+01  0.19063498598E+01 -0.19371055222E+01  0.72124275489E+01  0.51100000000E-03 0.  1.
         12    1    3    3    0    0 -0.30495913903E+02 -0.25459710389E+02  0.12232493595E+02  0.41567192802E+02  0.00000000000E+00 0. -1.
</event>
<event>
 7    1  0.7383168E-013  0.5930195E+02  0.7816164E-02  0.1266605E+00
        -11   -1    0    0    0    0  0.00000000000E+00  0.00000000000E+00  0.45593999997E+02  0.45594000000E+02  0.51100000000E-03 0.  1.
         11   -1    0    0    0    0 -0.00000000000E+00 -0.00000000000E+00 -0.45593999997E+02  0.45594000000E+02  0.51100000000E-03 0. -1.
    9900012    2    1    2    0    0 -0.19443647045E+02  0.83106874985E+01 -0.23866243186E+02  0.59301945040E+02  0.50000001846E+02 0.  0.
        -12    1    1    2    0    0  0.19443647045E+02 -0.83106874985E+01  0.23866243186E+02  0.31886054960E+02  0.00000000000E+00 0.  1.
         11    1    3    3    0    0 -0.19597500601E+02  0.16909891952E+02 -0.40832037732E+01  0.26204561224E+02  0.51100000000E-03 0. -1.
        -11    1    3    3    0    0 -0.41773664816E+01 -0.91269215830E+01  0.25384092839E+01  0.10353483001E+02  0.51100000000E-03 0.  1.
         12    1    3    3    0    0  0.43312200374E+01  0.52771712990E+00 -0.22321448696E+02  0.22743900815E+02  0.00000000000E+00 0. -1.
</event>
<event>
 7    1  0.7383168E-013  0.5930201E+02  0.7816164E-02  0.1266605E+00
        -11   -1    0    0    0    0  0.00000000000E+00  0.00000000000E+00  0.45593999997E+02  0.45594000000E+02  0.51100000000E-03 0.  1.
         11   -1    0    0    0    0 -0.00000000000E+00 -0.00000000000E+00 -0.45593999997E+02  0.45594000000E+02  0.51100000000E-03 0. -1.
    9900012    2    1    2    0    0 -0.31364310806E+02  0.55573243743E+01 -0.14535408248E+01  0.59302005779E+02  0.50000112619E+02 0.  0.
        -12    1    1    2    0    0  0.31364310806E+02 -0.55573243743E+01  0.14535408248E+01  0.31885994221E+02  0.00000000000E+00 0.  1.
         11    1    3    3    0    0  0.78019915747E+01 -0.28770524115E+01  0.14990059235E+01  0.84495870982E+01  0.51100000000E-03 0. -1.
        -11    1    3    3    0    0 -0.10375428090E+02 -0.11696966963E+02 -0.96953977285E+00  0.15665521116E+02  0.51100000000E-03 0.  1.
        -12    1    3    3    0    0 -0.28790874291E+02  0.20131343749E+02 -0.19830069755E+01  0.35186897565E+02  0.00000000000E+00 0.  1.
</event>
<event>
 7    1  0.7383168E-013  0.5930194E+02  0.7816164E-02  0.1266605E+00
        -11   -1    0    0    0    0  0.00000000000E+00  0.00000000000E+00  0.45593999997E+02  0.45594000000E+02  0.51100000000E-03 0.  1.
         11   -1    0    0    0    0 -0.00000000000E+00 -0.00000000000E+00 -0.45593999997E+02  0.45594000000E+02  0.51100000000E-03 0. -1.
    9900012    2    1    2    0    0 -0.25978670166E+02 -0.10393727351E+01 -0.18459398486E+02  0.59301937343E+02  0.49999987809E+02 0.  0.
        -12    1    1    2    0    0  0.25978670166E+02  0.10393727351E+01  0.18459398486E+02  0.31886062657E+02  0.00000000000E+00 0.  1.
         11    1    3    3    0    0 -0.32368011585E+01 -0.16599586862E+02 -0.22549282791E+01  0.17061883470E+02  0.51100000000E-03 0. -1.
        -11    1    3    3    0    0 -0.13641744929E+02 -0.42227609601E+01  0.12463967443E+01  0.14334657999E+02  0.51100000000E-03 0.  1.
        -12    1    3    3    0    0 -0.91001240787E+01  0.19782975087E+02 -0.17450866951E+02  0.27905395874E+02  0.00000000000E+00 0.  1.
</event>
<event>
 7    1  0.7383168E-013  0.5930194E+02  0.7816164E-02  0.1266605E+00
        -11   -1    0    0    0    0  0.00000000000E+00  0.00000000000E+00  0.45593999997E+02  0.45594000000E+02  0.51100000000E-03 0.  1.
         11   -1    0    0    0    0 -0.00000000000E+00 -0.00000000000E+00 -0.45593999997E+02  0.45594000000E+02  0.51100000000E-03 0. -1.
    9900012    2    1    2    0    0  0.19878333419E+02 -0.23756649554E+02 -0.75626857022E+01  0.59301941094E+02  0.49999994649E+02 0.  0.
        -12    1    1    2    0    0 -0.19878333419E+02  0.23756649554E+02  0.75626857022E+01  0.31886058906E+02  0.00000000000E+00 0.  1.
         11    1    3    3    0    0  0.23016244432E+02 -0.16335471271E+02  0.11403726946E+02  0.30440764082E+02  0.51100000000E-03 0. -1.
        -11    1    3    3    0    0 -0.65818125638E+01 -0.51427856662E+01  0.10543210003E+01  0.84190316585E+01  0.51100000000E-03 0.  1.
        -12    1    3    3    0    0  0.34439015507E+01 -0.22783926167E+01 -0.20020733648E+02  0.20442145353E+02  0.00000000000E+00 0.  1.
</event>
<event>
 7    1  0.7383168E-013  0.5930200E+02  0.7816164E-02  0.1266605E+00
        -11   -1    0    0    0    0  0.00000000000E+00  0.00000000000E+00  0.45593999997E+02  0.45594000000E+02  0.51100000000E-03 0. -1.
         11   -1    0    0    0    0 -0.00000000000E+00 -0.00000000000E+00 -0.45593999997E+02  0.45594000000E+02  0.51100000000E-03 0.  1.
    9900012    2    1    2    0    0 -0.15171881196E+02  0.54520613211E+01  0.27510105471E+02  0.59302002216E+02  0.50000106121E+02 0.  0.
        -12    1    1    2    0    0  0.15171881196E+02 -0.54520613211E+01 -0.27510105471E+02  0.31885997784E+02  0.00000000000E+00 0.  1.
         11    1    3    3    0    0 -0.11626540989E+02  0.64385079283E+01  0.24848486303E+01  0.13520551494E+02  0.51100000000E-03 0. -1.
        -11    1    3    3    0    0  0.16431579699E+02  0.28389832403E+01  0.54267087183E+01  0.17535843436E+02  0.51100000000E-03 0.  1.
         12    1    3    3    0    0 -0.19976919906E+02 -0.38254298474E+01  0.19598548122E+02  0.28245607286E+02  0.00000000000E+00 0. -1.
</event>
<event>
 7    1  0.7383168E-013  0.5930194E+02  0.7816164E-02  0.1266605E+00
        -11   -1    0    0    0    0  0.00000000000E+00  0.00000000000E+00  0.45593999997E+02  0.45594000000E+02  0.51100000000E-03 0.  1.
         11   -1    0    0    0    0 -0.00000000000E+00 -0.00000000000E+00 -0.45593999997E+02  0.45594000000E+02  0.51100000000E-03 0. -1.
    9900012    2    1    2    0    0 -0.28397348835E+02  0.67414865308E+01 -0.12839935467E+02  0.59301937146E+02  0.49999987450E+02 0.  0.
        -12    1    1    2    0    0  0.28397348835E+02 -0.67414865308E+01  0.12839935467E+02  0.31886062854E+02  0.00000000000E+00 0.  1.
         11    1    3    3    0    0 -0.37553272825E+01  0.46986039737E+01  0.60834499863E+01  0.85549825423E+01  0.51100000000E-03 0. -1.
        -11    1    3    3    0    0  0.69646804639E+00  0.12049234993E+02  0.63049693894E+01  0.13616966289E+02  0.51100000000E-03 0.  1.
         12    1    3    3    0    0 -0.25338489599E+02 -0.10006352436E+02 -0.25228354842E+02  0.37129988315E+02  0.00000000000E+00 0. -1.
</event>
<event>
 7    1  0.7383168E-013  0.5930194E+02  0.7816164E-02  0.1266605E+00
        -11   -1    0    0    0    0  0.00000000000E+00  0.00000000000E+00  0.45593999997E+02  0.45594000000E+02  0.51100000000E-03 0.  1.
         11   -1    0    0    0    0 -0.00000000000E+00 -0.00000000000E+00 -0.45593999997E+02  0.45594000000E+02  0.51100000000E-03 0. -1.
    9900012    2    1    2    0    0 -0.24899046585E+02 -0.19861197222E+02  0.15136694617E+01  0.59301939234E+02  0.49999991258E+02 0.  0.
        -12    1    1    2    0    0  0.24899046585E+02  0.19861197222E+02 -0.15136694617E+01  0.31886060766E+02  0.00000000000E+00 0.  1.
         11    1    3    3    0    0 -0.31349921234E+01  0.73255531908E+01 -0.90985156931E+01  0.12094415788E+02  0.51100000000E-03 0. -1.
        -11    1    3    3    0    0  0.53672811194E+01  0.13773978331E+01  0.49056224058E+01  0.74006798914E+01  0.51100000000E-03 0.  1.
         12    1    3    3    0    0 -0.27131335581E+02 -0.28564148246E+02  0.57065627490E+01  0.39806843555E+02  0.00000000000E+00 0. -1.
</event>
<event>
 7    1  0.7383168E-013  0.5930202E+02  0.7816164E-02  0.1266604E+00
        -11   -1    0    0    0    0  0.00000000000E+00  0.00000000000E+00  0.45593999997E+02  0.45594000000E+02  0.51100000000E-03 0. -1.
         11   -1    0    0    0    0 -0.00000000000E+00 -0.00000000000E+00 -0.45593999997E+02  0.45594000000E+02  0.51100000000E-03 0.  1.
    9900012    2    1    2    0    0 -0.58797735497E+01  0.31287136596E+02 -0.18052652025E+01  0.59302021329E+02  0.50000140979E+02 0.  0.
        -12    1    1    2    0    0  0.58797735497E+01 -0.31287136596E+02  0.18052652025E+01  0.31885978671E+02  0.00000000000E+00 0.  1.
         11    1    3    3    0    0  0.15148660119E+02  0.18631717837E+02  0.29494494014E+01  0.24193430203E+02  0.51100000000E-03 0. -1.
        -11    1    3    3    0    0 -0.26544624125E+01  0.92909884287E+01 -0.11704878157E+02  0.15178037081E+02  0.51100000000E-03 0.  1.
        -12    1    3    3    0    0 -0.18373971256E+02  0.33644303300E+01  0.69501635532E+01  0.19930554046E+02  0.00000000000E+00 0.  1.
</event>
<event>
 7    1  0.7383168E-013  0.5930193E+02  0.7816164E-02  0.1266605E+00
        -11   -1    0    0    0    0  0.00000000000E+00  0.00000000000E+00  0.45593999997E+02  0.45594000000E+02  0.51100000000E-03 0.  1.
         11   -1    0    0    0    0 -0.00000000000E+00 -0.00000000000E+00 -0.45593999997E+02  0.45594000000E+02  0.51100000000E-03 0. -1.
    9900012    2    1    2    0    0  0.62842469475E+01 -0.16243107156E+02 -0.26709387090E+02  0.59301927044E+02  0.49999969027E+02 0.  0.
        -12    1    1    2    0    0 -0.62842469475E+01  0.16243107156E+02  0.26709387090E+02  0.31886072956E+02  0.00000000000E+00 0.  1.
         11    1    3    3    0    0  0.85064913343E+01  0.70753783321E+01 -0.12712133841E+02  0.16852884632E+02  0.51100000000E-03 0. -1.
        -11    1    3    3    0    0 -0.55965036575E+01 -0.74310390761E+01 -0.22332993888E+02  0.24193052953E+02  0.51100000000E-03 0.  1.
        -12    1    3    3    0    0  0.33742592707E+01 -0.15887446412E+02  0.83357406390E+01  0.18255989459E+02  0.00000000000E+00 0.  1.
</event>
<event>
 7    1  0.7383168E-013  0.5930194E+02  0.7816164E-02  0.1266605E+00
        -11   -1    0    0    0    0  0.00000000000E+00  0.00000000000E+00  0.45593999997E+02  0.45594000000E+02  0.51100000000E-03 0. -1.
         11   -1    0    0    0    0 -0.00000000000E+00 -0.00000000000E+00 -0.45593999997E+02  0.45594000000E+02  0.51100000000E-03 0.  1.
    9900012    2    1    2    0    0  0.25323606479E+02 -0.19028011987E+02  0.36566012642E+01  0.59301936930E+02  0.49999987056E+02 0.  0.
        -12    1    1    2    0    0 -0.25323606479E+02  0.19028011987E+02 -0.36566012642E+01  0.31886063070E+02  0.00000000000E+00 0.  1.
         11    1    3    3    0    0  0.10551267112E+02 -0.23406911936E+01  0.16719639470E+02  0.19908651818E+02  0.51100000000E-03 0. -1.
        -11    1    3    3    0    0 -0.68679545782E+01 -0.26615468249E+00 -0.98892812980E+01  0.12043152546E+02  0.51100000000E-03 0.  1.
        -12    1    3    3    0    0  0.21640293945E+02 -0.16421166111E+02 -0.31737569078E+01  0.27350132566E+02  0.00000000000E+00 0.  1.
</event>
<event>
 7    1  0.7383168E-013  0.5930194E+02  0.7816164E-02  0.1266605E+00
        -11   -1    0    0    0    0  0.00000000000E+00  0.00000000000E+00  0.45593999997E+02  0.45594000000E+02  0.51100000000E-03 0.  1.
         11   -1    0    0    0    0 -0.00000000000E+00 -0.00000000000E+00 -0.45593999997E+02  0.45594000000E+02  0.51100000000E-03 0. -1.
    9900012    2    1    2    0    0  0.63735033561E+01  0.27752048288E+02 -0.14350013379E+02  0.59301943280E+02  0.49999998636E+02 0.  0.
        -12    1    1    2    0    0 -0.63735033561E+01 -0.27752048288E+02  0.14350013379E+02  0.31886056720E+02  0.00000000000E+00 0.  1.
         11    1    3    3    0    0  0.17606959273E+01  0.18886170772E+02 -0.12006038566E+02  0.22448440010E+02  0.51100000000E-03 0. -1.
        -11    1    3    3    0    0  0.93379995027E+00  0.20624358033E+02 -0.93678516935E+01  0.22671408695E+02  0.51100000000E-03 0.  1.
        -12    1    3    3    0    0  0.36790074785E+01 -0.11758480517E+02  0.70238768803E+01  0.14182094575E+02  0.00000000000E+00 0.  1.
</event>
<event>
 7    1  0.7383168E-013  0.5930194E+02  0.7816164E-02  0.1266605E+00
        -11   -1    0    0    0    0  0.00000000000E+00  0.00000000000E+00  0.45593999997E+02  0.45594000000E+02  0.51100000000E-03 0.  1.
         11   -1    0    0    0    0 -0.00000000000E+00 -0.00000000000E+00 -0.45593999997E+02  0.45594000000E+02  0.51100000000E-03 0. -1.
    9900012    2    1    2    0    0 -0.89687119874E+01  0.91057043792E+01 -0.29212487647E+02  0.59301935936E+02  0.49999985243E+02 0.  0.
        -12    1    1    2    0    0  0.89687119874E+01 -0.91057043792E+01  0.29212487647E+02  0.31886064064E+02  0.00000000000E+00 0.  1.
         11    1    3    3    0    0 -0.50402756088E+01 -0.29969450255E+01 -0.77324257625E+01  0.97044559936E+01  0.51100000000E-03 0. -1.
        -11    1    3    3    0    0 -0.16115669531E+02 -0.59618641623E+01  0.23077412329E+01  0.17337367118E+02  0.51100000000E-03 0.  1.
         12    1    3    3    0    0  0.12187233152E+02  0.18064513567E+02 -0.23787803117E+02  0.32260112825E+02  0.00000000000E+00 0. -1.
</event>
<event>
 7    1  0.7383168E-013  0.5930195E+02  0.7816164E-02  0.1266605E+00
        -11   -1    0    0    0    0  0.00000000000E+00  0.00000000000E+00  0.45593999997E+02  0.45594000000E+02  0.51100000000E-03 0.  1.
         11   -1    0    0    0    0 -0.00000000000E+00 -0.00000000000E+00 -0.45593999997E+02  0.45594000000E+02  0.51100000000E-03 0. -1.
    9900012    2    1    2    0    0  0.52636328101E+00 -0.24127097320E+02 -0.20840501410E+02  0.59301946898E+02  0.50000005234E+02 0.  0.
        -12    1    1    2    0    0 -0.52636328101E+00  0.24127097320E+02  0.20840501410E+02  0.31886053102E+02  0.00000000000E+00 0.  1.
         11    1    3    3    0    0  0.53428311502E+01  0.87104479195E+01 -0.10572771902E+02  0.14703783650E+02  0.51100000000E-03 0. -1.
        -11    1    3    3    0    0  0.90776381176E+01 -0.26533466800E+02 -0.80843141395E+01  0.29185347515E+02  0.51100000000E-03 0.  1.
         12    1    3    3    0    0 -0.13894105987E+02 -0.63040784398E+01 -0.21834153683E+01  0.15412815733E+02  0.00000000000E+00 0. -1.
</event>
<event>
 7    1  0.7383168E-013  0.5930195E+02  0.7816164E-02  0.1266605E+00
        -11   -1    0    0    0    0  0.00000000000E+00  0.00000000000E+00  0.45593999997E+02  0.45594000000E+02  0.51100000000E-03 0.  1.
         11   -1    0    0    0    0 -0.00000000000E+00 -0.00000000000E+00 -0.45593999997E+02  0.45594000000E+02  0.51100000000E-03 0. -1.
    9900012    2    1    2    0    0  0.21559467251E+02  0.54302762893E+01 -0.22856549108E+02  0.59301947158E+02  0.50000005708E+02 0.  0.
        -12    1    1    2    0    0 -0.21559467251E+02 -0.54302762893E+01  0.22856549108E+02  0.31886052842E+02  0.00000000000E+00 0.  1.
         11    1    3    3    0    0  0.11744756542E+02 -0.10846537660E+02 -0.11275866453E+02  0.19563533678E+02  0.51100000000E-03 0. -1.
        -11    1    3    3    0    0  0.17768675677E+02  0.21701274231E+02 -0.62575346173E+01  0.28737221131E+02  0.51100000000E-03 0.  1.
         12    1    3    3    0    0 -0.79539649681E+01 -0.54244602820E+01 -0.53231480382E+01  0.11001192349E+02  0.00000000000E+00 0. -1.
</event>
<event>
 7    1  0.7383168E-013  0.5930193E+02  0.7816164E-02  0.1266605E+00
        -11   -1    0    0    0    0  0.00000000000E+00  0.00000000000E+00  0.45593999997E+02  0.45594000000E+02  0.51100000000E-03 0. -1.
         11   -1    0    0    0    0 -0.00000000000E+00 -0.00000000000E+00 -0.45593999997E+02  0.45594000000E+02  0.51100000000E-03 0.  1.
    9900012    2    1    2    0    0 -0.20815028769E+02 -0.21198792147E+01 -0.24061632149E+02  0.59301930123E+02  0.49999974640E+02 0.  0.
        -12    1    1    2    0    0  0.20815028769E+02  0.21198792147E+01  0.24061632149E+02  0.31886069877E+02  0.00000000000E+00 0.  1.
         11    1    3    3    0    0 -0.16273107303E+02  0.13070863721E+02 -0.20390794024E+02  0.29179547305E+02  0.51100000000E-03 0.  1.
        -11    1    3    3    0    0  0.39319734118E+01 -0.52728316171E+01 -0.12669230698E+02  0.14274893167E+02  0.51100000000E-03 0. -1.
         12    1    3    3    0    0 -0.84738948782E+01 -0.99179113190E+01  0.89983925732E+01  0.15847489651E+02  0.00000000000E+00 0. -1.
</event>
<event>
 7    1  0.7383168E-013  0.5930194E+02  0.7816164E-02  0.1266605E+00
        -11   -1    0    0    0    0  0.00000000000E+00  0.00000000000E+00  0.45593999997E+02  0.45594000000E+02  0.51100000000E-03 0.  1.
         11   -1    0    0    0    0 -0.00000000000E+00 -0.00000000000E+00 -0.45593999997E+02  0.45594000000E+02  0.51100000000E-03 0. -1.
    9900012    2    1    2    0    0 -0.26014684479E+02  0.17241588458E+02 -0.65333413573E+01  0.59301941442E+02  0.49999995284E+02 0.  0.
        -12    1    1    2    0    0  0.26014684479E+02 -0.17241588458E+02  0.65333413573E+01  0.31886058558E+02  0.00000000000E+00 0.  1.
         11    1    3    3    0    0 -0.11531033892E+01  0.92353681443E+01 -0.18532196711E+02  0.20737984169E+02  0.51100000000E-03 0. -1.
        -11    1    3    3    0    0  0.37070901733E+01  0.69120382568E+01  0.89718654318E+00  0.78945382620E+01  0.51100000000E-03 0.  1.
         12    1    3    3    0    0 -0.28568671263E+02  0.10941820566E+01  0.11101668810E+02  0.30669419011E+02  0.00000000000E+00 0. -1.
</event>
<event>
 7    1  0.7383168E-013  0.5930193E+02  0.7816164E-02  0.1266605E+00
        -11   -1    0    0    0    0  0.00000000000E+00  0.00000000000E+00  0.45593999997E+02  0.45594000000E+02  0.51100000000E-03 0. -1.
         11   -1    0    0    0    0 -0.00000000000E+00 -0.00000000000E+00 -0.45593999997E+02  0.45594000000E+02  0.51100000000E-03 0.  1.
    9900012    2    1    2    0    0  0.31263563345E+02  0.22908499175E+01  0.58363397871E+01  0.59301933318E+02  0.49999980468E+02 0.  0.
        -12    1    1    2    0    0 -0.31263563345E+02 -0.22908499175E+01 -0.58363397871E+01  0.31886066682E+02  0.00000000000E+00 0.  1.
         11    1    3    3    0    0  0.86589529683E+01  0.13754946653E+02  0.54800851686E+01  0.17152473806E+02  0.51100000000E-03 0. -1.
        -11    1    3    3    0    0  0.24465558516E+02  0.28546014657E+01 -0.74522584067E+01  0.25734188517E+02  0.51100000000E-03 0.  1.
        -12    1    3    3    0    0 -0.18609481396E+01 -0.14318698202E+02  0.78085130253E+01  0.16415270995E+02  0.00000000000E+00 0.  1.
</event>
<event>
 7    1  0.7383168E-013  0.5930206E+02  0.7816164E-02  0.1266604E+00
        -11   -1    0    0    0    0  0.00000000000E+00  0.00000000000E+00  0.45593999997E+02  0.45594000000E+02  0.51100000000E-03 0.  1.
         11   -1    0    0    0    0 -0.00000000000E+00 -0.00000000000E+00 -0.45593999997E+02  0.45594000000E+02  0.51100000000E-03 0. -1.
    9900012    2    1    2    0    0 -0.24811564973E+02  0.19744689695E+02 -0.33536309492E+01  0.59302056888E+02  0.50000205830E+02 0.  0.
        -12    1    1    2    0    0  0.24811564973E+02 -0.19744689695E+02  0.33536309492E+01  0.31885943112E+02  0.00000000000E+00 0.  1.
         11    1    3    3    0    0 -0.22338689127E+02  0.16231224246E+02 -0.37617424336E+00  0.27615415618E+02  0.51100000000E-03 0. -1.
        -11    1    3    3    0    0 -0.12730594571E+02 -0.29639647933E+01 -0.11048892767E+02  0.17115231727E+02  0.51100000000E-03 0.  1.
        -12    1    3    3    0    0  0.10257718725E+02  0.64774302427E+01  0.80714360616E+01  0.14571409543E+02  0.00000000000E+00 0.  1.
</event>
<event>
 7    1  0.7383168E-013  0.5930195E+02  0.7816164E-02  0.1266605E+00
        -11   -1    0    0    0    0  0.00000000000E+00  0.00000000000E+00  0.45593999997E+02  0.45594000000E+02  0.51100000000E-03 0.  1.
         11   -1    0    0    0    0 -0.00000000000E+00 -0.00000000000E+00 -0.45593999997E+02  0.45594000000E+02  0.51100000000E-03 0. -1.
    9900012    2    1    2    0    0  0.13994076779E+02 -0.35850312052E+01 -0.28425930002E+02  0.59301950854E+02  0.50000012450E+02 0.  0.
        -12    1    1    2    0    0 -0.13994076779E+02  0.35850312052E+01  0.28425930002E+02  0.31886049146E+02  0.00000000000E+00 0.  1.
         11    1    3    3    0    0  0.10722026918E+02 -0.16334253144E+02 -0.21509742361E+02  0.29059227514E+02  0.51100000000E-03 0.  1.
        -11    1    3    3    0    0  0.29648103317E+01 -0.67651459567E+01  0.34404705282E+01  0.81482598042E+01  0.51100000000E-03 0. -1.
         12    1    3    3    0    0  0.30723952907E+00  0.19514367896E+02 -0.10356658169E+02  0.22094463536E+02  0.00000000000E+00 0. -1.
</event>
<event>
 7    1  0.7383168E-013  0.5930197E+02  0.7816164E-02  0.1266605E+00
        -11   -1    0    0    0    0  0.00000000000E+00  0.00000000000E+00  0.45593999997E+02  0.45594000000E+02  0.51100000000E-03 0. -1.
         11   -1    0    0    0    0 -0.00000000000E+00 -0.00000000000E+00 -0.45593999997E+02  0.45594000000E+02  0.51100000000E-03 0.  1.
    9900012    2    1    2    0    0 -0.13013161552E+02 -0.20657072875E+02  0.20510035642E+02  0.59301974920E+02  0.50000056340E+02 0.  0.
        -12    1    1    2    0    0  0.13013161552E+02  0.20657072875E+02 -0.20510035642E+02  0.31886025080E+02  0.00000000000E+00 0.  1.
         11    1    3    3    0    0 -0.13676670904E+02 -0.20462885664E+02  0.16260587853E+02  0.29498944630E+02  0.51100000000E-03 0. -1.
        -11    1    3    3    0    0  0.10345645161E+01 -0.43975842864E+01  0.16363189715E+02  0.16975365952E+02  0.51100000000E-03 0.  1.
        -12    1    3    3    0    0 -0.37105516475E+00  0.42033970757E+01 -0.12113741926E+02  0.12827664338E+02  0.00000000000E+00 0.  1.
</event>
<event>
 7    1  0.7383168E-013  0.5930194E+02  0.7816164E-02  0.1266605E+00
        -11   -1    0    0    0    0  0.00000000000E+00  0.00000000000E+00  0.45593999997E+02  0.45594000000E+02  0.51100000000E-03 0. -1.
         11   -1    0    0    0    0 -0.00000000000E+00 -0.00000000000E+00 -0.45593999997E+02  0.45594000000E+02  0.51100000000E-03 0.  1.
    9900012    2    1    2    0    0 -0.10510195221E+02  0.65077177195E+01  0.29392277509E+02  0.59301943947E+02  0.49999999852E+02 0.  0.
        -12    1    1    2    0    0  0.10510195221E+02 -0.65077177195E+01 -0.29392277509E+02  0.31886056053E+02  0.00000000000E+00 0.  1.
         11    1    3    3    0    0  0.91871015475E+01  0.12750246194E+02  0.37765381405E+00  0.15719867541E+02  0.51100000000E-03 0. -1.
        -11    1    3    3    0    0 -0.20966006982E+00  0.74682908472E+01  0.23719126456E+01  0.78387049557E+01  0.51100000000E-03 0.  1.
        -12    1    3    3    0    0 -0.19487636699E+02 -0.13710819321E+02  0.26642711049E+02  0.35743371450E+02  0.00000000000E+00 0.  1.
</event>
<event>
 7    1  0.7383168E-013  0.5930194E+02  0.7816164E-02  0.1266605E+00
        -11   -1    0    0    0    0  0.00000000000E+00  0.00000000000E+00  0.45593999997E+02  0.45594000000E+02  0.51100000000E-03 0.  1.
         11   -1    0    0    0    0 -0.00000000000E+00 -0.00000000000E+00 -0.45593999997E+02  0.45594000000E+02  0.51100000000E-03 0. -1.
    9900012    2    1    2    0    0  0.17698579112E+02 -0.10854846096E+02 -0.24200279406E+02  0.59301938631E+02  0.49999990157E+02 0.  0.
        -12    1    1    2    0    0 -0.17698579112E+02  0.10854846096E+02  0.24200279406E+02  0.31886061369E+02  0.00000000000E+00 0.  1.
         11    1    3    3    0    0  0.12752835601E+02 -0.59822007476E+01 -0.18660453733E+02  0.23380206916E+02  0.51100000000E-03 0. -1.
        -11    1    3    3    0    0 -0.53491855231E+01  0.87596917000E+01  0.88757124314E+01  0.13569239325E+02  0.51100000000E-03 0.  1.
         12    1    3    3    0    0  0.10294929034E+02 -0.13632337048E+02 -0.14415538104E+02  0.22352492390E+02  0.00000000000E+00 0. -1.
</event>
<event>
 7    1  0.7383168E-013  0.5930194E+02  0.7816164E-02  0.1266605E+00
        -11   -1    0    0    0    0  0.00000000000E+00  0.00000000000E+00  0.45593999997E+02  0.45594000000E+02  0.51100000000E-03 0. -1.
         11   -1    0    0    0    0 -0.00000000000E+00 -0.00000000000E+00 -0.45593999997E+02  0.45594000000E+02  0.51100000000E-03 0.  1.
    9900012    2    1    2    0    0 -0.27288568400E+02  0.19674723060E+01  0.16376328782E+02  0.59301936321E+02  0.49999985945E+02 0.  0.
        -12    1    1    2    0    0  0.27288568400E+02 -0.19674723060E+01 -0.16376328782E+02  0.31886063679E+02  0.00000000000E+00 0.  1.
         11    1    3    3    0    0 -0.53186604418E+01  0.11474786093E+02  0.17170018782E+02  0.21325299764E+02  0.51100000000E-03 0. -1.
        -11    1    3    3    0    0 -0.14259867743E+00 -0.12739023847E+02  0.70479346368E+01  0.14559410904E+02  0.51100000000E-03 0.  1.
        -12    1    3    3    0    0 -0.21827309281E+02  0.32317100606E+01 -0.78416246373E+01  0.23417225653E+02  0.00000000000E+00 0.  1.
</event>
<event>
 7    1  0.7383168E-013  0.5930200E+02  0.7816164E-02  0.1266605E+00
        -11   -1    0    0    0    0  0.00000000000E+00  0.00000000000E+00  0.45593999997E+02  0.45594000000E+02  0.51100000000E-03 0.  1.
         11   -1    0    0    0    0 -0.00000000000E+00 -0.00000000000E+00 -0.45593999997E+02  0.45594000000E+02  0.51100000000E-03 0. -1.
    9900012    2    1    2    0    0 -0.12256366029E+02  0.23282361243E+02 -0.18011949352E+02  0.59301997229E+02  0.50000097026E+02 0.  0.
        -12    1    1    2    0    0  0.12256366029E+02 -0.23282361243E+02  0.18011949352E+02  0.31886002771E+02  0.00000000000E+00 0.  1.
         11    1    3    3    0    0 -0.31892522887E+01  0.59590081590E+01 -0.11193350511E+02  0.13075633993E+02  0.51100000000E-03 0. -1.
        -11    1    3    3    0    0 -0.16312759098E+02 -0.87184071156E+01 -0.48616873824E+01  0.19124663043E+02  0.51100000000E-03 0.  1.
        -12    1    3    3    0    0  0.72456453582E+01  0.26041760199E+02 -0.19569114592E+01  0.27101700194E+02  0.00000000000E+00 0.  1.
</event>
<event>
 7    1  0.7383168E-013  0.5930194E+02  0.7816164E-02  0.1266605E+00
        -11   -1    0    0    0    0  0.00000000000E+00  0.00000000000E+00  0.45593999997E+02  0.45594000000E+02  0.51100000000E-03 0.  1.
         11   -1    0    0    0    0 -0.00000000000E+00 -0.00000000000E+00 -0.45593999997E+02  0.45594000000E+02  0.51100000000E-03 0. -1.
    9900012    2    1    2    0    0 -0.14888193187E+02  0.74618288605E+01 -0.27191611297E+02  0.59301938606E+02  0.49999990112E+02 0.  0.
        -12    1    1    2    0    0  0.14888193187E+02 -0.74618288605E+01  0.27191611297E+02  0.31886061394E+02  0.00000000000E+00 0.  1.
         11    1    3    3    0    0 -0.26320392422E+01  0.65585367381E+01 -0.22569122447E+02  0.23649679132E+02  0.51100000000E-03 0.  1.
        -11    1    3    3    0    0 -0.17020831525E+01  0.78798153487E+01 -0.16458880622E+02  0.18327120029E+02  0.51100000000E-03 0. -1.
        -12    1    3    3    0    0 -0.10554070792E+02 -0.69765232264E+01  0.11836391772E+02  0.17325139445E+02  0.00000000000E+00 0.  1.
</event>
<event>
 7    1  0.7383168E-013  0.5930192E+02  0.7816164E-02  0.1266605E+00
        -11   -1    0    0    0    0  0.00000000000E+00  0.00000000000E+00  0.45593999997E+02  0.45594000000E+02  0.51100000000E-03 0.  1.
         11   -1    0    0    0    0 -0.00000000000E+00 -0.00000000000E+00 -0.45593999997E+02  0.45594000000E+02  0.51100000000E-03 0. -1.
    9900012    2    1    2    0    0  0.28382075738E+02 -0.88973830439E+01 -0.11489831902E+02  0.59301923331E+02  0.49999962254E+02 0.  0.
        -12    1    1    2    0    0 -0.28382075738E+02  0.88973830439E+01  0.11489831902E+02  0.31886076669E+02  0.00000000000E+00 0.  1.
         11    1    3    3    0    0  0.98626433742E+01 -0.12557414813E+02 -0.74130059151E+01  0.17604347704E+02  0.51100000000E-03 0. -1.
        -11    1    3    3    0    0 -0.88209782962E+01 -0.34978971949E+01 -0.89202601191E+01  0.13023670133E+02  0.51100000000E-03 0.  1.
        -12    1    3    3    0    0  0.27340410660E+02  0.71579289638E+01  0.48434341326E+01  0.28673905494E+02  0.00000000000E+00 0.  1.
</event>
<event>
 7    1  0.7383168E-013  0.5930167E+02  0.7816164E-02  0.1266606E+00
        -11   -1    0    0    0    0  0.00000000000E+00  0.00000000000E+00  0.45593999997E+02  0.45594000000E+02  0.51100000000E-03 0.  1.
         11   -1    0    0    0    0 -0.00000000000E+00 -0.00000000000E+00 -0.45593999997E+02  0.45594000000E+02  0.51100000000E-03 0. -1.
    9900012    2    1    2    0    0 -0.18364988884E+02 -0.26064580417E+02 -0.32074417238E+00  0.59301669921E+02  0.49999500093E+02 0.  0.
        -12    1    1    2    0    0  0.18364988884E+02  0.26064580417E+02  0.32074417238E+00  0.31886330079E+02  0.00000000000E+00 0.  1.
         11    1    3    3    0    0  0.14005958328E+02 -0.41845195354E+01  0.26857861287E+01  0.14862386074E+02  0.51100000000E-03 0. -1.
        -11    1    3    3    0    0 -0.15068608527E+02 -0.10890114997E+02 -0.11922800801E+02  0.22086438074E+02  0.51100000000E-03 0.  1.
        -12    1    3    3    0    0 -0.17302338685E+02 -0.10989945885E+02  0.89162705003E+01  0.22352845773E+02  0.00000000000E+00 0.  1.
</event>
<event>
 7    1  0.7383168E-013  0.5930196E+02  0.7816164E-02  0.1266605E+00
        -11   -1    0    0    0    0  0.00000000000E+00  0.00000000000E+00  0.45593999997E+02  0.45594000000E+02  0.51100000000E-03 0. -1.
         11   -1    0    0    0    0 -0.00000000000E+00 -0.00000000000E+00 -0.45593999997E+02  0.45594000000E+02  0.51100000000E-03 0.  1.
    9900012    2    1    2    0    0 -0.49208634428E+01  0.13013012304E+02  0.28690875970E+02  0.59301956812E+02  0.50000023316E+02 0.  0.
        -12    1    1    2    0    0  0.49208634428E+01 -0.13013012304E+02 -0.28690875970E+02  0.31886043188E+02  0.00000000000E+00 0.  1.
         11    1    3    3    0    0 -0.11187397908E+02  0.13712064546E+02 -0.46520074753E+01  0.18298080771E+02  0.51100000000E-03 0. -1.
        -11    1    3    3    0    0 -0.90142180900E+00  0.10065140046E+02  0.94498789682E+01  0.13835455113E+02  0.51100000000E-03 0.  1.
        -12    1    3    3    0    0  0.71679562744E+01 -0.10764192289E+02  0.23893004477E+02  0.27168420928E+02  0.00000000000E+00 0.  1.
</event>
<event>
 7    1  0.7383168E-013  0.5930195E+02  0.7816164E-02  0.1266605E+00
        -11   -1    0    0    0    0  0.00000000000E+00  0.00000000000E+00  0.45593999997E+02  0.45594000000E+02  0.51100000000E-03 0. -1.
         11   -1    0    0    0    0 -0.00000000000E+00 -0.00000000000E+00 -0.45593999997E+02  0.45594000000E+02  0.51100000000E-03 0.  1.
    9900012    2    1    2    0    0 -0.24938472089E+02 -0.19562458693E+02  0.34789236183E+01  0.59301951487E+02  0.50000013603E+02 0.  0.
        -12    1    1    2    0    0  0.24938472089E+02  0.19562458693E+02 -0.34789236183E+01  0.31886048513E+02  0.00000000000E+00 0.  1.
         11    1    3    3    0    0 -0.28233337340E+01  0.92651651480E+01 -0.46989828467E+00  0.96971801702E+01  0.51100000000E-03 0. -1.
        -11    1    3    3    0    0  0.85029856869E+01 -0.47757189257E+01 -0.26690211356E+01  0.10110980711E+02  0.51100000000E-03 0.  1.
         12    1    3    3    0    0 -0.30618124042E+02 -0.24051904916E+02  0.66178430386E+01  0.39493790606E+02  0.00000000000E+00 0. -1.
</event>
<event>
 7    1  0.7383168E-013  0.5930197E+02  0.7816164E-02  0.1266605E+00
        -11   -1    0    0    0    0  0.00000000000E+00  0.00000000000E+00  0.45593999997E+02  0.45594000000E+02  0.51100000000E-03 0.  1.
         11   -1    0    0    0    0 -0.00000000000E+00 -0.00000000000E+00 -0.45593999997E+02  0.45594000000E+02  0.51100000000E-03 0. -1.
    9900012    2    1    2    0    0 -0.45393791845E+01 -0.57502350987E+01 -0.31033007421E+02  0.59301973019E+02  0.50000052872E+02 0.  0.
        -12    1    1    2    0    0  0.45393791845E+01  0.57502350987E+01  0.31033007421E+02  0.31886026981E+02  0.00000000000E+00 0.  1.
         11    1    3    3    0    0 -0.94909353830E+01 -0.26549864930E+01 -0.23900966359E+02  0.25853104279E+02  0.51100000000E-03 0. -1.
        -11    1    3    3    0    0 -0.10617396542E+02 -0.10922434608E+02 -0.27227608013E+01  0.15473917208E+02  0.51100000000E-03 0.  1.
        -12    1    3    3    0    0  0.15568952740E+02  0.78271860028E+01 -0.44092802609E+01  0.17974951532E+02  0.00000000000E+00 0.  1.
</event>
<event>
 7    1  0.7383168E-013  0.5930193E+02  0.7816164E-02  0.1266605E+00
        -11   -1    0    0    0    0  0.00000000000E+00  0.00000000000E+00  0.45593999997E+02  0.45594000000E+02  0.51100000000E-03 0.  1.
         11   -1    0    0    0    0 -0.00000000000E+00 -0.00000000000E+00 -0.45593999997E+02  0.45594000000E+02  0.51100000000E-03 0. -1.
    9900012    2    1    2    0    0 -0.11400943593E+01  0.29401676185E+02 -0.12286701753E+02  0.59301930666E+02  0.49999975631E+02 0.  0.
        -12    1    1    2    0    0  0.11400943593E+01 -0.29401676185E+02  0.12286701753E+02  0.31886069334E+02  0.00000000000E+00 0.  1.
         11    1    3    3    0    0  0.81649912041E+01 -0.32794096752E+01 -0.21660531045E+02  0.23379482770E+02  0.51100000000E-03 0. -1.
        -11    1    3    3    0    0 -0.89012505274E+00  0.27797870715E+01  0.30515895188E+01  0.42227642161E+01  0.51100000000E-03 0.  1.
        -12    1    3    3    0    0 -0.84149605107E+01  0.29901298789E+02  0.63222397727E+01  0.31699683680E+02  0.00000000000E+00 0.  1.
</event>
<event>
 7    1  0.7383168E-013  0.5930196E+02  0.7816164E-02  0.1266605E+00
        -11   -1    0    0    0    0  0.00000000000E+00  0.00000000000E+00  0.45593999997E+02  0.45594000000E+02  0.51100000000E-03 0. -1.
         11   -1    0    0    0    0 -0.00000000000E+00 -0.00000000000E+00 -0.45593999997E+02  0.45594000000E+02  0.51100000000E-03 0.  1.
    9900012    2    1    2    0    0  0.39940161743E+01 -0.37116081076E+01  0.31416414078E+02  0.59301964287E+02  0.50000036949E+02 0.  0.
        -12    1    1    2    0    0 -0.39940161743E+01  0.37116081076E+01 -0.31416414078E+02  0.31886035713E+02  0.00000000000E+00 0.  1.
         11    1    3    3    0    0  0.95911343791E+00  0.38097463030E+00 -0.29679507170E+01  0.31422558736E+01  0.51100000000E-03 0. -1.
        -11    1    3    3    0    0  0.15989583657E+02 -0.93405255625E+01 -0.55717344928E+00  0.18526269074E+02  0.51100000000E-03 0.  1.
         12    1    3    3    0    0 -0.12954680920E+02  0.52479428246E+01  0.34941538244E+02  0.37633439339E+02  0.00000000000E+00 0. -1.
</event>
<event>
 7    1  0.7383168E-013  0.5930177E+02  0.7816164E-02  0.1266605E+00
        -11   -1    0    0    0    0  0.00000000000E+00  0.00000000000E+00  0.45593999997E+02  0.45594000000E+02  0.51100000000E-03 0.  1.
         11   -1    0    0    0    0 -0.00000000000E+00 -0.00000000000E+00 -0.45593999997E+02  0.45594000000E+02  0.51100000000E-03 0. -1.
    9900012    2    1    2    0    0 -0.30761469452E+02 -0.69186416239E+01 -0.47535542287E+01  0.59301766567E+02  0.49999676353E+02 0.  0.
        -12    1    1    2    0    0  0.30761469452E+02  0.69186416239E+01  0.47535542287E+01  0.31886233433E+02  0.00000000000E+00 0.  1.
         11    1    3    3    0    0 -0.15691656497E+01 -0.11168939353E+02 -0.90126604158E+01  0.14437296670E+02  0.51100000000E-03 0. -1.
        -11    1    3    3    0    0 -0.24550237212E+02 -0.12165851646E+02  0.54362551261E+00  0.27404700735E+02  0.51100000000E-03 0.  1.
         12    1    3    3    0    0 -0.46420665901E+01  0.16416149375E+02  0.37154806745E+01  0.17459769161E+02  0.00000000000E+00 0. -1.
</event>
<event>
 7    1  0.7383168E-013  0.5930195E+02  0.7816164E-02  0.1266605E+00
        -11   -1    0    0    0    0  0.00000000000E+00  0.00000000000E+00  0.45593999997E+02  0.45594000000E+02  0.51100000000E-03 0.  1.
         11   -1    0    0    0    0 -0.00000000000E+00 -0.00000000000E+00 -0.45593999997E+02  0.45594000000E+02  0.51100000000E-03 0. -1.
    9900012    2    1    2    0    0 -0.18137777712E+02  0.22723403713E+02  0.13091539697E+02  0.59301945552E+02  0.50000002779E+02 0.  0.
        -12    1    1    2    0    0  0.18137777712E+02 -0.22723403713E+02 -0.13091539697E+02  0.31886054448E+02  0.00000000000E+00 0.  1.
         11    1    3    3    0    0 -0.17303669702E+02 -0.52055883674E+01  0.40844304835E+01  0.18525596024E+02  0.51100000000E-03 0. -1.
        -11    1    3    3    0    0 -0.47948185446E+01 -0.38198342518E+01 -0.27110029011E+01  0.67030556896E+01  0.51100000000E-03 0.  1.
         12    1    3    3    0    0  0.39607105349E+01  0.31748826333E+02  0.11718112115E+02  0.34073293838E+02  0.00000000000E+00 0. -1.
</event>
<event>
 7    1  0.7383168E-013  0.5930192E+02  0.7816164E-02  0.1266605E+00
        -11   -1    0    0    0    0  0.00000000000E+00  0.00000000000E+00  0.45593999997E+02  0.45594000000E+02  0.51100000000E-03 0. -1.
         11   -1    0    0    0    0 -0.00000000000E+00 -0.00000000000E+00 -0.45593999997E+02  0.45594000000E+02  0.51100000000E-03 0.  1.
    9900012    2    1    2    0    0 -0.27907374808E+02 -0.26499079392E+01  0.15194695280E+02  0.59301916117E+02  0.49999949098E+02 0.  0.
        -12    1    1    2    0    0  0.27907374808E+02  0.26499079392E+01 -0.15194695280E+02  0.31886083883E+02  0.00000000000E+00 0.  1.
         11    1    3    3    0    0 -0.12059105317E+01 -0.31535021928E+01  0.11964191181E+02  0.12431438660E+02  0.51100000000E-03 0. -1.
        -11    1    3    3    0    0  0.37147781088E+01 -0.61262043054E+01  0.12484109835E+02  0.14393851264E+02  0.51100000000E-03 0.  1.
        -12    1    3    3    0    0 -0.30416242385E+02  0.66297985590E+01 -0.92536057361E+01  0.32476626193E+02  0.00000000000E+00 0.  1.
</event>
<event>
 7    1  0.7383168E-013  0.5930195E+02  0.7816164E-02  0.1266605E+00
        -11   -1    0    0    0    0  0.00000000000E+00  0.00000000000E+00  0.45593999997E+02  0.45594000000E+02  0.51100000000E-03 0. -1.
         11   -1    0    0    0    0 -0.00000000000E+00 -0.00000000000E+00 -0.45593999997E+02  0.45594000000E+02  0.51100000000E-03 0.  1.
    9900012    2    1    2    0    0 -0.14920677377E+02  0.27490252641E+02 -0.61951494047E+01  0.59301945371E+02  0.50000002450E+02 0.  0.
        -12    1    1    2    0    0  0.14920677377E+02 -0.27490252641E+02  0.61951494047E+01  0.31886054629E+02  0.00000000000E+00 0.  1.
         11    1    3    3    0    0  0.37796318645E+01 -0.78753485246E+00  0.24214070328E+01  0.45573062718E+01  0.51100000000E-03 0. -1.
        -11    1    3    3    0    0  0.47401435845E+01 -0.77942119769E+01  0.39304450232E+01  0.99331314239E+01  0.51100000000E-03 0.  1.
        -12    1    3    3    0    0 -0.23440452826E+02  0.36071999470E+02 -0.12547001461E+02  0.44811507675E+02  0.00000000000E+00 0.  1.
</event>
<event>
 7    1  0.7383168E-013  0.5930196E+02  0.7816164E-02  0.1266605E+00
        -11   -1    0    0    0    0  0.00000000000E+00  0.00000000000E+00  0.45593999997E+02  0.45594000000E+02  0.51100000000E-03 0.  1.
         11   -1    0    0    0    0 -0.00000000000E+00 -0.00000000000E+00 -0.45593999997E+02  0.45594000000E+02  0.51100000000E-03 0. -1.
    9900012    2    1    2    0    0  0.13207329674E+02 -0.14990742851E+02 -0.24850832260E+02  0.59301956151E+02  0.50000022110E+02 0.  0.
        -12    1    1    2    0    0 -0.13207329674E+02  0.14990742851E+02  0.24850832260E+02  0.31886043849E+02  0.00000000000E+00 0.  1.
         11    1    3    3    0    0  0.51930896371E+01  0.12266688469E+02 -0.95135376068E-01  0.13320993844E+02  0.51100000000E-03 0. -1.
        -11    1    3    3    0    0  0.17159204236E+02 -0.22161667953E+02 -0.20279366475E+02  0.34595238420E+02  0.51100000000E-03 0.  1.
        -12    1    3    3    0    0 -0.91449641993E+01 -0.50957633676E+01 -0.44763304085E+01  0.11385723887E+02  0.00000000000E+00 0.  1.
</event>
<event>
 7    1  0.7383168E-013  0.5930196E+02  0.7816164E-02  0.1266605E+00
        -11   -1    0    0    0    0  0.00000000000E+00  0.00000000000E+00  0.45593999997E+02  0.45594000000E+02  0.51100000000E-03 0.  1.
         11   -1    0    0    0    0 -0.00000000000E+00 -0.00000000000E+00 -0.45593999997E+02  0.45594000000E+02  0.51100000000E-03 0. -1.
    9900012    2    1    2    0    0 -0.16453500715E+02  0.21682220330E+02 -0.16609736163E+02  0.59301957605E+02  0.50000024761E+02 0.  0.
        -12    1    1    2    0    0  0.16453500715E+02 -0.21682220330E+02  0.16609736163E+02  0.31886042395E+02  0.00000000000E+00 0.  1.
         11    1    3    3    0    0 -0.11705559763E+01  0.41683559981E+01 -0.28287232501E+02  0.28616654519E+02  0.51100000000E-03 0. -1.
        -11    1    3    3    0    0  0.31870009175E+01  0.14175661788E+01 -0.12657807450E+00  0.34903425318E+01  0.51100000000E-03 0.  1.
        -12    1    3    3    0    0 -0.18469945656E+02  0.16096298153E+02  0.11804074412E+02  0.27194960554E+02  0.00000000000E+00 0.  1.
</event>
<event>
 7    1  0.7383168E-013  0.5930195E+02  0.7816164E-02  0.1266605E+00
        -11   -1    0    0    0    0  0.00000000000E+00  0.00000000000E+00  0.45593999997E+02  0.45594000000E+02  0.51100000000E-03 0.  1.
         11   -1    0    0    0    0 -0.00000000000E+00 -0.00000000000E+00 -0.45593999997E+02  0.45594000000E+02  0.51100000000E-03 0. -1.
    9900012    2    1    2    0    0 -0.29227762997E+02 -0.78405774791E+01  0.10049050402E+02  0.59301949774E+02  0.50000010480E+02 0.  0.
        -12    1    1    2    0    0  0.29227762997E+02  0.78405774791E+01 -0.10049050402E+02  0.31886050226E+02  0.00000000000E+00 0.  1.
         11    1    3    3    0    0  0.40652815627E+01  0.14857603174E+01 -0.94138022393E+01  0.10361161651E+02  0.51100000000E-03 0. -1.
        -11    1    3    3    0    0 -0.17327878353E+02 -0.17303219479E+01 -0.55795957313E+01  0.18286095019E+02  0.51100000000E-03 0.  1.
        -12    1    3    3    0    0 -0.15965166207E+02 -0.75960158485E+01  0.25042448373E+02  0.30654693104E+02  0.00000000000E+00 0.  1.
</event>
<event>
 7    1  0.7383168E-013  0.5930187E+02  0.7816164E-02  0.1266605E+00
        -11   -1    0    0    0    0  0.00000000000E+00  0.00000000000E+00  0.45593999997E+02  0.45594000000E+02  0.51100000000E-03 0. -1.
         11   -1    0    0    0    0 -0.00000000000E+00 -0.00000000000E+00 -0.45593999997E+02  0.45594000000E+02  0.51100000000E-03 0.  1.
    9900012    2    1    2    0    0 -0.11608612878E+02 -0.26282868928E+02  0.13826652589E+02  0.59301868001E+02  0.49999861345E+02 0.  0.
        -12    1    1    2    0    0  0.11608612878E+02  0.26282868928E+02 -0.13826652589E+02  0.31886131999E+02  0.00000000000E+00 0.  1.
         11    1    3    3    0    0 -0.11919968822E+02  0.20576515855E+01  0.46069897860E+01  0.12943876619E+02  0.51100000000E-03 0. -1.
        -11    1    3    3    0    0 -0.38304984147E+00 -0.15408555483E+01 -0.12039123635E+02  0.12143371079E+02  0.51100000000E-03 0.  1.
         12    1    3    3    0    0  0.69440578571E+00 -0.26799664966E+02  0.21258786438E+02  0.34214620303E+02  0.00000000000E+00 0. -1.
</event>
<event>
 7    1  0.7383168E-013  0.5930201E+02  0.7816164E-02  0.1266605E+00
        -11   -1    0    0    0    0  0.00000000000E+00  0.00000000000E+00  0.45593999997E+02  0.45594000000E+02  0.51100000000E-03 0.  1.
         11   -1    0    0    0    0 -0.00000000000E+00 -0.00000000000E+00 -0.45593999997E+02  0.45594000000E+02  0.51100000000E-03 0. -1.
    9900012    2    1    2    0    0 -0.18427888032E+02 -0.18149051523E+01 -0.25958338357E+02  0.59302011411E+02  0.50000122891E+02 0.  0.
        -12    1    1    2    0    0  0.18427888032E+02  0.18149051523E+01  0.25958338357E+02  0.31885988589E+02  0.00000000000E+00 0.  1.
         11    1    3    3    0    0 -0.26754642709E+00 -0.73473855898E-01  0.88203513458E+01  0.88247140250E+01  0.51100000000E-03 0. -1.
        -11    1    3    3    0    0 -0.46911438599E+01 -0.48278783110E+01  0.49879473675E+01  0.83782372193E+01  0.51100000000E-03 0.  1.
         12    1    3    3    0    0 -0.13469197745E+02  0.30864470146E+01 -0.39766637070E+02  0.42099060167E+02  0.00000000000E+00 0. -1.
</event>
<event>
 7    1  0.7383168E-013  0.5930193E+02  0.7816164E-02  0.1266605E+00
        -11   -1    0    0    0    0  0.00000000000E+00  0.00000000000E+00  0.45593999997E+02  0.45594000000E+02  0.51100000000E-03 0.  1.
         11   -1    0    0    0    0 -0.00000000000E+00 -0.00000000000E+00 -0.45593999997E+02  0.45594000000E+02  0.51100000000E-03 0. -1.
    9900012    2    1    2    0    0  0.25706527512E+02 -0.10507480012E+02 -0.15668079842E+02  0.59301930646E+02  0.49999975594E+02 0.  0.
        -12    1    1    2    0    0 -0.25706527512E+02  0.10507480012E+02  0.15668079842E+02  0.31886069354E+02  0.00000000000E+00 0.  1.
         11    1    3    3    0    0 -0.17217753546E+01  0.42173124822E+01 -0.41994091405E+01  0.61955849066E+01  0.51100000000E-03 0. -1.
        -11    1    3    3    0    0 -0.15656624861E+01  0.11845919499E+02  0.61368720565E+00  0.11964686374E+02  0.51100000000E-03 0.  1.
         12    1    3    3    0    0  0.28993965353E+02 -0.26570711993E+02 -0.12082357908E+02  0.41141659365E+02  0.00000000000E+00 0. -1.
</event>
<event>
 7    1  0.7383168E-013  0.5930196E+02  0.7816164E-02  0.1266605E+00
        -11   -1    0    0    0    0  0.00000000000E+00  0.00000000000E+00  0.45593999997E+02  0.45594000000E+02  0.51100000000E-03 0.  1.
         11   -1    0    0    0    0 -0.00000000000E+00 -0.00000000000E+00 -0.45593999997E+02  0.45594000000E+02  0.51100000000E-03 0. -1.
    9900012    2    1    2    0    0 -0.31268492083E+02  0.53017350446E+01  0.33004336331E+01  0.59301955187E+02  0.50000020352E+02 0.  0.
        -12    1    1    2    0    0  0.31268492083E+02 -0.53017350446E+01 -0.33004336331E+01  0.31886044813E+02  0.00000000000E+00 0.  1.
         11    1    3    3    0    0  0.38327150102E+01 -0.55959493799E+01 -0.10508174577E+02  0.12507041497E+02  0.51100000000E-03 0. -1.
        -11    1    3    3    0    0 -0.94961228542E+01  0.12653552262E+02 -0.30176243940E+01  0.16105737839E+02  0.51100000000E-03 0.  1.
        -12    1    3    3    0    0 -0.25605084239E+02 -0.17558678374E+01  0.16826232604E+02  0.30689175851E+02  0.00000000000E+00 0.  1.
</event>
<event>
 7    1  0.7383168E-013  0.5930197E+02  0.7816164E-02  0.1266605E+00
        -11   -1    0    0    0    0  0.00000000000E+00  0.00000000000E+00  0.45593999997E+02  0.45594000000E+02  0.51100000000E-03 0. -1.
         11   -1    0    0    0    0 -0.00000000000E+00 -0.00000000000E+00 -0.45593999997E+02  0.45594000000E+02  0.51100000000E-03 0.  1.
    9900012    2    1    2    0    0 -0.52468954514E+01  0.47882889003E+01  0.31084747489E+02  0.59301966240E+02  0.50000040510E+02 0.  0.
        -12    1    1    2    0    0  0.52468954514E+01 -0.47882889003E+01 -0.31084747489E+02  0.31886033760E+02  0.00000000000E+00 0.  1.
         11    1    3    3    0    0 -0.22098986156E+01 -0.32112952981E+01  0.65735763458E+01  0.76425110807E+01  0.51100000000E-03 0. -1.
        -11    1    3    3    0    0  0.91631796013E+01  0.10878213121E+01 -0.10479927624E+02  0.13963384220E+02  0.51100000000E-03 0.  1.
         12    1    3    3    0    0 -0.12200176437E+02  0.69117628863E+01  0.34991098768E+02  0.37696070939E+02  0.00000000000E+00 0. -1.
</event>
<event>
 7    1  0.7383168E-013  0.5930194E+02  0.7816164E-02  0.1266605E+00
        -11   -1    0    0    0    0  0.00000000000E+00  0.00000000000E+00  0.45593999997E+02  0.45594000000E+02  0.51100000000E-03 0.  1.
         11   -1    0    0    0    0 -0.00000000000E+00 -0.00000000000E+00 -0.45593999997E+02  0.45594000000E+02  0.51100000000E-03 0. -1.
    9900012    2    1    2    0    0  0.26903348284E+02  0.11009133064E+01  0.17079771235E+02  0.59301941222E+02  0.49999994882E+02 0.  0.
        -12    1    1    2    0    0 -0.26903348284E+02 -0.11009133064E+01 -0.17079771235E+02  0.31886058778E+02  0.00000000000E+00 0.  1.
         11    1    3    3    0    0  0.41360199214E+01  0.14397702507E+02  0.34278485894E+01  0.15367193774E+02  0.51100000000E-03 0. -1.
        -11    1    3    3    0    0  0.17902907321E+02 -0.12515486623E+02 -0.68157706878E+01  0.22882443626E+02  0.51100000000E-03 0.  1.
         12    1    3    3    0    0  0.48644210409E+01 -0.78130257760E+00  0.20467693334E+02  0.21052303821E+02  0.00000000000E+00 0. -1.
</event>
<event>
 7    1  0.7383168E-013  0.5930198E+02  0.7816164E-02  0.1266605E+00
        -11   -1    0    0    0    0  0.00000000000E+00  0.00000000000E+00  0.45593999997E+02  0.45594000000E+02  0.51100000000E-03 0. -1.
         11   -1    0    0    0    0 -0.00000000000E+00 -0.00000000000E+00 -0.45593999997E+02  0.45594000000E+02  0.51100000000E-03 0.  1.
    9900012    2    1    2    0    0 -0.18409073992E+02  0.13057195799E+02  0.22524076487E+02  0.59301978158E+02  0.50000062245E+02 0.  0.
        -12    1    1    2    0    0  0.18409073992E+02 -0.13057195799E+02 -0.22524076487E+02  0.31886021842E+02  0.00000000000E+00 0.  1.
         11    1    3    3    0    0  0.74461813658E+00 -0.18935416474E+00 -0.25614617862E+01  0.26742097734E+01  0.51100000000E-03 0. -1.
        -11    1    3    3    0    0 -0.21250000360E+01  0.14065884964E+02 -0.10156229581E+02  0.17478951472E+02  0.51100000000E-03 0.  1.
         12    1    3    3    0    0 -0.17028692092E+02 -0.81933500077E+00  0.35241767854E+02  0.39148816913E+02  0.00000000000E+00 0. -1.
</event>
<event>
 7    1  0.7383168E-013  0.5930179E+02  0.7816164E-02  0.1266605E+00
        -11   -1    0    0    0    0  0.00000000000E+00  0.00000000000E+00  0.45593999997E+02  0.45594000000E+02  0.51100000000E-03 0.  1.
         11   -1    0    0    0    0 -0.00000000000E+00 -0.00000000000E+00 -0.45593999997E+02  0.45594000000E+02  0.51100000000E-03 0. -1.
    9900012    2    1    2    0    0 -0.29929095633E+02 -0.10883672784E+02  0.15891374278E+01  0.59301788929E+02  0.49999717137E+02 0.  0.
        -12    1    1    2    0    0  0.29929095633E+02  0.10883672784E+02 -0.15891374278E+01  0.31886211071E+02  0.00000000000E+00 0.  1.
         11    1    3    3    0    0 -0.79562304030E+01  0.42228877679E+01  0.10755596436E+02  0.14029156720E+02  0.51100000000E-03 0.  1.
        -11    1    3    3    0    0  0.79354007580E+01 -0.35565494842E+01  0.52085469990E+01  0.10136497991E+02  0.51100000000E-03 0. -1.
         12    1    3    3    0    0 -0.29908265988E+02 -0.11550011068E+02 -0.14375006007E+02  0.35136134218E+02  0.00000000000E+00 0. -1.
</event>
<event>
 7    1  0.7383168E-013  0.5930195E+02  0.7816164E-02  0.1266605E+00
        -11   -1    0    0    0    0  0.00000000000E+00  0.00000000000E+00  0.45593999997E+02  0.45594000000E+02  0.51100000000E-03 0.  1.
         11   -1    0    0    0    0 -0.00000000000E+00 -0.00000000000E+00 -0.45593999997E+02  0.45594000000E+02  0.51100000000E-03 0. -1.
    9900012    2    1    2    0    0  0.39094013764E+01  0.31148397030E+02 -0.55869515552E+01  0.59301951573E+02  0.50000013760E+02 0.  0.
        -12    1    1    2    0    0 -0.39094013764E+01 -0.31148397030E+02  0.55869515552E+01  0.31886048427E+02  0.00000000000E+00 0.  1.
         11    1    3    3    0    0 -0.97172016900E+01  0.84891682437E+01 -0.39248473811E+01  0.13486823695E+02  0.51100000000E-03 0. -1.
        -11    1    3    3    0    0  0.15424249181E+02  0.43262664749E+01  0.14275026053E+02  0.21456943246E+02  0.51100000000E-03 0.  1.
         12    1    3    3    0    0 -0.17976461143E+01  0.18332962311E+02 -0.15937130227E+02  0.24358184631E+02  0.00000000000E+00 0. -1.
</event>
<event>
 7    1  0.7383168E-013  0.5930195E+02  0.7816164E-02  0.1266605E+00
        -11   -1    0    0    0    0  0.00000000000E+00  0.00000000000E+00  0.45593999997E+02  0.45594000000E+02  0.51100000000E-03 0.  1.
         11   -1    0    0    0    0 -0.00000000000E+00 -0.00000000000E+00 -0.45593999997E+02  0.45594000000E+02  0.51100000000E-03 0. -1.
    9900012    2    1    2    0    0 -0.20159952477E+02 -0.23988590061E+01 -0.24587432428E+02  0.59301952239E+02  0.50000014976E+02 0.  0.
        -12    1    1    2    0    0  0.20159952477E+02  0.23988590061E+01  0.24587432428E+02  0.31886047761E+02  0.00000000000E+00 0.  1.
         11    1    3    3    0    0 -0.27489315278E+02 -0.68115294052E+01 -0.51658668835E+01  0.28787941368E+02  0.51100000000E-03 0. -1.
        -11    1    3    3    0    0 -0.64003378115E+01  0.69149914019E+01 -0.61264188772E+01  0.11238969646E+02  0.51100000000E-03 0.  1.
         12    1    3    3    0    0  0.13729700613E+02 -0.25023210028E+01 -0.13295146667E+02  0.19275041225E+02  0.00000000000E+00 0. -1.
</event>
<event>
 7    1  0.7383168E-013  0.5930183E+02  0.7816164E-02  0.1266605E+00
        -11   -1    0    0    0    0  0.00000000000E+00  0.00000000000E+00  0.45593999997E+02  0.45594000000E+02  0.51100000000E-03 0. -1.
         11   -1    0    0    0    0 -0.00000000000E+00 -0.00000000000E+00 -0.45593999997E+02  0.45594000000E+02  0.51100000000E-03 0.  1.
    9900012    2    1    2    0    0  0.21189508190E+02  0.23428233684E+02 -0.43416863925E+01  0.59301833225E+02  0.49999797922E+02 0.  0.
        -12    1    1    2    0    0 -0.21189508190E+02 -0.23428233684E+02  0.43416863925E+01  0.31886166775E+02  0.00000000000E+00 0.  1.
         11    1    3    3    0    0  0.51840301124E+01  0.82828654160E+01 -0.47681611165E+01  0.10872690026E+02  0.51100000000E-03 0. -1.
        -11    1    3    3    0    0 -0.50971652993E+01  0.24006096618E+02 -0.46687854455E+01  0.24981419630E+02  0.51100000000E-03 0.  1.
         12    1    3    3    0    0  0.21102643377E+02 -0.88607283499E+01  0.50952601695E+01  0.23447723569E+02  0.00000000000E+00 0. -1.
</event>
<event>
 7    1  0.7383168E-013  0.5930196E+02  0.7816164E-02  0.1266605E+00
        -11   -1    0    0    0    0  0.00000000000E+00  0.00000000000E+00  0.45593999997E+02  0.45594000000E+02  0.51100000000E-03 0.  1.
         11   -1    0    0    0    0 -0.00000000000E+00 -0.00000000000E+00 -0.45593999997E+02  0.45594000000E+02  0.51100000000E-03 0. -1.
    9900012    2    1    2    0    0 -0.20885718090E+02  0.17552669717E+02 -0.16504843149E+02  0.59301964159E+02  0.50000036714E+02 0.  0.
        -12    1    1    2    0    0  0.20885718090E+02 -0.17552669717E+02  0.16504843149E+02  0.31886035841E+02  0.00000000000E+00 0.  1.
         11    1    3    3    0    0 -0.13309908624E+01  0.18665624437E+02 -0.91061297136E+01  0.20811022822E+02  0.51100000000E-03 0. -1.
        -11    1    3    3    0    0  0.21423508438E+01  0.77532686804E+01  0.72685304379E+01  0.10841327288E+02  0.51100000000E-03 0.  1.
        -12    1    3    3    0    0 -0.21697078071E+02 -0.88662234004E+01 -0.14667243873E+02  0.27649614049E+02  0.00000000000E+00 0.  1.
</event>
<event>
 7    1  0.7383168E-013  0.5930196E+02  0.7816164E-02  0.1266605E+00
        -11   -1    0    0    0    0  0.00000000000E+00  0.00000000000E+00  0.45593999997E+02  0.45594000000E+02  0.51100000000E-03 0. -1.
         11   -1    0    0    0    0 -0.00000000000E+00 -0.00000000000E+00 -0.45593999997E+02  0.45594000000E+02  0.51100000000E-03 0.  1.
    9900012    2    1    2    0    0  0.93529374858E+01 -0.16427794391E+02  0.25678193285E+02  0.59301961072E+02  0.50000031084E+02 0.  0.
        -12    1    1    2    0    0 -0.93529374858E+01  0.16427794391E+02 -0.25678193285E+02  0.31886038928E+02  0.00000000000E+00 0.  1.
         11    1    3    3    0    0  0.10991317344E+02 -0.72560166093E+00  0.52668626482E+01  0.12209643612E+02  0.51100000000E-03 0. -1.
        -11    1    3    3    0    0 -0.15302837845E+02 -0.16791132996E+02  0.25891327702E+00  0.22719727765E+02  0.51100000000E-03 0.  1.
         12    1    3    3    0    0  0.13664457986E+02  0.10889402661E+01  0.20152417360E+02  0.24372589694E+02  0.00000000000E+00 0. -1.
</event>
<event>
 7    1  0.7383168E-013  0.5930192E+02  0.7816164E-02  0.1266605E+00
        -11   -1    0    0    0    0  0.00000000000E+00  0.00000000000E+00  0.45593999997E+02  0.45594000000E+02  0.51100000000E-03 0. -1.
         11   -1    0    0    0    0 -0.00000000000E+00 -0.00000000000E+00 -0.45593999997E+02  0.45594000000E+02  0.51100000000E-03 0.  1.
    9900012    2    1    2    0    0 -0.30865612999E+02  0.64494280800E+01  0.47371587687E+01  0.59301923704E+02  0.49999962935E+02 0.  0.
        -12    1    1    2    0    0  0.30865612999E+02 -0.64494280800E+01 -0.47371587687E+01  0.31886076296E+02  0.00000000000E+00 0.  1.
         11    1    3    3    0    0 -0.11894626101E+02  0.15513140115E+02 -0.12299478183E+01  0.19587047205E+02  0.51100000000E-03 0. -1.
        -11    1    3    3    0    0 -0.27264374712E+02 -0.83056461734E+01  0.10327066842E+02  0.30314653166E+02  0.51100000000E-03 0.  1.
         12    1    3    3    0    0  0.82933878138E+01 -0.75806586202E+00 -0.43599602549E+01  0.94002233328E+01  0.00000000000E+00 0. -1.
</event>
<event>
 7    1  0.7383168E-013  0.5930194E+02  0.7816164E-02  0.1266605E+00
        -11   -1    0    0    0    0  0.00000000000E+00  0.00000000000E+00  0.45593999997E+02  0.45594000000E+02  0.51100000000E-03 0.  1.
         11   -1    0    0    0    0 -0.00000000000E+00 -0.00000000000E+00 -0.45593999997E+02  0.45594000000E+02  0.51100000000E-03 0. -1.
    9900012    2    1    2    0    0  0.10207877443E+01  0.31868685242E+02  0.25608767878E+00  0.59301942113E+02  0.49999996508E+02 0.  0.
        -12    1    1    2    0    0 -0.10207877443E+01 -0.31868685242E+02 -0.25608767878E+00  0.31886057887E+02  0.00000000000E+00 0.  1.
         11    1    3    3    0    0  0.47476366331E+01  0.12294232806E+02  0.62363548330E+01  0.14580134970E+02  0.51100000000E-03 0. -1.
        -11    1    3    3    0    0  0.17126304301E+02  0.47509887652E+01  0.20868932057E+01  0.17895175796E+02  0.51100000000E-03 0.  1.
        -12    1    3    3    0    0 -0.20853153189E+02  0.14823463671E+02 -0.80671603599E+01  0.26826631347E+02  0.00000000000E+00 0.  1.
</event>
<event>
 7    1  0.7383168E-013  0.5930195E+02  0.7816164E-02  0.1266605E+00
        -11   -1    0    0    0    0  0.00000000000E+00  0.00000000000E+00  0.45593999997E+02  0.45594000000E+02  0.51100000000E-03 0. -1.
         11   -1    0    0    0    0 -0.00000000000E+00 -0.00000000000E+00 -0.45593999997E+02  0.45594000000E+02  0.51100000000E-03 0.  1.
    9900012    2    1    2    0    0  0.23289769282E+02 -0.60214299033E+01  0.20929623138E+02  0.59301951390E+02  0.50000013426E+02 0.  0.
        -12    1    1    2    0    0 -0.23289769282E+02  0.60214299033E+01 -0.20929623138E+02  0.31886048610E+02  0.00000000000E+00 0.  1.
         11    1    3    3    0    0  0.11384989587E+02  0.12338018047E+02  0.12200329294E+02  0.20753137410E+02  0.51100000000E-03 0. -1.
        -11    1    3    3    0    0  0.17640090434E+02 -0.13808123993E+01 -0.17637329833E+01  0.17781737477E+02  0.51100000000E-03 0.  1.
        -12    1    3    3    0    0 -0.57353107394E+01 -0.16978635551E+02  0.10493026827E+02  0.20767076502E+02  0.00000000000E+00 0.  1.
</event>
<event>
 7    1  0.7383168E-013  0.5930226E+02  0.7816164E-02  0.1266604E+00
        -11   -1    0    0    0    0  0.00000000000E+00  0.00000000000E+00  0.45593999997E+02  0.45594000000E+02  0.51100000000E-03 0.  1.
         11   -1    0    0    0    0 -0.00000000000E+00 -0.00000000000E+00 -0.45593999997E+02  0.45594000000E+02  0.51100000000E-03 0. -1.
    9900012    2    1    2    0    0 -0.18893501195E+02 -0.22969686216E+02 -0.11494756674E+02  0.59302261758E+02  0.50000579460E+02 0.  0.
        -12    1    1    2    0    0  0.18893501195E+02  0.22969686216E+02  0.11494756674E+02  0.31885738242E+02  0.00000000000E+00 0.  1.
         11    1    3    3    0    0  0.10080769327E+02  0.17230000789E+01  0.10141440475E+01  0.10277116712E+02  0.51100000000E-03 0. -1.
        -11    1    3    3    0    0 -0.19954493420E+01  0.12348515064E+01 -0.11349289420E+02  0.11589350582E+02  0.51100000000E-03 0.  1.
         12    1    3    3    0    0 -0.26978821180E+02 -0.25927537802E+02 -0.11596113012E+01  0.37435794463E+02  0.00000000000E+00 0. -1.
</event>
<event>
 7    1  0.7383168E-013  0.5930193E+02  0.7816164E-02  0.1266605E+00
        -11   -1    0    0    0    0  0.00000000000E+00  0.00000000000E+00  0.45593999997E+02  0.45594000000E+02  0.51100000000E-03 0. -1.
         11   -1    0    0    0    0 -0.00000000000E+00 -0.00000000000E+00 -0.45593999997E+02  0.45594000000E+02  0.51100000000E-03 0.  1.
    9900012    2    1    2    0    0  0.25778332291E+02 -0.90465425094E+01  0.16442592615E+02  0.59301934093E+02  0.49999981882E+02 0.  0.
        -12    1    1    2    0    0 -0.25778332291E+02  0.90465425094E+01 -0.16442592615E+02  0.31886065907E+02  0.00000000000E+00 0.  1.
         11    1    3    3    0    0  0.98951721207E+01  0.89099732745E+01  0.86462601009E+01  0.15876393452E+02  0.51100000000E-03 0. -1.
        -11    1    3    3    0    0  0.14976987339E+02  0.75543278778E+01  0.13916812766E+00  0.16774903501E+02  0.51100000000E-03 0.  1.
        -12    1    3    3    0    0  0.90617283152E+00 -0.25510843662E+02  0.76571643869E+01  0.26650637140E+02  0.00000000000E+00 0.  1.
</event>
<event>
 7    1  0.7383168E-013  0.5930200E+02  0.7816164E-02  0.1266605E+00
        -11   -1    0    0    0    0  0.00000000000E+00  0.00000000000E+00  0.45593999997E+02  0.45594000000E+02  0.51100000000E-03 0. -1.
         11   -1    0    0    0    0 -0.00000000000E+00 -0.00000000000E+00 -0.45593999997E+02  0.45594000000E+02  0.51100000000E-03 0.  1.
    9900012    2    1    2    0    0 -0.41718127881E+01  0.11201120877E+01  0.31592059968E+02  0.59302001097E+02  0.50000104081E+02 0.  0.
        -12    1    1    2    0    0  0.41718127881E+01 -0.11201120877E+01 -0.31592059968E+02  0.31885998903E+02  0.00000000000E+00 0.  1.
         11    1    3    3    0    0  0.10234276097E+02 -0.65738278059E+01 -0.49784541486E+01  0.13143082790E+02  0.51100000000E-03 0. -1.
        -11    1    3    3    0    0 -0.15919272059E+02 -0.15815719654E+01  0.12447395438E+02  0.20269737201E+02  0.51100000000E-03 0.  1.
        -12    1    3    3    0    0  0.15131831735E+01  0.92755118590E+01  0.24123118679E+02  0.25889181106E+02  0.00000000000E+00 0.  1.
</event>
<event>
 7    1  0.7383168E-013  0.5930194E+02  0.7816164E-02  0.1266605E+00
        -11   -1    0    0    0    0  0.00000000000E+00  0.00000000000E+00  0.45593999997E+02  0.45594000000E+02  0.51100000000E-03 0. -1.
         11   -1    0    0    0    0 -0.00000000000E+00 -0.00000000000E+00 -0.45593999997E+02  0.45594000000E+02  0.51100000000E-03 0.  1.
    9900012    2    1    2    0    0  0.19606757984E+02 -0.12298343168E+02  0.21932775623E+02  0.59301939569E+02  0.49999991868E+02 0.  0.
        -12    1    1    2    0    0 -0.19606757984E+02  0.12298343168E+02 -0.21932775623E+02  0.31886060431E+02  0.00000000000E+00 0.  1.
         11    1    3    3    0    0 -0.10368962370E+02  0.53363263924E+01  0.21880004959E+01  0.11865037144E+02  0.51100000000E-03 0. -1.
        -11    1    3    3    0    0 -0.38769796640E+01 -0.25092689826E+01  0.66870754101E+01  0.81267693423E+01  0.51100000000E-03 0.  1.
        -12    1    3    3    0    0  0.33852700017E+02 -0.15125400577E+02  0.13057699717E+02  0.39310133083E+02  0.00000000000E+00 0.  1.
</event>
<event>
 7    1  0.7383168E-013  0.5930208E+02  0.7816164E-02  0.1266604E+00
        -11   -1    0    0    0    0  0.00000000000E+00  0.00000000000E+00  0.45593999997E+02  0.45594000000E+02  0.51100000000E-03 0.  1.
         11   -1    0    0    0    0 -0.00000000000E+00 -0.00000000000E+00 -0.45593999997E+02  0.45594000000E+02  0.51100000000E-03 0. -1.
    9900012    2    1    2    0    0  0.50935871036E+00  0.13455138680E+02 -0.28903489814E+02  0.59302079493E+02  0.50000247055E+02 0.  0.
        -12    1    1    2    0    0 -0.50935871036E+00 -0.13455138680E+02  0.28903489814E+02  0.31885920507E+02  0.00000000000E+00 0.  1.
         11    1    3    3    0    0 -0.13836135895E+02  0.41074430979E+01 -0.26799924793E+02  0.30439213434E+02  0.51100000000E-03 0. -1.
        -11    1    3    3    0    0 -0.52775865274E+01 -0.24758374767E+01  0.23334810305E+00  0.58341359568E+01  0.51100000000E-03 0.  1.
        -12    1    3    3    0    0  0.19623081133E+02  0.11823533059E+02 -0.23369131234E+01  0.23028730101E+02  0.00000000000E+00 0.  1.
</event>
<event>
 7    1  0.7383168E-013  0.5930193E+02  0.7816164E-02  0.1266605E+00
        -11   -1    0    0    0    0  0.00000000000E+00  0.00000000000E+00  0.45593999997E+02  0.45594000000E+02  0.51100000000E-03 0. -1.
         11   -1    0    0    0    0 -0.00000000000E+00 -0.00000000000E+00 -0.45593999997E+02  0.45594000000E+02  0.51100000000E-03 0.  1.
    9900012    2    1    2    0    0  0.17165861918E+02 -0.25969401302E+02  0.69025182508E+01  0.59301931293E+02  0.49999976776E+02 0.  0.
        -12    1    1    2    0    0 -0.17165861918E+02  0.25969401302E+02 -0.69025182508E+01  0.31886068707E+02  0.00000000000E+00 0.  1.
         11    1    3    3    0    0  0.90154424328E+01  0.22838911623E+01  0.71503329945E+01  0.11731224288E+02  0.51100000000E-03 0. -1.
        -11    1    3    3    0    0  0.67602337014E+01  0.63375383125E+01  0.77038209571E+01  0.12050477549E+02  0.51100000000E-03 0.  1.
         12    1    3    3    0    0  0.13901857839E+01 -0.34590830776E+02 -0.79516357009E+01  0.35520229456E+02  0.00000000000E+00 0. -1.
</event>
<event>
 7    1  0.7383168E-013  0.5930194E+02  0.7816164E-02  0.1266605E+00
        -11   -1    0    0    0    0  0.00000000000E+00  0.00000000000E+00  0.45593999997E+02  0.45594000000E+02  0.51100000000E-03 0.  1.
         11   -1    0    0    0    0 -0.00000000000E+00 -0.00000000000E+00 -0.45593999997E+02  0.45594000000E+02  0.51100000000E-03 0. -1.
    9900012    2    1    2    0    0  0.56053944106E+01  0.29003388491E+02 -0.12004324827E+02  0.59301940271E+02  0.49999993149E+02 0.  0.
        -12    1    1    2    0    0 -0.56053944106E+01 -0.29003388491E+02  0.12004324827E+02  0.31886059729E+02  0.00000000000E+00 0.  1.
         11    1    3    3    0    0 -0.42621571445E+01  0.37289676232E+02 -0.13332689693E+02  0.39830221588E+02  0.51100000000E-03 0. -1.
        -11    1    3    3    0    0  0.54920653405E+01  0.36116437214E+01 -0.78465234921E+00  0.66198513310E+01  0.51100000000E-03 0.  1.
        -12    1    3    3    0    0  0.43754862147E+01 -0.11897931462E+02  0.21130172143E+01  0.12851867352E+02  0.00000000000E+00 0.  1.
</event>
<event>
 7    1  0.7383168E-013  0.5930193E+02  0.7816164E-02  0.1266605E+00
        -11   -1    0    0    0    0  0.00000000000E+00  0.00000000000E+00  0.45593999997E+02  0.45594000000E+02  0.51100000000E-03 0. -1.
         11   -1    0    0    0    0 -0.00000000000E+00 -0.00000000000E+00 -0.45593999997E+02  0.45594000000E+02  0.51100000000E-03 0.  1.
    9900012    2    1    2    0    0 -0.15616994213E+02  0.99988010704E+01  0.25939448033E+02  0.59301929447E+02  0.49999973408E+02 0.  0.
        -12    1    1    2    0    0  0.15616994213E+02 -0.99988010704E+01 -0.25939448033E+02  0.31886070553E+02  0.00000000000E+00 0.  1.
         11    1    3    3    0    0 -0.17195162288E+02  0.15607930079E+02  0.15661789925E+02  0.28010225836E+02  0.51100000000E-03 0. -1.
        -11    1    3    3    0    0  0.59997262334E+01  0.16066587326E+01 -0.85974114122E+01  0.10606297677E+02  0.51100000000E-03 0.  1.
         12    1    3    3    0    0 -0.44215581581E+01 -0.72157877415E+01  0.18875069520E+02  0.20685405934E+02  0.00000000000E+00 0. -1.
</event>
<event>
 7    1  0.7383168E-013  0.5930206E+02  0.7816164E-02  0.1266604E+00
        -11   -1    0    0    0    0  0.00000000000E+00  0.00000000000E+00  0.45593999997E+02  0.45594000000E+02  0.51100000000E-03 0.  1.
         11   -1    0    0    0    0 -0.00000000000E+00 -0.00000000000E+00 -0.45593999997E+02  0.45594000000E+02  0.51100000000E-03 0. -1.
    9900012    2    1    2    0    0 -0.14672493708E+02 -0.78437339472E+00 -0.28298685285E+02  0.59302064196E+02  0.50000219158E+02 0.  0.
        -12    1    1    2    0    0  0.14672493708E+02  0.78437339472E+00  0.28298685285E+02  0.31885935804E+02  0.00000000000E+00 0.  1.
         11    1    3    3    0    0 -0.33785573678E+01  0.15987613960E+01  0.74728155022E+01  0.83554568804E+01  0.51100000000E-03 0. -1.
        -11    1    3    3    0    0 -0.16607264007E+02  0.63451964310E+01 -0.49192313324E+01  0.18446180437E+02  0.51100000000E-03 0.  1.
         12    1    3    3    0    0  0.53133276673E+01 -0.87283312217E+01 -0.30852269455E+02  0.32500426879E+02  0.00000000000E+00 0. -1.
</event>
<event>
 7    1  0.7383168E-013  0.5930195E+02  0.7816164E-02  0.1266605E+00
        -11   -1    0    0    0    0  0.00000000000E+00  0.00000000000E+00  0.45593999997E+02  0.45594000000E+02  0.51100000000E-03 0.  1.
         11   -1    0    0    0    0 -0.00000000000E+00 -0.00000000000E+00 -0.45593999997E+02  0.45594000000E+02  0.51100000000E-03 0. -1.
    9900012    2    1    2    0    0  0.11973163125E+02 -0.37849634853E+01 -0.29309340690E+02  0.59301952338E+02  0.50000015156E+02 0.  0.
        -12    1    1    2    0    0 -0.11973163125E+02  0.37849634853E+01  0.29309340690E+02  0.31886047662E+02  0.00000000000E+00 0.  1.
         11    1    3    3    0    0 -0.10276650724E+02 -0.20093513690E+01 -0.56338576211E+01  0.11890643169E+02  0.51100000000E-03 0. -1.
        -11    1    3    3    0    0  0.12448668540E+02  0.26116836185E+01  0.72734263288E+01  0.14652404942E+02  0.51100000000E-03 0.  1.
         12    1    3    3    0    0  0.98011453090E+01 -0.43872957349E+01 -0.30948909398E+02  0.32758904227E+02  0.00000000000E+00 0. -1.
</event>
<event>
 7    1  0.7383168E-013  0.5930205E+02  0.7816164E-02  0.1266604E+00
        -11   -1    0    0    0    0  0.00000000000E+00  0.00000000000E+00  0.45593999997E+02  0.45594000000E+02  0.51100000000E-03 0. -1.
         11   -1    0    0    0    0 -0.00000000000E+00 -0.00000000000E+00 -0.45593999997E+02  0.45594000000E+02  0.51100000000E-03 0.  1.
    9900012    2    1    2    0    0  0.22413229935E+02 -0.14900707016E+02  0.17097659406E+02  0.59302048503E+02  0.50000190537E+02 0.  0.
        -12    1    1    2    0    0 -0.22413229935E+02  0.14900707016E+02 -0.17097659406E+02  0.31885951497E+02  0.00000000000E+00 0.  1.
         11    1    3    3    0    0 -0.53361413450E+01  0.92810758361E+01  0.12076421104E+02  0.16138547644E+02  0.51100000000E-03 0. -1.
        -11    1    3    3    0    0 -0.27233873001E+01  0.13457669566E+01 -0.31756560647E+00  0.30543043829E+01  0.51100000000E-03 0.  1.
        -12    1    3    3    0    0  0.30472758580E+02 -0.25527549809E+02  0.53388039084E+01  0.40109196476E+02  0.00000000000E+00 0.  1.
</event>
<event>
 7    1  0.7383168E-013  0.5930198E+02  0.7816164E-02  0.1266605E+00
        -11   -1    0    0    0    0  0.00000000000E+00  0.00000000000E+00  0.45593999997E+02  0.45594000000E+02  0.51100000000E-03 0. -1.
         11   -1    0    0    0    0 -0.00000000000E+00 -0.00000000000E+00 -0.45593999997E+02  0.45594000000E+02  0.51100000000E-03 0.  1.
    9900012    2    1    2    0    0 -0.24948064301E+02  0.83483400630E+01  0.18017153027E+02  0.59301976457E+02  0.50000059143E+02 0.  0.
        -12    1    1    2    0    0  0.24948064301E+02 -0.83483400630E+01 -0.18017153027E+02  0.31886023543E+02  0.00000000000E+00 0.  1.
         11    1    3    3    0    0 -0.21372334350E+02  0.66187158933E+01 -0.31494743968E+01  0.22594319306E+02  0.51100000000E-03 0. -1.
        -11    1    3    3    0    0 -0.25923601386E+01 -0.93779173559E+01 -0.29256042807E+01  0.10159961894E+02  0.51100000000E-03 0.  1.
        -12    1    3    3    0    0 -0.98336981192E+00  0.11107541526E+02  0.24092231705E+02  0.26547695257E+02  0.00000000000E+00 0.  1.
</event>
<event>
 7    1  0.7383168E-013  0.5930194E+02  0.7816164E-02  0.1266605E+00
        -11   -1    0    0    0    0  0.00000000000E+00  0.00000000000E+00  0.45593999997E+02  0.45594000000E+02  0.51100000000E-03 0.  1.
         11   -1    0    0    0    0 -0.00000000000E+00 -0.00000000000E+00 -0.45593999997E+02  0.45594000000E+02  0.51100000000E-03 0. -1.
    9900012    2    1    2    0    0  0.20044396220E+02 -0.23735931406E+02 -0.71797111433E+01  0.59301944872E+02  0.50000001540E+02 0.  0.
        -12    1    1    2    0    0 -0.20044396220E+02  0.23735931406E+02  0.71797111433E+01  0.31886055128E+02  0.00000000000E+00 0.  1.
         11    1    3    3    0    0  0.49781936000E+01 -0.55191981165E+01 -0.20033325602E+01  0.76978763939E+01  0.51100000000E-03 0. -1.
        -11    1    3    3    0    0 -0.15716352653E+02 -0.11013214580E+02  0.16482366938E+01  0.19261654150E+02  0.51100000000E-03 0.  1.
         12    1    3    3    0    0  0.30782555273E+02 -0.72035187092E+01 -0.68246152769E+01  0.32342414329E+02  0.00000000000E+00 0. -1.
</event>
<event>
 7    1  0.7383168E-013  0.5930195E+02  0.7816164E-02  0.1266605E+00
        -11   -1    0    0    0    0  0.00000000000E+00  0.00000000000E+00  0.45593999997E+02  0.45594000000E+02  0.51100000000E-03 0.  1.
         11   -1    0    0    0    0 -0.00000000000E+00 -0.00000000000E+00 -0.45593999997E+02  0.45594000000E+02  0.51100000000E-03 0. -1.
    9900012    2    1    2    0    0  0.21958130933E+02  0.22542653714E+02  0.51370941507E+01  0.59301945260E+02  0.50000002248E+02 0.  0.
        -12    1    1    2    0    0 -0.21958130933E+02 -0.22542653714E+02 -0.51370941507E+01  0.31886054740E+02  0.00000000000E+00 0.  1.
         11    1    3    3    0    0  0.16935892877E+02  0.40716308319E+01 -0.48361485449E+01  0.18077360930E+02  0.51100000000E-03 0. -1.
        -11    1    3    3    0    0  0.16592643420E+02  0.21278039076E+02  0.11282797801E+02  0.29246748350E+02  0.51100000000E-03 0.  1.
         12    1    3    3    0    0 -0.11570405363E+02 -0.28070161939E+01 -0.13095551058E+01  0.11977835980E+02  0.00000000000E+00 0. -1.
</event>
<event>
 7    1  0.7383168E-013  0.5930161E+02  0.7816164E-02  0.1266606E+00
        -11   -1    0    0    0    0  0.00000000000E+00  0.00000000000E+00  0.45593999997E+02  0.45594000000E+02  0.51100000000E-03 0. -1.
         11   -1    0    0    0    0 -0.00000000000E+00 -0.00000000000E+00 -0.45593999997E+02  0.45594000000E+02  0.51100000000E-03 0.  1.
    9900012    2    1    2    0    0 -0.15194031128E+02 -0.54736272718E+01  0.27494047086E+02  0.59301611014E+02  0.49999392659E+02 0.  0.
        -12    1    1    2    0    0  0.15194031128E+02  0.54736272718E+01 -0.27494047086E+02  0.31886388986E+02  0.00000000000E+00 0.  1.
         11    1    3    3    0    0  0.64375800255E+01  0.30550955554E+00  0.31434369040E+01  0.71705626351E+01  0.51100000000E-03 0. -1.
        -11    1    3    3    0    0  0.26900673040E+01 -0.46500280375E+00 -0.96283961564E+01  0.10007931980E+02  0.51100000000E-03 0.  1.
         12    1    3    3    0    0 -0.24321678457E+02 -0.53141340236E+01  0.33979006338E+02  0.42123116399E+02  0.00000000000E+00 0. -1.
</event>
<event>
 7    1  0.7383168E-013  0.5930195E+02  0.7816164E-02  0.1266605E+00
        -11   -1    0    0    0    0  0.00000000000E+00  0.00000000000E+00  0.45593999997E+02  0.45594000000E+02  0.51100000000E-03 0.  1.
         11   -1    0    0    0    0 -0.00000000000E+00 -0.00000000000E+00 -0.45593999997E+02  0.45594000000E+02  0.51100000000E-03 0. -1.
    9900012    2    1    2    0    0 -0.63666423700E+01 -0.23657844796E+02 -0.20408147269E+02  0.59301949282E+02  0.50000009583E+02 0.  0.
        -12    1    1    2    0    0  0.63666423700E+01  0.23657844796E+02  0.20408147269E+02  0.31886050718E+02  0.00000000000E+00 0.  1.
         11    1    3    3    0    0  0.51956033412E+01 -0.13974470302E+02 -0.79645514626E+01  0.16903082398E+02  0.51100000000E-03 0. -1.
        -11    1    3    3    0    0 -0.10476350115E+02 -0.64742366822E+01 -0.25816486632E+02  0.28603507383E+02  0.51100000000E-03 0.  1.
        -12    1    3    3    0    0 -0.10858955962E+01 -0.32091378115E+01  0.13372890825E+02  0.13795359501E+02  0.00000000000E+00 0.  1.
</event>
<event>
 7    1  0.8048029E-013  0.5930197E+02  0.7816164E-02  0.1266605E+00
        -11   -1    0    0    0    0  0.00000000000E+00  0.00000000000E+00  0.45593999997E+02  0.45594000000E+02  0.51100000000E-03 0. -1.
         11   -1    0    0    0    0 -0.00000000000E+00 -0.00000000000E+00 -0.45593999997E+02  0.45594000000E+02  0.51100000000E-03 0.  1.
    9900012    2    1    2    0    0  0.25972205422E+02 -0.13221744204E+02 -0.12936342088E+02  0.59301969816E+02  0.50000047032E+02 0.  0.
        -12    1    1    2    0    0 -0.25972205422E+02  0.13221744204E+02  0.12936342088E+02  0.31886030184E+02  0.00000000000E+00 0.  1.
         11    1    3    3    0    0  0.21259097608E+02 -0.20221181701E+01  0.81363642075E+00  0.21370545091E+02  0.51100000000E-03 0. -1.
        -11    1    3    3    0    0  0.11748270271E+02 -0.55534107972E+00 -0.20396777445E+02  0.23544825089E+02  0.51100000000E-03 0.  1.
        -12    1    3    3    0    0 -0.70351624573E+01 -0.10644284954E+02  0.66467989360E+01  0.14386599636E+02  0.00000000000E+00 0.  1.
</event>
<event>
 7    1  0.7383168E-013  0.5930194E+02  0.7816164E-02  0.1266605E+00
        -11   -1    0    0    0    0  0.00000000000E+00  0.00000000000E+00  0.45593999997E+02  0.45594000000E+02  0.51100000000E-03 0. -1.
         11   -1    0    0    0    0 -0.00000000000E+00 -0.00000000000E+00 -0.45593999997E+02  0.45594000000E+02  0.51100000000E-03 0.  1.
    9900012    2    1    2    0    0  0.16696819623E+02 -0.19888103192E+02  0.18504055756E+02  0.59301944842E+02  0.50000001485E+02 0.  0.
        -12    1    1    2    0    0 -0.16696819623E+02  0.19888103192E+02 -0.18504055756E+02  0.31886055158E+02  0.00000000000E+00 0.  1.
         11    1    3    3    0    0  0.20891345198E+02 -0.13719294690E+02  0.18867832202E+02  0.31315530385E+02  0.51100000000E-03 0. -1.
        -11    1    3    3    0    0  0.63847172387E+01 -0.84774485743E+01  0.88111955280E+01  0.13793799891E+02  0.51100000000E-03 0.  1.
        -12    1    3    3    0    0 -0.10579242814E+02  0.23086400723E+01 -0.91749719746E+01  0.14192614566E+02  0.00000000000E+00 0.  1.
</event>
<event>
 7    1  0.7383168E-013  0.5930224E+02  0.7816164E-02  0.1266604E+00
        -11   -1    0    0    0    0  0.00000000000E+00  0.00000000000E+00  0.45593999997E+02  0.45594000000E+02  0.51100000000E-03 0.  1.
         11   -1    0    0    0    0 -0.00000000000E+00 -0.00000000000E+00 -0.45593999997E+02  0.45594000000E+02  0.51100000000E-03 0. -1.
    9900012    2    1    2    0    0  0.22510368586E+02  0.18347755899E+02 -0.13166038689E+02  0.59302244322E+02  0.50000547662E+02 0.  0.
        -12    1    1    2    0    0 -0.22510368586E+02 -0.18347755899E+02  0.13166038689E+02  0.31885755678E+02  0.00000000000E+00 0.  1.
         11    1    3    3    0    0 -0.66195731386E+01  0.90531578524E-03  0.52751729119E+00  0.66405590209E+01  0.51100000000E-03 0. -1.
        -11    1    3    3    0    0  0.12558039733E+02  0.28629977428E+02 -0.98994168375E+01  0.32792963017E+02  0.51100000000E-03 0.  1.
         12    1    3    3    0    0  0.16571901992E+02 -0.10283126845E+02 -0.37941391425E+01  0.19868722284E+02  0.00000000000E+00 0. -1.
</event>
<event>
 7    1  0.7383168E-013  0.5930195E+02  0.7816164E-02  0.1266605E+00
        -11   -1    0    0    0    0  0.00000000000E+00  0.00000000000E+00  0.45593999997E+02  0.45594000000E+02  0.51100000000E-03 0.  1.
         11   -1    0    0    0    0 -0.00000000000E+00 -0.00000000000E+00 -0.45593999997E+02  0.45594000000E+02  0.51100000000E-03 0. -1.
    9900012    2    1    2    0    0  0.21676691001E+02  0.81238058178E+01 -0.21928185001E+02  0.59301945820E+02  0.50000003269E+02 0.  0.
        -12    1    1    2    0    0 -0.21676691001E+02 -0.81238058178E+01  0.21928185001E+02  0.31886054180E+02  0.00000000000E+00 0.  1.
         11    1    3    3    0    0  0.83935512515E+01 -0.99149803227E+01  0.79234974706E+00  0.13014851355E+02  0.51100000000E-03 0. -1.
        -11    1    3    3    0    0  0.83551882631E+01 -0.58281280358E+01  0.32304300155E+01  0.10686997972E+02  0.51100000000E-03 0.  1.
         12    1    3    3    0    0  0.49279514862E+01  0.23866914176E+02 -0.25950964764E+02  0.35600096493E+02  0.00000000000E+00 0. -1.
</event>
<event>
 7    1  0.8100967E-013  0.5930194E+02  0.7816164E-02  0.1266605E+00
        -11   -1    0    0    0    0  0.00000000000E+00  0.00000000000E+00  0.45593999997E+02  0.45594000000E+02  0.51100000000E-03 0. -1.
         11   -1    0    0    0    0 -0.00000000000E+00 -0.00000000000E+00 -0.45593999997E+02  0.45594000000E+02  0.51100000000E-03 0.  1.
    9900012    2    1    2    0    0  0.17373605090E+02  0.19170137526E+02  0.18638261340E+02  0.59301935452E+02  0.49999984360E+02 0.  0.
        -12    1    1    2    0    0 -0.17373605090E+02 -0.19170137526E+02 -0.18638261340E+02  0.31886064548E+02  0.00000000000E+00 0.  1.
         11    1    3    3    0    0  0.57857468770E+01  0.43516772958E+01  0.30973283539E+02  0.31808116191E+02  0.51100000000E-03 0. -1.
        -11    1    3    3    0    0  0.11962829709E+02  0.36345923245E+01 -0.28473322298E+01  0.12822903615E+02  0.51100000000E-03 0.  1.
        -12    1    3    3    0    0 -0.37497149614E+00  0.11183867905E+02 -0.94876899691E+01  0.14670915646E+02  0.00000000000E+00 0.  1.
</event>
<event>
 7    1  0.7383168E-013  0.5930197E+02  0.7816164E-02  0.1266605E+00
        -11   -1    0    0    0    0  0.00000000000E+00  0.00000000000E+00  0.45593999997E+02  0.45594000000E+02  0.51100000000E-03 0.  1.
         11   -1    0    0    0    0 -0.00000000000E+00 -0.00000000000E+00 -0.45593999997E+02  0.45594000000E+02  0.51100000000E-03 0. -1.
    9900012    2    1    2    0    0 -0.20782125481E+02 -0.15788416999E+02 -0.18317972940E+02  0.59301968834E+02  0.50000045241E+02 0.  0.
        -12    1    1    2    0    0  0.20782125481E+02  0.15788416999E+02  0.18317972940E+02  0.31886031166E+02  0.00000000000E+00 0.  1.
         11    1    3    3    0    0  0.15547914570E+02 -0.41760266483E+01 -0.12065996995E+01  0.16144123673E+02  0.51100000000E-03 0. -1.
        -11    1    3    3    0    0 -0.14031504756E+02 -0.10058077065E+02 -0.71529282599E+01  0.18687226196E+02  0.51100000000E-03 0.  1.
        -12    1    3    3    0    0 -0.22298535295E+02 -0.15543132866E+01 -0.99584449811E+01  0.24470618965E+02  0.00000000000E+00 0.  1.
</event>
<event>
 7    1  0.7383168E-013  0.5930194E+02  0.7816164E-02  0.1266605E+00
        -11   -1    0    0    0    0  0.00000000000E+00  0.00000000000E+00  0.45593999997E+02  0.45594000000E+02  0.51100000000E-03 0.  1.
         11   -1    0    0    0    0 -0.00000000000E+00 -0.00000000000E+00 -0.45593999997E+02  0.45594000000E+02  0.51100000000E-03 0. -1.
    9900012    2    1    2    0    0 -0.29334710737E+02 -0.26293883370E+01 -0.12218107317E+02  0.59301935905E+02  0.49999985187E+02 0.  0.
        -12    1    1    2    0    0  0.29334710737E+02  0.26293883370E+01  0.12218107317E+02  0.31886064095E+02  0.00000000000E+00 0.  1.
         11    1    3    3    0    0 -0.21974885591E+02 -0.21106164874E+01 -0.57611963595E+01  0.22815382584E+02  0.51100000000E-03 0. -1.
        -11    1    3    3    0    0  0.92707469114E+01  0.11483267843E+02 -0.61133939640E+01  0.15974535194E+02  0.51100000000E-03 0.  1.
         12    1    3    3    0    0 -0.16630572057E+02 -0.12002039693E+02 -0.34351699339E+00  0.20512018127E+02  0.00000000000E+00 0. -1.
</event>
<event>
 7    1  0.7383168E-013  0.5930194E+02  0.7816164E-02  0.1266605E+00
        -11   -1    0    0    0    0  0.00000000000E+00  0.00000000000E+00  0.45593999997E+02  0.45594000000E+02  0.51100000000E-03 0. -1.
         11   -1    0    0    0    0 -0.00000000000E+00 -0.00000000000E+00 -0.45593999997E+02  0.45594000000E+02  0.51100000000E-03 0.  1.
    9900012    2    1    2    0    0 -0.25075822212E+02  0.19671484763E+02  0.97800241185E+00  0.59301942528E+02  0.49999997265E+02 0.  0.
        -12    1    1    2    0    0  0.25075822212E+02 -0.19671484763E+02 -0.97800241185E+00  0.31886057472E+02  0.00000000000E+00 0.  1.
         11    1    3    3    0    0 -0.18320815740E+02  0.68963026088E+01  0.18298022161E+02  0.26796061172E+02  0.51100000000E-03 0. -1.
        -11    1    3    3    0    0  0.49412335669E+01  0.75798319409E+01  0.20615407371E+01  0.92800642178E+01  0.51100000000E-03 0.  1.
        -12    1    3    3    0    0 -0.11696240039E+02  0.51953502134E+01 -0.19381560486E+02  0.23225817138E+02  0.00000000000E+00 0.  1.
</event>
<event>
 7    1  0.7383168E-013  0.5930190E+02  0.7816164E-02  0.1266605E+00
        -11   -1    0    0    0    0  0.00000000000E+00  0.00000000000E+00  0.45593999997E+02  0.45594000000E+02  0.51100000000E-03 0.  1.
         11   -1    0    0    0    0 -0.00000000000E+00 -0.00000000000E+00 -0.45593999997E+02  0.45594000000E+02  0.51100000000E-03 0. -1.
    9900012    2    1    2    0    0 -0.58846390959E+01 -0.75146660069E+01 -0.30424068003E+02  0.59301904341E+02  0.49999927621E+02 0.  0.
        -12    1    1    2    0    0  0.58846390959E+01  0.75146660069E+01  0.30424068003E+02  0.31886095659E+02  0.00000000000E+00 0.  1.
         11    1    3    3    0    0  0.49836208011E+01  0.70742132961E+01 -0.27084922069E+01  0.90673535469E+01  0.51100000000E-03 0. -1.
        -11    1    3    3    0    0  0.19635346831E+01 -0.20379210704E+02 -0.15623199903E+01  0.20533108420E+02  0.51100000000E-03 0.  1.
         12    1    3    3    0    0 -0.12831794580E+02  0.57903314006E+01 -0.26153255806E+02  0.29701442375E+02  0.00000000000E+00 0. -1.
</event>
<event>
 7    1  0.7383168E-013  0.5930200E+02  0.7816164E-02  0.1266605E+00
        -11   -1    0    0    0    0  0.00000000000E+00  0.00000000000E+00  0.45593999997E+02  0.45594000000E+02  0.51100000000E-03 0. -1.
         11   -1    0    0    0    0 -0.00000000000E+00 -0.00000000000E+00 -0.45593999997E+02  0.45594000000E+02  0.51100000000E-03 0.  1.
    9900012    2    1    2    0    0  0.34232220072E+01  0.28474275345E+02  0.13936078043E+02  0.59301998737E+02  0.50000099776E+02 0.  0.
        -12    1    1    2    0    0 -0.34232220072E+01 -0.28474275345E+02 -0.13936078043E+02  0.31886001263E+02  0.00000000000E+00 0.  1.
         11    1    3    3    0    0  0.20141132804E+02  0.21553472143E+02 -0.69459332184E+01  0.30306160770E+02  0.51100000000E-03 0. -1.
        -11    1    3    3    0    0 -0.93879513504E+01 -0.79623898710E+00  0.87672818794E+01  0.12869843002E+02  0.51100000000E-03 0.  1.
        -12    1    3    3    0    0 -0.73299594464E+01  0.77170421888E+01  0.12114729382E+02  0.16125994965E+02  0.00000000000E+00 0.  1.
</event>
<event>
 7    1  0.7383168E-013  0.5930209E+02  0.7816164E-02  0.1266604E+00
        -11   -1    0    0    0    0  0.00000000000E+00  0.00000000000E+00  0.45593999997E+02  0.45594000000E+02  0.51100000000E-03 0. -1.
         11   -1    0    0    0    0 -0.00000000000E+00 -0.00000000000E+00 -0.45593999997E+02  0.45594000000E+02  0.51100000000E-03 0.  1.
    9900012    2    1    2    0    0  0.61215087931E+01 -0.16311673385E+01  0.31250244604E+02  0.59302088306E+02  0.50000263128E+02 0.  0.
        -12    1    1    2    0    0 -0.61215087931E+01  0.16311673385E+01 -0.31250244604E+02  0.31885911694E+02  0.00000000000E+00 0.  1.
         11    1    3    3    0    0  0.91866076423E+00 -0.10708347204E+02  0.12652156782E+02  0.16600894823E+02  0.51100000000E-03 0. -1.
        -11    1    3    3    0    0  0.81476654041E+01 -0.12495048694E+02  0.14506561399E+01  0.14987164405E+02  0.51100000000E-03 0.  1.
        -12    1    3    3    0    0 -0.29448173752E+01  0.21572228560E+02  0.17147431682E+02  0.27714029077E+02  0.00000000000E+00 0.  1.
</event>
<event>
 7    1  0.7383168E-013  0.5930194E+02  0.7816164E-02  0.1266605E+00
        -11   -1    0    0    0    0  0.00000000000E+00  0.00000000000E+00  0.45593999997E+02  0.45594000000E+02  0.51100000000E-03 0.  1.
         11   -1    0    0    0    0 -0.00000000000E+00 -0.00000000000E+00 -0.45593999997E+02  0.45594000000E+02  0.51100000000E-03 0. -1.
    9900012    2    1    2    0    0  0.24038503059E+02  0.20934633098E+02 -0.78260936553E+00  0.59301937690E+02  0.49999988441E+02 0.  0.
        -12    1    1    2    0    0 -0.24038503059E+02 -0.20934633098E+02  0.78260936553E+00  0.31886062310E+02  0.00000000000E+00 0.  1.
         11    1    3    3    0    0  0.17421051550E+02 -0.10002003256E+02 -0.98087827533E+01  0.22354984357E+02  0.51100000000E-03 0. -1.
        -11    1    3    3    0    0 -0.22719984275E+01 -0.65118752240E+00 -0.10976768816E+01  0.26059387640E+01  0.51100000000E-03 0.  1.
        -12    1    3    3    0    0  0.88894499366E+01  0.31587823876E+02  0.10123850269E+02  0.34341014569E+02  0.00000000000E+00 0.  1.
</event>
<event>
 7    1  0.7383168E-013  0.5930194E+02  0.7816164E-02  0.1266605E+00
        -11   -1    0    0    0    0  0.00000000000E+00  0.00000000000E+00  0.45593999997E+02  0.45594000000E+02  0.51100000000E-03 0. -1.
         11   -1    0    0    0    0 -0.00000000000E+00 -0.00000000000E+00 -0.45593999997E+02  0.45594000000E+02  0.51100000000E-03 0.  1.
    9900012    2    1    2    0    0  0.83701069625E+01 -0.30734475803E+02  0.14331898165E+01  0.59301941503E+02  0.49999995395E+02 0.  0.
        -12    1    1    2    0    0 -0.83701069625E+01  0.30734475803E+02 -0.14331898165E+01  0.31886058497E+02  0.00000000000E+00 0.  1.
         11    1    3    3    0    0  0.13253066922E+01 -0.68200255749E+01 -0.95267014701E+00  0.70126148718E+01  0.51100000000E-03 0. -1.
        -11    1    3    3    0    0  0.16900531739E+02 -0.12450350472E+02  0.20057305543E+02  0.29033337835E+02  0.51100000000E-03 0.  1.
         12    1    3    3    0    0 -0.98557314685E+01 -0.11464099757E+02 -0.17671445580E+02  0.23255988796E+02  0.00000000000E+00 0. -1.
</event>
<event>
 7    1  0.7383168E-013  0.5930195E+02  0.7816164E-02  0.1266605E+00
        -11   -1    0    0    0    0  0.00000000000E+00  0.00000000000E+00  0.45593999997E+02  0.45594000000E+02  0.51100000000E-03 0. -1.
         11   -1    0    0    0    0 -0.00000000000E+00 -0.00000000000E+00 -0.45593999997E+02  0.45594000000E+02  0.51100000000E-03 0.  1.
    9900012    2    1    2    0    0  0.28150299903E+02 -0.14913323095E+02 -0.13687437499E+01  0.59301952114E+02  0.50000014747E+02 0.  0.
        -12    1    1    2    0    0 -0.28150299903E+02  0.14913323095E+02  0.13687437499E+01  0.31886047886E+02  0.00000000000E+00 0.  1.
         11    1    3    3    0    0  0.11760232683E+02 -0.15658719294E+02 -0.17697717212E+01  0.19662925898E+02  0.51100000000E-03 0. -1.
        -11    1    3    3    0    0  0.10711708722E+02 -0.10753300480E+02  0.14211256174E+02  0.20792642383E+02  0.51100000000E-03 0.  1.
        -12    1    3    3    0    0  0.56783584974E+01  0.11498696679E+02 -0.13810228203E+02  0.18846383832E+02  0.00000000000E+00 0.  1.
</event>
<event>
 7    1  0.7383168E-013  0.5930193E+02  0.7816164E-02  0.1266605E+00
        -11   -1    0    0    0    0  0.00000000000E+00  0.00000000000E+00  0.45593999997E+02  0.45594000000E+02  0.51100000000E-03 0.  1.
         11   -1    0    0    0    0 -0.00000000000E+00 -0.00000000000E+00 -0.45593999997E+02  0.45594000000E+02  0.51100000000E-03 0. -1.
    9900012    2    1    2    0    0  0.14609624396E+02 -0.21913794646E+02 -0.17974028428E+02  0.59301933784E+02  0.49999981319E+02 0.  0.
        -12    1    1    2    0    0 -0.14609624396E+02  0.21913794646E+02  0.17974028428E+02  0.31886066216E+02  0.00000000000E+00 0.  1.
         11    1    3    3    0    0  0.76052690309E+01 -0.62172926426E-01 -0.34842633523E+00  0.76135000937E+01  0.51100000000E-03 0. -1.
        -11    1    3    3    0    0  0.20843318374E+02 -0.15989793504E+02  0.27014929615E+01  0.26408625137E+02  0.51100000000E-03 0.  1.
         12    1    3    3    0    0 -0.13838963009E+02 -0.58618282155E+01 -0.20327095054E+02  0.25279808554E+02  0.00000000000E+00 0. -1.
</event>
<event>
 7    1  0.7383168E-013  0.5930196E+02  0.7816164E-02  0.1266605E+00
        -11   -1    0    0    0    0  0.00000000000E+00  0.00000000000E+00  0.45593999997E+02  0.45594000000E+02  0.51100000000E-03 0. -1.
         11   -1    0    0    0    0 -0.00000000000E+00 -0.00000000000E+00 -0.45593999997E+02  0.45594000000E+02  0.51100000000E-03 0.  1.
    9900012    2    1    2    0    0  0.19109259499E+02 -0.14928963611E+02  0.20704631926E+02  0.59301960166E+02  0.50000029433E+02 0.  0.
        -12    1    1    2    0    0 -0.19109259499E+02  0.14928963611E+02 -0.20704631926E+02  0.31886039834E+02  0.00000000000E+00 0.  1.
         11    1    3    3    0    0  0.18821439309E+02 -0.18819073615E+01  0.26957917185E+02  0.32932012574E+02  0.51100000000E-03 0. -1.
        -11    1    3    3    0    0  0.67767657656E+01 -0.75254951226E+01  0.57534585400E+01  0.11647313704E+02  0.51100000000E-03 0.  1.
        -12    1    3    3    0    0 -0.64889455762E+01 -0.55215611266E+01 -0.12006743799E+02  0.14722633889E+02  0.00000000000E+00 0.  1.
</event>
<event>
 7    1  0.7383168E-013  0.5930195E+02  0.7816164E-02  0.1266605E+00
        -11   -1    0    0    0    0  0.00000000000E+00  0.00000000000E+00  0.45593999997E+02  0.45594000000E+02  0.51100000000E-03 0. -1.
         11   -1    0    0    0    0 -0.00000000000E+00 -0.00000000000E+00 -0.45593999997E+02  0.45594000000E+02  0.51100000000E-03 0.  1.
    9900012    2    1    2    0    0  0.11214955393E+02 -0.21882599395E+02  0.20300166260E+02  0.59301950842E+02  0.50000012427E+02 0.  0.
        -12    1    1    2    0    0 -0.11214955393E+02  0.21882599395E+02 -0.20300166260E+02  0.31886049158E+02  0.00000000000E+00 0.  1.
         11    1    3    3    0    0 -0.50616069184E+01 -0.60269562388E+01 -0.31693431432E+01  0.84846215190E+01  0.51100000000E-03 0. -1.
        -11    1    3    3    0    0  0.20986989371E+01 -0.12137281707E+02 -0.89584769316E+01  0.15230641932E+02  0.51100000000E-03 0.  1.
         12    1    3    3    0    0  0.14177863375E+02 -0.37183614486E+01  0.32427986335E+02  0.35586687391E+02  0.00000000000E+00 0. -1.
</event>
<event>
 7    1  0.7383168E-013  0.5930195E+02  0.7816164E-02  0.1266605E+00
        -11   -1    0    0    0    0  0.00000000000E+00  0.00000000000E+00  0.45593999997E+02  0.45594000000E+02  0.51100000000E-03 0. -1.
         11   -1    0    0    0    0 -0.00000000000E+00 -0.00000000000E+00 -0.45593999997E+02  0.45594000000E+02  0.51100000000E-03 0.  1.
    9900012    2    1    2    0    0 -0.28505536535E+02 -0.39691559006E+01  0.13725900780E+02  0.59301950324E+02  0.50000011483E+02 0.  0.
        -12    1    1    2    0    0  0.28505536535E+02  0.39691559006E+01 -0.13725900780E+02  0.31886049676E+02  0.00000000000E+00 0.  1.
         11    1    3    3    0    0 -0.22565824057E+02 -0.11190613493E+02  0.95437455804E+01  0.26935651574E+02  0.51100000000E-03 0. -1.
        -11    1    3    3    0    0 -0.16624801135E+02 -0.32330467180E+01  0.40638659155E+01  0.17416991999E+02  0.51100000000E-03 0.  1.
         12    1    3    3    0    0  0.10685088657E+02  0.10454504311E+02  0.11828928441E+00  0.14949306752E+02  0.00000000000E+00 0. -1.
</event>
<event>
 7    1  0.7383168E-013  0.5930195E+02  0.7816164E-02  0.1266605E+00
        -11   -1    0    0    0    0  0.00000000000E+00  0.00000000000E+00  0.45593999997E+02  0.45594000000E+02  0.51100000000E-03 0.  1.
         11   -1    0    0    0    0 -0.00000000000E+00 -0.00000000000E+00 -0.45593999997E+02  0.45594000000E+02  0.51100000000E-03 0. -1.
    9900012    2    1    2    0    0  0.12395714608E+02  0.29230306624E+02 -0.29420110104E+01  0.59301952977E+02  0.50000016321E+02 0.  0.
        -12    1    1    2    0    0 -0.12395714608E+02 -0.29230306624E+02  0.29420110104E+01  0.31886047023E+02  0.00000000000E+00 0.  1.
         11    1    3    3    0    0  0.12893517730E+02  0.23458467225E+02  0.15813092843E+01  0.26814977593E+02  0.51100000000E-03 0. -1.
        -11    1    3    3    0    0  0.13553153122E+02  0.10488872868E+02 -0.57034193717E+00  0.17147294358E+02  0.51100000000E-03 0.  1.
        -12    1    3    3    0    0 -0.14050956243E+02 -0.47170334689E+01 -0.39529783575E+01  0.15339681027E+02  0.00000000000E+00 0.  1.
</event>
<event>
 7    1  0.7383168E-013  0.5930195E+02  0.7816164E-02  0.1266605E+00
        -11   -1    0    0    0    0  0.00000000000E+00  0.00000000000E+00  0.45593999997E+02  0.45594000000E+02  0.51100000000E-03 0. -1.
         11   -1    0    0    0    0 -0.00000000000E+00 -0.00000000000E+00 -0.45593999997E+02  0.45594000000E+02  0.51100000000E-03 0.  1.
    9900012    2    1    2    0    0 -0.12682133798E+02  0.28892075203E+02  0.45969340238E+01  0.59301947726E+02  0.50000006745E+02 0.  0.
        -12    1    1    2    0    0  0.12682133798E+02 -0.28892075203E+02 -0.45969340238E+01  0.31886052274E+02  0.00000000000E+00 0.  1.
         11    1    3    3    0    0 -0.89299843537E+01 -0.75530561415E+00 -0.71508078546E+01  0.11465128013E+02  0.51100000000E-03 0. -1.
        -11    1    3    3    0    0 -0.67418593288E+01 -0.64304111028E+01  0.62532234101E+01  0.11220769022E+02  0.51100000000E-03 0.  1.
        -12    1    3    3    0    0  0.29897098843E+01  0.36077791920E+02  0.54945184683E+01  0.36616050691E+02  0.00000000000E+00 0.  1.
</event>
<event>
 7    1  0.7383168E-013  0.5930194E+02  0.7816164E-02  0.1266605E+00
        -11   -1    0    0    0    0  0.00000000000E+00  0.00000000000E+00  0.45593999997E+02  0.45594000000E+02  0.51100000000E-03 0. -1.
         11   -1    0    0    0    0 -0.00000000000E+00 -0.00000000000E+00 -0.45593999997E+02  0.45594000000E+02  0.51100000000E-03 0.  1.
    9900012    2    1    2    0    0 -0.19712773383E+02 -0.25054736329E+02  0.62272273139E+00  0.59301936734E+02  0.49999986698E+02 0.  0.
        -12    1    1    2    0    0  0.19712773383E+02  0.25054736329E+02 -0.62272273139E+00  0.31886063266E+02  0.00000000000E+00 0.  1.
         11    1    3    3    0    0 -0.95487486977E+01 -0.86239498946E+01  0.26264898185E+01  0.13132005274E+02  0.51100000000E-03 0. -1.
        -11    1    3    3    0    0 -0.19101979681E+02 -0.25479683278E+02 -0.68247536067E+01  0.32568038776E+02  0.51100000000E-03 0.  1.
        -12    1    3    3    0    0  0.89379549954E+01  0.90488968432E+01  0.48209865196E+01  0.13601892684E+02  0.00000000000E+00 0.  1.
</event>
<event>
 7    1  0.7383168E-013  0.5930196E+02  0.7816164E-02  0.1266605E+00
        -11   -1    0    0    0    0  0.00000000000E+00  0.00000000000E+00  0.45593999997E+02  0.45594000000E+02  0.51100000000E-03 0.  1.
         11   -1    0    0    0    0 -0.00000000000E+00 -0.00000000000E+00 -0.45593999997E+02  0.45594000000E+02  0.51100000000E-03 0. -1.
    9900012    2    1    2    0    0  0.43235722165E+01 -0.42606656201E+01 -0.31302927112E+02  0.59301956124E+02  0.50000022061E+02 0.  0.
        -12    1    1    2    0    0 -0.43235722165E+01  0.42606656201E+01  0.31302927112E+02  0.31886043876E+02  0.00000000000E+00 0.  1.
         11    1    3    3    0    0  0.14016783147E+02  0.55813933464E+01 -0.24189400981E+02  0.28508757980E+02  0.51100000000E-03 0. -1.
        -11    1    3    3    0    0  0.71942757755E+01 -0.10875701185E+02 -0.32393591609E+01  0.13436217036E+02  0.51100000000E-03 0.  1.
        -12    1    3    3    0    0 -0.16887486706E+02  0.10336422183E+01 -0.38741669706E+01  0.17356981109E+02  0.00000000000E+00 0.  1.
</event>
<event>
 7    1  0.7383168E-013  0.5930193E+02  0.7816164E-02  0.1266605E+00
        -11   -1    0    0    0    0  0.00000000000E+00  0.00000000000E+00  0.45593999997E+02  0.45594000000E+02  0.51100000000E-03 0.  1.
         11   -1    0    0    0    0 -0.00000000000E+00 -0.00000000000E+00 -0.45593999997E+02  0.45594000000E+02  0.51100000000E-03 0. -1.
    9900012    2    1    2    0    0  0.30070570768E+02  0.55172660570E+01 -0.90576909399E+01  0.59301933823E+02  0.49999981389E+02 0.  0.
        -12    1    1    2    0    0 -0.30070570768E+02 -0.55172660570E+01  0.90576909399E+01  0.31886066177E+02  0.00000000000E+00 0.  1.
         11    1    3    3    0    0  0.12587908359E+02 -0.30554527060E+01 -0.15684932723E+02  0.20342279687E+02  0.51100000000E-03 0. -1.
        -11    1    3    3    0    0 -0.83883174487E+01  0.43593716439E+01 -0.45169438946E+01  0.10477154822E+02  0.51100000000E-03 0.  1.
         12    1    3    3    0    0  0.25870979858E+02  0.42133471191E+01  0.11144185678E+02  0.28482499314E+02  0.00000000000E+00 0. -1.
</event>
<event>
 7    1  0.7383168E-013  0.5930197E+02  0.7816164E-02  0.1266605E+00
        -11   -1    0    0    0    0  0.00000000000E+00  0.00000000000E+00  0.45593999997E+02  0.45594000000E+02  0.51100000000E-03 0.  1.
         11   -1    0    0    0    0 -0.00000000000E+00 -0.00000000000E+00 -0.45593999997E+02  0.45594000000E+02  0.51100000000E-03 0. -1.
    9900012    2    1    2    0    0  0.37961195549E+01  0.21860898956E+02 -0.22899985091E+02  0.59301972590E+02  0.50000052090E+02 0.  0.
        -12    1    1    2    0    0 -0.37961195549E+01 -0.21860898956E+02  0.22899985091E+02  0.31886027410E+02  0.00000000000E+00 0.  1.
         11    1    3    3    0    0  0.48953887593E+01 -0.11438718980E+02 -0.10389863755E+02  0.16209823939E+02  0.51100000000E-03 0. -1.
        -11    1    3    3    0    0  0.85020525736E+01  0.15436611558E+02  0.25841155483E+01  0.17811556018E+02  0.51100000000E-03 0.  1.
         12    1    3    3    0    0 -0.96013217780E+01  0.17863006378E+02 -0.15094236884E+02  0.25280592633E+02  0.00000000000E+00 0. -1.
</event>
<event>
 7    1  0.7383168E-013  0.5930196E+02  0.7816164E-02  0.1266605E+00
        -11   -1    0    0    0    0  0.00000000000E+00  0.00000000000E+00  0.45593999997E+02  0.45594000000E+02  0.51100000000E-03 0.  1.
         11   -1    0    0    0    0 -0.00000000000E+00 -0.00000000000E+00 -0.45593999997E+02  0.45594000000E+02  0.51100000000E-03 0. -1.
    9900012    2    1    2    0    0  0.19215546338E+02 -0.57068297920E+01  0.24797474245E+02  0.59301955148E+02  0.50000020281E+02 0.  0.
        -12    1    1    2    0    0 -0.19215546338E+02  0.57068297920E+01 -0.24797474245E+02  0.31886044852E+02  0.00000000000E+00 0.  1.
         11    1    3    3    0    0  0.41692519973E+01 -0.88920494856E+01  0.13525982226E+02  0.16715364241E+02  0.51100000000E-03 0. -1.
        -11    1    3    3    0    0 -0.10916504379E+02  0.62376807763E+01  0.10585969745E+02  0.16435981414E+02  0.51100000000E-03 0.  1.
         12    1    3    3    0    0  0.25962798720E+02 -0.30524610827E+01  0.68552227379E+00  0.26150609493E+02  0.00000000000E+00 0. -1.
</event>
<event>
 7    1  0.7383168E-013  0.5930193E+02  0.7816164E-02  0.1266605E+00
        -11   -1    0    0    0    0  0.00000000000E+00  0.00000000000E+00  0.45593999997E+02  0.45594000000E+02  0.51100000000E-03 0. -1.
         11   -1    0    0    0    0 -0.00000000000E+00 -0.00000000000E+00 -0.45593999997E+02  0.45594000000E+02  0.51100000000E-03 0.  1.
    9900012    2    1    2    0    0  0.29820887727E+00 -0.23081511134E+02  0.21997190695E+02  0.59301929636E+02  0.49999973753E+02 0.  0.
        -12    1    1    2    0    0 -0.29820887727E+00  0.23081511134E+02 -0.21997190695E+02  0.31886070364E+02  0.00000000000E+00 0.  1.
         11    1    3    3    0    0  0.37983233525E+01 -0.51465252370E+01  0.26003796824E+02  0.26778936346E+02  0.51100000000E-03 0. -1.
        -11    1    3    3    0    0 -0.46762117409E+00 -0.33403342065E+01  0.10919309011E+02  0.11428377475E+02  0.51100000000E-03 0.  1.
        -12    1    3    3    0    0 -0.30324933011E+01 -0.14594651691E+02 -0.14925915140E+02  0.21094615815E+02  0.00000000000E+00 0.  1.
</event>
<event>
 7    1  0.7383168E-013  0.5930194E+02  0.7816164E-02  0.1266605E+00
        -11   -1    0    0    0    0  0.00000000000E+00  0.00000000000E+00  0.45593999997E+02  0.45594000000E+02  0.51100000000E-03 0.  1.
         11   -1    0    0    0    0 -0.00000000000E+00 -0.00000000000E+00 -0.45593999997E+02  0.45594000000E+02  0.51100000000E-03 0. -1.
    9900012    2    1    2    0    0  0.11881516940E+02  0.11432736085E+02 -0.27291811806E+02  0.59301938926E+02  0.49999990695E+02 0.  0.
        -12    1    1    2    0    0 -0.11881516940E+02 -0.11432736085E+02  0.27291811806E+02  0.31886061074E+02  0.00000000000E+00 0.  1.
         11    1    3    3    0    0  0.14188266002E+02  0.45210508593E+01 -0.22031747919E+02  0.26592192645E+02  0.51100000000E-03 0. -1.
        -11    1    3    3    0    0  0.86096966419E+01  0.73098579992E+01  0.92141589113E+01  0.14576063424E+02  0.51100000000E-03 0.  1.
         12    1    3    3    0    0 -0.10916445704E+02 -0.39817277308E+00 -0.14474222798E+02  0.18133682857E+02  0.00000000000E+00 0. -1.
</event>
<event>
 7    1  0.7383168E-013  0.5930195E+02  0.7816164E-02  0.1266605E+00
        -11   -1    0    0    0    0  0.00000000000E+00  0.00000000000E+00  0.45593999997E+02  0.45594000000E+02  0.51100000000E-03 0.  1.
         11   -1    0    0    0    0 -0.00000000000E+00 -0.00000000000E+00 -0.45593999997E+02  0.45594000000E+02  0.51100000000E-03 0. -1.
    9900012    2    1    2    0    0 -0.22440961590E+02 -0.22076680566E+02 -0.50737861983E+01  0.59301954646E+02  0.50000019366E+02 0.  0.
        -12    1    1    2    0    0  0.22440961590E+02  0.22076680566E+02  0.50737861983E+01  0.31886045354E+02  0.00000000000E+00 0.  1.
         11    1    3    3    0    0  0.69925209271E+01 -0.18997311502E+02 -0.70052319010E+01  0.21421168676E+02  0.51100000000E-03 0. -1.
        -11    1    3    3    0    0  0.71457569302E+00 -0.70401575981E+01  0.23934735815E+01  0.74701508334E+01  0.51100000000E-03 0.  1.
         12    1    3    3    0    0 -0.30148058210E+02  0.39607885340E+01 -0.46202787879E+00  0.30410635137E+02  0.00000000000E+00 0. -1.
</event>
<event>
 7    1  0.7383168E-013  0.5930194E+02  0.7816164E-02  0.1266605E+00
        -11   -1    0    0    0    0  0.00000000000E+00  0.00000000000E+00  0.45593999997E+02  0.45594000000E+02  0.51100000000E-03 0.  1.
         11   -1    0    0    0    0 -0.00000000000E+00 -0.00000000000E+00 -0.45593999997E+02  0.45594000000E+02  0.51100000000E-03 0. -1.
    9900012    2    1    2    0    0  0.42585152744E+01 -0.31579868383E+02  0.11392918545E+01  0.59301936816E+02  0.49999986848E+02 0.  0.
        -12    1    1    2    0    0 -0.42585152744E+01  0.31579868383E+02 -0.11392918545E+01  0.31886063184E+02  0.00000000000E+00 0.  1.
         11    1    3    3    0    0 -0.82225947060E+00 -0.28204326264E+01 -0.10935645683E+02  0.11323396028E+02  0.51100000000E-03 0. -1.
        -11    1    3    3    0    0 -0.26085168860E+01 -0.13308436345E+02 -0.12167713551E+02  0.18220101307E+02  0.51100000000E-03 0.  1.
        -12    1    3    3    0    0  0.76892916310E+01 -0.15450999411E+02  0.24242651089E+02  0.29758439482E+02  0.00000000000E+00 0.  1.
</event>
<event>
 7    1  0.7383168E-013  0.5930195E+02  0.7816164E-02  0.1266605E+00
        -11   -1    0    0    0    0  0.00000000000E+00  0.00000000000E+00  0.45593999997E+02  0.45594000000E+02  0.51100000000E-03 0. -1.
         11   -1    0    0    0    0 -0.00000000000E+00 -0.00000000000E+00 -0.45593999997E+02  0.45594000000E+02  0.51100000000E-03 0.  1.
    9900012    2    1    2    0    0  0.39811039309E+01 -0.13667744988E+02  0.28531799881E+02  0.59301952173E+02  0.50000014855E+02 0.  0.
        -12    1    1    2    0    0 -0.39811039309E+01  0.13667744988E+02 -0.28531799881E+02  0.31886047827E+02  0.00000000000E+00 0.  1.
         11    1    3    3    0    0 -0.67331710580E+01 -0.13483119475E+02  0.19488378124E+02  0.24635888160E+02  0.51100000000E-03 0. -1.
        -11    1    3    3    0    0 -0.80355593954E+01  0.68307878646E+01  0.10121693160E+02  0.14617747786E+02  0.51100000000E-03 0.  1.
         12    1    3    3    0    0  0.18749834384E+02 -0.70154133777E+01 -0.10782714035E+01  0.20048316226E+02  0.00000000000E+00 0. -1.
</event>
<event>
 7    1  0.7383168E-013  0.5930193E+02  0.7816164E-02  0.1266605E+00
        -11   -1    0    0    0    0  0.00000000000E+00  0.00000000000E+00  0.45593999997E+02  0.45594000000E+02  0.51100000000E-03 0.  1.
         11   -1    0    0    0    0 -0.00000000000E+00 -0.00000000000E+00 -0.45593999997E+02  0.45594000000E+02  0.51100000000E-03 0. -1.
    9900012    2    1    2    0    0  0.21541611478E+02  0.20949701491E+02 -0.10667264776E+02  0.59301928504E+02  0.49999971688E+02 0.  0.
        -12    1    1    2    0    0 -0.21541611478E+02 -0.20949701491E+02  0.10667264776E+02  0.31886071496E+02  0.00000000000E+00 0.  1.
         11    1    3    3    0    0  0.12865885254E+02  0.16322591564E+02  0.40942139211E+01  0.21183025909E+02  0.51100000000E-03 0. -1.
        -11    1    3    3    0    0  0.93417965479E+01 -0.19925433778E+01  0.91933499253E+01  0.13257340418E+02  0.51100000000E-03 0.  1.
        -12    1    3    3    0    0 -0.66607032387E+00  0.66196533046E+01 -0.23954828623E+02  0.24861562177E+02  0.00000000000E+00 0.  1.
</event>
<event>
 7    1  0.7383168E-013  0.5930197E+02  0.7816164E-02  0.1266605E+00
        -11   -1    0    0    0    0  0.00000000000E+00  0.00000000000E+00  0.45593999997E+02  0.45594000000E+02  0.51100000000E-03 0. -1.
         11   -1    0    0    0    0 -0.00000000000E+00 -0.00000000000E+00 -0.45593999997E+02  0.45594000000E+02  0.51100000000E-03 0.  1.
    9900012    2    1    2    0    0 -0.29740129864E+01 -0.24559373408E+02  0.20117434588E+02  0.59301972498E+02  0.50000051923E+02 0.  0.
        -12    1    1    2    0    0  0.29740129864E+01  0.24559373408E+02 -0.20117434588E+02  0.31886027502E+02  0.00000000000E+00 0.  1.
         11    1    3    3    0    0  0.11705337111E+02 -0.30150885310E+02  0.60642934614E+01  0.32906936310E+02  0.51100000000E-03 0. -1.
        -11    1    3    3    0    0 -0.52967307448E+01  0.66643269379E-01  0.14561183532E+02  0.15494768925E+02  0.51100000000E-03 0.  1.
        -12    1    3    3    0    0 -0.93826193528E+01  0.55248686325E+01 -0.50804240514E+00  0.10900267263E+02  0.00000000000E+00 0.  1.
</event>
<event>
 7    1  0.7383168E-013  0.5930194E+02  0.7816164E-02  0.1266605E+00
        -11   -1    0    0    0    0  0.00000000000E+00  0.00000000000E+00  0.45593999997E+02  0.45594000000E+02  0.51100000000E-03 0.  1.
         11   -1    0    0    0    0 -0.00000000000E+00 -0.00000000000E+00 -0.45593999997E+02  0.45594000000E+02  0.51100000000E-03 0. -1.
    9900012    2    1    2    0    0 -0.77778794756E+00  0.30283301042E+02 -0.99517494868E+01  0.59301943581E+02  0.49999999186E+02 0.  0.
        -12    1    1    2    0    0  0.77778794756E+00 -0.30283301042E+02  0.99517494868E+01  0.31886056419E+02  0.00000000000E+00 0.  1.
         11    1    3    3    0    0 -0.90428922019E+00  0.31105812964E+01  0.13229249288E+02  0.13620076798E+02  0.51100000000E-03 0.  1.
        -11    1    3    3    0    0  0.18413328427E+01 -0.56867973925E+01 -0.11605812516E+01  0.60890984820E+01  0.51100000000E-03 0. -1.
         12    1    3    3    0    0 -0.17148315701E+01  0.32859517138E+02 -0.22020417523E+02  0.39592768301E+02  0.00000000000E+00 0. -1.
</event>
<event>
 7    1  0.7383168E-013  0.5930190E+02  0.7816164E-02  0.1266605E+00
        -11   -1    0    0    0    0  0.00000000000E+00  0.00000000000E+00  0.45593999997E+02  0.45594000000E+02  0.51100000000E-03 0.  1.
         11   -1    0    0    0    0 -0.00000000000E+00 -0.00000000000E+00 -0.45593999997E+02  0.45594000000E+02  0.51100000000E-03 0. -1.
    9900012    2    1    2    0    0 -0.40879134224E+00 -0.14687456821E+02 -0.28299024088E+02  0.59301901735E+02  0.49999922868E+02 0.  0.
        -12    1    1    2    0    0  0.40879134224E+00  0.14687456821E+02  0.28299024088E+02  0.31886098265E+02  0.00000000000E+00 0.  1.
         11    1    3    3    0    0 -0.42125646144E+01  0.26116553582E+01  0.63128083172E+00  0.49964947803E+01  0.51100000000E-03 0. -1.
        -11    1    3    3    0    0 -0.63057109005E+01  0.12760531643E+02 -0.84371240601E+01  0.16546244904E+02  0.51100000000E-03 0.  1.
         12    1    3    3    0    0  0.10109484173E+02 -0.30059643822E+02 -0.20493180860E+02  0.37759162050E+02  0.00000000000E+00 0. -1.
</event>
<event>
 7    1  0.7383168E-013  0.5930194E+02  0.7816164E-02  0.1266605E+00
        -11   -1    0    0    0    0  0.00000000000E+00  0.00000000000E+00  0.45593999997E+02  0.45594000000E+02  0.51100000000E-03 0.  1.
         11   -1    0    0    0    0 -0.00000000000E+00 -0.00000000000E+00 -0.45593999997E+02  0.45594000000E+02  0.51100000000E-03 0. -1.
    9900012    2    1    2    0    0 -0.15813787688E+02 -0.20122625649E+02 -0.19019067618E+02  0.59301939141E+02  0.49999991088E+02 0.  0.
        -12    1    1    2    0    0  0.15813787688E+02  0.20122625649E+02  0.19019067618E+02  0.31886060859E+02  0.00000000000E+00 0.  1.
         11    1    3    3    0    0  0.77602786214E+01 -0.11233632530E+02 -0.83902642635E-01  0.13653697815E+02  0.51100000000E-03 0.  1.
        -11    1    3    3    0    0 -0.49141103062E+01  0.10756228150E+02 -0.13619245744E+02  0.18036872761E+02  0.51100000000E-03 0. -1.
         12    1    3    3    0    0 -0.18659956003E+02 -0.19645221269E+02 -0.53159192322E+01  0.27611368565E+02  0.00000000000E+00 0. -1.
</event>
<event>
 7    1  0.7383168E-013  0.5930197E+02  0.7816164E-02  0.1266605E+00
        -11   -1    0    0    0    0  0.00000000000E+00  0.00000000000E+00  0.45593999997E+02  0.45594000000E+02  0.51100000000E-03 0.  1.
         11   -1    0    0    0    0 -0.00000000000E+00 -0.00000000000E+00 -0.45593999997E+02  0.45594000000E+02  0.51100000000E-03 0. -1.
    9900012    2    1    2    0    0  0.25467161381E+02  0.64471669879E+01 -0.18071427576E+02  0.59301972251E+02  0.50000051473E+02 0.  0.
        -12    1    1    2    0    0 -0.25467161381E+02 -0.64471669879E+01  0.18071427576E+02  0.31886027749E+02  0.00000000000E+00 0.  1.
         11    1    3    3    0    0  0.84403639652E+01 -0.60727111639E+00  0.23723864207E+01  0.87884435291E+01  0.51100000000E-03 0.  1.
        -11    1    3    3    0    0  0.10100042063E+02 -0.19197698377E+01  0.12201799041E+02  0.15955571629E+02  0.51100000000E-03 0. -1.
         12    1    3    3    0    0  0.69267553522E+01  0.89742079419E+01 -0.32645613037E+02  0.34557957093E+02  0.00000000000E+00 0. -1.
</event>
<event>
 7    1  0.7383168E-013  0.5930195E+02  0.7816164E-02  0.1266605E+00
        -11   -1    0    0    0    0  0.00000000000E+00  0.00000000000E+00  0.45593999997E+02  0.45594000000E+02  0.51100000000E-03 0.  1.
         11   -1    0    0    0    0 -0.00000000000E+00 -0.00000000000E+00 -0.45593999997E+02  0.45594000000E+02  0.51100000000E-03 0. -1.
    9900012    2    1    2    0    0 -0.25860955692E+02 -0.65607475484E+01 -0.17461036042E+02  0.59301949486E+02  0.50000009955E+02 0.  0.
        -12    1    1    2    0    0  0.25860955692E+02  0.65607475484E+01  0.17461036042E+02  0.31886050514E+02  0.00000000000E+00 0.  1.
         11    1    3    3    0    0  0.96110993923E+01 -0.39222436326E+01 -0.34497103318E+01  0.10938817499E+02  0.51100000000E-03 0. -1.
        -11    1    3    3    0    0 -0.13741426143E+02  0.37659769456E+01 -0.20346498877E+02  0.24839271157E+02  0.51100000000E-03 0.  1.
         12    1    3    3    0    0 -0.21730628942E+02 -0.64044808614E+01  0.63351731672E+01  0.23523860830E+02  0.00000000000E+00 0. -1.
</event>
<event>
 7    1  0.7383168E-013  0.5930208E+02  0.7816164E-02  0.1266604E+00
        -11   -1    0    0    0    0  0.00000000000E+00  0.00000000000E+00  0.45593999997E+02  0.45594000000E+02  0.51100000000E-03 0. -1.
         11   -1    0    0    0    0 -0.00000000000E+00 -0.00000000000E+00 -0.45593999997E+02  0.45594000000E+02  0.51100000000E-03 0.  1.
    9900012    2    1    2    0    0 -0.10856260458E+02 -0.21258670517E+02  0.21140536744E+02  0.59302082151E+02  0.50000251902E+02 0.  0.
        -12    1    1    2    0    0  0.10856260458E+02  0.21258670517E+02 -0.21140536744E+02  0.31885917849E+02  0.00000000000E+00 0.  1.
         11    1    3    3    0    0 -0.11438908865E+00 -0.42583416344E+01  0.10710970319E+02  0.11526987628E+02  0.51100000000E-03 0. -1.
        -11    1    3    3    0    0 -0.85123023353E+01 -0.20335300326E+02  0.24608963945E+02  0.33039140986E+02  0.51100000000E-03 0.  1.
        -12    1    3    3    0    0 -0.22295690343E+01  0.33349714438E+01 -0.14179397520E+02  0.14735953537E+02  0.00000000000E+00 0.  1.
</event>
<event>
 7    1  0.7383168E-013  0.5930195E+02  0.7816164E-02  0.1266605E+00
        -11   -1    0    0    0    0  0.00000000000E+00  0.00000000000E+00  0.45593999997E+02  0.45594000000E+02  0.51100000000E-03 0.  1.
         11   -1    0    0    0    0 -0.00000000000E+00 -0.00000000000E+00 -0.45593999997E+02  0.45594000000E+02  0.51100000000E-03 0. -1.
    9900012    2    1    2    0    0  0.82666528291E+01 -0.10693505051E+02 -0.28879605837E+02  0.59301949248E+02  0.50000009521E+02 0.  0.
        -12    1    1    2    0    0 -0.82666528291E+01  0.10693505051E+02  0.28879605837E+02  0.31886050752E+02  0.00000000000E+00 0.  1.
         11    1    3    3    0    0 -0.37559647756E+01 -0.22994491793E+02 -0.25952679727E+02  0.34876862093E+02  0.51100000000E-03 0. -1.
        -11    1    3    3    0    0 -0.24001948495E+01  0.28523628735E+01  0.43337510420E+01  0.57164943482E+01  0.51100000000E-03 0.  1.
        -12    1    3    3    0    0  0.14422812454E+02  0.94486238687E+01 -0.72606771520E+01  0.18708592807E+02  0.00000000000E+00 0.  1.
</event>
<event>
 7    1  0.7383168E-013  0.5930194E+02  0.7816164E-02  0.1266605E+00
        -11   -1    0    0    0    0  0.00000000000E+00  0.00000000000E+00  0.45593999997E+02  0.45594000000E+02  0.51100000000E-03 0. -1.
         11   -1    0    0    0    0 -0.00000000000E+00 -0.00000000000E+00 -0.45593999997E+02  0.45594000000E+02  0.51100000000E-03 0.  1.
    9900012    2    1    2    0    0 -0.51470406033E+01 -0.29219713490E+02  0.11680641117E+02  0.59301936268E+02  0.49999985848E+02 0.  0.
        -12    1    1    2    0    0  0.51470406033E+01  0.29219713490E+02 -0.11680641117E+02  0.31886063732E+02  0.00000000000E+00 0.  1.
         11    1    3    3    0    0  0.11451412321E+02 -0.86764855267E+01 -0.80014236441E+01  0.16445030430E+02  0.51100000000E-03 0. -1.
        -11    1    3    3    0    0 -0.19129522527E+01 -0.21031845689E+02  0.42379305593E+01  0.21539683728E+02  0.51100000000E-03 0.  1.
        -12    1    3    3    0    0 -0.14685500672E+02  0.48861772551E+00  0.15444134202E+02  0.21317222110E+02  0.00000000000E+00 0.  1.
</event>
<event>
 7    1  0.7383168E-013  0.5930192E+02  0.7816164E-02  0.1266605E+00
        -11   -1    0    0    0    0  0.00000000000E+00  0.00000000000E+00  0.45593999997E+02  0.45594000000E+02  0.51100000000E-03 0. -1.
         11   -1    0    0    0    0 -0.00000000000E+00 -0.00000000000E+00 -0.45593999997E+02  0.45594000000E+02  0.51100000000E-03 0.  1.
    9900012    2    1    2    0    0 -0.11951147779E+02  0.28261291990E+02  0.86712893577E+01  0.59301924398E+02  0.49999964199E+02 0.  0.
        -12    1    1    2    0    0  0.11951147779E+02 -0.28261291990E+02 -0.86712893577E+01  0.31886075602E+02  0.00000000000E+00 0.  1.
         11    1    3    3    0    0  0.23270276038E+01 -0.81902957336E+01  0.35955810866E+01  0.92425215868E+01  0.51100000000E-03 0. -1.
        -11    1    3    3    0    0  0.62649445036E+01  0.15801945110E+02 -0.71871573730E+01  0.18455520319E+02  0.51100000000E-03 0.  1.
        -12    1    3    3    0    0 -0.20543119886E+02  0.20649642614E+02  0.12262865644E+02  0.31603882492E+02  0.00000000000E+00 0.  1.
</event>
<event>
 7    1  0.7383168E-013  0.5930195E+02  0.7816164E-02  0.1266605E+00
        -11   -1    0    0    0    0  0.00000000000E+00  0.00000000000E+00  0.45593999997E+02  0.45594000000E+02  0.51100000000E-03 0.  1.
         11   -1    0    0    0    0 -0.00000000000E+00 -0.00000000000E+00 -0.45593999997E+02  0.45594000000E+02  0.51100000000E-03 0. -1.
    9900012    2    1    2    0    0 -0.16331911989E+02  0.17192397290E+02 -0.21316902339E+02  0.59301949772E+02  0.50000010477E+02 0.  0.
        -12    1    1    2    0    0  0.16331911989E+02 -0.17192397290E+02  0.21316902339E+02  0.31886050228E+02  0.00000000000E+00 0.  1.
         11    1    3    3    0    0  0.26642554755E+01 -0.38347674600E+01  0.77423864624E+01  0.90414737242E+01  0.51100000000E-03 0. -1.
        -11    1    3    3    0    0 -0.71852656232E+01 -0.14005571388E+01  0.42026963438E+01  0.84411053301E+01  0.51100000000E-03 0.  1.
         12    1    3    3    0    0 -0.11810901841E+02  0.22427721889E+02 -0.33261985145E+02  0.41819370718E+02  0.00000000000E+00 0. -1.
</event>
<event>
 7    1  0.7383168E-013  0.5930194E+02  0.7816164E-02  0.1266605E+00
        -11   -1    0    0    0    0  0.00000000000E+00  0.00000000000E+00  0.45593999997E+02  0.45594000000E+02  0.51100000000E-03 0.  1.
         11   -1    0    0    0    0 -0.00000000000E+00 -0.00000000000E+00 -0.45593999997E+02  0.45594000000E+02  0.51100000000E-03 0. -1.
    9900012    2    1    2    0    0  0.15506899896E+02 -0.15545636883E+02 -0.23121198895E+02  0.59301943348E+02  0.49999998760E+02 0.  0.
        -12    1    1    2    0    0 -0.15506899896E+02  0.15545636883E+02  0.23121198895E+02  0.31886056652E+02  0.00000000000E+00 0.  1.
         11    1    3    3    0    0  0.18446546765E+01  0.71247975564E+00 -0.14430770315E+01  0.24480297910E+01  0.51100000000E-03 0. -1.
        -11    1    3    3    0    0  0.69813863618E+01  0.16363427085E+02 -0.13521236120E+01  0.17841797556E+02  0.51100000000E-03 0.  1.
         12    1    3    3    0    0  0.66808588573E+01 -0.32621543724E+02 -0.20325998251E+02  0.39012116001E+02  0.00000000000E+00 0. -1.
</event>
<event>
 7    1  0.7383168E-013  0.5930195E+02  0.7816164E-02  0.1266605E+00
        -11   -1    0    0    0    0  0.00000000000E+00  0.00000000000E+00  0.45593999997E+02  0.45594000000E+02  0.51100000000E-03 0. -1.
         11   -1    0    0    0    0 -0.00000000000E+00 -0.00000000000E+00 -0.45593999997E+02  0.45594000000E+02  0.51100000000E-03 0.  1.
    9900012    2    1    2    0    0 -0.19828713758E+02 -0.24830769165E+02  0.26410972746E+01  0.59301946914E+02  0.50000005264E+02 0.  0.
        -12    1    1    2    0    0  0.19828713758E+02  0.24830769165E+02 -0.26410972746E+01  0.31886053086E+02  0.00000000000E+00 0.  1.
         11    1    3    3    0    0  0.44176148946E+01  0.37770003401E+01  0.16223172439E+02  0.17232886501E+02  0.51100000000E-03 0. -1.
        -11    1    3    3    0    0  0.27004825335E+00  0.11628070761E+01 -0.81208530419E+00  0.14437898593E+01  0.51100000000E-03 0.  1.
        -12    1    3    3    0    0 -0.24516376905E+02 -0.29770576581E+02 -0.12769989860E+02  0.40625270554E+02  0.00000000000E+00 0.  1.
</event>
<event>
 7    1  0.7383168E-013  0.5930199E+02  0.7816164E-02  0.1266605E+00
        -11   -1    0    0    0    0  0.00000000000E+00  0.00000000000E+00  0.45593999997E+02  0.45594000000E+02  0.51100000000E-03 0. -1.
         11   -1    0    0    0    0 -0.00000000000E+00 -0.00000000000E+00 -0.45593999997E+02  0.45594000000E+02  0.51100000000E-03 0.  1.
    9900012    2    1    2    0    0 -0.22271574565E+01  0.21971748150E+02  0.22999992788E+02  0.59301990288E+02  0.50000084368E+02 0.  0.
        -12    1    1    2    0    0  0.22271574565E+01 -0.21971748150E+02 -0.22999992788E+02  0.31886009712E+02  0.00000000000E+00 0.  1.
         11    1    3    3    0    0  0.60691790272E+01  0.13172495943E+02  0.18166353366E+02  0.23245773343E+02  0.51100000000E-03 0. -1.
        -11    1    3    3    0    0  0.11263510764E+02  0.78132866788E+01 -0.44094886992E+01  0.14399920636E+02  0.51100000000E-03 0.  1.
         12    1    3    3    0    0 -0.19559847248E+02  0.98596552774E+00  0.92431281212E+01  0.21656296310E+02  0.00000000000E+00 0. -1.
</event>
<event>
 7    1  0.8930074E-013  0.5930194E+02  0.7816164E-02  0.1266605E+00
        -11   -1    0    0    0    0  0.00000000000E+00  0.00000000000E+00  0.45593999997E+02  0.45594000000E+02  0.51100000000E-03 0. -1.
         11   -1    0    0    0    0 -0.00000000000E+00 -0.00000000000E+00 -0.45593999997E+02  0.45594000000E+02  0.51100000000E-03 0.  1.
    9900012    2    1    2    0    0 -0.81850894903E+01 -0.30041262974E+02  0.68737028156E+01  0.59301937819E+02  0.49999988677E+02 0.  0.
        -12    1    1    2    0    0  0.81850894903E+01  0.30041262974E+02 -0.68737028156E+01  0.31886062181E+02  0.00000000000E+00 0.  1.
         11    1    3    3    0    0 -0.95429271351E+01 -0.27323377386E+02  0.11866974070E+02  0.31280337017E+02  0.51100000000E-03 0. -1.
        -11    1    3    3    0    0  0.11933897358E+02 -0.28320265637E+01  0.52096161307E+01  0.13325853860E+02  0.51100000000E-03 0.  1.
        -12    1    3    3    0    0 -0.10576059713E+02  0.11414097546E+00 -0.10202887385E+02  0.14695746942E+02  0.00000000000E+00 0.  1.
</event>
<event>
 7    1  0.7383168E-013  0.5930199E+02  0.7816164E-02  0.1266605E+00
        -11   -1    0    0    0    0  0.00000000000E+00  0.00000000000E+00  0.45593999997E+02  0.45594000000E+02  0.51100000000E-03 0.  1.
         11   -1    0    0    0    0 -0.00000000000E+00 -0.00000000000E+00 -0.45593999997E+02  0.45594000000E+02  0.51100000000E-03 0. -1.
    9900012    2    1    2    0    0  0.30997817947E+02 -0.14395481163E+01  0.73335086658E+01  0.59301994204E+02  0.50000091509E+02 0.  0.
        -12    1    1    2    0    0 -0.30997817947E+02  0.14395481163E+01 -0.73335086658E+01  0.31886005796E+02  0.00000000000E+00 0.  1.
         11    1    3    3    0    0  0.15899333221E+02  0.15151720269E+02  0.19092812033E+02  0.29101527375E+02  0.51100000000E-03 0. -1.
        -11    1    3    3    0    0 -0.25329655288E+00 -0.18265688135E+00  0.31940699403E+01  0.32092998808E+01  0.51100000000E-03 0.  1.
         12    1    3    3    0    0  0.15351781279E+02 -0.16408611504E+02 -0.14953373308E+02  0.26991166948E+02  0.00000000000E+00 0. -1.
</event>
<event>
 7    1  0.7383168E-013  0.5930193E+02  0.7816164E-02  0.1266605E+00
        -11   -1    0    0    0    0  0.00000000000E+00  0.00000000000E+00  0.45593999997E+02  0.45594000000E+02  0.51100000000E-03 0. -1.
         11   -1    0    0    0    0 -0.00000000000E+00 -0.00000000000E+00 -0.45593999997E+02  0.45594000000E+02  0.51100000000E-03 0.  1.
    9900012    2    1    2    0    0  0.19394267149E+02 -0.93244524931E+01  0.23529523138E+02  0.59301929818E+02  0.49999974085E+02 0.  0.
        -12    1    1    2    0    0 -0.19394267149E+02  0.93244524931E+01 -0.23529523138E+02  0.31886070182E+02  0.00000000000E+00 0.  1.
         11    1    3    3    0    0 -0.65682009461E+01  0.45402686490E+01  0.14590707540E+02  0.16632620054E+02  0.51100000000E-03 0. -1.
        -11    1    3    3    0    0  0.16630999116E+01  0.47095718943E+01  0.10932159972E+02  0.12019071955E+02  0.51100000000E-03 0.  1.
        -12    1    3    3    0    0  0.24299368184E+02 -0.18574293036E+02 -0.19933443746E+01  0.30650237809E+02  0.00000000000E+00 0.  1.
</event>
<event>
 7    1  0.7383168E-013  0.5930192E+02  0.7816164E-02  0.1266605E+00
        -11   -1    0    0    0    0  0.00000000000E+00  0.00000000000E+00  0.45593999997E+02  0.45594000000E+02  0.51100000000E-03 0.  1.
         11   -1    0    0    0    0 -0.00000000000E+00 -0.00000000000E+00 -0.45593999997E+02  0.45594000000E+02  0.51100000000E-03 0. -1.
    9900012    2    1    2    0    0  0.16288162476E+02 -0.52936096125E+01 -0.26896009453E+02  0.59301923665E+02  0.49999962863E+02 0.  0.
        -12    1    1    2    0    0 -0.16288162476E+02  0.52936096125E+01  0.26896009453E+02  0.31886076335E+02  0.00000000000E+00 0.  1.
         11    1    3    3    0    0  0.39110653174E+01 -0.25024976785E+01 -0.87506037659E+01  0.99061593504E+01  0.51100000000E-03 0. -1.
        -11    1    3    3    0    0  0.22811214939E+02 -0.10898738682E+02 -0.24076876907E+02  0.34911746357E+02  0.51100000000E-03 0.  1.
        -12    1    3    3    0    0 -0.10434117781E+02  0.81076267478E+01  0.59314712194E+01  0.14484017957E+02  0.00000000000E+00 0.  1.
</event>
<event>
 7    1  0.7383168E-013  0.5930195E+02  0.7816164E-02  0.1266605E+00
        -11   -1    0    0    0    0  0.00000000000E+00  0.00000000000E+00  0.45593999997E+02  0.45594000000E+02  0.51100000000E-03 0.  1.
         11   -1    0    0    0    0 -0.00000000000E+00 -0.00000000000E+00 -0.45593999997E+02  0.45594000000E+02  0.51100000000E-03 0. -1.
    9900012    2    1    2    0    0  0.74021300279E+01 -0.45632229010E+01 -0.30677444484E+02  0.59301950821E+02  0.50000012390E+02 0.  0.
        -12    1    1    2    0    0 -0.74021300279E+01  0.45632229010E+01  0.30677444484E+02  0.31886049179E+02  0.00000000000E+00 0.  1.
         11    1    3    3    0    0  0.16587574970E+01 -0.98923583295E+01 -0.16558218399E+02  0.19359360180E+02  0.51100000000E-03 0. -1.
        -11    1    3    3    0    0  0.14492960781E+02  0.43437474026E+01  0.72891865675E+01  0.16794233974E+02  0.51100000000E-03 0.  1.
         12    1    3    3    0    0 -0.87495882504E+01  0.98538802590E+00 -0.21408412652E+02  0.23148356667E+02  0.00000000000E+00 0. -1.
</event>
<event>
 7    1  0.7383168E-013  0.5930196E+02  0.7816164E-02  0.1266605E+00
        -11   -1    0    0    0    0  0.00000000000E+00  0.00000000000E+00  0.45593999997E+02  0.45594000000E+02  0.51100000000E-03 0. -1.
         11   -1    0    0    0    0 -0.00000000000E+00 -0.00000000000E+00 -0.45593999997E+02  0.45594000000E+02  0.51100000000E-03 0.  1.
    9900012    2    1    2    0    0 -0.12017195347E+02 -0.38630619341E+01  0.29281108683E+02  0.59301959838E+02  0.50000028835E+02 0.  0.
        -12    1    1    2    0    0  0.12017195347E+02  0.38630619341E+01 -0.29281108683E+02  0.31886040162E+02  0.00000000000E+00 0.  1.
         11    1    3    3    0    0  0.10512889433E+02 -0.67767069751E+01 -0.39638972839E+00  0.12514061161E+02  0.51100000000E-03 0. -1.
        -11    1    3    3    0    0  0.19206538762E+01  0.91958451671E+00 -0.43476861935E+01  0.48411695378E+01  0.51100000000E-03 0.  1.
         12    1    3    3    0    0 -0.24450738656E+02  0.19940605243E+01  0.34025184604E+02  0.41946729140E+02  0.00000000000E+00 0. -1.
</event>
<event>
 7    1  0.7383168E-013  0.5930200E+02  0.7816164E-02  0.1266605E+00
        -11   -1    0    0    0    0  0.00000000000E+00  0.00000000000E+00  0.45593999997E+02  0.45594000000E+02  0.51100000000E-03 0. -1.
         11   -1    0    0    0    0 -0.00000000000E+00 -0.00000000000E+00 -0.45593999997E+02  0.45594000000E+02  0.51100000000E-03 0.  1.
    9900012    2    1    2    0    0  0.11131039372E+02  0.28801802741E+02  0.79544342057E+01  0.59302001472E+02  0.50000104764E+02 0.  0.
        -12    1    1    2    0    0 -0.11131039372E+02 -0.28801802741E+02 -0.79544342057E+01  0.31885998528E+02  0.00000000000E+00 0.  1.
         11    1    3    3    0    0  0.25704846314E+01  0.20000744170E+02  0.15150757972E+02  0.25222660962E+02  0.51100000000E-03 0. -1.
        -11    1    3    3    0    0 -0.10967030821E+02 -0.15107646896E+01 -0.39749542517E+01  0.11762586303E+02  0.51100000000E-03 0.  1.
         12    1    3    3    0    0  0.19527585561E+02  0.10311823260E+02 -0.32213695141E+01  0.22316754207E+02  0.00000000000E+00 0. -1.
</event>
<event>
 7    1  0.7383168E-013  0.5930195E+02  0.7816164E-02  0.1266605E+00
        -11   -1    0    0    0    0  0.00000000000E+00  0.00000000000E+00  0.45593999997E+02  0.45594000000E+02  0.51100000000E-03 0.  1.
         11   -1    0    0    0    0 -0.00000000000E+00 -0.00000000000E+00 -0.45593999997E+02  0.45594000000E+02  0.51100000000E-03 0. -1.
    9900012    2    1    2    0    0  0.34600487316E+01 -0.11717544643E+02 -0.29452455489E+02  0.59301954087E+02  0.50000018345E+02 0.  0.
        -12    1    1    2    0    0 -0.34600487316E+01  0.11717544643E+02  0.29452455489E+02  0.31886045913E+02  0.00000000000E+00 0.  1.
         11    1    3    3    0    0 -0.39716484667E+01  0.41513036966E+01 -0.19273432127E+02  0.20111501688E+02  0.51100000000E-03 0. -1.
        -11    1    3    3    0    0  0.13844308559E+02  0.39465285071E+01 -0.11347615303E+02  0.18330530272E+02  0.51100000000E-03 0.  1.
        -12    1    3    3    0    0 -0.64126113604E+01 -0.19815376846E+02  0.11685919412E+01  0.20859922127E+02  0.00000000000E+00 0.  1.
</event>
<event>
 7    1  0.7383168E-013  0.5930197E+02  0.7816164E-02  0.1266605E+00
        -11   -1    0    0    0    0  0.00000000000E+00  0.00000000000E+00  0.45593999997E+02  0.45594000000E+02  0.51100000000E-03 0. -1.
         11   -1    0    0    0    0 -0.00000000000E+00 -0.00000000000E+00 -0.45593999997E+02  0.45594000000E+02  0.51100000000E-03 0.  1.
    9900012    2    1    2    0    0  0.20968797566E+02  0.17558172979E+02  0.16393268296E+02  0.59301966142E+02  0.50000040332E+02 0.  0.
        -12    1    1    2    0    0 -0.20968797566E+02 -0.17558172979E+02 -0.16393268296E+02  0.31886033858E+02  0.00000000000E+00 0.  1.
         11    1    3    3    0    0 -0.65993456645E+01  0.10709149817E+02  0.69584268845E+01  0.14375568092E+02  0.51100000000E-03 0. -1.
        -11    1    3    3    0    0 -0.41747188519E+01  0.10111860055E+02 -0.18190476077E+01  0.11089947057E+02  0.51100000000E-03 0.  1.
         12    1    3    3    0    0  0.31742862083E+02 -0.32628368927E+01  0.11253889019E+02  0.33836450994E+02  0.00000000000E+00 0. -1.
</event>
<event>
 7    1  0.8010228E-013  0.5930200E+02  0.7816164E-02  0.1266605E+00
        -11   -1    0    0    0    0  0.00000000000E+00  0.00000000000E+00  0.45593999997E+02  0.45594000000E+02  0.51100000000E-03 0.  1.
         11   -1    0    0    0    0 -0.00000000000E+00 -0.00000000000E+00 -0.45593999997E+02  0.45594000000E+02  0.51100000000E-03 0. -1.
    9900012    2    1    2    0    0 -0.26951525082E+02 -0.81701635587E+01  0.14952617668E+02  0.59301999123E+02  0.50000100480E+02 0.  0.
        -12    1    1    2    0    0  0.26951525082E+02  0.81701635587E+01 -0.14952617668E+02  0.31886000877E+02  0.00000000000E+00 0.  1.
         11    1    3    3    0    0 -0.24370518826E+02 -0.10155739564E+02  0.18364778869E+01  0.26465711500E+02  0.51100000000E-03 0. -1.
        -11    1    3    3    0    0 -0.13586243853E+02  0.95792161872E+01  0.86484323795E+01  0.18738804329E+02  0.51100000000E-03 0.  1.
        -12    1    3    3    0    0  0.11005237597E+02 -0.75936401820E+01  0.44677074019E+01  0.14097483293E+02  0.00000000000E+00 0.  1.
</event>
<event>
 7    1  0.7383168E-013  0.5930194E+02  0.7816164E-02  0.1266605E+00
        -11   -1    0    0    0    0  0.00000000000E+00  0.00000000000E+00  0.45593999997E+02  0.45594000000E+02  0.51100000000E-03 0.  1.
         11   -1    0    0    0    0 -0.00000000000E+00 -0.00000000000E+00 -0.45593999997E+02  0.45594000000E+02  0.51100000000E-03 0. -1.
    9900012    2    1    2    0    0  0.12435794608E+00  0.14993368631E+02 -0.28140791443E+02  0.59301941748E+02  0.49999995842E+02 0.  0.
        -12    1    1    2    0    0 -0.12435794608E+00 -0.14993368631E+02  0.28140791443E+02  0.31886058252E+02  0.00000000000E+00 0.  1.
         11    1    3    3    0    0  0.15410886511E+02  0.14167841586E+02 -0.15739130604E+02  0.26190521009E+02  0.51100000000E-03 0.  1.
        -11    1    3    3    0    0  0.75689322054E+01  0.87048111477E+00 -0.14019946132E+01  0.77467452041E+01  0.51100000000E-03 0. -1.
        -12    1    3    3    0    0 -0.22855460771E+02 -0.44954069723E-01 -0.10999666226E+02  0.25364675535E+02  0.00000000000E+00 0.  1.
</event>
<event>
 7    1  0.7383168E-013  0.5930193E+02  0.7816164E-02  0.1266605E+00
        -11   -1    0    0    0    0  0.00000000000E+00  0.00000000000E+00  0.45593999997E+02  0.45594000000E+02  0.51100000000E-03 0. -1.
         11   -1    0    0    0    0 -0.00000000000E+00 -0.00000000000E+00 -0.45593999997E+02  0.45594000000E+02  0.51100000000E-03 0.  1.
    9900012    2    1    2    0    0  0.26752795248E+02  0.13279778178E+02  0.11164990079E+02  0.59301928346E+02  0.49999971401E+02 0.  0.
        -12    1    1    2    0    0 -0.26752795248E+02 -0.13279778178E+02 -0.11164990079E+02  0.31886071654E+02  0.00000000000E+00 0.  1.
         11    1    3    3    0    0  0.22298393076E+02  0.13354885555E+02 -0.24312009237E+01  0.26105210977E+02  0.51100000000E-03 0. -1.
        -11    1    3    3    0    0  0.41671537913E+01  0.91530995978E-01 -0.93558168434E+01  0.10242307246E+02  0.51100000000E-03 0.  1.
        -12    1    3    3    0    0  0.28724838123E+00 -0.16663837342E+00  0.22952007846E+02  0.22954410124E+02  0.00000000000E+00 0.  1.
</event>
<event>
 7    1  0.7383168E-013  0.5930195E+02  0.7816164E-02  0.1266605E+00
        -11   -1    0    0    0    0  0.00000000000E+00  0.00000000000E+00  0.45593999997E+02  0.45594000000E+02  0.51100000000E-03 0.  1.
         11   -1    0    0    0    0 -0.00000000000E+00 -0.00000000000E+00 -0.45593999997E+02  0.45594000000E+02  0.51100000000E-03 0. -1.
    9900012    2    1    2    0    0  0.13000971909E+00 -0.31738883541E+02  0.30572086295E+01  0.59301950455E+02  0.50000011723E+02 0.  0.
        -12    1    1    2    0    0 -0.13000971909E+00  0.31738883541E+02 -0.30572086295E+01  0.31886049545E+02  0.00000000000E+00 0.  1.
         11    1    3    3    0    0 -0.21068082972E+00 -0.20267157873E+02 -0.44004290357E+01  0.20740439982E+02  0.51100000000E-03 0. -1.
        -11    1    3    3    0    0  0.11480028750E+02  0.42729296892E+00 -0.95980311394E+01  0.14969831041E+02  0.51100000000E-03 0.  1.
        -12    1    3    3    0    0 -0.11139338201E+02 -0.11899018637E+02  0.17055668805E+02  0.23591679433E+02  0.00000000000E+00 0.  1.
</event>
<event>
 7    1  0.7383168E-013  0.5930205E+02  0.7816164E-02  0.1266604E+00
        -11   -1    0    0    0    0  0.00000000000E+00  0.00000000000E+00  0.45593999997E+02  0.45594000000E+02  0.51100000000E-03 0.  1.
         11   -1    0    0    0    0 -0.00000000000E+00 -0.00000000000E+00 -0.45593999997E+02  0.45594000000E+02  0.51100000000E-03 0. -1.
    9900012    2    1    2    0    0  0.85586881801E+01 -0.15640826236E+02 -0.26435339911E+02  0.59302050353E+02  0.50000193911E+02 0.  0.
        -12    1    1    2    0    0 -0.85586881801E+01  0.15640826236E+02  0.26435339911E+02  0.31885949647E+02  0.00000000000E+00 0.  1.
         11    1    3    3    0    0 -0.11655325314E+02 -0.63453928768E+01 -0.62590071727E+01  0.14672620420E+02  0.51100000000E-03 0. -1.
        -11    1    3    3    0    0 -0.10989826062E+01  0.18359010761E+01  0.75976989389E+01  0.78932455275E+01  0.51100000000E-03 0.  1.
        -12    1    3    3    0    0  0.21312996101E+02 -0.11131334435E+02 -0.27774031677E+02  0.36736184405E+02  0.00000000000E+00 0.  1.
</event>
<event>
 7    1  0.7383168E-013  0.5930198E+02  0.7816164E-02  0.1266605E+00
        -11   -1    0    0    0    0  0.00000000000E+00  0.00000000000E+00  0.45593999997E+02  0.45594000000E+02  0.51100000000E-03 0.  1.
         11   -1    0    0    0    0 -0.00000000000E+00 -0.00000000000E+00 -0.45593999997E+02  0.45594000000E+02  0.51100000000E-03 0. -1.
    9900012    2    1    2    0    0 -0.30191114700E+02 -0.10449438639E+01 -0.10204081077E+02  0.59301975081E+02  0.50000056633E+02 0.  0.
        -12    1    1    2    0    0  0.30191114700E+02  0.10449438639E+01  0.10204081077E+02  0.31886024919E+02  0.00000000000E+00 0.  1.
         11    1    3    3    0    0 -0.14732984474E+02  0.57547620164E+01 -0.58740041986E+01  0.16872523314E+02  0.51100000000E-03 0. -1.
        -11    1    3    3    0    0 -0.15730419824E+02  0.13874454882E+02  0.12550922955E+01  0.21012421637E+02  0.51100000000E-03 0.  1.
         12    1    3    3    0    0  0.27228959821E+00 -0.20674160763E+02 -0.55851691742E+01  0.21417030130E+02  0.00000000000E+00 0. -1.
</event>
<event>
 7    1  0.7383168E-013  0.5930198E+02  0.7816164E-02  0.1266605E+00
        -11   -1    0    0    0    0  0.00000000000E+00  0.00000000000E+00  0.45593999997E+02  0.45594000000E+02  0.51100000000E-03 0. -1.
         11   -1    0    0    0    0 -0.00000000000E+00 -0.00000000000E+00 -0.45593999997E+02  0.45594000000E+02  0.51100000000E-03 0.  1.
    9900012    2    1    2    0    0 -0.98060082204E+01  0.28839887961E+02 -0.94245200709E+01  0.59301976206E+02  0.50000058686E+02 0.  0.
        -12    1    1    2    0    0  0.98060082204E+01 -0.28839887961E+02  0.94245200709E+01  0.31886023794E+02  0.00000000000E+00 0.  1.
         11    1    3    3    0    0 -0.76988887217E+01  0.19109135790E+01  0.56903730928E+01  0.97624189857E+01  0.51100000000E-03 0. -1.
        -11    1    3    3    0    0 -0.77790325702E+01 -0.66304500734E+01  0.34278462706E+01  0.10780832353E+02  0.51100000000E-03 0.  1.
         12    1    3    3    0    0  0.56719130716E+01  0.33559424455E+02 -0.18542739434E+02  0.38758724868E+02  0.00000000000E+00 0. -1.
</event>
<event>
 7    1  0.7383168E-013  0.5930195E+02  0.7816164E-02  0.1266605E+00
        -11   -1    0    0    0    0  0.00000000000E+00  0.00000000000E+00  0.45593999997E+02  0.45594000000E+02  0.51100000000E-03 0.  1.
         11   -1    0    0    0    0 -0.00000000000E+00 -0.00000000000E+00 -0.45593999997E+02  0.45594000000E+02  0.51100000000E-03 0. -1.
    9900012    2    1    2    0    0  0.30894140971E+02  0.53353793454E+01  0.58142989685E+01  0.59301948323E+02  0.50000007833E+02 0.  0.
        -12    1    1    2    0    0 -0.30894140971E+02 -0.53353793454E+01 -0.58142989685E+01  0.31886051677E+02  0.00000000000E+00 0.  1.
         11    1    3    3    0    0  0.40277477583E+01 -0.18904567885E+02  0.43696045351E+01  0.19816631474E+02  0.51100000000E-03 0. -1.
        -11    1    3    3    0    0  0.12482673809E+02  0.28525854232E+01  0.44064931285E+01  0.13541475953E+02  0.51100000000E-03 0.  1.
        -12    1    3    3    0    0  0.14383719403E+02  0.21387361807E+02 -0.29617986951E+01  0.25943840896E+02  0.00000000000E+00 0.  1.
</event>
<event>
 7    1  0.7383168E-013  0.5930194E+02  0.7816164E-02  0.1266605E+00
        -11   -1    0    0    0    0  0.00000000000E+00  0.00000000000E+00  0.45593999997E+02  0.45594000000E+02  0.51100000000E-03 0. -1.
         11   -1    0    0    0    0 -0.00000000000E+00 -0.00000000000E+00 -0.45593999997E+02  0.45594000000E+02  0.51100000000E-03 0.  1.
    9900012    2    1    2    0    0 -0.14586556718E+02  0.21175604334E+02  0.18855944940E+02  0.59301944813E+02  0.50000001432E+02 0.  0.
        -12    1    1    2    0    0  0.14586556718E+02 -0.21175604334E+02 -0.18855944940E+02  0.31886055187E+02  0.00000000000E+00 0.  1.
         11    1    3    3    0    0  0.16132342726E+01 -0.21123733005E+01 -0.50887635011E+01  0.57410939733E+01  0.51100000000E-03 0. -1.
        -11    1    3    3    0    0  0.11506118585E+02  0.13918100315E+02  0.13335788657E+02  0.22448775927E+02  0.51100000000E-03 0.  1.
         12    1    3    3    0    0 -0.27705909575E+02  0.93698773201E+01  0.10608919783E+02  0.31112074912E+02  0.00000000000E+00 0. -1.
</event>
<event>
 7    1  0.7383168E-013  0.5930180E+02  0.7816164E-02  0.1266605E+00
        -11   -1    0    0    0    0  0.00000000000E+00  0.00000000000E+00  0.45593999997E+02  0.45594000000E+02  0.51100000000E-03 0.  1.
         11   -1    0    0    0    0 -0.00000000000E+00 -0.00000000000E+00 -0.45593999997E+02  0.45594000000E+02  0.51100000000E-03 0. -1.
    9900012    2    1    2    0    0  0.30382168139E+02  0.66150425985E+01  0.70636298169E+01  0.59301799292E+02  0.49999736036E+02 0.  0.
        -12    1    1    2    0    0 -0.30382168139E+02 -0.66150425985E+01 -0.70636298169E+01  0.31886200708E+02  0.00000000000E+00 0.  1.
         11    1    3    3    0    0 -0.88566601915E+00  0.60948783319E+01 -0.10818280365E+02  0.12448579697E+02  0.51100000000E-03 0. -1.
        -11    1    3    3    0    0  0.90132172313E+01  0.11392313582E+02  0.16590130088E+02  0.22051197478E+02  0.51100000000E-03 0.  1.
        -12    1    3    3    0    0  0.22254616927E+02 -0.10872149315E+02  0.12917800933E+01  0.24802022117E+02  0.00000000000E+00 0.  1.
</event>
<event>
 7    1  0.7383168E-013  0.5930195E+02  0.7816164E-02  0.1266605E+00
        -11   -1    0    0    0    0  0.00000000000E+00  0.00000000000E+00  0.45593999997E+02  0.45594000000E+02  0.51100000000E-03 0.  1.
         11   -1    0    0    0    0 -0.00000000000E+00 -0.00000000000E+00 -0.45593999997E+02  0.45594000000E+02  0.51100000000E-03 0. -1.
    9900012    2    1    2    0    0  0.29086825898E+02 -0.64312433145E+01 -0.11371712618E+02  0.59301950084E+02  0.50000011044E+02 0.  0.
        -12    1    1    2    0    0 -0.29086825898E+02  0.64312433145E+01  0.11371712618E+02  0.31886049916E+02  0.00000000000E+00 0.  1.
         11    1    3    3    0    0  0.78369143954E+01  0.12166175307E+02 -0.15248475689E+01  0.14551914280E+02  0.51100000000E-03 0. -1.
        -11    1    3    3    0    0  0.14922002003E+02 -0.10175684941E+02  0.11173295217E+02  0.21238013891E+02  0.51100000000E-03 0.  1.
         12    1    3    3    0    0  0.63279095004E+01 -0.84217336799E+01 -0.21020160265E+02  0.23512021912E+02  0.00000000000E+00 0. -1.
</event>
<event>
 7    1  0.7383168E-013  0.5930196E+02  0.7816164E-02  0.1266605E+00
        -11   -1    0    0    0    0  0.00000000000E+00  0.00000000000E+00  0.45593999997E+02  0.45594000000E+02  0.51100000000E-03 0. -1.
         11   -1    0    0    0    0 -0.00000000000E+00 -0.00000000000E+00 -0.45593999997E+02  0.45594000000E+02  0.51100000000E-03 0.  1.
    9900012    2    1    2    0    0  0.29389491892E+02  0.10227039450E+02  0.69559167467E+01  0.59301963128E+02  0.50000034835E+02 0.  0.
        -12    1    1    2    0    0 -0.29389491892E+02 -0.10227039450E+02 -0.69559167467E+01  0.31886036872E+02  0.00000000000E+00 0.  1.
         11    1    3    3    0    0 -0.77137168153E+00 -0.19402594252E+01  0.17580863295E+01  0.27295583363E+01  0.51100000000E-03 0. -1.
        -11    1    3    3    0    0 -0.37596241157E+01 -0.59843432152E+01 -0.12395475026E+02  0.14268669826E+02  0.51100000000E-03 0.  1.
         12    1    3    3    0    0  0.33920487690E+02  0.18151642090E+02  0.17593305443E+02  0.42303734966E+02  0.00000000000E+00 0. -1.
</event>
<event>
 7    1  0.7383168E-013  0.5930196E+02  0.7816164E-02  0.1266605E+00
        -11   -1    0    0    0    0  0.00000000000E+00  0.00000000000E+00  0.45593999997E+02  0.45594000000E+02  0.51100000000E-03 0.  1.
         11   -1    0    0    0    0 -0.00000000000E+00 -0.00000000000E+00 -0.45593999997E+02  0.45594000000E+02  0.51100000000E-03 0. -1.
    9900012    2    1    2    0    0  0.84287876225E+01 -0.21315016562E+02 -0.22166304817E+02  0.59301961346E+02  0.50000031584E+02 0.  0.
        -12    1    1    2    0    0 -0.84287876225E+01  0.21315016562E+02  0.22166304817E+02  0.31886038654E+02  0.00000000000E+00 0.  1.
         11    1    3    3    0    0  0.11718505988E+01  0.93492801416E+01  0.46757034073E+01  0.10518767780E+02  0.51100000000E-03 0. -1.
        -11    1    3    3    0    0  0.70758653749E+01 -0.12383744727E+02  0.22349021837E+01  0.14436751445E+02  0.51100000000E-03 0.  1.
         12    1    3    3    0    0  0.18107164873E+00 -0.18280551977E+02 -0.29076910408E+02  0.34346442121E+02  0.00000000000E+00 0. -1.
</event>
<event>
 7    1  0.7383168E-013  0.5930194E+02  0.7816164E-02  0.1266605E+00
        -11   -1    0    0    0    0  0.00000000000E+00  0.00000000000E+00  0.45593999997E+02  0.45594000000E+02  0.51100000000E-03 0.  1.
         11   -1    0    0    0    0 -0.00000000000E+00 -0.00000000000E+00 -0.45593999997E+02  0.45594000000E+02  0.51100000000E-03 0. -1.
    9900012    2    1    2    0    0  0.37941086809E+01 -0.19887325588E+02 -0.24633717039E+02  0.59301937294E+02  0.49999987720E+02 0.  0.
        -12    1    1    2    0    0 -0.37941086809E+01  0.19887325588E+02  0.24633717039E+02  0.31886062706E+02  0.00000000000E+00 0.  1.
         11    1    3    3    0    0 -0.97962330639E+01  0.88329793524E+01 -0.91824151399E+01  0.16071852866E+02  0.51100000000E-03 0. -1.
        -11    1    3    3    0    0 -0.51735002805E+01  0.42524598615E+00  0.20509891966E+00  0.51949980875E+01  0.51100000000E-03 0.  1.
         12    1    3    3    0    0  0.18763842025E+02 -0.29145550927E+02 -0.15656400819E+02  0.38035086341E+02  0.00000000000E+00 0. -1.
</event>
<event>
 7    1  0.7383168E-013  0.5930196E+02  0.7816164E-02  0.1266605E+00
        -11   -1    0    0    0    0  0.00000000000E+00  0.00000000000E+00  0.45593999997E+02  0.45594000000E+02  0.51100000000E-03 0.  1.
         11   -1    0    0    0    0 -0.00000000000E+00 -0.00000000000E+00 -0.45593999997E+02  0.45594000000E+02  0.51100000000E-03 0. -1.
    9900012    2    1    2    0    0 -0.23456441744E+02  0.16107915966E+02 -0.14389230705E+02  0.59301959538E+02  0.50000028287E+02 0.  0.
        -12    1    1    2    0    0  0.23456441744E+02 -0.16107915966E+02  0.14389230705E+02  0.31886040462E+02  0.00000000000E+00 0.  1.
         11    1    3    3    0    0 -0.98528846895E+01  0.11736929062E+02 -0.11532618386E+02  0.19179054398E+02  0.51100000000E-03 0. -1.
        -11    1    3    3    0    0  0.11119056754E+02 -0.63807023513E+01  0.11338593235E+01  0.12869826060E+02  0.51100000000E-03 0.  1.
         12    1    3    3    0    0 -0.24722613809E+02  0.10751689255E+02 -0.39904716425E+01  0.27253079080E+02  0.00000000000E+00 0. -1.
</event>
<event>
 7    1  0.7383168E-013  0.5930194E+02  0.7816164E-02  0.1266605E+00
        -11   -1    0    0    0    0  0.00000000000E+00  0.00000000000E+00  0.45593999997E+02  0.45594000000E+02  0.51100000000E-03 0.  1.
         11   -1    0    0    0    0 -0.00000000000E+00 -0.00000000000E+00 -0.45593999997E+02  0.45594000000E+02  0.51100000000E-03 0. -1.
    9900012    2    1    2    0    0 -0.21310001319E+02 -0.17308153752E+02 -0.16218268085E+02  0.59301944079E+02  0.50000000093E+02 0.  0.
        -12    1    1    2    0    0  0.21310001319E+02  0.17308153752E+02  0.16218268085E+02  0.31886055921E+02  0.00000000000E+00 0.  1.
         11    1    3    3    0    0 -0.77725140861E+01  0.12010861809E+02 -0.10580430860E+02  0.17793771215E+02  0.51100000000E-03 0. -1.
        -11    1    3    3    0    0 -0.32086973178E+01 -0.27850147403E+02 -0.10579621634E+02  0.29964226054E+02  0.51100000000E-03 0.  1.
         12    1    3    3    0    0 -0.10328789915E+02 -0.14688681578E+01  0.49417844100E+01  0.11543946809E+02  0.00000000000E+00 0. -1.
</event>
<event>
 7    1  0.7383168E-013  0.5930193E+02  0.7816164E-02  0.1266605E+00
        -11   -1    0    0    0    0  0.00000000000E+00  0.00000000000E+00  0.45593999997E+02  0.45594000000E+02  0.51100000000E-03 0.  1.
         11   -1    0    0    0    0 -0.00000000000E+00 -0.00000000000E+00 -0.45593999997E+02  0.45594000000E+02  0.51100000000E-03 0. -1.
    9900012    2    1    2    0    0 -0.22527387438E+02 -0.22440133844E+02 -0.23830248728E+01  0.59301927817E+02  0.49999970435E+02 0.  0.
        -12    1    1    2    0    0  0.22527387438E+02  0.22440133844E+02  0.23830248728E+01  0.31886072183E+02  0.00000000000E+00 0.  1.
         11    1    3    3    0    0 -0.21210484863E+02  0.86910853170E+01  0.42773853865E+01  0.23317711254E+02  0.51100000000E-03 0. -1.
        -11    1    3    3    0    0 -0.61618586087E+01 -0.36677186730E+01 -0.33039764309E+01  0.78953734740E+01  0.51100000000E-03 0.  1.
        -12    1    3    3    0    0  0.48449560340E+01 -0.27463500488E+02 -0.33564338284E+01  0.28088843089E+02  0.00000000000E+00 0.  1.
</event>
<event>
 7    1  0.7383168E-013  0.5930191E+02  0.7816164E-02  0.1266605E+00
        -11   -1    0    0    0    0  0.00000000000E+00  0.00000000000E+00  0.45593999997E+02  0.45594000000E+02  0.51100000000E-03 0. -1.
         11   -1    0    0    0    0 -0.00000000000E+00 -0.00000000000E+00 -0.45593999997E+02  0.45594000000E+02  0.51100000000E-03 0.  1.
    9900012    2    1    2    0    0 -0.18727326389E+02 -0.11277612367E+01  0.25782511050E+02  0.59301914083E+02  0.49999945388E+02 0.  0.
        -12    1    1    2    0    0  0.18727326389E+02  0.11277612367E+01 -0.25782511050E+02  0.31886085917E+02  0.00000000000E+00 0.  1.
         11    1    3    3    0    0  0.64725094417E+01 -0.51567908775E+01 -0.25867073779E+01  0.86704628450E+01  0.51100000000E-03 0. -1.
        -11    1    3    3    0    0  0.56683209444E+01 -0.41582042465E+01 -0.11730887347E+01  0.71271777251E+01  0.51100000000E-03 0.  1.
         12    1    3    3    0    0 -0.30868156775E+02  0.81872338872E+01  0.29542307162E+02  0.43504273513E+02  0.00000000000E+00 0. -1.
</event>
<event>
 7    1  0.7383168E-013  0.5930193E+02  0.7816164E-02  0.1266605E+00
        -11   -1    0    0    0    0  0.00000000000E+00  0.00000000000E+00  0.45593999997E+02  0.45594000000E+02  0.51100000000E-03 0. -1.
         11   -1    0    0    0    0 -0.00000000000E+00 -0.00000000000E+00 -0.45593999997E+02  0.45594000000E+02  0.51100000000E-03 0.  1.
    9900012    2    1    2    0    0 -0.28131183260E+02  0.14631091245E+02 -0.33599388475E+01  0.59301929504E+02  0.49999973513E+02 0.  0.
        -12    1    1    2    0    0  0.28131183260E+02 -0.14631091245E+02  0.33599388475E+01  0.31886070496E+02  0.00000000000E+00 0.  1.
         11    1    3    3    0    0 -0.15343861160E+02  0.12201785266E+02 -0.60390764918E+01  0.20513119805E+02  0.51100000000E-03 0. -1.
        -11    1    3    3    0    0 -0.15530399677E+02  0.19165061689E+00 -0.14500404150E+02  0.21248335579E+02  0.51100000000E-03 0.  1.
        -12    1    3    3    0    0  0.27430775777E+01  0.22376553615E+01  0.17179541794E+02  0.17540474121E+02  0.00000000000E+00 0.  1.
</event>
<event>
 7    1  0.7383168E-013  0.5930193E+02  0.7816164E-02  0.1266605E+00
        -11   -1    0    0    0    0  0.00000000000E+00  0.00000000000E+00  0.45593999997E+02  0.45594000000E+02  0.51100000000E-03 0. -1.
         11   -1    0    0    0    0 -0.00000000000E+00 -0.00000000000E+00 -0.45593999997E+02  0.45594000000E+02  0.51100000000E-03 0.  1.
    9900012    2    1    2    0    0  0.63030449162E+00  0.82109970266E+00  0.31869262932E+02  0.59301930812E+02  0.49999975897E+02 0.  0.
        -12    1    1    2    0    0 -0.63030449162E+00 -0.82109970266E+00 -0.31869262932E+02  0.31886069188E+02  0.00000000000E+00 0.  1.
         11    1    3    3    0    0 -0.22425283586E+01  0.45571129017E+00 -0.84347779364E+01  0.87396845089E+01  0.51100000000E-03 0.  1.
        -11    1    3    3    0    0  0.15389057069E+02 -0.57541223966E+01  0.19144314887E+02  0.25227718779E+02  0.51100000000E-03 0. -1.
         12    1    3    3    0    0 -0.12516224219E+02  0.61195108091E+01  0.21159725981E+02  0.25334527524E+02  0.00000000000E+00 0. -1.
</event>
<event>
 7    1  0.7383168E-013  0.5930188E+02  0.7816164E-02  0.1266605E+00
        -11   -1    0    0    0    0  0.00000000000E+00  0.00000000000E+00  0.45593999997E+02  0.45594000000E+02  0.51100000000E-03 0.  1.
         11   -1    0    0    0    0 -0.00000000000E+00 -0.00000000000E+00 -0.45593999997E+02  0.45594000000E+02  0.51100000000E-03 0. -1.
    9900012    2    1    2    0    0  0.18238801920E+02 -0.25936222739E+02  0.33738891402E+01  0.59301879612E+02  0.49999882521E+02 0.  0.
        -12    1    1    2    0    0 -0.18238801920E+02  0.25936222739E+02 -0.33738891402E+01  0.31886120388E+02  0.00000000000E+00 0.  1.
         11    1    3    3    0    0  0.12629443559E+02 -0.18294883450E+02 -0.12934288363E+02  0.25719669920E+02  0.51100000000E-03 0. -1.
        -11    1    3    3    0    0  0.16710120805E+02 -0.45275727061E+01  0.12801550433E+02  0.21531529107E+02  0.51100000000E-03 0.  1.
         12    1    3    3    0    0 -0.11100762444E+02 -0.31137665827E+01  0.35066270697E+01  0.12050680585E+02  0.00000000000E+00 0. -1.
</event>
<event>
 7    1  0.7383168E-013  0.5930188E+02  0.7816164E-02  0.1266605E+00
        -11   -1    0    0    0    0  0.00000000000E+00  0.00000000000E+00  0.45593999997E+02  0.45594000000E+02  0.51100000000E-03 0.  1.
         11   -1    0    0    0    0 -0.00000000000E+00 -0.00000000000E+00 -0.45593999997E+02  0.45594000000E+02  0.51100000000E-03 0. -1.
    9900012    2    1    2    0    0 -0.68235694632E+01  0.23189630218E+02 -0.20794341991E+02  0.59301879058E+02  0.49999881511E+02 0.  0.
        -12    1    1    2    0    0  0.68235694632E+01 -0.23189630218E+02  0.20794341991E+02  0.31886120942E+02  0.00000000000E+00 0.  1.
         11    1    3    3    0    0 -0.22645677570E+01  0.20713610870E+02 -0.29891257613E+01  0.21050340032E+02  0.51100000000E-03 0. -1.
        -11    1    3    3    0    0 -0.17933364410E+02  0.34009712908E+01 -0.33887570560E+01  0.18564908818E+02  0.51100000000E-03 0.  1.
         12    1    3    3    0    0  0.13374362704E+02 -0.92495194251E+00 -0.14416459174E+02  0.19686630208E+02  0.00000000000E+00 0. -1.
</event>
<event>
 7    1  0.7383168E-013  0.5930185E+02  0.7816164E-02  0.1266605E+00
        -11   -1    0    0    0    0  0.00000000000E+00  0.00000000000E+00  0.45593999997E+02  0.45594000000E+02  0.51100000000E-03 0.  1.
         11   -1    0    0    0    0 -0.00000000000E+00 -0.00000000000E+00 -0.45593999997E+02  0.45594000000E+02  0.51100000000E-03 0. -1.
    9900012    2    1    2    0    0  0.28179249245E+02  0.87014704426E+01 -0.12121929242E+02  0.59301845569E+02  0.49999820434E+02 0.  0.
        -12    1    1    2    0    0 -0.28179249245E+02 -0.87014704426E+01  0.12121929242E+02  0.31886154431E+02  0.00000000000E+00 0.  1.
         11    1    3    3    0    0  0.10964334050E+02 -0.54475954764E-01 -0.14293214671E+02  0.18014315826E+02  0.51100000000E-03 0. -1.
        -11    1    3    3    0    0  0.20501444259E+02  0.11820935703E+02 -0.11919473865E+02  0.26497501676E+02  0.51100000000E-03 0.  1.
        -12    1    3    3    0    0 -0.32865290640E+01 -0.30649893054E+01  0.14090759294E+02  0.14790028067E+02  0.00000000000E+00 0.  1.
</event>
<event>
 7    1  0.7383168E-013  0.5930196E+02  0.7816164E-02  0.1266605E+00
        -11   -1    0    0    0    0  0.00000000000E+00  0.00000000000E+00  0.45593999997E+02  0.45594000000E+02  0.51100000000E-03 0.  1.
         11   -1    0    0    0    0 -0.00000000000E+00 -0.00000000000E+00 -0.45593999997E+02  0.45594000000E+02  0.51100000000E-03 0. -1.
    9900012    2    1    2    0    0  0.59115568604E+01 -0.26025937168E+02 -0.17447742023E+02  0.59301958984E+02  0.50000027276E+02 0.  0.
        -12    1    1    2    0    0 -0.59115568604E+01  0.26025937168E+02  0.17447742023E+02  0.31886041016E+02  0.00000000000E+00 0.  1.
         11    1    3    3    0    0  0.86328997848E+00  0.80273313671E+01 -0.19923451910E+00  0.80760765920E+01  0.51100000000E-03 0. -1.
        -11    1    3    3    0    0 -0.97272989583E+01 -0.27456642792E+02 -0.19259520348E+02  0.34920147519E+02  0.51100000000E-03 0.  1.
         12    1    3    3    0    0  0.14775565840E+02 -0.65966257430E+01  0.20110128438E+01  0.16305734873E+02  0.00000000000E+00 0. -1.
</event>
<event>
 7    1  0.7383168E-013  0.5930193E+02  0.7816164E-02  0.1266605E+00
        -11   -1    0    0    0    0  0.00000000000E+00  0.00000000000E+00  0.45593999997E+02  0.45594000000E+02  0.51100000000E-03 0. -1.
         11   -1    0    0    0    0 -0.00000000000E+00 -0.00000000000E+00 -0.45593999997E+02  0.45594000000E+02  0.51100000000E-03 0.  1.
    9900012    2    1    2    0    0 -0.27978189160E+02 -0.15217939623E+02  0.15351037092E+01  0.59301932534E+02  0.49999979039E+02 0.  0.
        -12    1    1    2    0    0  0.27978189160E+02  0.15217939623E+02 -0.15351037092E+01  0.31886067466E+02  0.00000000000E+00 0.  1.
         11    1    3    3    0    0 -0.93906376815E+01 -0.21441459283E+01 -0.49607847666E+01  0.10834704592E+02  0.51100000000E-03 0. -1.
        -11    1    3    3    0    0  0.12097636784E+02 -0.14178548304E+01 -0.57028365936E+01  0.13449367031E+02  0.51100000000E-03 0.  1.
         12    1    3    3    0    0 -0.30685188262E+02 -0.11655938864E+02  0.12198725069E+02  0.35017860911E+02  0.00000000000E+00 0. -1.
</event>
<event>
 7    1  0.7383168E-013  0.5930191E+02  0.7816164E-02  0.1266605E+00
        -11   -1    0    0    0    0  0.00000000000E+00  0.00000000000E+00  0.45593999997E+02  0.45594000000E+02  0.51100000000E-03 0.  1.
         11   -1    0    0    0    0 -0.00000000000E+00 -0.00000000000E+00 -0.45593999997E+02  0.45594000000E+02  0.51100000000E-03 0. -1.
    9900012    2    1    2    0    0 -0.20640267759E+02 -0.14156845278E+02 -0.19755656389E+02  0.59301907722E+02  0.49999933788E+02 0.  0.
        -12    1    1    2    0    0  0.20640267759E+02  0.14156845278E+02  0.19755656389E+02  0.31886092278E+02  0.00000000000E+00 0.  1.
         11    1    3    3    0    0 -0.12483956114E+02 -0.39365099949E+01 -0.21403335948E+02  0.25088803501E+02  0.51100000000E-03 0.  1.
        -11    1    3    3    0    0  0.80872659888E+01 -0.10599343414E+02 -0.77718186297E+01  0.15432145575E+02  0.51100000000E-03 0. -1.
        -12    1    3    3    0    0 -0.16243577634E+02  0.37900813135E+00  0.94194981886E+01  0.18780958646E+02  0.00000000000E+00 0.  1.
</event>
<event>
 7    1  0.7383168E-013  0.5930195E+02  0.7816164E-02  0.1266605E+00
        -11   -1    0    0    0    0  0.00000000000E+00  0.00000000000E+00  0.45593999997E+02  0.45594000000E+02  0.51100000000E-03 0. -1.
         11   -1    0    0    0    0 -0.00000000000E+00 -0.00000000000E+00 -0.45593999997E+02  0.45594000000E+02  0.51100000000E-03 0.  1.
    9900012    2    1    2    0    0  0.23464598727E+02 -0.11238083497E+02  0.18434708266E+02  0.59301946890E+02  0.50000005220E+02 0.  0.
        -12    1    1    2    0    0 -0.23464598727E+02  0.11238083497E+02 -0.18434708266E+02  0.31886053110E+02  0.00000000000E+00 0.  1.
         11    1    3    3    0    0  0.15509792299E+02 -0.10321238000E+02 -0.91848120491E+01  0.20771191195E+02  0.51100000000E-03 0. -1.
        -11    1    3    3    0    0 -0.94048139867E+01 -0.12874248585E+01  0.92656213651E+01  0.13264981283E+02  0.51100000000E-03 0.  1.
        -12    1    3    3    0    0  0.17359620414E+02  0.37057936083E+00  0.18353898950E+02  0.25265774412E+02  0.00000000000E+00 0.  1.
</event>
<event>
 7    1  0.7383168E-013  0.5930193E+02  0.7816164E-02  0.1266605E+00
        -11   -1    0    0    0    0  0.00000000000E+00  0.00000000000E+00  0.45593999997E+02  0.45594000000E+02  0.51100000000E-03 0.  1.
         11   -1    0    0    0    0 -0.00000000000E+00 -0.00000000000E+00 -0.45593999997E+02  0.45594000000E+02  0.51100000000E-03 0. -1.
    9900012    2    1    2    0    0  0.27034126689E+02  0.15461564847E+02 -0.68423151824E+01  0.59301932974E+02  0.49999979840E+02 0.  0.
        -12    1    1    2    0    0 -0.27034126689E+02 -0.15461564847E+02  0.68423151824E+01  0.31886067026E+02  0.00000000000E+00 0.  1.
         11    1    3    3    0    0  0.59125551140E+01  0.67683621645E+01 -0.13242091517E+01  0.90841931125E+01  0.51100000000E-03 0. -1.
        -11    1    3    3    0    0  0.30170888751E+02  0.18673978156E+02  0.44367090783E+00  0.35485163553E+02  0.51100000000E-03 0.  1.
         12    1    3    3    0    0 -0.90493171766E+01 -0.99807754735E+01 -0.59617769385E+01  0.14732576308E+02  0.00000000000E+00 0. -1.
</event>
<event>
 7    1  0.7383168E-013  0.5930192E+02  0.7816164E-02  0.1266605E+00
        -11   -1    0    0    0    0  0.00000000000E+00  0.00000000000E+00  0.45593999997E+02  0.45594000000E+02  0.51100000000E-03 0. -1.
         11   -1    0    0    0    0 -0.00000000000E+00 -0.00000000000E+00 -0.45593999997E+02  0.45594000000E+02  0.51100000000E-03 0.  1.
    9900012    2    1    2    0    0  0.28606525642E+02 -0.65828756233E+01  0.12452099845E+02  0.59301916024E+02  0.49999948927E+02 0.  0.
        -12    1    1    2    0    0 -0.28606525642E+02  0.65828756233E+01 -0.12452099845E+02  0.31886083976E+02  0.00000000000E+00 0.  1.
         11    1    3    3    0    0  0.16392373906E+02 -0.11148979917E+02 -0.33961373728E+01  0.20113264896E+02  0.51100000000E-03 0. -1.
        -11    1    3    3    0    0  0.21763668042E+02  0.10309713097E+02  0.73642410611E+01  0.25182920352E+02  0.51100000000E-03 0.  1.
         12    1    3    3    0    0 -0.95495163058E+01 -0.57436088041E+01  0.84839961569E+01  0.14005730776E+02  0.00000000000E+00 0. -1.
</event>
<event>
 7    1  0.7383168E-013  0.5930196E+02  0.7816164E-02  0.1266605E+00
        -11   -1    0    0    0    0  0.00000000000E+00  0.00000000000E+00  0.45593999997E+02  0.45594000000E+02  0.51100000000E-03 0.  1.
         11   -1    0    0    0    0 -0.00000000000E+00 -0.00000000000E+00 -0.45593999997E+02  0.45594000000E+02  0.51100000000E-03 0. -1.
    9900012    2    1    2    0    0 -0.30545564023E+01  0.13519483540E+02 -0.28716077281E+02  0.59301955334E+02  0.50000020620E+02 0.  0.
        -12    1    1    2    0    0  0.30545564023E+01 -0.13519483540E+02  0.28716077281E+02  0.31886044666E+02  0.00000000000E+00 0.  1.
         11    1    3    3    0    0  0.44272940998E+01 -0.19544449695E+01 -0.55880947202E+01  0.73924008987E+01  0.51100000000E-03 0. -1.
        -11    1    3    3    0    0  0.55565097773E+01  0.27548378364E+02 -0.18151365393E+02  0.33455343629E+02  0.51100000000E-03 0.  1.
         12    1    3    3    0    0 -0.13038360279E+02 -0.12074449855E+02 -0.49766171675E+01  0.18454210807E+02  0.00000000000E+00 0. -1.
</event>
<event>
 7    1  0.7383168E-013  0.5930195E+02  0.7816164E-02  0.1266605E+00
        -11   -1    0    0    0    0  0.00000000000E+00  0.00000000000E+00  0.45593999997E+02  0.45594000000E+02  0.51100000000E-03 0. -1.
         11   -1    0    0    0    0 -0.00000000000E+00 -0.00000000000E+00 -0.45593999997E+02  0.45594000000E+02  0.51100000000E-03 0.  1.
    9900012    2    1    2    0    0 -0.14407188943E+02  0.22339373286E+02 -0.17609814629E+02  0.59301948766E+02  0.50000008642E+02 0.  0.
        -12    1    1    2    0    0  0.14407188943E+02 -0.22339373286E+02  0.17609814629E+02  0.31886051234E+02  0.00000000000E+00 0.  1.
         11    1    3    3    0    0  0.70582581327E+01 -0.41203729108E+01  0.17350892688E+01  0.83550592950E+01  0.51100000000E-03 0.  1.
        -11    1    3    3    0    0 -0.20287382998E+02  0.36026672757E+00 -0.12878287698E+02  0.24032436316E+02  0.51100000000E-03 0. -1.
         12    1    3    3    0    0 -0.11780640775E+01  0.26099479469E+02 -0.64666161997E+01  0.26914453154E+02  0.00000000000E+00 0. -1.
</event>
<event>
 7    1  0.7383168E-013  0.5930196E+02  0.7816164E-02  0.1266605E+00
        -11   -1    0    0    0    0  0.00000000000E+00  0.00000000000E+00  0.45593999997E+02  0.45594000000E+02  0.51100000000E-03 0. -1.
         11   -1    0    0    0    0 -0.00000000000E+00 -0.00000000000E+00 -0.45593999997E+02  0.45594000000E+02  0.51100000000E-03 0.  1.
    9900012    2    1    2    0    0 -0.70333893363E+01  0.28862816951E+02  0.11583983093E+02  0.59301961799E+02  0.50000032410E+02 0.  0.
        -12    1    1    2    0    0  0.70333893363E+01 -0.28862816951E+02 -0.11583983093E+02  0.31886038201E+02  0.00000000000E+00 0.  1.
         11    1    3    3    0    0  0.16677955930E+02  0.17998712554E+02  0.94942847291E+01  0.26310631129E+02  0.51100000000E-03 0. -1.
        -11    1    3    3    0    0 -0.66568184163E+01  0.73400650144E+01  0.98084527699E+01  0.13942579813E+02  0.51100000000E-03 0.  1.
        -12    1    3    3    0    0 -0.17054526850E+02  0.35240393820E+01 -0.77187544062E+01  0.19048750857E+02  0.00000000000E+00 0.  1.
</event>
<event>
 7    1  0.7383168E-013  0.5930193E+02  0.7816164E-02  0.1266605E+00
        -11   -1    0    0    0    0  0.00000000000E+00  0.00000000000E+00  0.45593999997E+02  0.45594000000E+02  0.51100000000E-03 0. -1.
         11   -1    0    0    0    0 -0.00000000000E+00 -0.00000000000E+00 -0.45593999997E+02  0.45594000000E+02  0.51100000000E-03 0.  1.
    9900012    2    1    2    0    0 -0.48948871958E+01  0.24071622604E+02  0.20330234968E+02  0.59301931109E+02  0.49999976439E+02 0.  0.
        -12    1    1    2    0    0  0.48948871958E+01 -0.24071622604E+02 -0.20330234968E+02  0.31886068891E+02  0.00000000000E+00 0.  1.
         11    1    3    3    0    0  0.10015241141E+02  0.54217958023E+01  0.22853831518E+01  0.11615674808E+02  0.51100000000E-03 0. -1.
        -11    1    3    3    0    0 -0.10445519381E+02  0.16144752940E+02 -0.82306856612E+01  0.20916646704E+02  0.51100000000E-03 0.  1.
         12    1    3    3    0    0 -0.44646089558E+01  0.25050738623E+01  0.26275537478E+02  0.26769609596E+02  0.00000000000E+00 0. -1.
</event>
<event>
 7    1  0.7383168E-013  0.5930194E+02  0.7816164E-02  0.1266605E+00
        -11   -1    0    0    0    0  0.00000000000E+00  0.00000000000E+00  0.45593999997E+02  0.45594000000E+02  0.51100000000E-03 0.  1.
         11   -1    0    0    0    0 -0.00000000000E+00 -0.00000000000E+00 -0.45593999997E+02  0.45594000000E+02  0.51100000000E-03 0. -1.
    9900012    2    1    2    0    0  0.15646388247E+02 -0.95737214654E+01 -0.26081704826E+02  0.59301938241E+02  0.49999989447E+02 0.  0.
        -12    1    1    2    0    0 -0.15646388247E+02  0.95737214654E+01  0.26081704826E+02  0.31886061759E+02  0.00000000000E+00 0.  1.
         11    1    3    3    0    0 -0.31883511152E+01  0.43840675725E+00  0.25304595254E+01  0.40940211272E+01  0.51100000000E-03 0. -1.
        -11    1    3    3    0    0  0.32193219517E+02 -0.78164491252E+01 -0.16355031426E+02  0.36945734706E+02  0.51100000000E-03 0.  1.
         12    1    3    3    0    0 -0.13358480155E+02 -0.21956790975E+01 -0.12257132925E+02  0.18262182408E+02  0.00000000000E+00 0. -1.
</event>
<event>
 7    1  0.7383168E-013  0.5930196E+02  0.7816164E-02  0.1266605E+00
        -11   -1    0    0    0    0  0.00000000000E+00  0.00000000000E+00  0.45593999997E+02  0.45594000000E+02  0.51100000000E-03 0.  1.
         11   -1    0    0    0    0 -0.00000000000E+00 -0.00000000000E+00 -0.45593999997E+02  0.45594000000E+02  0.51100000000E-03 0. -1.
    9900012    2    1    2    0    0  0.16611626746E+02 -0.19874012267E+01 -0.27144500428E+02  0.59301955870E+02  0.50000021598E+02 0.  0.
        -12    1    1    2    0    0 -0.16611626746E+02  0.19874012267E+01  0.27144500428E+02  0.31886044130E+02  0.00000000000E+00 0.  1.
         11    1    3    3    0    0  0.26365188517E+01  0.53412476035E+01 -0.20382473114E+02  0.21235003370E+02  0.51100000000E-03 0. -1.
        -11    1    3    3    0    0  0.45520551322E+01  0.13342525071E+02  0.80920012201E+00  0.14120870593E+02  0.51100000000E-03 0.  1.
         12    1    3    3    0    0  0.94230527625E+01 -0.20671173902E+02 -0.75712274357E+01  0.23946081907E+02  0.00000000000E+00 0. -1.
</event>
<event>
 7    1  0.7383168E-013  0.5930193E+02  0.7816164E-02  0.1266605E+00
        -11   -1    0    0    0    0  0.00000000000E+00  0.00000000000E+00  0.45593999997E+02  0.45594000000E+02  0.51100000000E-03 0.  1.
         11   -1    0    0    0    0 -0.00000000000E+00 -0.00000000000E+00 -0.45593999997E+02  0.45594000000E+02  0.51100000000E-03 0. -1.
    9900012    2    1    2    0    0  0.16250300244E+02 -0.25855476847E+02 -0.91729655091E+01  0.59301933494E+02  0.49999980789E+02 0.  0.
        -12    1    1    2    0    0 -0.16250300244E+02  0.25855476847E+02  0.91729655091E+01  0.31886066506E+02  0.00000000000E+00 0.  1.
         11    1    3    3    0    0  0.72354557212E+01 -0.37789990029E+01 -0.90876332628E+01  0.12215470991E+02  0.51100000000E-03 0. -1.
        -11    1    3    3    0    0  0.15110580073E+02 -0.22042424450E+02 -0.15231019848E+02  0.30760072686E+02  0.51100000000E-03 0.  1.
        -12    1    3    3    0    0 -0.60957355497E+01 -0.34053393752E-01  0.15145687602E+02  0.16326389817E+02  0.00000000000E+00 0.  1.
</event>
<event>
 7    1  0.7383168E-013  0.5930194E+02  0.7816164E-02  0.1266605E+00
        -11   -1    0    0    0    0  0.00000000000E+00  0.00000000000E+00  0.45593999997E+02  0.45594000000E+02  0.51100000000E-03 0. -1.
         11   -1    0    0    0    0 -0.00000000000E+00 -0.00000000000E+00 -0.45593999997E+02  0.45594000000E+02  0.51100000000E-03 0.  1.
    9900012    2    1    2    0    0  0.14395812613E+02  0.19636874173E+02  0.20588220335E+02  0.59301936201E+02  0.49999985726E+02 0.  0.
        -12    1    1    2    0    0 -0.14395812613E+02 -0.19636874173E+02 -0.20588220335E+02  0.31886063799E+02  0.00000000000E+00 0.  1.
         11    1    3    3    0    0  0.13766054312E+02  0.28322627347E+02  0.12174475446E+02  0.33762306257E+02  0.51100000000E-03 0. -1.
        -11    1    3    3    0    0  0.10619731490E+02 -0.48713055512E+01  0.91217601727E+01  0.14822780563E+02  0.51100000000E-03 0.  1.
        -12    1    3    3    0    0 -0.99899731902E+01 -0.38144476232E+01 -0.70801528330E+00  0.10716849381E+02  0.00000000000E+00 0.  1.
</event>
<event>
 7    1  0.7383168E-013  0.5930189E+02  0.7816164E-02  0.1266605E+00
        -11   -1    0    0    0    0  0.00000000000E+00  0.00000000000E+00  0.45593999997E+02  0.45594000000E+02  0.51100000000E-03 0.  1.
         11   -1    0    0    0    0 -0.00000000000E+00 -0.00000000000E+00 -0.45593999997E+02  0.45594000000E+02  0.51100000000E-03 0. -1.
    9900012    2    1    2    0    0 -0.31349456710E+02  0.43151924870E+01  0.39134252888E+01  0.59301886726E+02  0.49999895495E+02 0.  0.
        -12    1    1    2    0    0  0.31349456710E+02 -0.43151924870E+01 -0.39134252888E+01  0.31886113274E+02  0.00000000000E+00 0.  1.
         11    1    3    3    0    0  0.34600592910E+01  0.31648684333E+01 -0.10895189160E+02  0.11861431178E+02  0.51100000000E-03 0.  1.
        -11    1    3    3    0    0  0.35641235208E+01 -0.70026264746E+00  0.74999183037E+01  0.83331938097E+01  0.51100000000E-03 0. -1.
         12    1    3    3    0    0 -0.38373639522E+02  0.18505867012E+01  0.73086961450E+01  0.39107261738E+02  0.00000000000E+00 0. -1.
</event>
<event>
 7    1  0.7383168E-013  0.5930196E+02  0.7816164E-02  0.1266605E+00
        -11   -1    0    0    0    0  0.00000000000E+00  0.00000000000E+00  0.45593999997E+02  0.45594000000E+02  0.51100000000E-03 0.  1.
         11   -1    0    0    0    0 -0.00000000000E+00 -0.00000000000E+00 -0.45593999997E+02  0.45594000000E+02  0.51100000000E-03 0. -1.
    9900012    2    1    2    0    0  0.13585503903E+02  0.17843584980E+02 -0.22666283380E+02  0.59301955349E+02  0.50000020646E+02 0.  0.
        -12    1    1    2    0    0 -0.13585503903E+02 -0.17843584980E+02  0.22666283380E+02  0.31886044651E+02  0.00000000000E+00 0.  1.
         11    1    3    3    0    0  0.11587258540E+02  0.36252809772E+01 -0.12170836787E+02  0.17191174800E+02  0.51100000000E-03 0. -1.
        -11    1    3    3    0    0  0.11867164853E+02 -0.11314739764E+01 -0.18640937625E+02  0.22126779946E+02  0.51100000000E-03 0.  1.
        -12    1    3    3    0    0 -0.98689194900E+01  0.15349777980E+02  0.81454910319E+01  0.19984000602E+02  0.00000000000E+00 0.  1.
</event>
<event>
 7    1  0.7383168E-013  0.5930197E+02  0.7816164E-02  0.1266605E+00
        -11   -1    0    0    0    0  0.00000000000E+00  0.00000000000E+00  0.45593999997E+02  0.45594000000E+02  0.51100000000E-03 0.  1.
         11   -1    0    0    0    0 -0.00000000000E+00 -0.00000000000E+00 -0.45593999997E+02  0.45594000000E+02  0.51100000000E-03 0. -1.
    9900012    2    1    2    0    0  0.14102994331E+02  0.24801420351E+02  0.14237777612E+02  0.59301965254E+02  0.50000038711E+02 0.  0.
        -12    1    1    2    0    0 -0.14102994331E+02 -0.24801420351E+02 -0.14237777612E+02  0.31886034746E+02  0.00000000000E+00 0.  1.
         11    1    3    3    0    0  0.90907772992E+01 -0.84847013773E+00  0.47157929286E+01  0.10276226773E+02  0.51100000000E-03 0. -1.
        -11    1    3    3    0    0  0.94726176887E+01 -0.79217825514E+01  0.87786399191E+01  0.15150895807E+02  0.51100000000E-03 0.  1.
         12    1    3    3    0    0 -0.44604006571E+01  0.33571673040E+02  0.74334476450E+00  0.33874842674E+02  0.00000000000E+00 0. -1.
</event>
<event>
 7    1  0.7383168E-013  0.5930195E+02  0.7816164E-02  0.1266605E+00
        -11   -1    0    0    0    0  0.00000000000E+00  0.00000000000E+00  0.45593999997E+02  0.45594000000E+02  0.51100000000E-03 0.  1.
         11   -1    0    0    0    0 -0.00000000000E+00 -0.00000000000E+00 -0.45593999997E+02  0.45594000000E+02  0.51100000000E-03 0. -1.
    9900012    2    1    2    0    0  0.53996512462E+01 -0.31416600952E+02 -0.74922004899E+00  0.59301946942E+02  0.50000005315E+02 0.  0.
        -12    1    1    2    0    0 -0.53996512462E+01  0.31416600952E+02  0.74922004899E+00  0.31886053058E+02  0.00000000000E+00 0.  1.
         11    1    3    3    0    0  0.38942644004E+01 -0.85748399886E+01 -0.48514669126E+01  0.10593861785E+02  0.51100000000E-03 0. -1.
        -11    1    3    3    0    0 -0.12619113634E+02 -0.26138748564E+02  0.12879729586E+02  0.31754742006E+02  0.51100000000E-03 0.  1.
         12    1    3    3    0    0  0.14124500480E+02  0.32969876012E+01 -0.87774827222E+01  0.16953343151E+02  0.00000000000E+00 0. -1.
</event>
<event>
 7    1  0.7383168E-013  0.5930195E+02  0.7816164E-02  0.1266605E+00
        -11   -1    0    0    0    0  0.00000000000E+00  0.00000000000E+00  0.45593999997E+02  0.45594000000E+02  0.51100000000E-03 0.  1.
         11   -1    0    0    0    0 -0.00000000000E+00 -0.00000000000E+00 -0.45593999997E+02  0.45594000000E+02  0.51100000000E-03 0. -1.
    9900012    2    1    2    0    0 -0.20334995534E+02 -0.87180943290E+01 -0.22960901427E+02  0.59301949657E+02  0.50000010267E+02 0.  0.
        -12    1    1    2    0    0  0.20334995534E+02  0.87180943290E+01  0.22960901427E+02  0.31886050343E+02  0.00000000000E+00 0.  1.
         11    1    3    3    0    0 -0.25446077277E+01  0.21684595912E+01 -0.13165562684E+02  0.13583419545E+02  0.51100000000E-03 0. -1.
        -11    1    3    3    0    0 -0.10823076986E+02  0.42642574496E+01 -0.22113266264E+02  0.24986384936E+02  0.51100000000E-03 0.  1.
        -12    1    3    3    0    0 -0.69673108201E+01 -0.15150811370E+02  0.12317927521E+02  0.20732145177E+02  0.00000000000E+00 0.  1.
</event>
<event>
 7    1  0.7383168E-013  0.5930193E+02  0.7816164E-02  0.1266605E+00
        -11   -1    0    0    0    0  0.00000000000E+00  0.00000000000E+00  0.45593999997E+02  0.45594000000E+02  0.51100000000E-03 0. -1.
         11   -1    0    0    0    0 -0.00000000000E+00 -0.00000000000E+00 -0.45593999997E+02  0.45594000000E+02  0.51100000000E-03 0.  1.
    9900012    2    1    2    0    0  0.19926864975E+02  0.23685006461E+02  0.76591174382E+01  0.59301928452E+02  0.49999971594E+02 0.  0.
        -12    1    1    2    0    0 -0.19926864975E+02 -0.23685006461E+02 -0.76591174382E+01  0.31886071548E+02  0.00000000000E+00 0.  1.
         11    1    3    3    0    0 -0.42435063250E+01  0.14811900213E+02  0.88025278566E+01  0.17744977622E+02  0.51100000000E-03 0. -1.
        -11    1    3    3    0    0  0.13656748600E+01 -0.11100906647E+02 -0.11314688414E+01  0.11241682179E+02  0.51100000000E-03 0.  1.
        -12    1    3    3    0    0  0.22804696440E+02  0.19974012895E+02 -0.11941576876E-01  0.30315268652E+02  0.00000000000E+00 0.  1.
</event>
<event>
 7    1  0.7383168E-013  0.5930195E+02  0.7816164E-02  0.1266605E+00
        -11   -1    0    0    0    0  0.00000000000E+00  0.00000000000E+00  0.45593999997E+02  0.45594000000E+02  0.51100000000E-03 0.  1.
         11   -1    0    0    0    0 -0.00000000000E+00 -0.00000000000E+00 -0.45593999997E+02  0.45594000000E+02  0.51100000000E-03 0. -1.
    9900012    2    1    2    0    0  0.16622376377E+02  0.25158950026E+02  0.10365526063E+02  0.59301948294E+02  0.50000007781E+02 0.  0.
        -12    1    1    2    0    0 -0.16622376377E+02 -0.25158950026E+02 -0.10365526063E+02  0.31886051706E+02  0.00000000000E+00 0.  1.
         11    1    3    3    0    0  0.18224973411E+02  0.24868645081E+01 -0.22312126959E+01  0.18528692918E+02  0.51100000000E-03 0. -1.
        -11    1    3    3    0    0  0.82723046344E+01  0.22358345664E+01 -0.67825002153E+01  0.10928508114E+02  0.51100000000E-03 0.  1.
        -12    1    3    3    0    0 -0.98749016682E+01  0.20436250951E+02  0.19379238974E+02  0.29844747262E+02  0.00000000000E+00 0.  1.
</event>
<event>
 7    1  0.7383168E-013  0.5930195E+02  0.7816164E-02  0.1266605E+00
        -11   -1    0    0    0    0  0.00000000000E+00  0.00000000000E+00  0.45593999997E+02  0.45594000000E+02  0.51100000000E-03 0.  1.
         11   -1    0    0    0    0 -0.00000000000E+00 -0.00000000000E+00 -0.45593999997E+02  0.45594000000E+02  0.51100000000E-03 0. -1.
    9900012    2    1    2    0    0  0.25672917103E+02 -0.61751008463E+01  0.17874272814E+02  0.59301950203E+02  0.50000011261E+02 0.  0.
        -12    1    1    2    0    0 -0.25672917103E+02  0.61751008463E+01 -0.17874272814E+02  0.31886049797E+02  0.00000000000E+00 0.  1.
         11    1    3    3    0    0 -0.14837243706E+01 -0.77733299836E+01  0.14679205049E+02  0.16676485186E+02  0.51100000000E-03 0. -1.
        -11    1    3    3    0    0  0.27508003365E+02  0.50385970920E+01  0.14004540897E+02  0.31276266973E+02  0.51100000000E-03 0.  1.
         12    1    3    3    0    0 -0.35136189117E+00 -0.34403679547E+01 -0.10809473131E+02  0.11349198043E+02  0.00000000000E+00 0. -1.
</event>
<event>
 7    1  0.7383168E-013  0.5930194E+02  0.7816164E-02  0.1266605E+00
        -11   -1    0    0    0    0  0.00000000000E+00  0.00000000000E+00  0.45593999997E+02  0.45594000000E+02  0.51100000000E-03 0.  1.
         11   -1    0    0    0    0 -0.00000000000E+00 -0.00000000000E+00 -0.45593999997E+02  0.45594000000E+02  0.51100000000E-03 0. -1.
    9900012    2    1    2    0    0 -0.20877728061E+02 -0.12926563277E+02 -0.20340727435E+02  0.59301940981E+02  0.49999994444E+02 0.  0.
        -12    1    1    2    0    0  0.20877728061E+02  0.12926563277E+02  0.20340727435E+02  0.31886059019E+02  0.00000000000E+00 0.  1.
         11    1    3    3    0    0  0.19483454623E+01 -0.90344900211E+00 -0.10949991302E+01  0.24106624600E+01  0.51100000000E-03 0. -1.
        -11    1    3    3    0    0  0.13409901959E+02 -0.10871581304E+02 -0.69312364737E+01  0.18602655454E+02  0.51100000000E-03 0.  1.
        -12    1    3    3    0    0 -0.36235975483E+02 -0.11515329703E+01 -0.12314491831E+02  0.38288623068E+02  0.00000000000E+00 0.  1.
</event>
<event>
 7    1  0.7383168E-013  0.5930188E+02  0.7816164E-02  0.1266605E+00
        -11   -1    0    0    0    0  0.00000000000E+00  0.00000000000E+00  0.45593999997E+02  0.45594000000E+02  0.51100000000E-03 0.  1.
         11   -1    0    0    0    0 -0.00000000000E+00 -0.00000000000E+00 -0.45593999997E+02  0.45594000000E+02  0.51100000000E-03 0. -1.
    9900012    2    1    2    0    0 -0.34794833144E+01  0.30366845590E+02  0.90814403596E+01  0.59301879599E+02  0.49999882497E+02 0.  0.
        -12    1    1    2    0    0  0.34794833144E+01 -0.30366845590E+02 -0.90814403596E+01  0.31886120401E+02  0.00000000000E+00 0.  1.
         11    1    3    3    0    0 -0.69373885480E+01 -0.47712978634E+01 -0.69030312152E+01  0.10887813526E+02  0.51100000000E-03 0. -1.
        -11    1    3    3    0    0  0.82749390482E+01  0.19955379822E+02 -0.48967378646E+01  0.22151068644E+02  0.51100000000E-03 0.  1.
        -12    1    3    3    0    0 -0.48170338146E+01  0.15182763632E+02  0.20881209439E+02  0.26262997428E+02  0.00000000000E+00 0.  1.
</event>
<event>
 7    1  0.7383168E-013  0.5930192E+02  0.7816164E-02  0.1266605E+00
        -11   -1    0    0    0    0  0.00000000000E+00  0.00000000000E+00  0.45593999997E+02  0.45594000000E+02  0.51100000000E-03 0.  1.
         11   -1    0    0    0    0 -0.00000000000E+00 -0.00000000000E+00 -0.45593999997E+02  0.45594000000E+02  0.51100000000E-03 0. -1.
    9900012    2    1    2    0    0 -0.21969379267E+02 -0.14292198763E+02 -0.18160435905E+02  0.59301921484E+02  0.49999958885E+02 0.  0.
        -12    1    1    2    0    0  0.21969379267E+02  0.14292198763E+02  0.18160435905E+02  0.31886078516E+02  0.00000000000E+00 0.  1.
         11    1    3    3    0    0  0.21019005760E+01 -0.21853227374E+02 -0.99344600934E+01  0.24097199636E+02  0.51100000000E-03 0. -1.
        -11    1    3    3    0    0 -0.12129699802E+02 -0.26376621415E+01  0.62045141434E+01  0.13877423208E+02  0.51100000000E-03 0.  1.
         12    1    3    3    0    0 -0.11941580041E+02  0.10198690752E+02 -0.14430489955E+02  0.21327298640E+02  0.00000000000E+00 0. -1.
</event>
<event>
 7    1  0.7383168E-013  0.5930191E+02  0.7816164E-02  0.1266605E+00
        -11   -1    0    0    0    0  0.00000000000E+00  0.00000000000E+00  0.45593999997E+02  0.45594000000E+02  0.51100000000E-03 0.  1.
         11   -1    0    0    0    0 -0.00000000000E+00 -0.00000000000E+00 -0.45593999997E+02  0.45594000000E+02  0.51100000000E-03 0. -1.
    9900012    2    1    2    0    0  0.23581757879E+01  0.23838785615E+02 -0.21044576747E+02  0.59301907371E+02  0.49999933148E+02 0.  0.
        -12    1    1    2    0    0 -0.23581757879E+01 -0.23838785615E+02  0.21044576747E+02  0.31886092629E+02  0.00000000000E+00 0.  1.
         11    1    3    3    0    0  0.27406216228E+01  0.21659982687E+02 -0.52404488392E+01  0.22452798516E+02  0.51100000000E-03 0. -1.
        -11    1    3    3    0    0  0.60054595405E+01  0.92249276112E+01  0.63725718795E+01  0.12719060749E+02  0.51100000000E-03 0.  1.
         12    1    3    3    0    0 -0.63879053753E+01 -0.70461246834E+01 -0.22176699787E+02  0.24130048106E+02  0.00000000000E+00 0. -1.
</event>
<event>
 7    1  0.7383168E-013  0.5930192E+02  0.7816164E-02  0.1266605E+00
        -11   -1    0    0    0    0  0.00000000000E+00  0.00000000000E+00  0.45593999997E+02  0.45594000000E+02  0.51100000000E-03 0.  1.
         11   -1    0    0    0    0 -0.00000000000E+00 -0.00000000000E+00 -0.45593999997E+02  0.45594000000E+02  0.51100000000E-03 0. -1.
    9900012    2    1    2    0    0  0.24565822800E+02  0.29024870698E+01 -0.20120083885E+02  0.59301923782E+02  0.49999963077E+02 0.  0.
        -12    1    1    2    0    0 -0.24565822800E+02 -0.29024870698E+01  0.20120083885E+02  0.31886076218E+02  0.00000000000E+00 0.  1.
         11    1    3    3    0    0  0.35958561468E+01  0.34076344022E+01 -0.21485714560E+02  0.22049446344E+02  0.51100000000E-03 0. -1.
        -11    1    3    3    0    0  0.14781002692E+02  0.13954309374E+02 -0.38364817931E+01  0.20686212401E+02  0.51100000000E-03 0.  1.
        -12    1    3    3    0    0  0.61889639610E+01 -0.14459456707E+02  0.52021124680E+01  0.16566265037E+02  0.00000000000E+00 0.  1.
</event>
<event>
 7    1  0.7383168E-013  0.5930196E+02  0.7816164E-02  0.1266605E+00
        -11   -1    0    0    0    0  0.00000000000E+00  0.00000000000E+00  0.45593999997E+02  0.45594000000E+02  0.51100000000E-03 0.  1.
         11   -1    0    0    0    0 -0.00000000000E+00 -0.00000000000E+00 -0.45593999997E+02  0.45594000000E+02  0.51100000000E-03 0. -1.
    9900012    2    1    2    0    0  0.27996913807E+01  0.11295971271E+02 -0.29686404576E+02  0.59301955162E+02  0.50000020306E+02 0.  0.
        -12    1    1    2    0    0 -0.27996913807E+01 -0.11295971271E+02  0.29686404576E+02  0.31886044838E+02  0.00000000000E+00 0.  1.
         11    1    3    3    0    0  0.47873143217E+01 -0.24767647449E+00 -0.44980528161E+00  0.48147738372E+01  0.51100000000E-03 0. -1.
        -11    1    3    3    0    0 -0.41979562060E+00  0.26550223710E+02 -0.67336202015E+01  0.27394018484E+02  0.51100000000E-03 0.  1.
         12    1    3    3    0    0 -0.15678273204E+01 -0.15006575964E+02 -0.22502979092E+02  0.27093162841E+02  0.00000000000E+00 0. -1.
</event>
<event>
 7    1  0.7383168E-013  0.5930193E+02  0.7816164E-02  0.1266605E+00
        -11   -1    0    0    0    0  0.00000000000E+00  0.00000000000E+00  0.45593999997E+02  0.45594000000E+02  0.51100000000E-03 0. -1.
         11   -1    0    0    0    0 -0.00000000000E+00 -0.00000000000E+00 -0.45593999997E+02  0.45594000000E+02  0.51100000000E-03 0.  1.
    9900012    2    1    2    0    0  0.14474249434E+01 -0.31443376029E+02 -0.50931938667E+01  0.59301928451E+02  0.49999971592E+02 0.  0.
        -12    1    1    2    0    0 -0.14474249434E+01  0.31443376029E+02  0.50931938667E+01  0.31886071549E+02  0.00000000000E+00 0.  1.
         11    1    3    3    0    0 -0.76239622287E+00 -0.22818149343E+02  0.18136176123E+02  0.29157676040E+02  0.51100000000E-03 0. -1.
        -11    1    3    3    0    0  0.18807939451E+01 -0.38772175122E+01  0.17972621190E+01  0.46690848018E+01  0.51100000000E-03 0.  1.
        -12    1    3    3    0    0  0.32902722118E+00 -0.47480091731E+01 -0.25026632108E+02  0.25475167609E+02  0.00000000000E+00 0.  1.
</event>
<event>
 7    1  0.7383168E-013  0.5930184E+02  0.7816164E-02  0.1266605E+00
        -11   -1    0    0    0    0  0.00000000000E+00  0.00000000000E+00  0.45593999997E+02  0.45594000000E+02  0.51100000000E-03 0.  1.
         11   -1    0    0    0    0 -0.00000000000E+00 -0.00000000000E+00 -0.45593999997E+02  0.45594000000E+02  0.51100000000E-03 0. -1.
    9900012    2    1    2    0    0 -0.13660402868E+02 -0.13612339238E+02 -0.25393406300E+02  0.59301835766E+02  0.49999802556E+02 0.  0.
        -12    1    1    2    0    0  0.13660402868E+02  0.13612339238E+02  0.25393406300E+02  0.31886164234E+02  0.00000000000E+00 0.  1.
         11    1    3    3    0    0  0.65223600892E+01 -0.12534531806E+02 -0.32260780501E+01  0.14493558865E+02  0.51100000000E-03 0. -1.
        -11    1    3    3    0    0 -0.10085705238E+02  0.11377951750E+02  0.24789038919E+01  0.15405330277E+02  0.51100000000E-03 0.  1.
         12    1    3    3    0    0 -0.10097057719E+02 -0.12455759181E+02 -0.24646232142E+02  0.29402946624E+02  0.00000000000E+00 0. -1.
</event>
<event>
 7    1  0.7383168E-013  0.5930197E+02  0.7816164E-02  0.1266605E+00
        -11   -1    0    0    0    0  0.00000000000E+00  0.00000000000E+00  0.45593999997E+02  0.45594000000E+02  0.51100000000E-03 0.  1.
         11   -1    0    0    0    0 -0.00000000000E+00 -0.00000000000E+00 -0.45593999997E+02  0.45594000000E+02  0.51100000000E-03 0. -1.
    9900012    2    1    2    0    0  0.60596749986E+01  0.58449954615E+01 -0.30754437929E+02  0.59301967237E+02  0.50000042328E+02 0.  0.
        -12    1    1    2    0    0 -0.60596749986E+01 -0.58449954615E+01  0.30754437929E+02  0.31886032763E+02  0.00000000000E+00 0.  1.
         11    1    3    3    0    0 -0.20481722394E+01 -0.21591364688E+01  0.54150310922E+01  0.61789515133E+01  0.51100000000E-03 0. -1.
        -11    1    3    3    0    0 -0.14949857199E+02  0.22390451443E+01 -0.14971805696E+02  0.21275961071E+02  0.51100000000E-03 0.  1.
         12    1    3    3    0    0  0.23057704437E+02  0.57650867860E+01 -0.21197663325E+02  0.31847054652E+02  0.00000000000E+00 0. -1.
</event>
<event>
 7    1  0.7383168E-013  0.5930197E+02  0.7816164E-02  0.1266605E+00
        -11   -1    0    0    0    0  0.00000000000E+00  0.00000000000E+00  0.45593999997E+02  0.45594000000E+02  0.51100000000E-03 0.  1.
         11   -1    0    0    0    0 -0.00000000000E+00 -0.00000000000E+00 -0.45593999997E+02  0.45594000000E+02  0.51100000000E-03 0. -1.
    9900012    2    1    2    0    0 -0.19393181239E+02 -0.15542682813E+02 -0.19976203010E+02  0.59301966156E+02  0.50000040357E+02 0.  0.
        -12    1    1    2    0    0  0.19393181239E+02  0.15542682813E+02  0.19976203010E+02  0.31886033844E+02  0.00000000000E+00 0.  1.
         11    1    3    3    0    0 -0.33143446316E+02 -0.61029566197E+01 -0.14801116872E+02  0.36807705364E+02  0.51100000000E-03 0. -1.
        -11    1    3    3    0    0 -0.21601015879E+01  0.97062393921E+00  0.90052640210E+00  0.25335938434E+01  0.51100000000E-03 0.  1.
        -12    1    3    3    0    0  0.15910366665E+02 -0.10410350132E+02 -0.60756125403E+01  0.19960666949E+02  0.00000000000E+00 0.  1.
</event>
<event>
 7    1  0.7383168E-013  0.5930194E+02  0.7816164E-02  0.1266605E+00
        -11   -1    0    0    0    0  0.00000000000E+00  0.00000000000E+00  0.45593999997E+02  0.45594000000E+02  0.51100000000E-03 0.  1.
         11   -1    0    0    0    0 -0.00000000000E+00 -0.00000000000E+00 -0.45593999997E+02  0.45594000000E+02  0.51100000000E-03 0. -1.
    9900012    2    1    2    0    0  0.20340465428E+02 -0.17178668192E+02  0.17546507415E+02  0.59301935691E+02  0.49999984795E+02 0.  0.
        -12    1    1    2    0    0 -0.20340465428E+02  0.17178668192E+02 -0.17546507415E+02  0.31886064309E+02  0.00000000000E+00 0.  1.
         11    1    3    3    0    0  0.23666098279E+02 -0.21348420276E+02  0.56836355096E+01  0.32375036199E+02  0.51100000000E-03 0. -1.
        -11    1    3    3    0    0 -0.81772539065E+01 -0.76221270975E+01  0.74506243321E+01  0.13434139576E+02  0.51100000000E-03 0.  1.
        -12    1    3    3    0    0  0.48516210554E+01  0.11791879182E+02  0.44122475737E+01  0.13492759916E+02  0.00000000000E+00 0.  1.
</event>
<event>
 7    1  0.7383168E-013  0.5930195E+02  0.7816164E-02  0.1266605E+00
        -11   -1    0    0    0    0  0.00000000000E+00  0.00000000000E+00  0.45593999997E+02  0.45594000000E+02  0.51100000000E-03 0.  1.
         11   -1    0    0    0    0 -0.00000000000E+00 -0.00000000000E+00 -0.45593999997E+02  0.45594000000E+02  0.51100000000E-03 0. -1.
    9900012    2    1    2    0    0  0.18738395384E+02 -0.25722376809E+02  0.19880036805E+01  0.59301948365E+02  0.50000007909E+02 0.  0.
        -12    1    1    2    0    0 -0.18738395384E+02  0.25722376809E+02 -0.19880036805E+01  0.31886051635E+02  0.00000000000E+00 0.  1.
         11    1    3    3    0    0  0.28987857115E+02 -0.20180791324E+02  0.21216933562E+00  0.35321455443E+02  0.51100000000E-03 0. -1.
        -11    1    3    3    0    0  0.34561427530E+01  0.40544720793E+01 -0.35734857370E+01  0.64150968149E+01  0.51100000000E-03 0.  1.
         12    1    3    3    0    0 -0.13705604484E+02 -0.95960575643E+01  0.53493200819E+01  0.17565396106E+02  0.00000000000E+00 0. -1.
</event>
<event>
 7    1  0.7383168E-013  0.5930205E+02  0.7816164E-02  0.1266604E+00
        -11   -1    0    0    0    0  0.00000000000E+00  0.00000000000E+00  0.45593999997E+02  0.45594000000E+02  0.51100000000E-03 0.  1.
         11   -1    0    0    0    0 -0.00000000000E+00 -0.00000000000E+00 -0.45593999997E+02  0.45594000000E+02  0.51100000000E-03 0. -1.
    9900012    2    1    2    0    0  0.14123071551E+02  0.12933645421E+02 -0.25494579499E+02  0.59302048269E+02  0.50000190112E+02 0.  0.
        -12    1    1    2    0    0 -0.14123071551E+02 -0.12933645421E+02  0.25494579499E+02  0.31885951731E+02  0.00000000000E+00 0.  1.
         11    1    3    3    0    0  0.57170514242E+01 -0.11764476600E+02 -0.18368823715E+02  0.22549972763E+02  0.51100000000E-03 0.  1.
        -11    1    3    3    0    0  0.25395860452E+01  0.98422915006E+00  0.77061116839E+01  0.81732711840E+01  0.51100000000E-03 0. -1.
         12    1    3    3    0    0  0.58664340813E+01  0.23713892871E+02 -0.14831867468E+02  0.28578804323E+02  0.00000000000E+00 0. -1.
</event>
<event>
 7    1  0.7383168E-013  0.5930194E+02  0.7816164E-02  0.1266605E+00
        -11   -1    0    0    0    0  0.00000000000E+00  0.00000000000E+00  0.45593999997E+02  0.45594000000E+02  0.51100000000E-03 0.  1.
         11   -1    0    0    0    0 -0.00000000000E+00 -0.00000000000E+00 -0.45593999997E+02  0.45594000000E+02  0.51100000000E-03 0. -1.
    9900012    2    1    2    0    0 -0.14825295842E+02  0.24809434168E+02 -0.13469353654E+02  0.59301938650E+02  0.49999990193E+02 0.  0.
        -12    1    1    2    0    0  0.14825295842E+02 -0.24809434168E+02  0.13469353654E+02  0.31886061350E+02  0.00000000000E+00 0.  1.
         11    1    3    3    0    0  0.39378060059E+01 -0.12055344116E+01 -0.40428059097E+01  0.57709539283E+01  0.51100000000E-03 0. -1.
        -11    1    3    3    0    0 -0.55298722115E+01 -0.84524938490E+01  0.78266269807E+01  0.12778115240E+02  0.51100000000E-03 0.  1.
         12    1    3    3    0    0 -0.13233229637E+02  0.34467462428E+02 -0.17253174725E+02  0.40752869481E+02  0.00000000000E+00 0. -1.
</event>
<event>
 7    1  0.7383168E-013  0.5930201E+02  0.7816164E-02  0.1266605E+00
        -11   -1    0    0    0    0  0.00000000000E+00  0.00000000000E+00  0.45593999997E+02  0.45594000000E+02  0.51100000000E-03 0. -1.
         11   -1    0    0    0    0 -0.00000000000E+00 -0.00000000000E+00 -0.45593999997E+02  0.45594000000E+02  0.51100000000E-03 0.  1.
    9900012    2    1    2    0    0  0.13912740235E+02  0.10113950205E+02  0.26848836400E+02  0.59302010199E+02  0.50000120680E+02 0.  0.
        -12    1    1    2    0    0 -0.13912740235E+02 -0.10113950205E+02 -0.26848836400E+02  0.31885989801E+02  0.00000000000E+00 0.  1.
         11    1    3    3    0    0  0.19016141919E+02  0.15552440819E+02 -0.22527515031E+01  0.24669149935E+02  0.51100000000E-03 0. -1.
        -11    1    3    3    0    0 -0.92276135457E+00 -0.57677649376E+01  0.65374458551E+00  0.58775831033E+01  0.51100000000E-03 0.  1.
        -12    1    3    3    0    0 -0.41806403296E+01  0.32927432275E+00  0.28447843318E+02  0.28755277160E+02  0.00000000000E+00 0.  1.
</event>
<event>
 7    1  0.7383168E-013  0.5930192E+02  0.7816164E-02  0.1266605E+00
        -11   -1    0    0    0    0  0.00000000000E+00  0.00000000000E+00  0.45593999997E+02  0.45594000000E+02  0.51100000000E-03 0. -1.
         11   -1    0    0    0    0 -0.00000000000E+00 -0.00000000000E+00 -0.45593999997E+02  0.45594000000E+02  0.51100000000E-03 0.  1.
    9900012    2    1    2    0    0 -0.24671633557E+02 -0.29161827826E+01  0.19988210050E+02  0.59301918940E+02  0.49999954246E+02 0.  0.
        -12    1    1    2    0    0  0.24671633557E+02  0.29161827826E+01 -0.19988210050E+02  0.31886081060E+02  0.00000000000E+00 0.  1.
         11    1    3    3    0    0  0.40639076600E+01  0.84218398266E+01  0.54354429937E+01  0.10816042360E+02  0.51100000000E-03 0. -1.
        -11    1    3    3    0    0  0.84899311442E+00 -0.72582920123E+01  0.17017103757E+02  0.18519865355E+02  0.51100000000E-03 0.  1.
        -12    1    3    3    0    0 -0.29584534331E+02 -0.40797305969E+01 -0.24643367008E+01  0.29966011225E+02  0.00000000000E+00 0.  1.
</event>
<event>
 7    1  0.7383168E-013  0.5930197E+02  0.7816164E-02  0.1266605E+00
        -11   -1    0    0    0    0  0.00000000000E+00  0.00000000000E+00  0.45593999997E+02  0.45594000000E+02  0.51100000000E-03 0. -1.
         11   -1    0    0    0    0 -0.00000000000E+00 -0.00000000000E+00 -0.45593999997E+02  0.45594000000E+02  0.51100000000E-03 0.  1.
    9900012    2    1    2    0    0 -0.29308248984E+02  0.98700818551E+01 -0.77670502852E+01  0.59301967878E+02  0.50000043497E+02 0.  0.
        -12    1    1    2    0    0  0.29308248984E+02 -0.98700818551E+01  0.77670502852E+01  0.31886032122E+02  0.00000000000E+00 0.  1.
         11    1    3    3    0    0 -0.10632361350E+02 -0.43075882603E+01 -0.37258558841E+01  0.12061692535E+02  0.51100000000E-03 0. -1.
        -11    1    3    3    0    0  0.11735119696E+02  0.16330702987E+01 -0.77155745172E+01  0.14138954815E+02  0.51100000000E-03 0.  1.
         12    1    3    3    0    0 -0.30411007330E+02  0.12544599817E+02  0.36743801160E+01  0.33101320527E+02  0.00000000000E+00 0. -1.
</event>
<event>
 7    1  0.7383168E-013  0.5930194E+02  0.7816164E-02  0.1266605E+00
        -11   -1    0    0    0    0  0.00000000000E+00  0.00000000000E+00  0.45593999997E+02  0.45594000000E+02  0.51100000000E-03 0.  1.
         11   -1    0    0    0    0 -0.00000000000E+00 -0.00000000000E+00 -0.45593999997E+02  0.45594000000E+02  0.51100000000E-03 0. -1.
    9900012    2    1    2    0    0  0.78780054343E+01  0.57977204240E+01 -0.30348706690E+02  0.59301944592E+02  0.50000001029E+02 0.  0.
        -12    1    1    2    0    0 -0.78780054343E+01 -0.57977204240E+01  0.30348706690E+02  0.31886055408E+02  0.00000000000E+00 0.  1.
         11    1    3    3    0    0  0.13487203098E+02 -0.86660550579E+01 -0.76850578749E+01  0.17778224672E+02  0.51100000000E-03 0.  1.
        -11    1    3    3    0    0 -0.24590030953E+01  0.82633035423E+01  0.69690112321E+01  0.11085846809E+02  0.51100000000E-03 0. -1.
         12    1    3    3    0    0 -0.31501945689E+01  0.62004719396E+01 -0.29632660047E+02  0.30437873111E+02  0.00000000000E+00 0. -1.
</event>
<event>
 7    1  0.7383168E-013  0.5930204E+02  0.7816164E-02  0.1266604E+00
        -11   -1    0    0    0    0  0.00000000000E+00  0.00000000000E+00  0.45593999997E+02  0.45594000000E+02  0.51100000000E-03 0. -1.
         11   -1    0    0    0    0 -0.00000000000E+00 -0.00000000000E+00 -0.45593999997E+02  0.45594000000E+02  0.51100000000E-03 0.  1.
    9900012    2    1    2    0    0 -0.27648717156E+01  0.19230567629E+02  0.25283494660E+02  0.59302041505E+02  0.50000177774E+02 0.  0.
        -12    1    1    2    0    0  0.27648717156E+01 -0.19230567629E+02 -0.25283494660E+02  0.31885958495E+02  0.00000000000E+00 0.  1.
         11    1    3    3    0    0  0.22294465591E+01 -0.74973638044E+01  0.19460793072E+02  0.20973873349E+02  0.51100000000E-03 0. -1.
        -11    1    3    3    0    0  0.72666881657E+01  0.12360583486E+02  0.11743813469E+02  0.18533913134E+02  0.51100000000E-03 0.  1.
        -12    1    3    3    0    0 -0.12261006440E+02  0.14367347947E+02 -0.59211118811E+01  0.19794255022E+02  0.00000000000E+00 0.  1.
</event>
<event>
 7    1  0.7383168E-013  0.5930181E+02  0.7816164E-02  0.1266605E+00
        -11   -1    0    0    0    0  0.00000000000E+00  0.00000000000E+00  0.45593999997E+02  0.45594000000E+02  0.51100000000E-03 0. -1.
         11   -1    0    0    0    0 -0.00000000000E+00 -0.00000000000E+00 -0.45593999997E+02  0.45594000000E+02  0.51100000000E-03 0.  1.
    9900012    2    1    2    0    0 -0.15532996317E+02  0.26915595290E+02  0.71418272523E+01  0.59301812694E+02  0.49999760479E+02 0.  0.
        -12    1    1    2    0    0  0.15532996317E+02 -0.26915595290E+02 -0.71418272523E+01  0.31886187306E+02  0.00000000000E+00 0.  1.
         11    1    3    3    0    0 -0.22163576931E+02  0.22480207711E+02  0.14809293135E+02  0.34869743970E+02  0.51100000000E-03 0. -1.
        -11    1    3    3    0    0 -0.39920569272E+01  0.99042703967E+01 -0.63198843872E+01  0.12408546632E+02  0.51100000000E-03 0.  1.
         12    1    3    3    0    0  0.10622637542E+02 -0.54688828172E+01 -0.13475814950E+01  0.12023522092E+02  0.00000000000E+00 0. -1.
</event>
<event>
 7    1  0.7383168E-013  0.5930193E+02  0.7816164E-02  0.1266605E+00
        -11   -1    0    0    0    0  0.00000000000E+00  0.00000000000E+00  0.45593999997E+02  0.45594000000E+02  0.51100000000E-03 0.  1.
         11   -1    0    0    0    0 -0.00000000000E+00 -0.00000000000E+00 -0.45593999997E+02  0.45594000000E+02  0.51100000000E-03 0. -1.
    9900012    2    1    2    0    0  0.99634456524E+01 -0.15482425983E+02 -0.26033553193E+02  0.59301926936E+02  0.49999968829E+02 0.  0.
        -12    1    1    2    0    0 -0.99634456524E+01  0.15482425983E+02  0.26033553193E+02  0.31886073064E+02  0.00000000000E+00 0.  1.
         11    1    3    3    0    0 -0.49389170868E+01 -0.21828600930E+02 -0.14568856136E+01  0.22427733646E+02  0.51100000000E-03 0. -1.
        -11    1    3    3    0    0  0.38759775916E+01 -0.82108155404E+01 -0.64017856114E+01  0.11109615358E+02  0.51100000000E-03 0.  1.
         12    1    3    3    0    0  0.11026385148E+02  0.14556990487E+02 -0.18174881968E+02  0.25764577932E+02  0.00000000000E+00 0. -1.
</event>
<event>
 7    1  0.7383168E-013  0.5930195E+02  0.7816164E-02  0.1266605E+00
        -11   -1    0    0    0    0  0.00000000000E+00  0.00000000000E+00  0.45593999997E+02  0.45594000000E+02  0.51100000000E-03 0.  1.
         11   -1    0    0    0    0 -0.00000000000E+00 -0.00000000000E+00 -0.45593999997E+02  0.45594000000E+02  0.51100000000E-03 0. -1.
    9900012    2    1    2    0    0 -0.25570779546E+02  0.19040480543E+02  0.56191373420E+00  0.59301946419E+02  0.50000004362E+02 0.  0.
        -12    1    1    2    0    0  0.25570779546E+02 -0.19040480543E+02 -0.56191373420E+00  0.31886053581E+02  0.00000000000E+00 0.  1.
         11    1    3    3    0    0 -0.11000105859E+02  0.17633281811E+02  0.20720750537E+02  0.29347648277E+02  0.51100000000E-03 0. -1.
        -11    1    3    3    0    0 -0.28809186527E+01  0.27026791024E+01  0.23224330543E+01  0.45823424323E+01  0.51100000000E-03 0.  1.
        -12    1    3    3    0    0 -0.11689755035E+02 -0.12954803710E+01 -0.22481269857E+02  0.25371955710E+02  0.00000000000E+00 0.  1.
</event>
<event>
 7    1  0.7383168E-013  0.5930198E+02  0.7816164E-02  0.1266605E+00
        -11   -1    0    0    0    0  0.00000000000E+00  0.00000000000E+00  0.45593999997E+02  0.45594000000E+02  0.51100000000E-03 0.  1.
         11   -1    0    0    0    0 -0.00000000000E+00 -0.00000000000E+00 -0.45593999997E+02  0.45594000000E+02  0.51100000000E-03 0. -1.
    9900012    2    1    2    0    0  0.34585342669E+01 -0.18610573077E+01 -0.31643215652E+02  0.59301982839E+02  0.50000070783E+02 0.  0.
        -12    1    1    2    0    0 -0.34585342669E+01  0.18610573077E+01  0.31643215652E+02  0.31886017161E+02  0.00000000000E+00 0.  1.
         11    1    3    3    0    0  0.46057539847E+01  0.98409408766E+01 -0.58591100335E+00  0.10881193826E+02  0.51100000000E-03 0. -1.
        -11    1    3    3    0    0 -0.54127042456E+01 -0.15221355064E+02  0.71492917647E+00  0.16170904156E+02  0.51100000000E-03 0.  1.
         12    1    3    3    0    0  0.42654845277E+01  0.35193568793E+01 -0.31772233825E+02  0.32249884858E+02  0.00000000000E+00 0. -1.
</event>
<event>
 7    1  0.7383168E-013  0.5930195E+02  0.7816164E-02  0.1266605E+00
        -11   -1    0    0    0    0  0.00000000000E+00  0.00000000000E+00  0.45593999997E+02  0.45594000000E+02  0.51100000000E-03 0.  1.
         11   -1    0    0    0    0 -0.00000000000E+00 -0.00000000000E+00 -0.45593999997E+02  0.45594000000E+02  0.51100000000E-03 0. -1.
    9900012    2    1    2    0    0 -0.26698590978E+02 -0.16483991241E+02  0.56730253934E+01  0.59301953764E+02  0.50000017756E+02 0.  0.
        -12    1    1    2    0    0  0.26698590978E+02  0.16483991241E+02 -0.56730253934E+01  0.31886046236E+02  0.00000000000E+00 0.  1.
         11    1    3    3    0    0 -0.86968170721E+01  0.11953414832E+02 -0.10486092360E+02  0.18123931322E+02  0.51100000000E-03 0. -1.
        -11    1    3    3    0    0 -0.22213826334E+01  0.11139941475E+01  0.54785565018E+01  0.60158212547E+01  0.51100000000E-03 0.  1.
         12    1    3    3    0    0 -0.15780391273E+02 -0.29551400220E+02  0.10680561251E+02  0.35162201187E+02  0.00000000000E+00 0. -1.
</event>
<event>
 7    1  0.7383168E-013  0.5930195E+02  0.7816164E-02  0.1266605E+00
        -11   -1    0    0    0    0  0.00000000000E+00  0.00000000000E+00  0.45593999997E+02  0.45594000000E+02  0.51100000000E-03 0.  1.
         11   -1    0    0    0    0 -0.00000000000E+00 -0.00000000000E+00 -0.45593999997E+02  0.45594000000E+02  0.51100000000E-03 0. -1.
    9900012    2    1    2    0    0  0.12702546548E+02  0.24705916280E+02 -0.15651940636E+02  0.59301949230E+02  0.50000009488E+02 0.  0.
        -12    1    1    2    0    0 -0.12702546548E+02 -0.24705916280E+02  0.15651940636E+02  0.31886050770E+02  0.00000000000E+00 0.  1.
         11    1    3    3    0    0  0.89374437229E+01 -0.18449916933E+01 -0.13860177768E+02  0.16594770944E+02  0.51100000000E-03 0. -1.
        -11    1    3    3    0    0  0.13634572336E+02  0.56791964391E+01 -0.10403081926E+02  0.18065961054E+02  0.51100000000E-03 0.  1.
        -12    1    3    3    0    0 -0.98694695111E+01  0.20871711534E+02  0.86113190575E+01  0.24641217232E+02  0.00000000000E+00 0.  1.
</event>
<event>
 7    1  0.7383168E-013  0.5930195E+02  0.7816164E-02  0.1266605E+00
        -11   -1    0    0    0    0  0.00000000000E+00  0.00000000000E+00  0.45593999997E+02  0.45594000000E+02  0.51100000000E-03 0.  1.
         11   -1    0    0    0    0 -0.00000000000E+00 -0.00000000000E+00 -0.45593999997E+02  0.45594000000E+02  0.51100000000E-03 0. -1.
    9900012    2    1    2    0    0 -0.28063291215E+02  0.86497489908E+01 -0.12423911976E+02  0.59301951950E+02  0.50000014449E+02 0.  0.
        -12    1    1    2    0    0  0.28063291215E+02 -0.86497489908E+01  0.12423911976E+02  0.31886048050E+02  0.00000000000E+00 0.  1.
         11    1    3    3    0    0 -0.14122689449E+02  0.24185670250E+01  0.28967467660E+01  0.14618172451E+02  0.51100000000E-03 0. -1.
        -11    1    3    3    0    0  0.16619749849E+01  0.17887441132E+02  0.26800880210E+01  0.18163303201E+02  0.51100000000E-03 0.  1.
         12    1    3    3    0    0 -0.15602576751E+02 -0.11656259167E+02 -0.18000746763E+02  0.26520476298E+02  0.00000000000E+00 0. -1.
</event>
<event>
 7    1  0.7383168E-013  0.5930193E+02  0.7816164E-02  0.1266605E+00
        -11   -1    0    0    0    0  0.00000000000E+00  0.00000000000E+00  0.45593999997E+02  0.45594000000E+02  0.51100000000E-03 0. -1.
         11   -1    0    0    0    0 -0.00000000000E+00 -0.00000000000E+00 -0.45593999997E+02  0.45594000000E+02  0.51100000000E-03 0.  1.
    9900012    2    1    2    0    0 -0.22780984900E+02 -0.18576772191E+02  0.12355229350E+02  0.59301930466E+02  0.49999975267E+02 0.  0.
        -12    1    1    2    0    0  0.22780984900E+02  0.18576772191E+02 -0.12355229350E+02  0.31886069534E+02  0.00000000000E+00 0.  1.
         11    1    3    3    0    0  0.63822118754E+01 -0.10492527283E+02  0.10599795232E+02  0.16222867084E+02  0.51100000000E-03 0. -1.
        -11    1    3    3    0    0  0.13233319398E+01  0.39355518097E+01 -0.78923663947E+01  0.89179158462E+01  0.51100000000E-03 0.  1.
         12    1    3    3    0    0 -0.30486528715E+02 -0.12019796718E+02  0.96478005129E+01  0.34161147536E+02  0.00000000000E+00 0. -1.
</event>
<event>
 7    1  0.7383168E-013  0.5930184E+02  0.7816164E-02  0.1266605E+00
        -11   -1    0    0    0    0  0.00000000000E+00  0.00000000000E+00  0.45593999997E+02  0.45594000000E+02  0.51100000000E-03 0.  1.
         11   -1    0    0    0    0 -0.00000000000E+00 -0.00000000000E+00 -0.45593999997E+02  0.45594000000E+02  0.51100000000E-03 0. -1.
    9900012    2    1    2    0    0 -0.20289432351E+02 -0.23493909266E+02 -0.72871538025E+01  0.59301836100E+02  0.49999803165E+02 0.  0.
        -12    1    1    2    0    0  0.20289432351E+02  0.23493909266E+02  0.72871538025E+01  0.31886163900E+02  0.00000000000E+00 0.  1.
         11    1    3    3    0    0 -0.68634625382E+01 -0.55947065398E+01 -0.11070718401E+02  0.14176341751E+02  0.51100000000E-03 0. -1.
        -11    1    3    3    0    0 -0.33302515001E+01 -0.15113178071E+02 -0.16299264213E+02  0.22475870186E+02  0.51100000000E-03 0.  1.
        -12    1    3    3    0    0 -0.10095718313E+02 -0.27860246547E+01  0.20082828811E+02  0.22649624162E+02  0.00000000000E+00 0.  1.
</event>
<event>
 7    1  0.7383168E-013  0.5930193E+02  0.7816164E-02  0.1266605E+00
        -11   -1    0    0    0    0  0.00000000000E+00  0.00000000000E+00  0.45593999997E+02  0.45594000000E+02  0.51100000000E-03 0. -1.
         11   -1    0    0    0    0 -0.00000000000E+00 -0.00000000000E+00 -0.45593999997E+02  0.45594000000E+02  0.51100000000E-03 0.  1.
    9900012    2    1    2    0    0 -0.29168421211E+02 -0.10644528953E+02 -0.72538512767E+01  0.59301934847E+02  0.49999983257E+02 0.  0.
        -12    1    1    2    0    0  0.29168421211E+02  0.10644528953E+02  0.72538512767E+01  0.31886065153E+02  0.00000000000E+00 0.  1.
         11    1    3    3    0    0 -0.21137655491E+01 -0.12807579566E+02  0.90432082684E+01  0.15820294409E+02  0.51100000000E-03 0. -1.
        -11    1    3    3    0    0 -0.18601888044E+02 -0.15302893264E+01  0.57929187142E+01  0.19543027701E+02  0.51100000000E-03 0.  1.
        -12    1    3    3    0    0 -0.84527676181E+01  0.36933399394E+01 -0.22089978259E+02  0.23938612738E+02  0.00000000000E+00 0.  1.
</event>
<event>
 7    1  0.7383168E-013  0.5930207E+02  0.7816164E-02  0.1266604E+00
        -11   -1    0    0    0    0  0.00000000000E+00  0.00000000000E+00  0.45593999997E+02  0.45594000000E+02  0.51100000000E-03 0. -1.
         11   -1    0    0    0    0 -0.00000000000E+00 -0.00000000000E+00 -0.45593999997E+02  0.45594000000E+02  0.51100000000E-03 0.  1.
    9900012    2    1    2    0    0  0.19863231315E+02 -0.19034211526E+02  0.16120279474E+02  0.59302069294E+02  0.50000228454E+02 0.  0.
        -12    1    1    2    0    0 -0.19863231315E+02  0.19034211526E+02 -0.16120279474E+02  0.31885930706E+02  0.00000000000E+00 0.  1.
         11    1    3    3    0    0 -0.15596833972E+01 -0.11549351014E+02  0.13827823460E+02  0.18083938261E+02  0.51100000000E-03 0. -1.
        -11    1    3    3    0    0  0.26079325629E+02 -0.13521863006E+02  0.93504205659E+01  0.30828596618E+02  0.51100000000E-03 0.  1.
         12    1    3    3    0    0 -0.46564109170E+01  0.60370024938E+01 -0.70579645515E+01  0.10389534414E+02  0.00000000000E+00 0. -1.
</event>
<event>
 7    1  0.7383168E-013  0.5930194E+02  0.7816164E-02  0.1266605E+00
        -11   -1    0    0    0    0  0.00000000000E+00  0.00000000000E+00  0.45593999997E+02  0.45594000000E+02  0.51100000000E-03 0.  1.
         11   -1    0    0    0    0 -0.00000000000E+00 -0.00000000000E+00 -0.45593999997E+02  0.45594000000E+02  0.51100000000E-03 0. -1.
    9900012    2    1    2    0    0 -0.14486029071E+01 -0.31730423025E+02  0.27933076654E+01  0.59301940924E+02  0.49999994339E+02 0.  0.
        -12    1    1    2    0    0  0.14486029071E+01  0.31730423025E+02 -0.27933076654E+01  0.31886059076E+02  0.00000000000E+00 0.  1.
         11    1    3    3    0    0 -0.14752666022E+02  0.24188837066E+01 -0.10631698847E+02  0.18344622476E+02  0.51100000000E-03 0. -1.
        -11    1    3    3    0    0  0.68147344837E+00 -0.93939832787E+01 -0.13021135342E+01  0.95082505130E+01  0.51100000000E-03 0.  1.
        -12    1    3    3    0    0  0.12622589666E+02 -0.24755323453E+02  0.14727120046E+02  0.31449067935E+02  0.00000000000E+00 0.  1.
</event>
<event>
 7    1  0.7383168E-013  0.5930194E+02  0.7816164E-02  0.1266605E+00
        -11   -1    0    0    0    0  0.00000000000E+00  0.00000000000E+00  0.45593999997E+02  0.45594000000E+02  0.51100000000E-03 0.  1.
         11   -1    0    0    0    0 -0.00000000000E+00 -0.00000000000E+00 -0.45593999997E+02  0.45594000000E+02  0.51100000000E-03 0. -1.
    9900012    2    1    2    0    0  0.22133945844E+02  0.19788670524E+02 -0.11628325350E+02  0.59301937368E+02  0.49999987855E+02 0.  0.
        -12    1    1    2    0    0 -0.22133945844E+02 -0.19788670524E+02  0.11628325350E+02  0.31886062632E+02  0.00000000000E+00 0.  1.
         11    1    3    3    0    0  0.24422719806E+02  0.22646435845E+01 -0.32890810676E+01  0.24747038365E+02  0.51100000000E-03 0. -1.
        -11    1    3    3    0    0 -0.30183858758E+01 -0.44648970372E+01 -0.11141092212E+02  0.12376182561E+02  0.51100000000E-03 0.  1.
        -12    1    3    3    0    0  0.72961191344E+00  0.21988923977E+02  0.28018479302E+01  0.22178716442E+02  0.00000000000E+00 0.  1.
</event>
<event>
 7    1  0.7383168E-013  0.5930195E+02  0.7816164E-02  0.1266605E+00
        -11   -1    0    0    0    0  0.00000000000E+00  0.00000000000E+00  0.45593999997E+02  0.45594000000E+02  0.51100000000E-03 0.  1.
         11   -1    0    0    0    0 -0.00000000000E+00 -0.00000000000E+00 -0.45593999997E+02  0.45594000000E+02  0.51100000000E-03 0. -1.
    9900012    2    1    2    0    0 -0.22485021581E+02  0.10888671354E+02 -0.19813657363E+02  0.59301946975E+02  0.50000005376E+02 0.  0.
        -12    1    1    2    0    0  0.22485021581E+02 -0.10888671354E+02  0.19813657363E+02  0.31886053025E+02  0.00000000000E+00 0.  1.
         11    1    3    3    0    0 -0.10029297507E+02 -0.11404130892E+02 -0.74753717417E+01  0.16926966439E+02  0.51100000000E-03 0. -1.
        -11    1    3    3    0    0 -0.22020109659E+02  0.19016476088E+02 -0.13726196971E+02  0.32170173698E+02  0.51100000000E-03 0.  1.
         12    1    3    3    0    0  0.95643855842E+01  0.32763261584E+01  0.13879113494E+01  0.10204806839E+02  0.00000000000E+00 0. -1.
</event>
<event>
 7    1  0.7383168E-013  0.5930195E+02  0.7816164E-02  0.1266605E+00
        -11   -1    0    0    0    0  0.00000000000E+00  0.00000000000E+00  0.45593999997E+02  0.45594000000E+02  0.51100000000E-03 0.  1.
         11   -1    0    0    0    0 -0.00000000000E+00 -0.00000000000E+00 -0.45593999997E+02  0.45594000000E+02  0.51100000000E-03 0. -1.
    9900012    2    1    2    0    0 -0.31543423967E+02 -0.44460583658E+01  0.14018562252E+01  0.59301949265E+02  0.50000009552E+02 0.  0.
        -12    1    1    2    0    0  0.31543423967E+02  0.44460583658E+01 -0.14018562252E+01  0.31886050735E+02  0.00000000000E+00 0.  1.
         11    1    3    3    0    0 -0.65304078186E+01 -0.51001912250E+01  0.33896182011E+01  0.89525241479E+01  0.51100000000E-03 0. -1.
        -11    1    3    3    0    0 -0.20197706982E+02 -0.12076292995E+02  0.15507951928E+02  0.28182987654E+02  0.51100000000E-03 0.  1.
        -12    1    3    3    0    0 -0.48153091663E+01  0.12730425854E+02 -0.17495713904E+02  0.22166437463E+02  0.00000000000E+00 0.  1.
</event>
<event>
 7    1  0.7383168E-013  0.5930196E+02  0.7816164E-02  0.1266605E+00
        -11   -1    0    0    0    0  0.00000000000E+00  0.00000000000E+00  0.45593999997E+02  0.45594000000E+02  0.51100000000E-03 0.  1.
         11   -1    0    0    0    0 -0.00000000000E+00 -0.00000000000E+00 -0.45593999997E+02  0.45594000000E+02  0.51100000000E-03 0. -1.
    9900012    2    1    2    0    0 -0.99289066748E+01  0.22688114235E+02 -0.20084460838E+02  0.59301964147E+02  0.50000036692E+02 0.  0.
        -12    1    1    2    0    0  0.99289066748E+01 -0.22688114235E+02  0.20084460838E+02  0.31886035853E+02  0.00000000000E+00 0.  1.
         11    1    3    3    0    0  0.86196376532E+01  0.11730224830E+02 -0.21298071180E+01  0.14711641868E+02  0.51100000000E-03 0. -1.
        -11    1    3    3    0    0  0.50652427852E+00  0.19158435100E+02 -0.39699200462E+01  0.19571981702E+02  0.51100000000E-03 0.  1.
        -12    1    3    3    0    0 -0.19055068606E+02 -0.82005456945E+01 -0.13984733674E+02  0.25018340577E+02  0.00000000000E+00 0.  1.
</event>
<event>
 7    1  0.7383168E-013  0.5930201E+02  0.7816164E-02  0.1266605E+00
        -11   -1    0    0    0    0  0.00000000000E+00  0.00000000000E+00  0.45593999997E+02  0.45594000000E+02  0.51100000000E-03 0.  1.
         11   -1    0    0    0    0 -0.00000000000E+00 -0.00000000000E+00 -0.45593999997E+02  0.45594000000E+02  0.51100000000E-03 0. -1.
    9900012    2    1    2    0    0  0.29899196194E+02 -0.57136260765E+01 -0.94925705801E+01  0.59302010095E+02  0.50000120491E+02 0.  0.
        -12    1    1    2    0    0 -0.29899196194E+02  0.57136260765E+01  0.94925705801E+01  0.31885989905E+02  0.00000000000E+00 0.  1.
         11    1    3    3    0    0  0.40699273352E+01  0.34116375551E+01  0.60171885518E+01  0.80255926666E+01  0.51100000000E-03 0. -1.
        -11    1    3    3    0    0 -0.63155051232E+01  0.18331555963E+01  0.77118293020E+01  0.10135007442E+02  0.51100000000E-03 0.  1.
         12    1    3    3    0    0  0.32144773982E+02 -0.10958419228E+02 -0.23221588434E+02  0.41141409987E+02  0.00000000000E+00 0. -1.
</event>
<event>
 7    1  0.7383168E-013  0.5930195E+02  0.7816164E-02  0.1266605E+00
        -11   -1    0    0    0    0  0.00000000000E+00  0.00000000000E+00  0.45593999997E+02  0.45594000000E+02  0.51100000000E-03 0.  1.
         11   -1    0    0    0    0 -0.00000000000E+00 -0.00000000000E+00 -0.45593999997E+02  0.45594000000E+02  0.51100000000E-03 0. -1.
    9900012    2    1    2    0    0 -0.18431005203E+02  0.23822849276E+02 -0.10463755998E+02  0.59301948347E+02  0.50000007878E+02 0.  0.
        -12    1    1    2    0    0  0.18431005203E+02 -0.23822849276E+02  0.10463755998E+02  0.31886051653E+02  0.00000000000E+00 0.  1.
         11    1    3    3    0    0 -0.50860266756E+01 -0.25689880968E+01 -0.17461226977E+02  0.18367411766E+02  0.51100000000E-03 0. -1.
        -11    1    3    3    0    0 -0.17733809717E+02  0.54899241686E+01  0.61634158383E+01  0.19560546248E+02  0.51100000000E-03 0.  1.
         12    1    3    3    0    0  0.43888311895E+01  0.20901913204E+02  0.83405514082E+00  0.21373990334E+02  0.00000000000E+00 0. -1.
</event>
<event>
 7    1  0.7470105E-013  0.5930196E+02  0.7816164E-02  0.1266605E+00
        -11   -1    0    0    0    0  0.00000000000E+00  0.00000000000E+00  0.45593999997E+02  0.45594000000E+02  0.51100000000E-03 0.  1.
         11   -1    0    0    0    0 -0.00000000000E+00 -0.00000000000E+00 -0.45593999997E+02  0.45594000000E+02  0.51100000000E-03 0. -1.
    9900012    2    1    2    0    0 -0.19645374871E+02  0.11797611568E+02 -0.22171950786E+02  0.59301956122E+02  0.50000022057E+02 0.  0.
        -12    1    1    2    0    0  0.19645374871E+02 -0.11797611568E+02  0.22171950786E+02  0.31886043878E+02  0.00000000000E+00 0.  1.
         11    1    3    3    0    0 -0.13186382507E+02 -0.66116181648E+00 -0.25203554497E+02  0.28452363314E+02  0.51100000000E-03 0. -1.
        -11    1    3    3    0    0 -0.57282149122E+01  0.15547283124E+02 -0.86874702371E+01  0.18708356368E+02  0.51100000000E-03 0.  1.
        -12    1    3    3    0    0 -0.73077745091E+00 -0.30885097392E+01  0.11719073948E+02  0.12141236440E+02  0.00000000000E+00 0.  1.
</event>
<event>
 7    1  0.7383168E-013  0.5930196E+02  0.7816164E-02  0.1266605E+00
        -11   -1    0    0    0    0  0.00000000000E+00  0.00000000000E+00  0.45593999997E+02  0.45594000000E+02  0.51100000000E-03 0.  1.
         11   -1    0    0    0    0 -0.00000000000E+00 -0.00000000000E+00 -0.45593999997E+02  0.45594000000E+02  0.51100000000E-03 0. -1.
    9900012    2    1    2    0    0  0.26474979394E+02  0.15530373280E+00 -0.17769943806E+02  0.59301959857E+02  0.50000028868E+02 0.  0.
        -12    1    1    2    0    0 -0.26474979394E+02 -0.15530373280E+00  0.17769943806E+02  0.31886040143E+02  0.00000000000E+00 0.  1.
         11    1    3    3    0    0  0.25325992378E+02 -0.75012059545E+01 -0.12571081821E+02  0.29252454241E+02  0.51100000000E-03 0. -1.
        -11    1    3    3    0    0  0.77992349227E+01  0.45775911947E+01  0.98128819152E+01  0.13344476695E+02  0.51100000000E-03 0.  1.
        -12    1    3    3    0    0 -0.66502479070E+01  0.30789184926E+01 -0.15011743900E+02  0.16705028920E+02  0.00000000000E+00 0.  1.
</event>
<event>
 7    1  0.7383168E-013  0.5930191E+02  0.7816164E-02  0.1266605E+00
        -11   -1    0    0    0    0  0.00000000000E+00  0.00000000000E+00  0.45593999997E+02  0.45594000000E+02  0.51100000000E-03 0. -1.
         11   -1    0    0    0    0 -0.00000000000E+00 -0.00000000000E+00 -0.45593999997E+02  0.45594000000E+02  0.51100000000E-03 0.  1.
    9900012    2    1    2    0    0 -0.18887118571E+02  0.24443890914E+02 -0.79054301501E+01  0.59301907784E+02  0.49999933900E+02 0.  0.
        -12    1    1    2    0    0  0.18887118571E+02 -0.24443890914E+02  0.79054301501E+01  0.31886092216E+02  0.00000000000E+00 0.  1.
         11    1    3    3    0    0 -0.20594560047E+02  0.18891139934E+02  0.57806770179E+00  0.27952553266E+02  0.51100000000E-03 0. -1.
        -11    1    3    3    0    0  0.21514504535E+01 -0.11346632214E+02  0.16094771058E+01  0.11660412449E+02  0.51100000000E-03 0.  1.
         12    1    3    3    0    0 -0.44400897767E+00  0.16899383194E+02 -0.10092974958E+02  0.19688942070E+02  0.00000000000E+00 0. -1.
</event>
<event>
 7    1  0.7383168E-013  0.5930195E+02  0.7816164E-02  0.1266605E+00
        -11   -1    0    0    0    0  0.00000000000E+00  0.00000000000E+00  0.45593999997E+02  0.45594000000E+02  0.51100000000E-03 0.  1.
         11   -1    0    0    0    0 -0.00000000000E+00 -0.00000000000E+00 -0.45593999997E+02  0.45594000000E+02  0.51100000000E-03 0. -1.
    9900012    2    1    2    0    0  0.48411066684E+01 -0.15184213648E+02 -0.27617447338E+02  0.59301952027E+02  0.50000014588E+02 0.  0.
        -12    1    1    2    0    0 -0.48411066684E+01  0.15184213648E+02  0.27617447338E+02  0.31886047973E+02  0.00000000000E+00 0.  1.
         11    1    3    3    0    0 -0.36504759143E+01  0.77083727648E+00 -0.24804598609E+01  0.44802729705E+01  0.51100000000E-03 0. -1.
        -11    1    3    3    0    0  0.13720348222E+02 -0.33592892525E+00  0.93476203009E+01  0.16605384943E+02  0.51100000000E-03 0.  1.
         12    1    3    3    0    0 -0.52287656389E+01 -0.15619122000E+02 -0.34484607778E+02  0.38216294113E+02  0.00000000000E+00 0. -1.
</event>
<event>
 7    1  0.7383168E-013  0.5930194E+02  0.7816164E-02  0.1266605E+00
        -11   -1    0    0    0    0  0.00000000000E+00  0.00000000000E+00  0.45593999997E+02  0.45594000000E+02  0.51100000000E-03 0.  1.
         11   -1    0    0    0    0 -0.00000000000E+00 -0.00000000000E+00 -0.45593999997E+02  0.45594000000E+02  0.51100000000E-03 0. -1.
    9900012    2    1    2    0    0 -0.12284560224E+02 -0.29158977801E+02 -0.39451665449E+01  0.59301941207E+02  0.49999994855E+02 0.  0.
        -12    1    1    2    0    0  0.12284560224E+02  0.29158977801E+02  0.39451665449E+01  0.31886058793E+02  0.00000000000E+00 0.  1.
         11    1    3    3    0    0  0.32315079330E+01 -0.14804739056E+02 -0.24979981945E+02  0.29216817764E+02  0.51100000000E-03 0. -1.
        -11    1    3    3    0    0 -0.40041231841E+00 -0.63083561250E-01  0.14816761977E+01  0.15361230994E+01  0.51100000000E-03 0.  1.
         12    1    3    3    0    0 -0.15115655839E+02 -0.14291155184E+02  0.19553139202E+02  0.28549000343E+02  0.00000000000E+00 0. -1.
</event>
<event>
 7    1  0.7383168E-013  0.5930193E+02  0.7816164E-02  0.1266605E+00
        -11   -1    0    0    0    0  0.00000000000E+00  0.00000000000E+00  0.45593999997E+02  0.45594000000E+02  0.51100000000E-03 0.  1.
         11   -1    0    0    0    0 -0.00000000000E+00 -0.00000000000E+00 -0.45593999997E+02  0.45594000000E+02  0.51100000000E-03 0. -1.
    9900012    2    1    2    0    0  0.20869603561E+02  0.19695763455E+02  0.13901731034E+02  0.59301928172E+02  0.49999971084E+02 0.  0.
        -12    1    1    2    0    0 -0.20869603561E+02 -0.19695763455E+02 -0.13901731034E+02  0.31886071828E+02  0.00000000000E+00 0.  1.
         11    1    3    3    0    0  0.17515589314E+02  0.28457156308E+02  0.35336504713E+01  0.33601968694E+02  0.51100000000E-03 0. -1.
        -11    1    3    3    0    0  0.91596739651E+01 -0.55482361300E+01 -0.26996662844E+01  0.11044036835E+02  0.51100000000E-03 0.  1.
        -12    1    3    3    0    0 -0.58056597182E+01 -0.32131567235E+01  0.13067746847E+02  0.14655922644E+02  0.00000000000E+00 0.  1.
</event>
<event>
 7    1  0.7383168E-013  0.5930193E+02  0.7816164E-02  0.1266605E+00
        -11   -1    0    0    0    0  0.00000000000E+00  0.00000000000E+00  0.45593999997E+02  0.45594000000E+02  0.51100000000E-03 0.  1.
         11   -1    0    0    0    0 -0.00000000000E+00 -0.00000000000E+00 -0.45593999997E+02  0.45594000000E+02  0.51100000000E-03 0. -1.
    9900012    2    1    2    0    0 -0.79225561926E+01  0.41563349278E+01 -0.30605214739E+02  0.59301934300E+02  0.49999982258E+02 0.  0.
        -12    1    1    2    0    0  0.79225561926E+01 -0.41563349278E+01  0.30605214739E+02  0.31886065700E+02  0.00000000000E+00 0.  1.
         11    1    3    3    0    0  0.56744226180E+01 -0.14329319693E+01  0.14240892387E-01  0.58525694478E+01  0.51100000000E-03 0.  1.
        -11    1    3    3    0    0  0.14886111731E+02  0.98543413708E+00 -0.93870590502E+01  0.17626238418E+02  0.51100000000E-03 0. -1.
        -12    1    3    3    0    0 -0.28483090542E+02  0.46038327600E+01 -0.21232396581E+02  0.35823126433E+02  0.00000000000E+00 0.  1.
</event>
<event>
 7    1  0.7383168E-013  0.5930194E+02  0.7816164E-02  0.1266605E+00
        -11   -1    0    0    0    0  0.00000000000E+00  0.00000000000E+00  0.45593999997E+02  0.45594000000E+02  0.51100000000E-03 0.  1.
         11   -1    0    0    0    0 -0.00000000000E+00 -0.00000000000E+00 -0.45593999997E+02  0.45594000000E+02  0.51100000000E-03 0. -1.
    9900012    2    1    2    0    0  0.18528754948E+02 -0.17090662853E+02 -0.19527291432E+02  0.59301943058E+02  0.49999998231E+02 0.  0.
        -12    1    1    2    0    0 -0.18528754948E+02  0.17090662853E+02  0.19527291432E+02  0.31886056942E+02  0.00000000000E+00 0.  1.
         11    1    3    3    0    0 -0.29361730174E+01 -0.22767694327E+02 -0.15328792321E+01  0.23007362647E+02  0.51100000000E-03 0. -1.
        -11    1    3    3    0    0  0.43522732253E+01 -0.46346343979E+01  0.32423274470E+01  0.71368624594E+01  0.51100000000E-03 0.  1.
        -12    1    3    3    0    0  0.17112654740E+02  0.10311665872E+02 -0.21236739646E+02  0.29157717951E+02  0.00000000000E+00 0.  1.
</event>
<event>
 7    1  0.7383168E-013  0.5930190E+02  0.7816164E-02  0.1266605E+00
        -11   -1    0    0    0    0  0.00000000000E+00  0.00000000000E+00  0.45593999997E+02  0.45594000000E+02  0.51100000000E-03 0.  1.
         11   -1    0    0    0    0 -0.00000000000E+00 -0.00000000000E+00 -0.45593999997E+02  0.45594000000E+02  0.51100000000E-03 0. -1.
    9900012    2    1    2    0    0 -0.21820395831E+02 -0.42634643044E-01 -0.23250627291E+02  0.59301903322E+02  0.49999925762E+02 0.  0.
        -12    1    1    2    0    0  0.21820395831E+02  0.42634643044E-01  0.23250627291E+02  0.31886096678E+02  0.00000000000E+00 0.  1.
         11    1    3    3    0    0 -0.19668843187E+02 -0.78213534124E+01 -0.17136485322E+02  0.27234097946E+02  0.51100000000E-03 0. -1.
        -11    1    3    3    0    0 -0.37329974797E+01 -0.11423261538E+02 -0.40905660558E+01  0.12694837741E+02  0.51100000000E-03 0.  1.
        -12    1    3    3    0    0  0.15814448353E+01  0.19201980307E+02 -0.20235759136E+01  0.19372967635E+02  0.00000000000E+00 0.  1.
</event>
<event>
 7    1  0.7383168E-013  0.5930196E+02  0.7816164E-02  0.1266605E+00
        -11   -1    0    0    0    0  0.00000000000E+00  0.00000000000E+00  0.45593999997E+02  0.45594000000E+02  0.51100000000E-03 0. -1.
         11   -1    0    0    0    0 -0.00000000000E+00 -0.00000000000E+00 -0.45593999997E+02  0.45594000000E+02  0.51100000000E-03 0.  1.
    9900012    2    1    2    0    0  0.77715207127E+01  0.26446679766E+02  0.16027982855E+02  0.59301958552E+02  0.50000026490E+02 0.  0.
        -12    1    1    2    0    0 -0.77715207127E+01 -0.26446679766E+02 -0.16027982855E+02  0.31886041448E+02  0.00000000000E+00 0.  1.
         11    1    3    3    0    0 -0.68772976965E+01  0.12928222052E+02  0.25664712212E+02  0.29548495769E+02  0.51100000000E-03 0. -1.
        -11    1    3    3    0    0 -0.39628998352E+01  0.33775811813E+01  0.19953780215E+01  0.55762140785E+01  0.51100000000E-03 0.  1.
        -12    1    3    3    0    0  0.18611718244E+02  0.10140876532E+02 -0.11632107379E+02  0.24177248705E+02  0.00000000000E+00 0.  1.
</event>
<event>
 7    1  0.7383168E-013  0.5930194E+02  0.7816164E-02  0.1266605E+00
        -11   -1    0    0    0    0  0.00000000000E+00  0.00000000000E+00  0.45593999997E+02  0.45594000000E+02  0.51100000000E-03 0.  1.
         11   -1    0    0    0    0 -0.00000000000E+00 -0.00000000000E+00 -0.45593999997E+02  0.45594000000E+02  0.51100000000E-03 0. -1.
    9900012    2    1    2    0    0 -0.18361148586E+02 -0.11240468790E+02 -0.23521068265E+02  0.59301943982E+02  0.49999999917E+02 0.  0.
        -12    1    1    2    0    0  0.18361148586E+02  0.11240468790E+02  0.23521068265E+02  0.31886056018E+02  0.00000000000E+00 0.  1.
         11    1    3    3    0    0  0.13411027468E+02  0.36790272956E+00 -0.15787551678E+02  0.20718054890E+02  0.51100000000E-03 0. -1.
        -11    1    3    3    0    0 -0.26440234743E+01  0.36838509246E+01 -0.27689180252E+01  0.53130523298E+01  0.51100000000E-03 0.  1.
        -12    1    3    3    0    0 -0.29128152580E+02 -0.15292222444E+02 -0.49645985624E+01  0.33270836763E+02  0.00000000000E+00 0.  1.
</event>
<event>
 7    1  0.7383168E-013  0.5930201E+02  0.7816164E-02  0.1266605E+00
        -11   -1    0    0    0    0  0.00000000000E+00  0.00000000000E+00  0.45593999997E+02  0.45594000000E+02  0.51100000000E-03 0.  1.
         11   -1    0    0    0    0 -0.00000000000E+00 -0.00000000000E+00 -0.45593999997E+02  0.45594000000E+02  0.51100000000E-03 0. -1.
    9900012    2    1    2    0    0 -0.14456369969E+02  0.18447739336E+02 -0.21619684115E+02  0.59302008397E+02  0.50000117394E+02 0.  0.
        -12    1    1    2    0    0  0.14456369969E+02 -0.18447739336E+02  0.21619684115E+02  0.31885991603E+02  0.00000000000E+00 0.  1.
         11    1    3    3    0    0  0.27947499556E+01 -0.37989609498E+01  0.69018603617E+01  0.83593306147E+01  0.51100000000E-03 0.  1.
        -11    1    3    3    0    0  0.88355438728E+01  0.61123436661E+01 -0.33216159420E+01  0.11245475239E+02  0.51100000000E-03 0. -1.
        -12    1    3    3    0    0 -0.26086663797E+02  0.16134356619E+02 -0.25199928535E+02  0.39697202543E+02  0.00000000000E+00 0.  1.
</event>
<event>
 7    1  0.7383168E-013  0.5930191E+02  0.7816164E-02  0.1266605E+00
        -11   -1    0    0    0    0  0.00000000000E+00  0.00000000000E+00  0.45593999997E+02  0.45594000000E+02  0.51100000000E-03 0. -1.
         11   -1    0    0    0    0 -0.00000000000E+00 -0.00000000000E+00 -0.45593999997E+02  0.45594000000E+02  0.51100000000E-03 0.  1.
    9900012    2    1    2    0    0 -0.14042841055E+02 -0.27317487697E+02 -0.85601396330E+01  0.59301913544E+02  0.49999944405E+02 0.  0.
        -12    1    1    2    0    0  0.14042841055E+02  0.27317487697E+02  0.85601396330E+01  0.31886086456E+02  0.00000000000E+00 0.  1.
         11    1    3    3    0    0 -0.17414231405E+02 -0.18993460509E+02  0.71046452622E+01  0.26729814479E+02  0.51100000000E-03 0. -1.
        -11    1    3    3    0    0 -0.10800725740E+02 -0.67662821102E+01 -0.21463001569E+01  0.12924583348E+02  0.51100000000E-03 0.  1.
        -12    1    3    3    0    0  0.14172116090E+02 -0.15577450777E+01 -0.13518484738E+02  0.19647515716E+02  0.00000000000E+00 0.  1.
</event>
<event>
 7    1  0.7383168E-013  0.5930195E+02  0.7816164E-02  0.1266605E+00
        -11   -1    0    0    0    0  0.00000000000E+00  0.00000000000E+00  0.45593999997E+02  0.45594000000E+02  0.51100000000E-03 0.  1.
         11   -1    0    0    0    0 -0.00000000000E+00 -0.00000000000E+00 -0.45593999997E+02  0.45594000000E+02  0.51100000000E-03 0. -1.
    9900012    2    1    2    0    0  0.18472362895E+02  0.22388189359E+02 -0.13200795581E+02  0.59301949482E+02  0.50000009947E+02 0.  0.
        -12    1    1    2    0    0 -0.18472362895E+02 -0.22388189359E+02  0.13200795581E+02  0.31886050518E+02  0.00000000000E+00 0.  1.
         11    1    3    3    0    0 -0.96733743159E+01  0.44193322436E+01 -0.14497356729E+02  0.17979933829E+02  0.51100000000E-03 0. -1.
        -11    1    3    3    0    0 -0.26150436983E+01 -0.17006368542E+01 -0.32776293830E+01  0.45247623018E+01  0.51100000000E-03 0.  1.
        -12    1    3    3    0    0  0.30760780909E+02  0.19669493969E+02  0.45741905304E+01  0.36797253351E+02  0.00000000000E+00 0.  1.
</event>
<event>
 7    1  0.7383168E-013  0.5930194E+02  0.7816164E-02  0.1266605E+00
        -11   -1    0    0    0    0  0.00000000000E+00  0.00000000000E+00  0.45593999997E+02  0.45594000000E+02  0.51100000000E-03 0.  1.
         11   -1    0    0    0    0 -0.00000000000E+00 -0.00000000000E+00 -0.45593999997E+02  0.45594000000E+02  0.51100000000E-03 0. -1.
    9900012    2    1    2    0    0  0.15173956077E+02 -0.15773747715E+02 -0.23187514654E+02  0.59301938847E+02  0.49999990552E+02 0.  0.
        -12    1    1    2    0    0 -0.15173956077E+02  0.15773747715E+02  0.23187514654E+02  0.31886061153E+02  0.00000000000E+00 0.  1.
         11    1    3    3    0    0  0.18945931021E+02 -0.15367720350E+02 -0.10175770274E+02  0.26432204447E+02  0.51100000000E-03 0. -1.
        -11    1    3    3    0    0  0.27286076953E+01 -0.10997163529E+02  0.38113956012E+01  0.11954482102E+02  0.51100000000E-03 0.  1.
        -12    1    3    3    0    0 -0.65005826391E+01  0.10591136164E+02 -0.16823139981E+02  0.20915252298E+02  0.00000000000E+00 0.  1.
</event>
<event>
 7    1  0.7383168E-013  0.5930195E+02  0.7816164E-02  0.1266605E+00
        -11   -1    0    0    0    0  0.00000000000E+00  0.00000000000E+00  0.45593999997E+02  0.45594000000E+02  0.51100000000E-03 0.  1.
         11   -1    0    0    0    0 -0.00000000000E+00 -0.00000000000E+00 -0.45593999997E+02  0.45594000000E+02  0.51100000000E-03 0. -1.
    9900012    2    1    2    0    0 -0.36841726793E+01 -0.16218339345E+02 -0.27205003411E+02  0.59301954933E+02  0.50000019888E+02 0.  0.
        -12    1    1    2    0    0  0.36841726793E+01  0.16218339345E+02  0.27205003411E+02  0.31886045067E+02  0.00000000000E+00 0.  1.
         11    1    3    3    0    0  0.45266597687E+01  0.78070101438E+01 -0.37980663781E+01  0.97910859725E+01  0.51100000000E-03 0. -1.
        -11    1    3    3    0    0 -0.11952983391E+02  0.56120228601E+01 -0.10912808811E+02  0.17130616128E+02  0.51100000000E-03 0.  1.
         12    1    3    3    0    0  0.37421509431E+01 -0.29637372349E+02 -0.12494128222E+02  0.32380252832E+02  0.00000000000E+00 0. -1.
</event>
<event>
 7    1  0.7383168E-013  0.5930195E+02  0.7816164E-02  0.1266605E+00
        -11   -1    0    0    0    0  0.00000000000E+00  0.00000000000E+00  0.45593999997E+02  0.45594000000E+02  0.51100000000E-03 0. -1.
         11   -1    0    0    0    0 -0.00000000000E+00 -0.00000000000E+00 -0.45593999997E+02  0.45594000000E+02  0.51100000000E-03 0.  1.
    9900012    2    1    2    0    0 -0.21818474032E+02  0.14698992744E+02  0.18017043757E+02  0.59301951914E+02  0.50000014383E+02 0.  0.
        -12    1    1    2    0    0  0.21818474032E+02 -0.14698992744E+02 -0.18017043757E+02  0.31886048086E+02  0.00000000000E+00 0.  1.
         11    1    3    3    0    0 -0.90895435999E+01 -0.11373445603E+01 -0.66819039922E+01  0.11338482999E+02  0.51100000000E-03 0. -1.
        -11    1    3    3    0    0  0.22558804413E+01 -0.23217379249E+01 -0.74460224261E+01  0.81192803738E+01  0.51100000000E-03 0.  1.
         12    1    3    3    0    0 -0.14984810874E+02  0.18158075229E+02  0.32144970175E+02  0.39844188541E+02  0.00000000000E+00 0. -1.
</event>
<event>
 7    1  0.7383168E-013  0.5930191E+02  0.7816164E-02  0.1266605E+00
        -11   -1    0    0    0    0  0.00000000000E+00  0.00000000000E+00  0.45593999997E+02  0.45594000000E+02  0.51100000000E-03 0.  1.
         11   -1    0    0    0    0 -0.00000000000E+00 -0.00000000000E+00 -0.45593999997E+02  0.45594000000E+02  0.51100000000E-03 0. -1.
    9900012    2    1    2    0    0 -0.24321356318E+02 -0.93850289096E+00 -0.20598872346E+02  0.59301910514E+02  0.49999938879E+02 0.  0.
        -12    1    1    2    0    0  0.24321356318E+02  0.93850289096E+00  0.20598872346E+02  0.31886089486E+02  0.00000000000E+00 0.  1.
         11    1    3    3    0    0 -0.12306094921E+01 -0.10675222500E+02 -0.82953542615E+00  0.10777889609E+02  0.51100000000E-03 0. -1.
        -11    1    3    3    0    0  0.96311837810E+00  0.87084695005E+01  0.79345870835E+01  0.11820436138E+02  0.51100000000E-03 0.  1.
        -12    1    3    3    0    0 -0.24053865204E+02  0.10282501085E+01 -0.27703924003E+02  0.36703584766E+02  0.00000000000E+00 0.  1.
</event>
<event>
 7    1  0.7383168E-013  0.5930194E+02  0.7816164E-02  0.1266605E+00
        -11   -1    0    0    0    0  0.00000000000E+00  0.00000000000E+00  0.45593999997E+02  0.45594000000E+02  0.51100000000E-03 0.  1.
         11   -1    0    0    0    0 -0.00000000000E+00 -0.00000000000E+00 -0.45593999997E+02  0.45594000000E+02  0.51100000000E-03 0. -1.
    9900012    2    1    2    0    0 -0.14490513361E+02 -0.13305337089E+02 -0.25094100353E+02  0.59301939644E+02  0.49999992005E+02 0.  0.
        -12    1    1    2    0    0  0.14490513361E+02  0.13305337089E+02  0.25094100353E+02  0.31886060356E+02  0.00000000000E+00 0.  1.
         11    1    3    3    0    0  0.33144426441E+00 -0.52955418335E+01 -0.14972511386E+02  0.15884858075E+02  0.51100000000E-03 0. -1.
        -11    1    3    3    0    0  0.11294114747E+02 -0.86146626721E+01 -0.98624919408E+01  0.17292720677E+02  0.51100000000E-03 0.  1.
        -12    1    3    3    0    0 -0.26116072372E+02  0.60486741655E+00 -0.25909702647E+00  0.26124360892E+02  0.00000000000E+00 0.  1.
</event>
<event>
 7    1  0.7383168E-013  0.5930195E+02  0.7816164E-02  0.1266605E+00
        -11   -1    0    0    0    0  0.00000000000E+00  0.00000000000E+00  0.45593999997E+02  0.45594000000E+02  0.51100000000E-03 0. -1.
         11   -1    0    0    0    0 -0.00000000000E+00 -0.00000000000E+00 -0.45593999997E+02  0.45594000000E+02  0.51100000000E-03 0.  1.
    9900012    2    1    2    0    0 -0.49693634336E+01  0.14636873578E+02 -0.27888841064E+02  0.59301951374E+02  0.50000013398E+02 0.  0.
        -12    1    1    2    0    0  0.49693634336E+01 -0.14636873578E+02  0.27888841064E+02  0.31886048626E+02  0.00000000000E+00 0.  1.
         11    1    3    3    0    0 -0.30072109604E+01  0.38338711629E+01 -0.14826190142E+01  0.50931370742E+01  0.51100000000E-03 0. -1.
        -11    1    3    3    0    0  0.19508393273E+02  0.10359360495E+02 -0.23971001466E+02  0.32596052975E+02  0.51100000000E-03 0.  1.
         12    1    3    3    0    0 -0.21470545746E+02  0.44364191964E+00 -0.24352205841E+01  0.21612761325E+02  0.00000000000E+00 0. -1.
</event>
<event>
 7    1  0.7383168E-013  0.5930195E+02  0.7816164E-02  0.1266605E+00
        -11   -1    0    0    0    0  0.00000000000E+00  0.00000000000E+00  0.45593999997E+02  0.45594000000E+02  0.51100000000E-03 0. -1.
         11   -1    0    0    0    0 -0.00000000000E+00 -0.00000000000E+00 -0.45593999997E+02  0.45594000000E+02  0.51100000000E-03 0.  1.
    9900012    2    1    2    0    0  0.30838636293E+01  0.20102908506E+02  0.24557752948E+02  0.59301947012E+02  0.50000005444E+02 0.  0.
        -12    1    1    2    0    0 -0.30838636293E+01 -0.20102908506E+02 -0.24557752948E+02  0.31886052988E+02  0.00000000000E+00 0.  1.
         11    1    3    3    0    0  0.92066279803E+01  0.75547774368E+01  0.17165848363E+02  0.20892654479E+02  0.51100000000E-03 0. -1.
        -11    1    3    3    0    0 -0.47580759775E+01  0.24359032663E+02  0.90225993974E+01  0.26408503544E+02  0.51100000000E-03 0.  1.
         12    1    3    3    0    0 -0.13646883735E+01 -0.11810901594E+02 -0.16306948125E+01  0.12000788990E+02  0.00000000000E+00 0. -1.
</event>
<event>
 7    1  0.7383168E-013  0.5930193E+02  0.7816164E-02  0.1266605E+00
        -11   -1    0    0    0    0  0.00000000000E+00  0.00000000000E+00  0.45593999997E+02  0.45594000000E+02  0.51100000000E-03 0. -1.
         11   -1    0    0    0    0 -0.00000000000E+00 -0.00000000000E+00 -0.45593999997E+02  0.45594000000E+02  0.51100000000E-03 0.  1.
    9900012    2    1    2    0    0  0.74167254642E+01 -0.10976221736E+02  0.29004070352E+02  0.59301931613E+02  0.49999977358E+02 0.  0.
        -12    1    1    2    0    0 -0.74167254642E+01  0.10976221736E+02 -0.29004070352E+02  0.31886068387E+02  0.00000000000E+00 0.  1.
         11    1    3    3    0    0  0.11007798754E+02 -0.36291403515E+01  0.32005446285E+02  0.34039548840E+02  0.51100000000E-03 0. -1.
        -11    1    3    3    0    0  0.49699722070E+01 -0.12081278170E+02  0.34900068974E+01  0.13521762250E+02  0.51100000000E-03 0.  1.
        -12    1    3    3    0    0 -0.85610454965E+01  0.47341967855E+01 -0.64913828302E+01  0.11740620522E+02  0.00000000000E+00 0.  1.
</event>
<event>
 7    1  0.7383168E-013  0.5930185E+02  0.7816164E-02  0.1266605E+00
        -11   -1    0    0    0    0  0.00000000000E+00  0.00000000000E+00  0.45593999997E+02  0.45594000000E+02  0.51100000000E-03 0.  1.
         11   -1    0    0    0    0 -0.00000000000E+00 -0.00000000000E+00 -0.45593999997E+02  0.45594000000E+02  0.51100000000E-03 0. -1.
    9900012    2    1    2    0    0  0.23667214987E+02 -0.18788840048E+02 -0.10176875206E+02  0.59301853093E+02  0.49999834157E+02 0.  0.
        -12    1    1    2    0    0 -0.23667214987E+02  0.18788840048E+02  0.10176875206E+02  0.31886146907E+02  0.00000000000E+00 0.  1.
         11    1    3    3    0    0  0.20066570673E+02 -0.24149152353E+02 -0.93869468246E+01  0.32771383689E+02  0.51100000000E-03 0. -1.
        -11    1    3    3    0    0  0.13164179905E+02 -0.80948232698E+00  0.45595185872E+01  0.13954931179E+02  0.51100000000E-03 0.  1.
        -12    1    3    3    0    0 -0.95635355907E+01  0.61697946312E+01 -0.53494469682E+01  0.12575538225E+02  0.00000000000E+00 0.  1.
</event>
<event>
 7    1  0.7383168E-013  0.5930197E+02  0.7816164E-02  0.1266605E+00
        -11   -1    0    0    0    0  0.00000000000E+00  0.00000000000E+00  0.45593999997E+02  0.45594000000E+02  0.51100000000E-03 0. -1.
         11   -1    0    0    0    0 -0.00000000000E+00 -0.00000000000E+00 -0.45593999997E+02  0.45594000000E+02  0.51100000000E-03 0.  1.
    9900012    2    1    2    0    0  0.14819007811E+02 -0.28182224723E+02  0.16965889306E+01  0.59301965489E+02  0.50000039140E+02 0.  0.
        -12    1    1    2    0    0 -0.14819007811E+02  0.28182224723E+02 -0.16965889306E+01  0.31886034511E+02  0.00000000000E+00 0.  1.
         11    1    3    3    0    0  0.61772980560E+00 -0.19302532194E+02  0.49363643027E+01  0.19933314627E+02  0.51100000000E-03 0. -1.
        -11    1    3    3    0    0 -0.10442230667E+02 -0.76302840957E+01  0.41974208861E+01  0.13597049645E+02  0.51100000000E-03 0.  1.
        -12    1    3    3    0    0  0.24643508672E+02 -0.12494084336E+01 -0.74371962582E+01  0.25771601217E+02  0.00000000000E+00 0.  1.
</event>
<event>
 7    1  0.7383168E-013  0.5930195E+02  0.7816164E-02  0.1266605E+00
        -11   -1    0    0    0    0  0.00000000000E+00  0.00000000000E+00  0.45593999997E+02  0.45594000000E+02  0.51100000000E-03 0. -1.
         11   -1    0    0    0    0 -0.00000000000E+00 -0.00000000000E+00 -0.45593999997E+02  0.45594000000E+02  0.51100000000E-03 0.  1.
    9900012    2    1    2    0    0 -0.11309923636E+01  0.30424650754E+02  0.94753142300E+01  0.59301951374E+02  0.50000013398E+02 0.  0.
        -12    1    1    2    0    0  0.11309923636E+01 -0.30424650754E+02 -0.94753142300E+01  0.31886048626E+02  0.00000000000E+00 0.  1.
         11    1    3    3    0    0 -0.13016665627E+02  0.15617705216E+02 -0.52148404033E+01  0.20989065271E+02  0.51100000000E-03 0. -1.
        -11    1    3    3    0    0  0.11163767764E+01 -0.55685104614E+01 -0.53273564535E+01  0.77868692624E+01  0.51100000000E-03 0.  1.
         12    1    3    3    0    0  0.10769296487E+02  0.20375456000E+02  0.20017511087E+02  0.30526016840E+02  0.00000000000E+00 0. -1.
</event>
<event>
 7    1  0.7383168E-013  0.5930194E+02  0.7816164E-02  0.1266605E+00
        -11   -1    0    0    0    0  0.00000000000E+00  0.00000000000E+00  0.45593999997E+02  0.45594000000E+02  0.51100000000E-03 0.  1.
         11   -1    0    0    0    0 -0.00000000000E+00 -0.00000000000E+00 -0.45593999997E+02  0.45594000000E+02  0.51100000000E-03 0. -1.
    9900012    2    1    2    0    0  0.29648301890E+02 -0.14948360173E+01  0.11638919322E+02  0.59301940622E+02  0.49999993788E+02 0.  0.
        -12    1    1    2    0    0 -0.29648301890E+02  0.14948360173E+01 -0.11638919322E+02  0.31886059378E+02  0.00000000000E+00 0.  1.
         11    1    3    3    0    0  0.67814144810E+00  0.12339390456E+02  0.15146734362E+02  0.19548503644E+02  0.51100000000E-03 0. -1.
        -11    1    3    3    0    0  0.57660331748E+01  0.13810329632E+01  0.77935348789E+01  0.97925265783E+01  0.51100000000E-03 0.  1.
        -12    1    3    3    0    0  0.23204127268E+02 -0.15215259436E+02 -0.11301349919E+02  0.29960910399E+02  0.00000000000E+00 0.  1.
</event>
<event>
 7    1  0.7383168E-013  0.5930193E+02  0.7816164E-02  0.1266605E+00
        -11   -1    0    0    0    0  0.00000000000E+00  0.00000000000E+00  0.45593999997E+02  0.45594000000E+02  0.51100000000E-03 0. -1.
         11   -1    0    0    0    0 -0.00000000000E+00 -0.00000000000E+00 -0.45593999997E+02  0.45594000000E+02  0.51100000000E-03 0.  1.
    9900012    2    1    2    0    0 -0.17205485812E+02 -0.38325167965E+00  0.26842979649E+02  0.59301934387E+02  0.49999982417E+02 0.  0.
        -12    1    1    2    0    0  0.17205485812E+02  0.38325167965E+00 -0.26842979649E+02  0.31886065613E+02  0.00000000000E+00 0.  1.
         11    1    3    3    0    0 -0.22981382984E+02  0.72708449245E+00  0.33068226407E+02  0.40276298411E+02  0.51100000000E-03 0. -1.
        -11    1    3    3    0    0 -0.23349172439E+01 -0.62530344142E+01  0.13302974815E+01  0.68060245056E+01  0.51100000000E-03 0.  1.
        -12    1    3    3    0    0  0.81108144163E+01  0.51426982421E+01 -0.75555442403E+01  0.12219611470E+02  0.00000000000E+00 0.  1.
</event>
<event>
 7    1  0.7383168E-013  0.5930195E+02  0.7816164E-02  0.1266605E+00
        -11   -1    0    0    0    0  0.00000000000E+00  0.00000000000E+00  0.45593999997E+02  0.45594000000E+02  0.51100000000E-03 0. -1.
         11   -1    0    0    0    0 -0.00000000000E+00 -0.00000000000E+00 -0.45593999997E+02  0.45594000000E+02  0.51100000000E-03 0.  1.
    9900012    2    1    2    0    0  0.53439599992E+01 -0.30919635074E+02  0.56691019083E+01  0.59301945712E+02  0.50000003072E+02 0.  0.
        -12    1    1    2    0    0 -0.53439599992E+01  0.30919635074E+02 -0.56691019083E+01  0.31886054288E+02  0.00000000000E+00 0.  1.
         11    1    3    3    0    0 -0.58408894390E+01 -0.26863626476E+02 -0.11522279324E+02  0.29808276333E+02  0.51100000000E-03 0. -1.
        -11    1    3    3    0    0  0.23261630231E+01 -0.12694074328E+01 -0.48772616554E+01  0.55506856474E+01  0.51100000000E-03 0.  1.
         12    1    3    3    0    0  0.88586864152E+01 -0.27866011655E+01  0.22068642888E+02  0.23942983732E+02  0.00000000000E+00 0. -1.
</event>
<event>
 7    1  0.7383168E-013  0.5930199E+02  0.7816164E-02  0.1266605E+00
        -11   -1    0    0    0    0  0.00000000000E+00  0.00000000000E+00  0.45593999997E+02  0.45594000000E+02  0.51100000000E-03 0.  1.
         11   -1    0    0    0    0 -0.00000000000E+00 -0.00000000000E+00 -0.45593999997E+02  0.45594000000E+02  0.51100000000E-03 0. -1.
    9900012    2    1    2    0    0  0.14163148673E+02  0.23344795105E+02 -0.16466431297E+02  0.59301990553E+02  0.50000084851E+02 0.  0.
        -12    1    1    2    0    0 -0.14163148673E+02 -0.23344795105E+02  0.16466431297E+02  0.31886009447E+02  0.00000000000E+00 0.  1.
         11    1    3    3    0    0  0.70564708760E+01  0.68673557335E+01 -0.14084163401E+02  0.17184819317E+02  0.51100000000E-03 0. -1.
        -11    1    3    3    0    0  0.14143998160E+01  0.26913125536E+02  0.59516303526E+01  0.27599615162E+02  0.51100000000E-03 0.  1.
         12    1    3    3    0    0  0.56922779806E+01 -0.10435686165E+02 -0.83338982482E+01  0.14517556074E+02  0.00000000000E+00 0. -1.
</event>
<event>
 7    1  0.7383168E-013  0.5930226E+02  0.7816164E-02  0.1266604E+00
        -11   -1    0    0    0    0  0.00000000000E+00  0.00000000000E+00  0.45593999997E+02  0.45594000000E+02  0.51100000000E-03 0.  1.
         11   -1    0    0    0    0 -0.00000000000E+00 -0.00000000000E+00 -0.45593999997E+02  0.45594000000E+02  0.51100000000E-03 0. -1.
    9900012    2    1    2    0    0 -0.41965825011E+01 -0.25268032139E+02 -0.18989886361E+02  0.59302258095E+02  0.50000572780E+02 0.  0.
        -12    1    1    2    0    0  0.41965825011E+01  0.25268032139E+02  0.18989886361E+02  0.31885741905E+02  0.00000000000E+00 0.  1.
         11    1    3    3    0    0 -0.13106643271E+02 -0.16212720701E+02 -0.26430612677E+02  0.33663239552E+02  0.51100000000E-03 0. -1.
        -11    1    3    3    0    0 -0.40860544056E+01  0.26103410690E+01 -0.25924585048E+01  0.54982326672E+01  0.51100000000E-03 0.  1.
        -12    1    3    3    0    0  0.12996115176E+02 -0.11665652506E+02  0.10033184821E+02  0.20140785876E+02  0.00000000000E+00 0.  1.
</event>
<event>
 7    1  0.7383168E-013  0.5930195E+02  0.7816164E-02  0.1266605E+00
        -11   -1    0    0    0    0  0.00000000000E+00  0.00000000000E+00  0.45593999997E+02  0.45594000000E+02  0.51100000000E-03 0.  1.
         11   -1    0    0    0    0 -0.00000000000E+00 -0.00000000000E+00 -0.45593999997E+02  0.45594000000E+02  0.51100000000E-03 0. -1.
    9900012    2    1    2    0    0 -0.16176696577E+02  0.26506973986E+02 -0.72398104309E+01  0.59301952313E+02  0.50000015110E+02 0.  0.
        -12    1    1    2    0    0  0.16176696577E+02 -0.26506973986E+02  0.72398104309E+01  0.31886047687E+02  0.00000000000E+00 0.  1.
         11    1    3    3    0    0  0.93777035429E+01  0.18704682198E+02  0.36836047723E+01  0.21245597291E+02  0.51100000000E-03 0.  1.
        -11    1    3    3    0    0 -0.54863473704E+01  0.34016465377E+00 -0.15252306820E+02  0.16212605684E+02  0.51100000000E-03 0. -1.
        -12    1    3    3    0    0 -0.20068052749E+02  0.74621271345E+01  0.43288916171E+01  0.21843749338E+02  0.00000000000E+00 0.  1.
</event>
<event>
 7    1  0.7383168E-013  0.5930196E+02  0.7816164E-02  0.1266605E+00
        -11   -1    0    0    0    0  0.00000000000E+00  0.00000000000E+00  0.45593999997E+02  0.45594000000E+02  0.51100000000E-03 0. -1.
         11   -1    0    0    0    0 -0.00000000000E+00 -0.00000000000E+00 -0.45593999997E+02  0.45594000000E+02  0.51100000000E-03 0.  1.
    9900012    2    1    2    0    0 -0.23732009438E+02 -0.21005890073E+02 -0.35019763874E+01  0.59301960290E+02  0.50000029659E+02 0.  0.
        -12    1    1    2    0    0  0.23732009438E+02  0.21005890073E+02  0.35019763874E+01  0.31886039710E+02  0.00000000000E+00 0.  1.
         11    1    3    3    0    0  0.51026556843E+01  0.22686369828E+01 -0.75706556625E+01  0.94073713764E+01  0.51100000000E-03 0. -1.
        -11    1    3    3    0    0  0.57108444440E+01 -0.82103724760E+01 -0.49266285497E+01  0.11148794984E+02  0.51100000000E-03 0.  1.
        -12    1    3    3    0    0 -0.34545509567E+02 -0.15064154580E+02  0.89953078248E+01  0.38745793930E+02  0.00000000000E+00 0.  1.
</event>
<event>
 7    1  0.7383168E-013  0.5930194E+02  0.7816164E-02  0.1266605E+00
        -11   -1    0    0    0    0  0.00000000000E+00  0.00000000000E+00  0.45593999997E+02  0.45594000000E+02  0.51100000000E-03 0. -1.
         11   -1    0    0    0    0 -0.00000000000E+00 -0.00000000000E+00 -0.45593999997E+02  0.45594000000E+02  0.51100000000E-03 0.  1.
    9900012    2    1    2    0    0  0.27271115989E+02  0.11609604951E+02  0.11756883058E+02  0.59301937313E+02  0.49999987754E+02 0.  0.
        -12    1    1    2    0    0 -0.27271115989E+02 -0.11609604951E+02 -0.11756883058E+02  0.31886062687E+02  0.00000000000E+00 0.  1.
         11    1    3    3    0    0  0.14452136529E+02  0.20098985695E+02 -0.25788137489E+01  0.24889430625E+02  0.51100000000E-03 0. -1.
        -11    1    3    3    0    0  0.16138523690E+02 -0.67153540802E+01  0.20654049987E+02  0.27058043323E+02  0.51100000000E-03 0.  1.
        -12    1    3    3    0    0 -0.33195442291E+01 -0.17740266633E+01 -0.63183531802E+01  0.73544633659E+01  0.00000000000E+00 0.  1.
</event>
<event>
 7    1  0.7383168E-013  0.5930193E+02  0.7816164E-02  0.1266605E+00
        -11   -1    0    0    0    0  0.00000000000E+00  0.00000000000E+00  0.45593999997E+02  0.45594000000E+02  0.51100000000E-03 0.  1.
         11   -1    0    0    0    0 -0.00000000000E+00 -0.00000000000E+00 -0.45593999997E+02  0.45594000000E+02  0.51100000000E-03 0. -1.
    9900012    2    1    2    0    0 -0.17177254995E+02 -0.23184476336E+02 -0.13569951157E+02  0.59301927703E+02  0.49999970228E+02 0.  0.
        -12    1    1    2    0    0  0.17177254995E+02  0.23184476336E+02  0.13569951157E+02  0.31886072297E+02  0.00000000000E+00 0.  1.
         11    1    3    3    0    0 -0.10487336478E+02 -0.12834705640E+02  0.12387286763E+02  0.20691997702E+02  0.51100000000E-03 0. -1.
        -11    1    3    3    0    0 -0.30291148215E+01 -0.15987255353E+02 -0.56589835567E+01  0.17227651189E+02  0.51100000000E-03 0.  1.
        -12    1    3    3    0    0 -0.36608036951E+01  0.56374846581E+01 -0.20298254364E+02  0.21382278812E+02  0.00000000000E+00 0.  1.
</event>
<event>
 7    1  0.7383168E-013  0.5930195E+02  0.7816164E-02  0.1266605E+00
        -11   -1    0    0    0    0  0.00000000000E+00  0.00000000000E+00  0.45593999997E+02  0.45594000000E+02  0.51100000000E-03 0.  1.
         11   -1    0    0    0    0 -0.00000000000E+00 -0.00000000000E+00 -0.45593999997E+02  0.45594000000E+02  0.51100000000E-03 0. -1.
    9900012    2    1    2    0    0 -0.10920753918E+02 -0.27734865927E+02 -0.11324056033E+02  0.59301954476E+02  0.50000019056E+02 0.  0.
        -12    1    1    2    0    0  0.10920753918E+02  0.27734865927E+02  0.11324056033E+02  0.31886045524E+02  0.00000000000E+00 0.  1.
         11    1    3    3    0    0  0.30321611429E+01 -0.19948546598E+02 -0.12296501075E+02  0.23629271074E+02  0.51100000000E-03 0. -1.
        -11    1    3    3    0    0 -0.95710528414E+00 -0.16999221811E+02  0.73088900977E+01  0.18528612129E+02  0.51100000000E-03 0.  1.
        -12    1    3    3    0    0 -0.12995809776E+02  0.92129024817E+01 -0.63364450554E+01  0.17144071273E+02  0.00000000000E+00 0.  1.
</event>
<event>
 7    1  0.7383168E-013  0.5930194E+02  0.7816164E-02  0.1266605E+00
        -11   -1    0    0    0    0  0.00000000000E+00  0.00000000000E+00  0.45593999997E+02  0.45594000000E+02  0.51100000000E-03 0. -1.
         11   -1    0    0    0    0 -0.00000000000E+00 -0.00000000000E+00 -0.45593999997E+02  0.45594000000E+02  0.51100000000E-03 0.  1.
    9900012    2    1    2    0    0  0.27168158368E+02  0.12555745117E+02 -0.10998413055E+02  0.59301942635E+02  0.49999997460E+02 0.  0.
        -12    1    1    2    0    0 -0.27168158368E+02 -0.12555745117E+02  0.10998413055E+02  0.31886057365E+02  0.00000000000E+00 0.  1.
         11    1    3    3    0    0  0.69835475772E+01 -0.11491883967E+02 -0.70979587086E+01  0.15205734180E+02  0.51100000000E-03 0. -1.
        -11    1    3    3    0    0  0.67804833275E+00 -0.31614488021E+01  0.79495511513E+01  0.85819503516E+01  0.51100000000E-03 0.  1.
         12    1    3    3    0    0  0.19506562458E+02  0.27209077886E+02 -0.11850005497E+02  0.35514258103E+02  0.00000000000E+00 0. -1.
</event>
<event>
 7    1  0.7383168E-013  0.5930195E+02  0.7816164E-02  0.1266605E+00
        -11   -1    0    0    0    0  0.00000000000E+00  0.00000000000E+00  0.45593999997E+02  0.45594000000E+02  0.51100000000E-03 0.  1.
         11   -1    0    0    0    0 -0.00000000000E+00 -0.00000000000E+00 -0.45593999997E+02  0.45594000000E+02  0.51100000000E-03 0. -1.
    9900012    2    1    2    0    0  0.70534458085E+01  0.19987468216E+01 -0.31031819313E+02  0.59301954517E+02  0.50000019130E+02 0.  0.
        -12    1    1    2    0    0 -0.70534458085E+01 -0.19987468216E+01  0.31031819313E+02  0.31886045483E+02  0.00000000000E+00 0.  1.
         11    1    3    3    0    0  0.10379837150E+02 -0.17916883956E+01 -0.23093035331E+02  0.25381872422E+02  0.51100000000E-03 0. -1.
        -11    1    3    3    0    0 -0.44462145558E+01  0.14330828471E+02 -0.14973970320E+02  0.21198142747E+02  0.51100000000E-03 0.  1.
        -12    1    3    3    0    0  0.11198232146E+01 -0.10540393254E+02  0.70351863376E+01  0.12721939348E+02  0.00000000000E+00 0.  1.
</event>
<event>
 7    1  0.7383168E-013  0.5930195E+02  0.7816164E-02  0.1266605E+00
        -11   -1    0    0    0    0  0.00000000000E+00  0.00000000000E+00  0.45593999997E+02  0.45594000000E+02  0.51100000000E-03 0.  1.
         11   -1    0    0    0    0 -0.00000000000E+00 -0.00000000000E+00 -0.45593999997E+02  0.45594000000E+02  0.51100000000E-03 0. -1.
    9900012    2    1    2    0    0  0.73128826493E+00 -0.57756077099E+00 -0.31872428474E+02  0.59301952019E+02  0.50000014575E+02 0.  0.
        -12    1    1    2    0    0 -0.73128826493E+00  0.57756077099E+00  0.31872428474E+02  0.31886047981E+02  0.00000000000E+00 0.  1.
         11    1    3    3    0    0  0.11149917578E+01 -0.70709731724E+01 -0.39894548827E+02  0.40531677668E+02  0.51100000000E-03 0. -1.
        -11    1    3    3    0    0  0.29926485919E+01  0.50725993379E+01 -0.33825021320E+01  0.67917987729E+01  0.51100000000E-03 0.  1.
        -12    1    3    3    0    0 -0.33763520848E+01  0.14208130635E+01  0.11404622485E+02  0.11978475578E+02  0.00000000000E+00 0.  1.
</event>
<event>
 7    1  0.7383168E-013  0.5930193E+02  0.7816164E-02  0.1266605E+00
        -11   -1    0    0    0    0  0.00000000000E+00  0.00000000000E+00  0.45593999997E+02  0.45594000000E+02  0.51100000000E-03 0. -1.
         11   -1    0    0    0    0 -0.00000000000E+00 -0.00000000000E+00 -0.45593999997E+02  0.45594000000E+02  0.51100000000E-03 0.  1.
    9900012    2    1    2    0    0 -0.10569692301E+02  0.16466322087E+02  0.25176643995E+02  0.59301928413E+02  0.49999971522E+02 0.  0.
        -12    1    1    2    0    0  0.10569692301E+02 -0.16466322087E+02 -0.25176643995E+02  0.31886071587E+02  0.00000000000E+00 0.  1.
         11    1    3    3    0    0 -0.13635339157E+02  0.20518679512E+01 -0.53840554318E+01  0.14802725734E+02  0.51100000000E-03 0. -1.
        -11    1    3    3    0    0 -0.23189938955E+00  0.18518215865E+02  0.61301351402E+01  0.19507861319E+02  0.51100000000E-03 0.  1.
        -12    1    3    3    0    0  0.32975462450E+01 -0.41037617296E+01  0.24430564287E+02  0.24991341359E+02  0.00000000000E+00 0.  1.
</event>
<event>
 7    1  0.7383168E-013  0.5930198E+02  0.7816164E-02  0.1266605E+00
        -11   -1    0    0    0    0  0.00000000000E+00  0.00000000000E+00  0.45593999997E+02  0.45594000000E+02  0.51100000000E-03 0.  1.
         11   -1    0    0    0    0 -0.00000000000E+00 -0.00000000000E+00 -0.45593999997E+02  0.45594000000E+02  0.51100000000E-03 0. -1.
    9900012    2    1    2    0    0 -0.29430090601E+02 -0.94820592039E+01 -0.77896492201E+01  0.59301979325E+02  0.50000064374E+02 0.  0.
        -12    1    1    2    0    0  0.29430090601E+02  0.94820592039E+01  0.77896492201E+01  0.31886020675E+02  0.00000000000E+00 0.  1.
         11    1    3    3    0    0  0.89049513039E+01  0.20263025934E+01 -0.50870008331E+01  0.10453785805E+02  0.51100000000E-03 0.  1.
        -11    1    3    3    0    0 -0.28511604948E+02 -0.12250404765E+01  0.95326007421E+01  0.30087918141E+02  0.51100000000E-03 0. -1.
         12    1    3    3    0    0 -0.98234369563E+01 -0.10283321321E+02 -0.12235249129E+02  0.18760275378E+02  0.00000000000E+00 0. -1.
</event>
<event>
 7    1  0.7383168E-013  0.5930194E+02  0.7816164E-02  0.1266605E+00
        -11   -1    0    0    0    0  0.00000000000E+00  0.00000000000E+00  0.45593999997E+02  0.45594000000E+02  0.51100000000E-03 0. -1.
         11   -1    0    0    0    0 -0.00000000000E+00 -0.00000000000E+00 -0.45593999997E+02  0.45594000000E+02  0.51100000000E-03 0.  1.
    9900012    2    1    2    0    0  0.15122988607E+02  0.65340028355E+01  0.27300598973E+02  0.59301942204E+02  0.49999996674E+02 0.  0.
        -12    1    1    2    0    0 -0.15122988607E+02 -0.65340028355E+01 -0.27300598973E+02  0.31886057796E+02  0.00000000000E+00 0.  1.
         11    1    3    3    0    0  0.11332722797E+02  0.14397026852E+02  0.22555920254E+02  0.29059843890E+02  0.51100000000E-03 0. -1.
        -11    1    3    3    0    0  0.14127415053E+02 -0.26018112395E+01  0.10005203532E+02  0.17505924020E+02  0.51100000000E-03 0.  1.
         12    1    3    3    0    0 -0.10337149243E+02 -0.52612127767E+01 -0.52605248123E+01  0.12736174294E+02  0.00000000000E+00 0. -1.
</event>
<event>
 7    1  0.7383168E-013  0.5930194E+02  0.7816164E-02  0.1266605E+00
        -11   -1    0    0    0    0  0.00000000000E+00  0.00000000000E+00  0.45593999997E+02  0.45594000000E+02  0.51100000000E-03 0.  1.
         11   -1    0    0    0    0 -0.00000000000E+00 -0.00000000000E+00 -0.45593999997E+02  0.45594000000E+02  0.51100000000E-03 0. -1.
    9900012    2    1    2    0    0  0.16949403374E+02 -0.10496112495E+02 -0.24885142427E+02  0.59301937749E+02  0.49999988550E+02 0.  0.
        -12    1    1    2    0    0 -0.16949403374E+02  0.10496112495E+02  0.24885142427E+02  0.31886062251E+02  0.00000000000E+00 0.  1.
         11    1    3    3    0    0 -0.41367018796E+01 -0.17886028495E+01  0.75387006173E+01  0.87831321209E+01  0.51100000000E-03 0. -1.
        -11    1    3    3    0    0  0.30557255878E+00  0.59719097296E+01  0.31690587667E+01  0.67675707706E+01  0.51100000000E-03 0.  1.
         12    1    3    3    0    0  0.20780532695E+02 -0.14679419375E+02 -0.35592901811E+02  0.43751234858E+02  0.00000000000E+00 0. -1.
</event>
<event>
 7    1  0.7383168E-013  0.5930193E+02  0.7816164E-02  0.1266605E+00
        -11   -1    0    0    0    0  0.00000000000E+00  0.00000000000E+00  0.45593999997E+02  0.45594000000E+02  0.51100000000E-03 0. -1.
         11   -1    0    0    0    0 -0.00000000000E+00 -0.00000000000E+00 -0.45593999997E+02  0.45594000000E+02  0.51100000000E-03 0.  1.
    9900012    2    1    2    0    0 -0.23471290270E+01 -0.31669439982E+02  0.28738048629E+01  0.59301934112E+02  0.49999981916E+02 0.  0.
        -12    1    1    2    0    0  0.23471290270E+01  0.31669439982E+02 -0.28738048629E+01  0.31886065888E+02  0.00000000000E+00 0.  1.
         11    1    3    3    0    0 -0.10854146158E+02 -0.60486872342E+01 -0.97137166115E+01  0.15771981383E+02  0.51100000000E-03 0. -1.
        -11    1    3    3    0    0 -0.59103236304E+01  0.31404156354E+01 -0.35074101368E+01  0.75561936124E+01  0.51100000000E-03 0.  1.
         12    1    3    3    0    0  0.14417340762E+02 -0.28761168383E+02  0.16094931611E+02  0.35973759116E+02  0.00000000000E+00 0. -1.
</event>
<event>
 7    1  0.7383168E-013  0.5930193E+02  0.7816164E-02  0.1266605E+00
        -11   -1    0    0    0    0  0.00000000000E+00  0.00000000000E+00  0.45593999997E+02  0.45594000000E+02  0.51100000000E-03 0.  1.
         11   -1    0    0    0    0 -0.00000000000E+00 -0.00000000000E+00 -0.45593999997E+02  0.45594000000E+02  0.51100000000E-03 0. -1.
    9900012    2    1    2    0    0 -0.84506966815E+01  0.30089129894E+02  0.63207134463E+01  0.59301930461E+02  0.49999975257E+02 0.  0.
        -12    1    1    2    0    0  0.84506966815E+01 -0.30089129894E+02 -0.63207134463E+01  0.31886069539E+02  0.00000000000E+00 0.  1.
         11    1    3    3    0    0  0.26513020491E+01  0.94941281396E+01 -0.76882894709E+00  0.98873135835E+01  0.51100000000E-03 0. -1.
        -11    1    3    3    0    0  0.15814907073E+01  0.12135569666E+02  0.23819825988E+02  0.26779792276E+02  0.51100000000E-03 0.  1.
         12    1    3    3    0    0 -0.12683489438E+02  0.84594320883E+01 -0.16730283595E+02  0.22634824601E+02  0.00000000000E+00 0. -1.
</event>
<event>
 7    1  0.7383168E-013  0.5930171E+02  0.7816164E-02  0.1266606E+00
        -11   -1    0    0    0    0  0.00000000000E+00  0.00000000000E+00  0.45593999997E+02  0.45594000000E+02  0.51100000000E-03 0. -1.
         11   -1    0    0    0    0 -0.00000000000E+00 -0.00000000000E+00 -0.45593999997E+02  0.45594000000E+02  0.51100000000E-03 0.  1.
    9900012    2    1    2    0    0  0.79278404812E+01 -0.10853192995E+02  0.28915275280E+02  0.59301708315E+02  0.49999570115E+02 0.  0.
        -12    1    1    2    0    0 -0.79278404812E+01  0.10853192995E+02 -0.28915275280E+02  0.31886291685E+02  0.00000000000E+00 0.  1.
         11    1    3    3    0    0 -0.12236560168E+02 -0.11575969549E+02  0.19986026179E+02  0.26137668574E+02  0.51100000000E-03 0.  1.
        -11    1    3    3    0    0 -0.39664011101E+00  0.28822642485E+01  0.11924282353E+02  0.12274089803E+02  0.51100000000E-03 0. -1.
        -12    1    3    3    0    0  0.20561040761E+02 -0.21594876947E+01 -0.29950332528E+01  0.20889949939E+02  0.00000000000E+00 0.  1.
</event>
<event>
 7    1  0.7383168E-013  0.5930194E+02  0.7816164E-02  0.1266605E+00
        -11   -1    0    0    0    0  0.00000000000E+00  0.00000000000E+00  0.45593999997E+02  0.45594000000E+02  0.51100000000E-03 0. -1.
         11   -1    0    0    0    0 -0.00000000000E+00 -0.00000000000E+00 -0.45593999997E+02  0.45594000000E+02  0.51100000000E-03 0.  1.
    9900012    2    1    2    0    0  0.88597271966E+01 -0.28593791130E+02  0.10982762634E+02  0.59301941412E+02  0.49999995230E+02 0.  0.
        -12    1    1    2    0    0 -0.88597271966E+01  0.28593791130E+02 -0.10982762634E+02  0.31886058588E+02  0.00000000000E+00 0.  1.
         11    1    3    3    0    0 -0.74976249947E+01  0.11372896157E+02  0.57611267609E+01  0.14790122696E+02  0.51100000000E-03 0. -1.
        -11    1    3    3    0    0  0.86182827068E-01  0.40389344785E+00  0.61730469104E+00  0.74271309373E+00  0.51100000000E-03 0.  1.
        -12    1    3    3    0    0  0.16271169364E+02 -0.40370580735E+02  0.46043311824E+01  0.43769105622E+02  0.00000000000E+00 0.  1.
</event>
<event>
 7    1  0.7383168E-013  0.5930234E+02  0.7816164E-02  0.1266603E+00
        -11   -1    0    0    0    0  0.00000000000E+00  0.00000000000E+00  0.45593999997E+02  0.45594000000E+02  0.51100000000E-03 0. -1.
         11   -1    0    0    0    0 -0.00000000000E+00 -0.00000000000E+00 -0.45593999997E+02  0.45594000000E+02  0.51100000000E-03 0.  1.
    9900012    2    1    2    0    0 -0.12163822177E+01 -0.31806160084E+02  0.18930760587E+01  0.59302342692E+02  0.50000727063E+02 0.  0.
        -12    1    1    2    0    0  0.12163822177E+01  0.31806160084E+02 -0.18930760587E+01  0.31885657308E+02  0.00000000000E+00 0.  1.
         11    1    3    3    0    0 -0.48676810515E+01 -0.81907142525E+01 -0.11728241049E+02  0.15110716633E+02  0.51100000000E-03 0. -1.
        -11    1    3    3    0    0 -0.18139687625E+01 -0.73168021971E+01 -0.11500662618E+02  0.13751047886E+02  0.51100000000E-03 0.  1.
         12    1    3    3    0    0  0.54652675963E+01 -0.16298643634E+02  0.25121979725E+02  0.30440578173E+02  0.00000000000E+00 0. -1.
</event>
<event>
 7    1  0.7383168E-013  0.5930194E+02  0.7816164E-02  0.1266605E+00
        -11   -1    0    0    0    0  0.00000000000E+00  0.00000000000E+00  0.45593999997E+02  0.45594000000E+02  0.51100000000E-03 0.  1.
         11   -1    0    0    0    0 -0.00000000000E+00 -0.00000000000E+00 -0.45593999997E+02  0.45594000000E+02  0.51100000000E-03 0. -1.
    9900012    2    1    2    0    0  0.18655282699E+02 -0.25603522452E+02  0.36278332912E+01  0.59301935506E+02  0.49999984458E+02 0.  0.
        -12    1    1    2    0    0 -0.18655282699E+02  0.25603522452E+02 -0.36278332912E+01  0.31886064494E+02  0.00000000000E+00 0.  1.
         11    1    3    3    0    0  0.20284596780E+02 -0.55769144688E+00 -0.69499238391E+01  0.21449413230E+02  0.51100000000E-03 0. -1.
        -11    1    3    3    0    0  0.72858243339E+01  0.11637691776E+01  0.65703685137E+01  0.98796425842E+01  0.51100000000E-03 0.  1.
        -12    1    3    3    0    0 -0.89151384151E+01 -0.26209600183E+02  0.40073886165E+01  0.27972879692E+02  0.00000000000E+00 0.  1.
</event>
<event>
 7    1  0.7383168E-013  0.5930194E+02  0.7816164E-02  0.1266605E+00
        -11   -1    0    0    0    0  0.00000000000E+00  0.00000000000E+00  0.45593999997E+02  0.45594000000E+02  0.51100000000E-03 0.  1.
         11   -1    0    0    0    0 -0.00000000000E+00 -0.00000000000E+00 -0.45593999997E+02  0.45594000000E+02  0.51100000000E-03 0. -1.
    9900012    2    1    2    0    0 -0.74529055215E+00 -0.26070114940E+02 -0.18344336072E+02  0.59301936948E+02  0.49999987089E+02 0.  0.
        -12    1    1    2    0    0  0.74529055215E+00  0.26070114940E+02  0.18344336072E+02  0.31886063052E+02  0.00000000000E+00 0.  1.
         11    1    3    3    0    0  0.35500319364E+01 -0.69472648446E+01 -0.27657778173E+02  0.28737082477E+02  0.51100000000E-03 0. -1.
        -11    1    3    3    0    0 -0.11806173211E+02 -0.44999062353E+01  0.32792276680E+01  0.13053283739E+02  0.51100000000E-03 0.  1.
         12    1    3    3    0    0  0.75108507221E+01 -0.14622943860E+02  0.60342144322E+01  0.17511570733E+02  0.00000000000E+00 0. -1.
</event>
<event>
 7    1  0.7383168E-013  0.5930196E+02  0.7816164E-02  0.1266605E+00
        -11   -1    0    0    0    0  0.00000000000E+00  0.00000000000E+00  0.45593999997E+02  0.45594000000E+02  0.51100000000E-03 0.  1.
         11   -1    0    0    0    0 -0.00000000000E+00 -0.00000000000E+00 -0.45593999997E+02  0.45594000000E+02  0.51100000000E-03 0. -1.
    9900012    2    1    2    0    0  0.83383758838E+01  0.92510806185E+01 -0.29353164532E+02  0.59301964294E+02  0.50000036962E+02 0.  0.
        -12    1    1    2    0    0 -0.83383758838E+01 -0.92510806185E+01  0.29353164532E+02  0.31886035706E+02  0.00000000000E+00 0.  1.
         11    1    3    3    0    0 -0.80981323675E+01  0.67817511078E+01 -0.34205603233E+01  0.11102798256E+02  0.51100000000E-03 0. -1.
        -11    1    3    3    0    0  0.13964074855E+01  0.13327506453E+02 -0.26440225355E+02  0.29642164212E+02  0.51100000000E-03 0.  1.
        -12    1    3    3    0    0  0.15040100766E+02 -0.10858176942E+02  0.50762114629E+00  0.18557001826E+02  0.00000000000E+00 0.  1.
</event>
<event>
 7    1  0.7383168E-013  0.5930196E+02  0.7816164E-02  0.1266605E+00
        -11   -1    0    0    0    0  0.00000000000E+00  0.00000000000E+00  0.45593999997E+02  0.45594000000E+02  0.51100000000E-03 0. -1.
         11   -1    0    0    0    0 -0.00000000000E+00 -0.00000000000E+00 -0.45593999997E+02  0.45594000000E+02  0.51100000000E-03 0.  1.
    9900012    2    1    2    0    0 -0.12171818550E+02  0.44116215485E-01  0.29471421825E+02  0.59301955757E+02  0.50000021392E+02 0.  0.
        -12    1    1    2    0    0  0.12171818550E+02 -0.44116215485E-01 -0.29471421825E+02  0.31886044243E+02  0.00000000000E+00 0.  1.
         11    1    3    3    0    0  0.53632708244E+01 -0.91912410540E+01 -0.45331630559E+01  0.11566899049E+02  0.51100000000E-03 0. -1.
        -11    1    3    3    0    0 -0.90821114512E+01 -0.93602608418E+01  0.12237721363E+02  0.17884659792E+02  0.51100000000E-03 0.  1.
         12    1    3    3    0    0 -0.84529779234E+01  0.18595618111E+02  0.21766863518E+02  0.29850396917E+02  0.00000000000E+00 0. -1.
</event>
<event>
 7    1  0.7383168E-013  0.5930193E+02  0.7816164E-02  0.1266605E+00
        -11   -1    0    0    0    0  0.00000000000E+00  0.00000000000E+00  0.45593999997E+02  0.45594000000E+02  0.51100000000E-03 0.  1.
         11   -1    0    0    0    0 -0.00000000000E+00 -0.00000000000E+00 -0.45593999997E+02  0.45594000000E+02  0.51100000000E-03 0. -1.
    9900012    2    1    2    0    0 -0.12489501030E+00 -0.20850604522E+02 -0.24123812011E+02  0.59301927591E+02  0.49999970024E+02 0.  0.
        -12    1    1    2    0    0  0.12489501030E+00  0.20850604522E+02  0.24123812011E+02  0.31886072409E+02  0.00000000000E+00 0.  1.
         11    1    3    3    0    0  0.14970739714E+01  0.44679963434E+01 -0.23280416673E+01  0.52558538856E+01  0.51100000000E-03 0. -1.
        -11    1    3    3    0    0 -0.30718259607E+01  0.11840529610E+02 -0.45086065851E+01  0.13036939433E+02  0.51100000000E-03 0.  1.
         12    1    3    3    0    0  0.14498569790E+01 -0.37159130476E+02 -0.17287163759E+02  0.41009134273E+02  0.00000000000E+00 0. -1.
</event>
<event>
 7    1  0.7383168E-013  0.5930196E+02  0.7816164E-02  0.1266605E+00
        -11   -1    0    0    0    0  0.00000000000E+00  0.00000000000E+00  0.45593999997E+02  0.45594000000E+02  0.51100000000E-03 0. -1.
         11   -1    0    0    0    0 -0.00000000000E+00 -0.00000000000E+00 -0.45593999997E+02  0.45594000000E+02  0.51100000000E-03 0.  1.
    9900012    2    1    2    0    0 -0.11934844647E+02 -0.78716293153E+01  0.28501166111E+02  0.59301960194E+02  0.50000029483E+02 0.  0.
        -12    1    1    2    0    0  0.11934844647E+02  0.78716293153E+01 -0.28501166111E+02  0.31886039806E+02  0.00000000000E+00 0.  1.
         11    1    3    3    0    0 -0.11389959483E+02 -0.61148122508E+01 -0.97121778626E+01  0.16169369344E+02  0.51100000000E-03 0. -1.
        -11    1    3    3    0    0 -0.12952425675E+01 -0.83002051029E+01  0.61795024595E+01  0.10428677240E+02  0.51100000000E-03 0.  1.
         12    1    3    3    0    0  0.75035740361E+00  0.65433880384E+01  0.32033841515E+02  0.32703913610E+02  0.00000000000E+00 0. -1.
</event>
<event>
 7    1  0.7383168E-013  0.5930194E+02  0.7816164E-02  0.1266605E+00
        -11   -1    0    0    0    0  0.00000000000E+00  0.00000000000E+00  0.45593999997E+02  0.45594000000E+02  0.51100000000E-03 0. -1.
         11   -1    0    0    0    0 -0.00000000000E+00 -0.00000000000E+00 -0.45593999997E+02  0.45594000000E+02  0.51100000000E-03 0.  1.
    9900012    2    1    2    0    0 -0.29343277003E+02  0.12392718264E+02  0.14538092298E+01  0.59301938272E+02  0.49999989503E+02 0.  0.
        -12    1    1    2    0    0  0.29343277003E+02 -0.12392718264E+02 -0.14538092298E+01  0.31886061728E+02  0.00000000000E+00 0.  1.
         11    1    3    3    0    0 -0.25578226313E+02  0.14572936145E+02  0.13513306489E+02  0.32391751755E+02  0.51100000000E-03 0. -1.
        -11    1    3    3    0    0  0.40708361993E+01 -0.74020817769E+01  0.31549035050E+01  0.90175350502E+01  0.51100000000E-03 0.  1.
        -12    1    3    3    0    0 -0.78358868890E+01  0.52218638955E+01 -0.15214400764E+02  0.17892651466E+02  0.00000000000E+00 0.  1.
</event>
<event>
 7    1  0.7383168E-013  0.5930196E+02  0.7816164E-02  0.1266605E+00
        -11   -1    0    0    0    0  0.00000000000E+00  0.00000000000E+00  0.45593999997E+02  0.45594000000E+02  0.51100000000E-03 0.  1.
         11   -1    0    0    0    0 -0.00000000000E+00 -0.00000000000E+00 -0.45593999997E+02  0.45594000000E+02  0.51100000000E-03 0. -1.
    9900012    2    1    2    0    0 -0.26249594829E+02  0.12601573671E+02 -0.12995338958E+02  0.59301957249E+02  0.50000024112E+02 0.  0.
        -12    1    1    2    0    0  0.26249594829E+02 -0.12601573671E+02  0.12995338958E+02  0.31886042751E+02  0.00000000000E+00 0.  1.
         11    1    3    3    0    0 -0.15123376883E+02  0.13284973487E+02  0.95940592874E+00  0.20152605512E+02  0.51100000000E-03 0. -1.
        -11    1    3    3    0    0 -0.40062603886E+01  0.16827496782E+02 -0.38740645346E+01  0.17726340472E+02  0.51100000000E-03 0.  1.
        -12    1    3    3    0    0 -0.71199575571E+01 -0.17510896598E+02 -0.10080680352E+02  0.21423011265E+02  0.00000000000E+00 0.  1.
</event>
<event>
 7    1  0.7383168E-013  0.5930192E+02  0.7816164E-02  0.1266605E+00
        -11   -1    0    0    0    0  0.00000000000E+00  0.00000000000E+00  0.45593999997E+02  0.45594000000E+02  0.51100000000E-03 0. -1.
         11   -1    0    0    0    0 -0.00000000000E+00 -0.00000000000E+00 -0.45593999997E+02  0.45594000000E+02  0.51100000000E-03 0.  1.
    9900012    2    1    2    0    0 -0.19288939132E+02 -0.94408221053E+01  0.23569678490E+02  0.59301920921E+02  0.49999957859E+02 0.  0.
        -12    1    1    2    0    0  0.19288939132E+02  0.94408221053E+01 -0.23569678490E+02  0.31886079079E+02  0.00000000000E+00 0.  1.
         11    1    3    3    0    0  0.26343499694E+01 -0.11834444950E+02  0.29875923565E+02  0.32242281187E+02  0.51100000000E-03 0. -1.
        -11    1    3    3    0    0 -0.13572870905E+02 -0.18028716752E+01  0.28396235496E+01  0.13983441388E+02  0.51100000000E-03 0.  1.
        -12    1    3    3    0    0 -0.83504181969E+01  0.41964945196E+01 -0.91458686240E+01  0.13076198347E+02  0.00000000000E+00 0.  1.
</event>
<event>
 7    1  0.7383168E-013  0.5930196E+02  0.7816164E-02  0.1266605E+00
        -11   -1    0    0    0    0  0.00000000000E+00  0.00000000000E+00  0.45593999997E+02  0.45594000000E+02  0.51100000000E-03 0.  1.
         11   -1    0    0    0    0 -0.00000000000E+00 -0.00000000000E+00 -0.45593999997E+02  0.45594000000E+02  0.51100000000E-03 0. -1.
    9900012    2    1    2    0    0  0.85688665019E+01  0.26014642769E+02 -0.16325819151E+02  0.59301961010E+02  0.50000030971E+02 0.  0.
        -12    1    1    2    0    0 -0.85688665019E+01 -0.26014642769E+02  0.16325819151E+02  0.31886038990E+02  0.00000000000E+00 0.  1.
         11    1    3    3    0    0  0.14700666368E+02  0.30048165741E+02 -0.58087432025E+01  0.33952074369E+02  0.51100000000E-03 0. -1.
        -11    1    3    3    0    0 -0.59208212504E+01  0.79736801353E+01 -0.87017519171E+01  0.13204400246E+02  0.51100000000E-03 0.  1.
        -12    1    3    3    0    0 -0.21097861572E+00 -0.12007203107E+02 -0.18153240311E+01  0.12145486395E+02  0.00000000000E+00 0.  1.
</event>
<event>
 7    1  0.7383168E-013  0.5930194E+02  0.7816164E-02  0.1266605E+00
        -11   -1    0    0    0    0  0.00000000000E+00  0.00000000000E+00  0.45593999997E+02  0.45594000000E+02  0.51100000000E-03 0.  1.
         11   -1    0    0    0    0 -0.00000000000E+00 -0.00000000000E+00 -0.45593999997E+02  0.45594000000E+02  0.51100000000E-03 0. -1.
    9900012    2    1    2    0    0  0.21580084446E+02  0.23312071867E+02  0.27510181558E+01  0.59301939718E+02  0.49999992140E+02 0.  0.
        -12    1    1    2    0    0 -0.21580084446E+02 -0.23312071867E+02 -0.27510181558E+01  0.31886060282E+02  0.00000000000E+00 0.  1.
         11    1    3    3    0    0  0.16164218220E+02  0.11690795509E+02 -0.99086710731E+01  0.22274164698E+02  0.51100000000E-03 0. -1.
        -11    1    3    3    0    0 -0.53850880826E+01 -0.50146269944E+01 -0.62269070405E+01  0.96395035713E+01  0.51100000000E-03 0.  1.
         12    1    3    3    0    0  0.10800954309E+02  0.16635903352E+02  0.18886596269E+02  0.27388271449E+02  0.00000000000E+00 0. -1.
</event>
<event>
 7    1  0.7383168E-013  0.5930194E+02  0.7816164E-02  0.1266605E+00
        -11   -1    0    0    0    0  0.00000000000E+00  0.00000000000E+00  0.45593999997E+02  0.45594000000E+02  0.51100000000E-03 0. -1.
         11   -1    0    0    0    0 -0.00000000000E+00 -0.00000000000E+00 -0.45593999997E+02  0.45594000000E+02  0.51100000000E-03 0.  1.
    9900012    2    1    2    0    0  0.22036175295E+02  0.10153538137E+02 -0.20688962753E+02  0.59301944457E+02  0.50000000782E+02 0.  0.
        -12    1    1    2    0    0 -0.22036175295E+02 -0.10153538137E+02  0.20688962753E+02  0.31886055543E+02  0.00000000000E+00 0.  1.
         11    1    3    3    0    0  0.23409614114E+01  0.11622599871E+02  0.47944339939E+01  0.12788726507E+02  0.51100000000E-03 0. -1.
        -11    1    3    3    0    0 -0.28692726497E+01  0.89379644328E+01  0.18556318052E+01  0.95688715844E+01  0.51100000000E-03 0.  1.
         12    1    3    3    0    0  0.22564486533E+02 -0.10407026168E+02 -0.27339028552E+02  0.36944346365E+02  0.00000000000E+00 0. -1.
</event>
<event>
 7    1  0.7383168E-013  0.5930198E+02  0.7816164E-02  0.1266605E+00
        -11   -1    0    0    0    0  0.00000000000E+00  0.00000000000E+00  0.45593999997E+02  0.45594000000E+02  0.51100000000E-03 0.  1.
         11   -1    0    0    0    0 -0.00000000000E+00 -0.00000000000E+00 -0.45593999997E+02  0.45594000000E+02  0.51100000000E-03 0. -1.
    9900012    2    1    2    0    0 -0.18978322820E+02 -0.16951762330E+01 -0.25566935057E+02  0.59301975981E+02  0.50000058275E+02 0.  0.
        -12    1    1    2    0    0  0.18978322820E+02  0.16951762330E+01  0.25566935057E+02  0.31886024019E+02  0.00000000000E+00 0.  1.
         11    1    3    3    0    0 -0.47908764505E+01  0.18215167541E+01  0.89732035220E+01  0.10333866757E+02  0.51100000000E-03 0. -1.
        -11    1    3    3    0    0 -0.18047661702E+02  0.69361519343E+01 -0.94617297325E+01  0.21525627200E+02  0.51100000000E-03 0.  1.
         12    1    3    3    0    0  0.38602153319E+01 -0.10452844921E+02 -0.25078408847E+02  0.27442482024E+02  0.00000000000E+00 0. -1.
</event>
<event>
 7    1  0.7383168E-013  0.5930194E+02  0.7816164E-02  0.1266605E+00
        -11   -1    0    0    0    0  0.00000000000E+00  0.00000000000E+00  0.45593999997E+02  0.45594000000E+02  0.51100000000E-03 0.  1.
         11   -1    0    0    0    0 -0.00000000000E+00 -0.00000000000E+00 -0.45593999997E+02  0.45594000000E+02  0.51100000000E-03 0. -1.
    9900012    2    1    2    0    0 -0.20111961572E+02  0.55306853522E+01 -0.24117236904E+02  0.59301943571E+02  0.49999999166E+02 0.  0.
        -12    1    1    2    0    0  0.20111961572E+02 -0.55306853522E+01  0.24117236904E+02  0.31886056429E+02  0.00000000000E+00 0.  1.
         11    1    3    3    0    0 -0.68969044697E+01  0.71340683770E+01 -0.32719409754E+01  0.10448340580E+02  0.51100000000E-03 0. -1.
        -11    1    3    3    0    0  0.68040675977E+00  0.13903618628E+02 -0.24048509979E+02  0.27786766577E+02  0.51100000000E-03 0.  1.
        -12    1    3    3    0    0 -0.13895463862E+02 -0.15507001653E+02  0.32032140507E+01  0.21066836414E+02  0.00000000000E+00 0.  1.
</event>
<event>
 7    1  0.7383168E-013  0.5930195E+02  0.7816164E-02  0.1266605E+00
        -11   -1    0    0    0    0  0.00000000000E+00  0.00000000000E+00  0.45593999997E+02  0.45594000000E+02  0.51100000000E-03 0. -1.
         11   -1    0    0    0    0 -0.00000000000E+00 -0.00000000000E+00 -0.45593999997E+02  0.45594000000E+02  0.51100000000E-03 0.  1.
    9900012    2    1    2    0    0 -0.25830493895E+02  0.94340442154E+00 -0.18671252254E+02  0.59301951523E+02  0.50000013669E+02 0.  0.
        -12    1    1    2    0    0  0.25830493895E+02 -0.94340442154E+00  0.18671252254E+02  0.31886048477E+02  0.00000000000E+00 0.  1.
         11    1    3    3    0    0 -0.18539351121E+02  0.98337104409E+01 -0.24713505210E+01  0.21130948268E+02  0.51100000000E-03 0. -1.
        -11    1    3    3    0    0 -0.16139902696E+02  0.60092717265E+01 -0.75845850560E+01  0.18818441393E+02  0.51100000000E-03 0.  1.
        -12    1    3    3    0    0  0.88487599225E+01 -0.14899577746E+02 -0.86153166771E+01  0.19352561862E+02  0.00000000000E+00 0.  1.
</event>
<event>
 7    1  0.7383168E-013  0.5930199E+02  0.7816164E-02  0.1266605E+00
        -11   -1    0    0    0    0  0.00000000000E+00  0.00000000000E+00  0.45593999997E+02  0.45594000000E+02  0.51100000000E-03 0. -1.
         11   -1    0    0    0    0 -0.00000000000E+00 -0.00000000000E+00 -0.45593999997E+02  0.45594000000E+02  0.51100000000E-03 0.  1.
    9900012    2    1    2    0    0  0.44116755167E+00 -0.26645609482E+02  0.17508124845E+02  0.59301991014E+02  0.50000085691E+02 0.  0.
        -12    1    1    2    0    0 -0.44116755167E+00  0.26645609482E+02 -0.17508124845E+02  0.31886008986E+02  0.00000000000E+00 0.  1.
         11    1    3    3    0    0 -0.86574725549E+01 -0.67834761252E+01  0.13384117562E+02  0.17323451809E+02  0.51100000000E-03 0. -1.
        -11    1    3    3    0    0 -0.96224412158E+01 -0.16734482173E+02 -0.63229457791E+01  0.20312900141E+02  0.51100000000E-03 0.  1.
        -12    1    3    3    0    0  0.18721081322E+02 -0.31276511841E+01  0.10446953062E+02  0.21665639065E+02  0.00000000000E+00 0.  1.
</event>
<event>
 7    1  0.7383168E-013  0.5930198E+02  0.7816164E-02  0.1266605E+00
        -11   -1    0    0    0    0  0.00000000000E+00  0.00000000000E+00  0.45593999997E+02  0.45594000000E+02  0.51100000000E-03 0.  1.
         11   -1    0    0    0    0 -0.00000000000E+00 -0.00000000000E+00 -0.45593999997E+02  0.45594000000E+02  0.51100000000E-03 0. -1.
    9900012    2    1    2    0    0  0.31873076175E+02  0.67498683152E+00  0.60824008666E+00  0.59301975662E+02  0.50000057693E+02 0.  0.
        -12    1    1    2    0    0 -0.31873076175E+02 -0.67498683152E+00 -0.60824008666E+00  0.31886024338E+02  0.00000000000E+00 0.  1.
         11    1    3    3    0    0 -0.46998331374E+00 -0.17166736547E+02  0.20521324645E+01  0.17295345498E+02  0.51100000000E-03 0. -1.
        -11    1    3    3    0    0  0.18355242735E+02  0.16856862837E+01  0.59887582039E+01  0.19380962288E+02  0.51100000000E-03 0.  1.
        -12    1    3    3    0    0  0.13987816754E+02  0.16156037095E+02 -0.74326505818E+01  0.22625667876E+02  0.00000000000E+00 0.  1.
</event>
<event>
 7    1  0.7383168E-013  0.5930195E+02  0.7816164E-02  0.1266605E+00
        -11   -1    0    0    0    0  0.00000000000E+00  0.00000000000E+00  0.45593999997E+02  0.45594000000E+02  0.51100000000E-03 0.  1.
         11   -1    0    0    0    0 -0.00000000000E+00 -0.00000000000E+00 -0.45593999997E+02  0.45594000000E+02  0.51100000000E-03 0. -1.
    9900012    2    1    2    0    0 -0.88458926910E+01 -0.85250626906E+01 -0.29424373002E+02  0.59301949163E+02  0.50000009366E+02 0.  0.
        -12    1    1    2    0    0  0.88458926910E+01  0.85250626906E+01  0.29424373002E+02  0.31886050837E+02  0.00000000000E+00 0.  1.
         11    1    3    3    0    0 -0.10442386393E+02  0.90439889028E+01 -0.24828152914E+02  0.28412573735E+02  0.51100000000E-03 0. -1.
        -11    1    3    3    0    0 -0.71029956710E+00  0.30134171972E+01 -0.91704219800E+01  0.96789383835E+01  0.51100000000E-03 0.  1.
        -12    1    3    3    0    0  0.23067932688E+01 -0.20582468791E+02  0.45742018914E+01  0.21210437045E+02  0.00000000000E+00 0.  1.
</event>
<event>
 7    1  0.7383168E-013  0.5930197E+02  0.7816164E-02  0.1266605E+00
        -11   -1    0    0    0    0  0.00000000000E+00  0.00000000000E+00  0.45593999997E+02  0.45594000000E+02  0.51100000000E-03 0.  1.
         11   -1    0    0    0    0 -0.00000000000E+00 -0.00000000000E+00 -0.45593999997E+02  0.45594000000E+02  0.51100000000E-03 0. -1.
    9900012    2    1    2    0    0  0.23885047806E+02 -0.21058442970E+02  0.16630194010E+01  0.59301966027E+02  0.50000040121E+02 0.  0.
        -12    1    1    2    0    0 -0.23885047806E+02  0.21058442970E+02 -0.16630194010E+01  0.31886033973E+02  0.00000000000E+00 0.  1.
         11    1    3    3    0    0  0.90235880412E+01  0.93048985688E+01  0.24317656516E+00  0.12964004536E+02  0.51100000000E-03 0. -1.
        -11    1    3    3    0    0  0.21142017644E+02 -0.24441751102E+02 -0.82726180685E+01  0.33358961569E+02  0.51100000000E-03 0.  1.
         12    1    3    3    0    0 -0.62805578793E+01 -0.59215904362E+01  0.96924609044E+01  0.12978999921E+02  0.00000000000E+00 0. -1.
</event>
<event>
 7    1  0.7383168E-013  0.5930183E+02  0.7816164E-02  0.1266605E+00
        -11   -1    0    0    0    0  0.00000000000E+00  0.00000000000E+00  0.45593999997E+02  0.45594000000E+02  0.51100000000E-03 0.  1.
         11   -1    0    0    0    0 -0.00000000000E+00 -0.00000000000E+00 -0.45593999997E+02  0.45594000000E+02  0.51100000000E-03 0. -1.
    9900012    2    1    2    0    0  0.15894151663E+02  0.22199216293E+01 -0.27553144628E+02  0.59301829204E+02  0.49999790589E+02 0.  0.
        -12    1    1    2    0    0 -0.15894151663E+02 -0.22199216293E+01  0.27553144628E+02  0.31886170796E+02  0.00000000000E+00 0.  1.
         11    1    3    3    0    0 -0.42592236351E+01 -0.42544607723E+01  0.32297170844E+01  0.68317270982E+01  0.51100000000E-03 0. -1.
        -11    1    3    3    0    0  0.21328667213E+02  0.34795945803E+01 -0.91747159068E-01  0.21610831574E+02  0.51100000000E-03 0.  1.
         12    1    3    3    0    0 -0.11752919153E+01  0.29947878213E+01 -0.30691114554E+02  0.30859270532E+02  0.00000000000E+00 0. -1.
</event>
<event>
 7    1  0.7383168E-013  0.5930195E+02  0.7816164E-02  0.1266605E+00
        -11   -1    0    0    0    0  0.00000000000E+00  0.00000000000E+00  0.45593999997E+02  0.45594000000E+02  0.51100000000E-03 0.  1.
         11   -1    0    0    0    0 -0.00000000000E+00 -0.00000000000E+00 -0.45593999997E+02  0.45594000000E+02  0.51100000000E-03 0. -1.
    9900012    2    1    2    0    0  0.21216557208E+02 -0.23435909876E+02 -0.41636808662E+01  0.59301946468E+02  0.50000004451E+02 0.  0.
        -12    1    1    2    0    0 -0.21216557208E+02  0.23435909876E+02  0.41636808662E+01  0.31886053532E+02  0.00000000000E+00 0.  1.
         11    1    3    3    0    0  0.19652792733E+02 -0.85575897688E+01 -0.11713648641E+02  0.24426914860E+02  0.51100000000E-03 0. -1.
        -11    1    3    3    0    0 -0.32398617933E+01 -0.17615749747E+02 -0.70611574025E+01  0.19252825448E+02  0.51100000000E-03 0.  1.
        -12    1    3    3    0    0  0.48036262688E+01  0.27374296396E+01  0.14611125178E+02  0.15622206160E+02  0.00000000000E+00 0.  1.
</event>
<event>
 7    1  0.7383168E-013  0.5930191E+02  0.7816164E-02  0.1266605E+00
        -11   -1    0    0    0    0  0.00000000000E+00  0.00000000000E+00  0.45593999997E+02  0.45594000000E+02  0.51100000000E-03 0. -1.
         11   -1    0    0    0    0 -0.00000000000E+00 -0.00000000000E+00 -0.45593999997E+02  0.45594000000E+02  0.51100000000E-03 0.  1.
    9900012    2    1    2    0    0  0.25817702792E+02  0.15717475002E+02 -0.10155285069E+02  0.59301911925E+02  0.49999941453E+02 0.  0.
        -12    1    1    2    0    0 -0.25817702792E+02 -0.15717475002E+02  0.10155285069E+02  0.31886088075E+02  0.00000000000E+00 0.  1.
         11    1    3    3    0    0 -0.37615533755E+01  0.68687482434E+01  0.12090956078E+02  0.14405561613E+02  0.51100000000E-03 0. -1.
        -11    1    3    3    0    0  0.52970112705E-01  0.56440888917E+01  0.25619675806E+01  0.61985662371E+01  0.51100000000E-03 0.  1.
        -12    1    3    3    0    0  0.29526286055E+02  0.32046378670E+01 -0.24808208728E+02  0.38697784075E+02  0.00000000000E+00 0.  1.
</event>
<event>
 7    1  0.7383168E-013  0.5930198E+02  0.7816164E-02  0.1266605E+00
        -11   -1    0    0    0    0  0.00000000000E+00  0.00000000000E+00  0.45593999997E+02  0.45594000000E+02  0.51100000000E-03 0. -1.
         11   -1    0    0    0    0 -0.00000000000E+00 -0.00000000000E+00 -0.45593999997E+02  0.45594000000E+02  0.51100000000E-03 0.  1.
    9900012    2    1    2    0    0 -0.50648697290E+01 -0.27156268686E+02  0.15924898583E+02  0.59301980662E+02  0.50000066813E+02 0.  0.
        -12    1    1    2    0    0  0.50648697290E+01  0.27156268686E+02 -0.15924898583E+02  0.31886019338E+02  0.00000000000E+00 0.  1.
         11    1    3    3    0    0 -0.14107043816E+02 -0.51371719274E+01  0.66049327793E+01  0.16401962014E+02  0.51100000000E-03 0. -1.
        -11    1    3    3    0    0  0.22722014693E+01 -0.30590214171E+02  0.46652014473E+01  0.31027217203E+02  0.51100000000E-03 0.  1.
        -12    1    3    3    0    0  0.67699726174E+01  0.85711174128E+01  0.46547643562E+01  0.11872801445E+02  0.00000000000E+00 0.  1.
</event>
<event>
 7    1  0.7383168E-013  0.5930195E+02  0.7816164E-02  0.1266605E+00
        -11   -1    0    0    0    0  0.00000000000E+00  0.00000000000E+00  0.45593999997E+02  0.45594000000E+02  0.51100000000E-03 0. -1.
         11   -1    0    0    0    0 -0.00000000000E+00 -0.00000000000E+00 -0.45593999997E+02  0.45594000000E+02  0.51100000000E-03 0.  1.
    9900012    2    1    2    0    0  0.19362462149E+01 -0.31483802320E+02 -0.46627382714E+01  0.59301953113E+02  0.50000016569E+02 0.  0.
        -12    1    1    2    0    0 -0.19362462149E+01  0.31483802320E+02  0.46627382714E+01  0.31886046887E+02  0.00000000000E+00 0.  1.
         11    1    3    3    0    0  0.35643578392E+00  0.93635005717E+01 -0.36009499231E+00  0.93771988402E+01  0.51100000000E-03 0. -1.
        -11    1    3    3    0    0  0.45128210419E+01 -0.30035082267E+02 -0.15488478242E+02  0.34093469742E+02  0.51100000000E-03 0.  1.
         12    1    3    3    0    0 -0.29330106109E+01 -0.10812220624E+02  0.11185834963E+02  0.15831284530E+02  0.00000000000E+00 0. -1.
</event>
<event>
 7    1  0.7383168E-013  0.5930195E+02  0.7816164E-02  0.1266605E+00
        -11   -1    0    0    0    0  0.00000000000E+00  0.00000000000E+00  0.45593999997E+02  0.45594000000E+02  0.51100000000E-03 0. -1.
         11   -1    0    0    0    0 -0.00000000000E+00 -0.00000000000E+00 -0.45593999997E+02  0.45594000000E+02  0.51100000000E-03 0.  1.
    9900012    2    1    2    0    0  0.11042702990E+02  0.22211230992E+02  0.20035968795E+02  0.59301951059E+02  0.50000012823E+02 0.  0.
        -12    1    1    2    0    0 -0.11042702990E+02 -0.22211230992E+02 -0.20035968795E+02  0.31886048941E+02  0.00000000000E+00 0.  1.
         11    1    3    3    0    0  0.14364216404E+02  0.18033501644E+02 -0.21419829761E+01  0.23154394524E+02  0.51100000000E-03 0. -1.
        -11    1    3    3    0    0  0.10613657368E+01  0.12518356496E+02  0.57170721220E+00  0.12576271148E+02  0.51100000000E-03 0.  1.
        -12    1    3    3    0    0 -0.43828791511E+01 -0.83406271475E+01  0.21606244559E+02  0.23571285387E+02  0.00000000000E+00 0.  1.
</event>
<event>
 7    1  0.7383168E-013  0.5930197E+02  0.7816164E-02  0.1266605E+00
        -11   -1    0    0    0    0  0.00000000000E+00  0.00000000000E+00  0.45593999997E+02  0.45594000000E+02  0.51100000000E-03 0.  1.
         11   -1    0    0    0    0 -0.00000000000E+00 -0.00000000000E+00 -0.45593999997E+02  0.45594000000E+02  0.51100000000E-03 0. -1.
    9900012    2    1    2    0    0 -0.24852761973E+02  0.33644808743E+01 -0.19691093795E+02  0.59301973530E+02  0.50000053804E+02 0.  0.
        -12    1    1    2    0    0  0.24852761973E+02 -0.33644808743E+01  0.19691093795E+02  0.31886026470E+02  0.00000000000E+00 0.  1.
         11    1    3    3    0    0 -0.89852125729E+01  0.98500714206E+00 -0.34665367094E+02  0.35824460360E+02  0.51100000000E-03 0. -1.
        -11    1    3    3    0    0 -0.88080156494E+01  0.23137035548E+01  0.30205551957E+01  0.95946921666E+01  0.51100000000E-03 0.  1.
        -12    1    3    3    0    0 -0.70595337505E+01  0.65770177437E-01  0.11953718104E+02  0.13882821003E+02  0.00000000000E+00 0.  1.
</event>
<event>
 7    1  0.7383168E-013  0.5930193E+02  0.7816164E-02  0.1266605E+00
        -11   -1    0    0    0    0  0.00000000000E+00  0.00000000000E+00  0.45593999997E+02  0.45594000000E+02  0.51100000000E-03 0. -1.
         11   -1    0    0    0    0 -0.00000000000E+00 -0.00000000000E+00 -0.45593999997E+02  0.45594000000E+02  0.51100000000E-03 0.  1.
    9900012    2    1    2    0    0  0.31103007516E+02 -0.44337580687E+01  0.54466644474E+01  0.59301930302E+02  0.49999974968E+02 0.  0.
        -12    1    1    2    0    0 -0.31103007516E+02  0.44337580687E+01 -0.54466644474E+01  0.31886069698E+02  0.00000000000E+00 0.  1.
         11    1    3    3    0    0  0.27154629049E+02  0.69686690342E+01  0.67170127233E+01  0.28828015664E+02  0.51100000000E-03 0. -1.
        -11    1    3    3    0    0  0.40662249401E+01 -0.35423458643E+01 -0.14285224789E+02  0.15269251685E+02  0.51100000000E-03 0.  1.
        -12    1    3    3    0    0 -0.11784647340E+00 -0.78600812385E+01  0.13014876513E+02  0.15204662953E+02  0.00000000000E+00 0.  1.
</event>
<event>
 7    1  0.7383168E-013  0.5930195E+02  0.7816164E-02  0.1266605E+00
        -11   -1    0    0    0    0  0.00000000000E+00  0.00000000000E+00  0.45593999997E+02  0.45594000000E+02  0.51100000000E-03 0.  1.
         11   -1    0    0    0    0 -0.00000000000E+00 -0.00000000000E+00 -0.45593999997E+02  0.45594000000E+02  0.51100000000E-03 0. -1.
    9900012    2    1    2    0    0  0.13349988877E+02  0.21332237863E+02 -0.19581465415E+02  0.59301947202E+02  0.50000005789E+02 0.  0.
        -12    1    1    2    0    0 -0.13349988877E+02 -0.21332237863E+02  0.19581465415E+02  0.31886052798E+02  0.00000000000E+00 0.  1.
         11    1    3    3    0    0  0.97772924074E+01 -0.14017510353E+01 -0.70554968769E+01  0.12138384951E+02  0.51100000000E-03 0. -1.
        -11    1    3    3    0    0  0.62431858174E+01 -0.92130048147E+01 -0.10074185518E+02  0.15011530268E+02  0.51100000000E-03 0.  1.
        -12    1    3    3    0    0 -0.26704893476E+01  0.31946993713E+02 -0.24517830192E+01  0.32152031983E+02  0.00000000000E+00 0.  1.
</event>
<event>
 7    1  0.7383168E-013  0.5930195E+02  0.7816164E-02  0.1266605E+00
        -11   -1    0    0    0    0  0.00000000000E+00  0.00000000000E+00  0.45593999997E+02  0.45594000000E+02  0.51100000000E-03 0.  1.
         11   -1    0    0    0    0 -0.00000000000E+00 -0.00000000000E+00 -0.45593999997E+02  0.45594000000E+02  0.51100000000E-03 0. -1.
    9900012    2    1    2    0    0 -0.15483490397E+02  0.17108527160E+02 -0.22006360811E+02  0.59301951442E+02  0.50000013522E+02 0.  0.
        -12    1    1    2    0    0  0.15483490397E+02 -0.17108527160E+02  0.22006360811E+02  0.31886048558E+02  0.00000000000E+00 0.  1.
         11    1    3    3    0    0 -0.15990969443E+02  0.57300815478E+01 -0.80607315373E+01  0.18802136354E+02  0.51100000000E-03 0. -1.
        -11    1    3    3    0    0 -0.17687029910E+02  0.59867498272E+01 -0.40855299736E+01  0.19114490733E+02  0.51100000000E-03 0.  1.
         12    1    3    3    0    0  0.18194508956E+02  0.53916957852E+01 -0.98600993003E+01  0.21385324356E+02  0.00000000000E+00 0. -1.
</event>
<event>
 7    1  0.7383168E-013  0.5930194E+02  0.7816164E-02  0.1266605E+00
        -11   -1    0    0    0    0  0.00000000000E+00  0.00000000000E+00  0.45593999997E+02  0.45594000000E+02  0.51100000000E-03 0. -1.
         11   -1    0    0    0    0 -0.00000000000E+00 -0.00000000000E+00 -0.45593999997E+02  0.45594000000E+02  0.51100000000E-03 0.  1.
    9900012    2    1    2    0    0  0.28418360648E+02  0.33557370217E+01  0.14066153569E+02  0.59301939266E+02  0.49999991316E+02 0.  0.
        -12    1    1    2    0    0 -0.28418360648E+02 -0.33557370217E+01 -0.14066153569E+02  0.31886060734E+02  0.00000000000E+00 0.  1.
         11    1    3    3    0    0 -0.60218256099E+01  0.36198119736E-01  0.44870249727E+01  0.75097994212E+01  0.51100000000E-03 0. -1.
        -11    1    3    3    0    0 -0.33343751203E+01  0.34096796514E+01 -0.86281875569E+01  0.98584782571E+01  0.51100000000E-03 0.  1.
        -12    1    3    3    0    0  0.37774561378E+02 -0.90140749385E-01  0.18207316153E+02  0.41933661588E+02  0.00000000000E+00 0.  1.
</event>
<event>
 7    1  0.7383168E-013  0.5930189E+02  0.7816164E-02  0.1266605E+00
        -11   -1    0    0    0    0  0.00000000000E+00  0.00000000000E+00  0.45593999997E+02  0.45594000000E+02  0.51100000000E-03 0. -1.
         11   -1    0    0    0    0 -0.00000000000E+00 -0.00000000000E+00 -0.45593999997E+02  0.45594000000E+02  0.51100000000E-03 0.  1.
    9900012    2    1    2    0    0 -0.61092188721E+01 -0.31293263633E+02 -0.36490564753E+00  0.59301889228E+02  0.49999900058E+02 0.  0.
        -12    1    1    2    0    0  0.61092188721E+01  0.31293263633E+02  0.36490564753E+00  0.31886110772E+02  0.00000000000E+00 0.  1.
         11    1    3    3    0    0 -0.50604793125E+01  0.46981891961E+01  0.88594906702E+01  0.11232631383E+02  0.51100000000E-03 0. -1.
        -11    1    3    3    0    0 -0.20189116936E+01  0.54001115684E+01 -0.84262242415E+00  0.58264244772E+01  0.51100000000E-03 0.  1.
        -12    1    3    3    0    0  0.97017213396E+00 -0.41391564398E+02 -0.83817738936E+01  0.42242833367E+02  0.00000000000E+00 0.  1.
</event>
<event>
 7    1  0.7383168E-013  0.5930195E+02  0.7816164E-02  0.1266605E+00
        -11   -1    0    0    0    0  0.00000000000E+00  0.00000000000E+00  0.45593999997E+02  0.45594000000E+02  0.51100000000E-03 0.  1.
         11   -1    0    0    0    0 -0.00000000000E+00 -0.00000000000E+00 -0.45593999997E+02  0.45594000000E+02  0.51100000000E-03 0. -1.
    9900012    2    1    2    0    0 -0.17204713000E+02  0.23951729619E+02  0.12125714706E+02  0.59301945709E+02  0.50000003066E+02 0.  0.
        -12    1    1    2    0    0  0.17204713000E+02 -0.23951729619E+02 -0.12125714706E+02  0.31886054291E+02  0.00000000000E+00 0.  1.
         11    1    3    3    0    0  0.17324323467E-01 -0.83027338219E+00 -0.11379816785E+02  0.11410078192E+02  0.51100000000E-03 0. -1.
        -11    1    3    3    0    0 -0.16831722936E+02  0.13318822494E+01  0.16014772714E+02  0.23271307498E+02  0.51100000000E-03 0.  1.
        -12    1    3    3    0    0 -0.39031438764E+00  0.23450120751E+02  0.74907587776E+01  0.24620560019E+02  0.00000000000E+00 0.  1.
</event>
<event>
 7    1  0.7383168E-013  0.5930194E+02  0.7816164E-02  0.1266605E+00
        -11   -1    0    0    0    0  0.00000000000E+00  0.00000000000E+00  0.45593999997E+02  0.45594000000E+02  0.51100000000E-03 0. -1.
         11   -1    0    0    0    0 -0.00000000000E+00 -0.00000000000E+00 -0.45593999997E+02  0.45594000000E+02  0.51100000000E-03 0.  1.
    9900012    2    1    2    0    0 -0.16792030981E+02 -0.23297250441E+02  0.13855934711E+02  0.59301935500E+02  0.49999984448E+02 0.  0.
        -12    1    1    2    0    0  0.16792030981E+02  0.23297250441E+02 -0.13855934711E+02  0.31886064500E+02  0.00000000000E+00 0.  1.
         11    1    3    3    0    0  0.70835217684E+00 -0.91076635543E-01  0.69833036015E+01  0.70197284286E+01  0.51100000000E-03 0. -1.
        -11    1    3    3    0    0 -0.10227268855E+02  0.11580360270E+02 -0.21944929392E+01  0.15605049559E+02  0.51100000000E-03 0.  1.
         12    1    3    3    0    0 -0.72731143022E+01 -0.34786534076E+02  0.90671240487E+01  0.36677157512E+02  0.00000000000E+00 0. -1.
</event>
<event>
 7    1  0.7383168E-013  0.5930217E+02  0.7816164E-02  0.1266604E+00
        -11   -1    0    0    0    0  0.00000000000E+00  0.00000000000E+00  0.45593999997E+02  0.45594000000E+02  0.51100000000E-03 0. -1.
         11   -1    0    0    0    0 -0.00000000000E+00 -0.00000000000E+00 -0.45593999997E+02  0.45594000000E+02  0.51100000000E-03 0.  1.
    9900012    2    1    2    0    0  0.30872124941E+02 -0.73104449341E+01 -0.31898759120E+01  0.59302172241E+02  0.50000416205E+02 0.  0.
        -12    1    1    2    0    0 -0.30872124941E+02  0.73104449341E+01  0.31898759120E+01  0.31885827759E+02  0.00000000000E+00 0.  1.
         11    1    3    3    0    0 -0.53731064375E+01 -0.33350675434E+01 -0.10898456379E+02  0.12600369043E+02  0.51100000000E-03 0. -1.
        -11    1    3    3    0    0 -0.75981751307E+00  0.16351323469E+01 -0.64409410700E+01  0.66885501100E+01  0.51100000000E-03 0.  1.
         12    1    3    3    0    0  0.37005048892E+02 -0.56105097377E+01  0.14149521537E+02  0.40013253089E+02  0.00000000000E+00 0. -1.
</event>
<event>
 7    1  0.7383168E-013  0.5930197E+02  0.7816164E-02  0.1266605E+00
        -11   -1    0    0    0    0  0.00000000000E+00  0.00000000000E+00  0.45593999997E+02  0.45594000000E+02  0.51100000000E-03 0. -1.
         11   -1    0    0    0    0 -0.00000000000E+00 -0.00000000000E+00 -0.45593999997E+02  0.45594000000E+02  0.51100000000E-03 0.  1.
    9900012    2    1    2    0    0  0.89714941578E+01  0.29989637062E+02 -0.60706602975E+01  0.59301969282E+02  0.50000046057E+02 0.  0.
        -12    1    1    2    0    0 -0.89714941578E+01 -0.29989637062E+02  0.60706602975E+01  0.31886030718E+02  0.00000000000E+00 0.  1.
         11    1    3    3    0    0  0.14286937480E+02 -0.79986377969E+01  0.22233203942E+01  0.16523859810E+02  0.51100000000E-03 0. -1.
        -11    1    3    3    0    0  0.11450728433E+01 -0.95625383707E-01 -0.37042787115E+01  0.38784039325E+01  0.51100000000E-03 0.  1.
        -12    1    3    3    0    0 -0.64605161657E+01  0.38083900242E+02 -0.45897019802E+01  0.38899705540E+02  0.00000000000E+00 0.  1.
</event>
<event>
 7    1  0.7383168E-013  0.5930195E+02  0.7816164E-02  0.1266605E+00
        -11   -1    0    0    0    0  0.00000000000E+00  0.00000000000E+00  0.45593999997E+02  0.45594000000E+02  0.51100000000E-03 0.  1.
         11   -1    0    0    0    0 -0.00000000000E+00 -0.00000000000E+00 -0.45593999997E+02  0.45594000000E+02  0.51100000000E-03 0. -1.
    9900012    2    1    2    0    0 -0.21489747560E+01  0.19813490692E+02 -0.24890317855E+02  0.59301946170E+02  0.50000003907E+02 0.  0.
        -12    1    1    2    0    0  0.21489747560E+01 -0.19813490692E+02  0.24890317855E+02  0.31886053830E+02  0.00000000000E+00 0.  1.
         11    1    3    3    0    0  0.12428647429E+02 -0.26881587452E+01 -0.25145383101E+02  0.28177788521E+02  0.51100000000E-03 0. -1.
        -11    1    3    3    0    0 -0.75298800798E+01  0.17582288279E+02 -0.64907768823E+01  0.20198171698E+02  0.51100000000E-03 0.  1.
        -12    1    3    3    0    0 -0.70477421054E+01  0.49193611587E+01  0.67458421281E+01  0.10925985951E+02  0.00000000000E+00 0.  1.
</event>
<event>
 7    1  0.7383168E-013  0.5930198E+02  0.7816164E-02  0.1266605E+00
        -11   -1    0    0    0    0  0.00000000000E+00  0.00000000000E+00  0.45593999997E+02  0.45594000000E+02  0.51100000000E-03 0.  1.
         11   -1    0    0    0    0 -0.00000000000E+00 -0.00000000000E+00 -0.45593999997E+02  0.45594000000E+02  0.51100000000E-03 0. -1.
    9900012    2    1    2    0    0  0.18712736484E+02 -0.10449004818E+02 -0.23608686067E+02  0.59301980082E+02  0.50000065753E+02 0.  0.
        -12    1    1    2    0    0 -0.18712736484E+02  0.10449004818E+02  0.23608686067E+02  0.31886019918E+02  0.00000000000E+00 0.  1.
         11    1    3    3    0    0  0.26002588433E+01 -0.14661934555E+02 -0.24387392167E+02  0.28574089100E+02  0.51100000000E-03 0. -1.
        -11    1    3    3    0    0  0.19059582697E+01  0.13569099142E+02  0.70669516016E-01  0.13702486012E+02  0.51100000000E-03 0.  1.
        -12    1    3    3    0    0  0.14206519371E+02 -0.93561694046E+01  0.70803658348E+00  0.17025404970E+02  0.00000000000E+00 0.  1.
</event>
<event>
 7    1  0.7383168E-013  0.5930194E+02  0.7816164E-02  0.1266605E+00
        -11   -1    0    0    0    0  0.00000000000E+00  0.00000000000E+00  0.45593999997E+02  0.45594000000E+02  0.51100000000E-03 0.  1.
         11   -1    0    0    0    0 -0.00000000000E+00 -0.00000000000E+00 -0.45593999997E+02  0.45594000000E+02  0.51100000000E-03 0. -1.
    9900012    2    1    2    0    0 -0.24732072979E+01  0.29398228576E+02 -0.12097450019E+02  0.59301938865E+02  0.49999990584E+02 0.  0.
        -12    1    1    2    0    0  0.24732072979E+01 -0.29398228576E+02  0.12097450019E+02  0.31886061135E+02  0.00000000000E+00 0.  1.
         11    1    3    3    0    0 -0.41050838745E+01  0.19850835465E+02 -0.14705501610E+02  0.25043145971E+02  0.51100000000E-03 0. -1.
        -11    1    3    3    0    0 -0.84919365157E+01  0.14438440405E+02 -0.82115189815E+01  0.18655041982E+02  0.51100000000E-03 0.  1.
        -12    1    3    3    0    0  0.10123813092E+02 -0.48910472937E+01  0.10819570572E+02  0.15603750912E+02  0.00000000000E+00 0.  1.
</event>
<event>
 7    1  0.7383168E-013  0.5930195E+02  0.7816164E-02  0.1266605E+00
        -11   -1    0    0    0    0  0.00000000000E+00  0.00000000000E+00  0.45593999997E+02  0.45594000000E+02  0.51100000000E-03 0. -1.
         11   -1    0    0    0    0 -0.00000000000E+00 -0.00000000000E+00 -0.45593999997E+02  0.45594000000E+02  0.51100000000E-03 0.  1.
    9900012    2    1    2    0    0  0.21715766113E+02  0.18449044096E+02 -0.14310079794E+02  0.59301951176E+02  0.50000013036E+02 0.  0.
        -12    1    1    2    0    0 -0.21715766113E+02 -0.18449044096E+02  0.14310079794E+02  0.31886048824E+02  0.00000000000E+00 0.  1.
         11    1    3    3    0    0 -0.54231310347E+01  0.21707910615E+02  0.54683518807E+01  0.23033597332E+02  0.51100000000E-03 0. -1.
        -11    1    3    3    0    0  0.13675779045E+02  0.39942418828E+01 -0.52759307260E+01  0.15192641179E+02  0.51100000000E-03 0.  1.
        -12    1    3    3    0    0  0.13463118103E+02 -0.72531084024E+01 -0.14502500949E+02  0.21075712665E+02  0.00000000000E+00 0.  1.
</event>
<event>
 7    1  0.7383168E-013  0.5930195E+02  0.7816164E-02  0.1266605E+00
        -11   -1    0    0    0    0  0.00000000000E+00  0.00000000000E+00  0.45593999997E+02  0.45594000000E+02  0.51100000000E-03 0.  1.
         11   -1    0    0    0    0 -0.00000000000E+00 -0.00000000000E+00 -0.45593999997E+02  0.45594000000E+02  0.51100000000E-03 0. -1.
    9900012    2    1    2    0    0 -0.31141604416E+02 -0.82275097130E+00  0.68002605836E+01  0.59301953071E+02  0.50000016493E+02 0.  0.
        -12    1    1    2    0    0  0.31141604416E+02  0.82275097130E+00 -0.68002605836E+01  0.31886046929E+02  0.00000000000E+00 0.  1.
         11    1    3    3    0    0 -0.25852893478E+01  0.77754256296E+00  0.70028304761E+01  0.75051934277E+01  0.51100000000E-03 0.  1.
        -11    1    3    3    0    0 -0.35274802826E+02 -0.11139879813E+02  0.75942706118E+01  0.37763495377E+02  0.51100000000E-03 0. -1.
         12    1    3    3    0    0  0.67184877582E+01  0.95395862790E+01 -0.77968405043E+01  0.14033264267E+02  0.00000000000E+00 0. -1.
</event>
<event>
 7    1  0.7383168E-013  0.5930193E+02  0.7816164E-02  0.1266605E+00
        -11   -1    0    0    0    0  0.00000000000E+00  0.00000000000E+00  0.45593999997E+02  0.45594000000E+02  0.51100000000E-03 0.  1.
         11   -1    0    0    0    0 -0.00000000000E+00 -0.00000000000E+00 -0.45593999997E+02  0.45594000000E+02  0.51100000000E-03 0. -1.
    9900012    2    1    2    0    0  0.75271749610E+01  0.19490232001E+02 -0.24087215544E+02  0.59301930016E+02  0.49999974446E+02 0.  0.
        -12    1    1    2    0    0 -0.75271749610E+01 -0.19490232001E+02  0.24087215544E+02  0.31886069984E+02  0.00000000000E+00 0.  1.
         11    1    3    3    0    0 -0.40077060859E+01  0.17620943477E+01 -0.19404432344E+02  0.19892176337E+02  0.51100000000E-03 0. -1.
        -11    1    3    3    0    0  0.22638154975E+02  0.92026994067E+01 -0.65171985688E+01  0.25291295231E+02  0.51100000000E-03 0.  1.
        -12    1    3    3    0    0 -0.11103273928E+02  0.85254382463E+01  0.18344153683E+01  0.14118458448E+02  0.00000000000E+00 0.  1.
</event>
<event>
 7    1  0.7383168E-013  0.5930193E+02  0.7816164E-02  0.1266605E+00
        -11   -1    0    0    0    0  0.00000000000E+00  0.00000000000E+00  0.45593999997E+02  0.45594000000E+02  0.51100000000E-03 0. -1.
         11   -1    0    0    0    0 -0.00000000000E+00 -0.00000000000E+00 -0.45593999997E+02  0.45594000000E+02  0.51100000000E-03 0.  1.
    9900012    2    1    2    0    0  0.81317664769E+01  0.40361980718E+00  0.30829094515E+02  0.59301927749E+02  0.49999970311E+02 0.  0.
        -12    1    1    2    0    0 -0.81317664769E+01 -0.40361980718E+00 -0.30829094515E+02  0.31886072251E+02  0.00000000000E+00 0.  1.
         11    1    3    3    0    0 -0.14008913882E+02 -0.11528947355E+01  0.11613644173E+02  0.18233364080E+02  0.51100000000E-03 0.  1.
        -11    1    3    3    0    0  0.56593777950E+01 -0.12449385805E+02  0.29081359668E+01  0.13981166583E+02  0.51100000000E-03 0. -1.
         12    1    3    3    0    0  0.16481302564E+02  0.14005900348E+02  0.16307314375E+02  0.27087397086E+02  0.00000000000E+00 0. -1.
</event>
<event>
 7    1  0.7383168E-013  0.5930194E+02  0.7816164E-02  0.1266605E+00
        -11   -1    0    0    0    0  0.00000000000E+00  0.00000000000E+00  0.45593999997E+02  0.45594000000E+02  0.51100000000E-03 0.  1.
         11   -1    0    0    0    0 -0.00000000000E+00 -0.00000000000E+00 -0.45593999997E+02  0.45594000000E+02  0.51100000000E-03 0. -1.
    9900012    2    1    2    0    0 -0.30981908541E+02  0.72267997263E+01 -0.21483265869E+01  0.59301943514E+02  0.49999999062E+02 0.  0.
        -12    1    1    2    0    0  0.30981908541E+02 -0.72267997263E+01  0.21483265869E+01  0.31886056486E+02  0.00000000000E+00 0.  1.
         11    1    3    3    0    0 -0.27088291638E+02  0.23772183450E+02  0.73954682247E+01  0.36791102190E+02  0.51100000000E-03 0. -1.
        -11    1    3    3    0    0 -0.13032161124E+00  0.17182703151E+01 -0.55740084642E+00  0.18111136250E+01  0.51100000000E-03 0.  1.
        -12    1    3    3    0    0 -0.37632952920E+01 -0.18263654039E+02 -0.89863939651E+01  0.20699727699E+02  0.00000000000E+00 0.  1.
</event>
<event>
 7    1  0.7383168E-013  0.5930196E+02  0.7816164E-02  0.1266605E+00
        -11   -1    0    0    0    0  0.00000000000E+00  0.00000000000E+00  0.45593999997E+02  0.45594000000E+02  0.51100000000E-03 0. -1.
         11   -1    0    0    0    0 -0.00000000000E+00 -0.00000000000E+00 -0.45593999997E+02  0.45594000000E+02  0.51100000000E-03 0.  1.
    9900012    2    1    2    0    0  0.60398142565E+01  0.11936799435E+02  0.28943965744E+02  0.59301957756E+02  0.50000025037E+02 0.  0.
        -12    1    1    2    0    0 -0.60398142565E+01 -0.11936799435E+02 -0.28943965744E+02  0.31886042244E+02  0.00000000000E+00 0.  1.
         11    1    3    3    0    0  0.13987952321E+02  0.10148512047E+01  0.58843072954E+01  0.15209135600E+02  0.51100000000E-03 0. -1.
        -11    1    3    3    0    0  0.20906027677E+01 -0.13673343588E+01 -0.84508383974E+01  0.88123148526E+01  0.51100000000E-03 0.  1.
         12    1    3    3    0    0 -0.10038740832E+02  0.12289282589E+02  0.31510496846E+02  0.35280507303E+02  0.00000000000E+00 0. -1.
</event>
<event>
 7    1  0.7383168E-013  0.5930195E+02  0.7816164E-02  0.1266605E+00
        -11   -1    0    0    0    0  0.00000000000E+00  0.00000000000E+00  0.45593999997E+02  0.45594000000E+02  0.51100000000E-03 0. -1.
         11   -1    0    0    0    0 -0.00000000000E+00 -0.00000000000E+00 -0.45593999997E+02  0.45594000000E+02  0.51100000000E-03 0.  1.
    9900012    2    1    2    0    0 -0.62323523046E+01  0.10806253963E+02  0.29344559065E+02  0.59301945263E+02  0.50000002252E+02 0.  0.
        -12    1    1    2    0    0  0.62323523046E+01 -0.10806253963E+02 -0.29344559065E+02  0.31886054737E+02  0.00000000000E+00 0.  1.
         11    1    3    3    0    0 -0.10543165610E+02  0.13663188418E+02  0.30397640969E+02  0.34955080254E+02  0.51100000000E-03 0. -1.
        -11    1    3    3    0    0 -0.13580156406E+01 -0.79851771705E+01  0.87448508808E+01  0.11919718038E+02  0.51100000000E-03 0.  1.
        -12    1    3    3    0    0  0.56688289461E+01  0.51282427156E+01 -0.97979327843E+01  0.12427146970E+02  0.00000000000E+00 0.  1.
</event>
<event>
 7    1  0.7383168E-013  0.5930193E+02  0.7816164E-02  0.1266605E+00
        -11   -1    0    0    0    0  0.00000000000E+00  0.00000000000E+00  0.45593999997E+02  0.45594000000E+02  0.51100000000E-03 0. -1.
         11   -1    0    0    0    0 -0.00000000000E+00 -0.00000000000E+00 -0.45593999997E+02  0.45594000000E+02  0.51100000000E-03 0.  1.
    9900012    2    1    2    0    0 -0.27176415334E+02 -0.27526756757E+01  0.16449524333E+02  0.59301927420E+02  0.49999969711E+02 0.  0.
        -12    1    1    2    0    0  0.27176415334E+02  0.27526756757E+01 -0.16449524333E+02  0.31886072580E+02  0.00000000000E+00 0.  1.
         11    1    3    3    0    0 -0.14086584701E+01  0.12806160252E+00  0.78791826243E+01  0.80051381966E+01  0.51100000000E-03 0. -1.
        -11    1    3    3    0    0  0.10433375561E+02 -0.90985825542E+01  0.21913761127E+01  0.14015764682E+02  0.51100000000E-03 0.  1.
        -12    1    3    3    0    0 -0.36201132425E+02  0.62178452760E+01  0.63789655964E+01  0.37281024541E+02  0.00000000000E+00 0.  1.
</event>
<event>
 7    1  0.7383168E-013  0.5930194E+02  0.7816164E-02  0.1266605E+00
        -11   -1    0    0    0    0  0.00000000000E+00  0.00000000000E+00  0.45593999997E+02  0.45594000000E+02  0.51100000000E-03 0. -1.
         11   -1    0    0    0    0 -0.00000000000E+00 -0.00000000000E+00 -0.45593999997E+02  0.45594000000E+02  0.51100000000E-03 0.  1.
    9900012    2    1    2    0    0  0.24725603822E+02  0.12543721091E+02  0.15748668947E+02  0.59301937265E+02  0.49999987666E+02 0.  0.
        -12    1    1    2    0    0 -0.24725603822E+02 -0.12543721091E+02 -0.15748668947E+02  0.31886062735E+02  0.00000000000E+00 0.  1.
         11    1    3    3    0    0  0.11314016705E+01 -0.80341469971E+01 -0.30867971358E-01  0.81134789581E+01  0.51100000000E-03 0. -1.
        -11    1    3    3    0    0 -0.35920770107E+01 -0.73167980555E+01  0.80923089115E+01  0.11485817986E+02  0.51100000000E-03 0.  1.
         12    1    3    3    0    0  0.27186279162E+02  0.27894666144E+02  0.76872280069E+01  0.39702640320E+02  0.00000000000E+00 0. -1.
</event>
<event>
 7    1  0.7383168E-013  0.5930195E+02  0.7816164E-02  0.1266605E+00
        -11   -1    0    0    0    0  0.00000000000E+00  0.00000000000E+00  0.45593999997E+02  0.45594000000E+02  0.51100000000E-03 0.  1.
         11   -1    0    0    0    0 -0.00000000000E+00 -0.00000000000E+00 -0.45593999997E+02  0.45594000000E+02  0.51100000000E-03 0. -1.
    9900012    2    1    2    0    0 -0.18221452342E+02 -0.26163406493E+02  0.41859231860E+00  0.59301946869E+02  0.50000005181E+02 0.  0.
        -12    1    1    2    0    0  0.18221452342E+02  0.26163406493E+02 -0.41859231860E+00  0.31886053131E+02  0.00000000000E+00 0.  1.
         11    1    3    3    0    0 -0.29795885607E+01  0.50416207812E+00 -0.81011663202E+01  0.86464457091E+01  0.51100000000E-03 0. -1.
        -11    1    3    3    0    0 -0.13404435483E+02 -0.69793314741E+00 -0.11609523243E+02  0.17746747068E+02  0.51100000000E-03 0.  1.
         12    1    3    3    0    0 -0.18374282989E+01 -0.25969635424E+02  0.20129281882E+02  0.32908754092E+02  0.00000000000E+00 0. -1.
</event>
<event>
 7    1  0.7383168E-013  0.5930196E+02  0.7816164E-02  0.1266605E+00
        -11   -1    0    0    0    0  0.00000000000E+00  0.00000000000E+00  0.45593999997E+02  0.45594000000E+02  0.51100000000E-03 0. -1.
         11   -1    0    0    0    0 -0.00000000000E+00 -0.00000000000E+00 -0.45593999997E+02  0.45594000000E+02  0.51100000000E-03 0.  1.
    9900012    2    1    2    0    0  0.28849478076E+02  0.20536228852E+01  0.13424235860E+02  0.59301955079E+02  0.50000020156E+02 0.  0.
        -12    1    1    2    0    0 -0.28849478076E+02 -0.20536228852E+01 -0.13424235860E+02  0.31886044921E+02  0.00000000000E+00 0.  1.
         11    1    3    3    0    0 -0.17827062950E+01  0.58090533754E+01 -0.44766475239E+01  0.75474178477E+01  0.51100000000E-03 0.  1.
        -11    1    3    3    0    0  0.10811554547E+02  0.92693013572E+01  0.23414236951E+02  0.27405038800E+02  0.51100000000E-03 0. -1.
         12    1    3    3    0    0  0.19820629824E+02 -0.13024731848E+02 -0.55133535667E+01  0.24349498432E+02  0.00000000000E+00 0. -1.
</event>
<event>
 7    1  0.7383168E-013  0.5930193E+02  0.7816164E-02  0.1266605E+00
        -11   -1    0    0    0    0  0.00000000000E+00  0.00000000000E+00  0.45593999997E+02  0.45594000000E+02  0.51100000000E-03 0.  1.
         11   -1    0    0    0    0 -0.00000000000E+00 -0.00000000000E+00 -0.45593999997E+02  0.45594000000E+02  0.51100000000E-03 0. -1.
    9900012    2    1    2    0    0  0.13925546767E+02  0.15480255221E+02 -0.24148747342E+02  0.59301934820E+02  0.49999983208E+02 0.  0.
        -12    1    1    2    0    0 -0.13925546767E+02 -0.15480255221E+02  0.24148747342E+02  0.31886065180E+02  0.00000000000E+00 0.  1.
         11    1    3    3    0    0  0.68528884466E+01  0.17996354400E+02 -0.26316970936E+02  0.32610026238E+02  0.51100000000E-03 0. -1.
        -11    1    3    3    0    0  0.15887493193E+02  0.30009015758E+01  0.19993114287E+01  0.16291565200E+02  0.51100000000E-03 0.  1.
        -12    1    3    3    0    0 -0.88148348720E+01 -0.55170007548E+01  0.16891216575E+00  0.10400343382E+02  0.00000000000E+00 0.  1.
</event>
<event>
 7    1  0.7383168E-013  0.5930194E+02  0.7816164E-02  0.1266605E+00
        -11   -1    0    0    0    0  0.00000000000E+00  0.00000000000E+00  0.45593999997E+02  0.45594000000E+02  0.51100000000E-03 0.  1.
         11   -1    0    0    0    0 -0.00000000000E+00 -0.00000000000E+00 -0.45593999997E+02  0.45594000000E+02  0.51100000000E-03 0. -1.
    9900012    2    1    2    0    0 -0.21075219622E+02  0.20277278880E+02 -0.12703862506E+02  0.59301936532E+02  0.49999986330E+02 0.  0.
        -12    1    1    2    0    0  0.21075219622E+02 -0.20277278880E+02  0.12703862506E+02  0.31886063468E+02  0.00000000000E+00 0.  1.
         11    1    3    3    0    0  0.60802796420E+00 -0.69700760209E+01 -0.53538550334E+01  0.88099615051E+01  0.51100000000E-03 0. -1.
        -11    1    3    3    0    0 -0.41050983163E+01 -0.61816194312E+01 -0.10202346613E+02  0.12615551025E+02  0.51100000000E-03 0.  1.
         12    1    3    3    0    0 -0.17578149270E+02  0.33428974332E+02  0.28523391402E+01  0.37876424002E+02  0.00000000000E+00 0. -1.
</event>
<event>
 7    1  0.7383168E-013  0.5930195E+02  0.7816164E-02  0.1266605E+00
        -11   -1    0    0    0    0  0.00000000000E+00  0.00000000000E+00  0.45593999997E+02  0.45594000000E+02  0.51100000000E-03 0.  1.
         11   -1    0    0    0    0 -0.00000000000E+00 -0.00000000000E+00 -0.45593999997E+02  0.45594000000E+02  0.51100000000E-03 0. -1.
    9900012    2    1    2    0    0  0.24365667123E+02  0.66925396778E+00 -0.20556916078E+02  0.59301946091E+02  0.50000003763E+02 0.  0.
        -12    1    1    2    0    0 -0.24365667123E+02 -0.66925396778E+00  0.20556916078E+02  0.31886053909E+02  0.00000000000E+00 0.  1.
         11    1    3    3    0    0  0.61887015784E+01  0.21701808343E+01 -0.21592387494E+02  0.22566366788E+02  0.51100000000E-03 0. -1.
        -11    1    3    3    0    0 -0.86497339577E+01 -0.31161024453E+01  0.32925252993E+01  0.97656907127E+01  0.51100000000E-03 0.  1.
         12    1    3    3    0    0  0.26826699502E+02  0.16151755788E+01 -0.22570538841E+01  0.26969888590E+02  0.00000000000E+00 0. -1.
</event>
<event>
 7    1  0.7383168E-013  0.5930206E+02  0.7816164E-02  0.1266604E+00
        -11   -1    0    0    0    0  0.00000000000E+00  0.00000000000E+00  0.45593999997E+02  0.45594000000E+02  0.51100000000E-03 0.  1.
         11   -1    0    0    0    0 -0.00000000000E+00 -0.00000000000E+00 -0.45593999997E+02  0.45594000000E+02  0.51100000000E-03 0. -1.
    9900012    2    1    2    0    0 -0.24906672998E+02 -0.13353585388E+02 -0.14766602611E+02  0.59302060227E+02  0.50000211918E+02 0.  0.
        -12    1    1    2    0    0  0.24906672998E+02  0.13353585388E+02  0.14766602611E+02  0.31885939773E+02  0.00000000000E+00 0.  1.
         11    1    3    3    0    0 -0.53797769751E+01 -0.49691857196E+01 -0.18393274742E+02  0.19797660544E+02  0.51100000000E-03 0. -1.
        -11    1    3    3    0    0 -0.64340271375E+01 -0.97310132534E+01 -0.13540213402E+02  0.17872512509E+02  0.51100000000E-03 0.  1.
        -12    1    3    3    0    0 -0.13092868885E+02  0.13466135850E+01  0.17166885533E+02  0.21631887174E+02  0.00000000000E+00 0.  1.
</event>
<event>
 7    1  0.7383168E-013  0.5930192E+02  0.7816164E-02  0.1266605E+00
        -11   -1    0    0    0    0  0.00000000000E+00  0.00000000000E+00  0.45593999997E+02  0.45594000000E+02  0.51100000000E-03 0.  1.
         11   -1    0    0    0    0 -0.00000000000E+00 -0.00000000000E+00 -0.45593999997E+02  0.45594000000E+02  0.51100000000E-03 0. -1.
    9900012    2    1    2    0    0  0.16382794814E+02  0.52571650018E+01 -0.26845637960E+02  0.59301921106E+02  0.49999958196E+02 0.  0.
        -12    1    1    2    0    0 -0.16382794814E+02 -0.52571650018E+01  0.26845637960E+02  0.31886078894E+02  0.00000000000E+00 0.  1.
         11    1    3    3    0    0  0.42878387648E+01 -0.85485017151E+01 -0.72858166633E+00  0.95913124416E+01  0.51100000000E-03 0. -1.
        -11    1    3    3    0    0  0.12967384701E+02 -0.88706511235E+01 -0.21373996649E+02  0.26527141768E+02  0.51100000000E-03 0.  1.
        -12    1    3    3    0    0 -0.87242865147E+00  0.22676317840E+02 -0.47430596443E+01  0.23183466896E+02  0.00000000000E+00 0.  1.
</event>
<event>
 7    1  0.7383168E-013  0.5930195E+02  0.7816164E-02  0.1266605E+00
        -11   -1    0    0    0    0  0.00000000000E+00  0.00000000000E+00  0.45593999997E+02  0.45594000000E+02  0.51100000000E-03 0. -1.
         11   -1    0    0    0    0 -0.00000000000E+00 -0.00000000000E+00 -0.45593999997E+02  0.45594000000E+02  0.51100000000E-03 0.  1.
    9900012    2    1    2    0    0  0.29878728127E+02 -0.22595006649E+01  0.10903034815E+02  0.59301954370E+02  0.50000018863E+02 0.  0.
        -12    1    1    2    0    0 -0.29878728127E+02  0.22595006649E+01 -0.10903034815E+02  0.31886045630E+02  0.00000000000E+00 0.  1.
         11    1    3    3    0    0  0.99583852586E+00  0.15147998977E+02  0.15067960658E+02  0.21389179649E+02  0.51100000000E-03 0. -1.
        -11    1    3    3    0    0  0.46686420776E+01 -0.37714565289E+01 -0.78481739208E+01  0.98799765865E+01  0.51100000000E-03 0.  1.
        -12    1    3    3    0    0  0.24214247523E+02 -0.13636043113E+02  0.36832480770E+01  0.28032798135E+02  0.00000000000E+00 0.  1.
</event>
<event>
 7    1  0.7383168E-013  0.5930201E+02  0.7816164E-02  0.1266605E+00
        -11   -1    0    0    0    0  0.00000000000E+00  0.00000000000E+00  0.45593999997E+02  0.45594000000E+02  0.51100000000E-03 0.  1.
         11   -1    0    0    0    0 -0.00000000000E+00 -0.00000000000E+00 -0.45593999997E+02  0.45594000000E+02  0.51100000000E-03 0. -1.
    9900012    2    1    2    0    0 -0.16171812819E+02  0.71307082320E+01 -0.26539438056E+02  0.59302010881E+02  0.50000121924E+02 0.  0.
        -12    1    1    2    0    0  0.16171812819E+02 -0.71307082320E+01  0.26539438056E+02  0.31885989119E+02  0.00000000000E+00 0.  1.
         11    1    3    3    0    0 -0.29813453692E+02  0.12383926416E+02 -0.71660238603E+01  0.33068951492E+02  0.51100000000E-03 0. -1.
        -11    1    3    3    0    0 -0.15501728057E+01  0.66233520461E-01 -0.22382637892E+01  0.27234624392E+01  0.51100000000E-03 0.  1.
        -12    1    3    3    0    0  0.15191813679E+02 -0.53194517045E+01 -0.17135150407E+02  0.23509596950E+02  0.00000000000E+00 0.  1.
</event>
<event>
 7    1  0.7383168E-013  0.5930195E+02  0.7816164E-02  0.1266605E+00
        -11   -1    0    0    0    0  0.00000000000E+00  0.00000000000E+00  0.45593999997E+02  0.45594000000E+02  0.51100000000E-03 0. -1.
         11   -1    0    0    0    0 -0.00000000000E+00 -0.00000000000E+00 -0.45593999997E+02  0.45594000000E+02  0.51100000000E-03 0.  1.
    9900012    2    1    2    0    0 -0.29132425619E+00  0.19801213741E+02  0.24990939821E+02  0.59301952760E+02  0.50000015926E+02 0.  0.
        -12    1    1    2    0    0  0.29132425619E+00 -0.19801213741E+02 -0.24990939821E+02  0.31886047240E+02  0.00000000000E+00 0.  1.
         11    1    3    3    0    0 -0.12040603652E+02 -0.32160623898E+01  0.46818758525E+01  0.13313119670E+02  0.51100000000E-03 0. -1.
        -11    1    3    3    0    0  0.10220719739E+02  0.42540405295E+01 -0.67940733532E+01  0.12989203432E+02  0.51100000000E-03 0.  1.
         12    1    3    3    0    0  0.15285596571E+01  0.18763235602E+02  0.27103137322E+02  0.32999629658E+02  0.00000000000E+00 0. -1.
</event>
<event>
 7    1  0.7383168E-013  0.5930194E+02  0.7816164E-02  0.1266605E+00
        -11   -1    0    0    0    0  0.00000000000E+00  0.00000000000E+00  0.45593999997E+02  0.45594000000E+02  0.51100000000E-03 0.  1.
         11   -1    0    0    0    0 -0.00000000000E+00 -0.00000000000E+00 -0.45593999997E+02  0.45594000000E+02  0.51100000000E-03 0. -1.
    9900012    2    1    2    0    0  0.58490245580E+01  0.13201835386E+02 -0.28429230104E+02  0.59301942386E+02  0.49999997007E+02 0.  0.
        -12    1    1    2    0    0 -0.58490245580E+01 -0.13201835386E+02  0.28429230104E+02  0.31886057614E+02  0.00000000000E+00 0.  1.
         11    1    3    3    0    0  0.31999804447E+00 -0.14294135180E+02 -0.24833323509E+01  0.14511775877E+02  0.51100000000E-03 0. -1.
        -11    1    3    3    0    0  0.56535481889E+01  0.30438548824E+01 -0.17949624271E+02  0.19063490536E+02  0.51100000000E-03 0.  1.
        -12    1    3    3    0    0 -0.12452167543E+00  0.24452115684E+02 -0.79962734817E+01  0.25726675973E+02  0.00000000000E+00 0.  1.
</event>
<event>
 7    1  0.7383168E-013  0.5930200E+02  0.7816164E-02  0.1266605E+00
        -11   -1    0    0    0    0  0.00000000000E+00  0.00000000000E+00  0.45593999997E+02  0.45594000000E+02  0.51100000000E-03 0.  1.
         11   -1    0    0    0    0 -0.00000000000E+00 -0.00000000000E+00 -0.45593999997E+02  0.45594000000E+02  0.51100000000E-03 0. -1.
    9900012    2    1    2    0    0  0.39677297409E+01 -0.29773110396E+02 -0.10702144743E+02  0.59302001755E+02  0.50000105281E+02 0.  0.
        -12    1    1    2    0    0 -0.39677297409E+01  0.29773110396E+02  0.10702144743E+02  0.31885998245E+02  0.00000000000E+00 0.  1.
         11    1    3    3    0    0  0.10721689183E+02 -0.10267983964E+02 -0.25716564855E+01  0.15066503608E+02  0.51100000000E-03 0. -1.
        -11    1    3    3    0    0 -0.99437003948E+01  0.32236853780E+01  0.10393751473E+02  0.14741078485E+02  0.51100000000E-03 0.  1.
         12    1    3    3    0    0  0.31897409531E+01 -0.22728811810E+02 -0.18524239731E+02  0.29494419663E+02  0.00000000000E+00 0. -1.
</event>
<event>
 7    1  0.7383168E-013  0.5930198E+02  0.7816164E-02  0.1266605E+00
        -11   -1    0    0    0    0  0.00000000000E+00  0.00000000000E+00  0.45593999997E+02  0.45594000000E+02  0.51100000000E-03 0. -1.
         11   -1    0    0    0    0 -0.00000000000E+00 -0.00000000000E+00 -0.45593999997E+02  0.45594000000E+02  0.51100000000E-03 0.  1.
    9900012    2    1    2    0    0 -0.29399168708E+02  0.72994847866E+01 -0.99561463459E+01  0.59301977217E+02  0.50000060529E+02 0.  0.
        -12    1    1    2    0    0  0.29399168708E+02 -0.72994847866E+01  0.99561463459E+01  0.31886022783E+02  0.00000000000E+00 0.  1.
         11    1    3    3    0    0 -0.23603602607E+02  0.20391553712E+02 -0.78533671318E+01  0.32165523382E+02  0.51100000000E-03 0. -1.
        -11    1    3    3    0    0 -0.33014954561E+01  0.63288585388E+01 -0.24673974826E+01  0.75526401509E+01  0.51100000000E-03 0.  1.
        -12    1    3    3    0    0 -0.24940706443E+01 -0.19420927464E+02  0.36461826856E+00  0.19583813685E+02  0.00000000000E+00 0.  1.
</event>
<event>
 7    1  0.7383168E-013  0.5930194E+02  0.7816164E-02  0.1266605E+00
        -11   -1    0    0    0    0  0.00000000000E+00  0.00000000000E+00  0.45593999997E+02  0.45594000000E+02  0.51100000000E-03 0. -1.
         11   -1    0    0    0    0 -0.00000000000E+00 -0.00000000000E+00 -0.45593999997E+02  0.45594000000E+02  0.51100000000E-03 0.  1.
    9900012    2    1    2    0    0  0.31881550352E+02  0.45956543676E+00 -0.27664001156E+00  0.59301937481E+02  0.49999988061E+02 0.  0.
        -12    1    1    2    0    0 -0.31881550352E+02 -0.45956543676E+00  0.27664001156E+00  0.31886062519E+02  0.00000000000E+00 0.  1.
         11    1    3    3    0    0 -0.15029727658E+01 -0.19061662866E+00 -0.14594532493E+01  0.21036315937E+01  0.51100000000E-03 0. -1.
        -11    1    3    3    0    0  0.32811510236E+01  0.66047017194E+01 -0.19059556232E+02  0.20436602479E+02  0.51100000000E-03 0.  1.
         12    1    3    3    0    0  0.30103372094E+02 -0.59545196539E+01  0.20242369470E+02  0.36761703409E+02  0.00000000000E+00 0. -1.
</event>
<event>
 7    1  0.7383168E-013  0.5930177E+02  0.7816164E-02  0.1266605E+00
        -11   -1    0    0    0    0  0.00000000000E+00  0.00000000000E+00  0.45593999997E+02  0.45594000000E+02  0.51100000000E-03 0. -1.
         11   -1    0    0    0    0 -0.00000000000E+00 -0.00000000000E+00 -0.45593999997E+02  0.45594000000E+02  0.51100000000E-03 0.  1.
    9900012    2    1    2    0    0  0.20377279164E+02 -0.11854931720E+02  0.21469950047E+02  0.59301769943E+02  0.49999682510E+02 0.  0.
        -12    1    1    2    0    0 -0.20377279164E+02  0.11854931720E+02 -0.21469950047E+02  0.31886230057E+02  0.00000000000E+00 0.  1.
         11    1    3    3    0    0 -0.33503175324E+01 -0.10830922890E+02  0.94042389432E+01  0.14730011154E+02  0.51100000000E-03 0. -1.
        -11    1    3    3    0    0  0.16167196890E+02 -0.17814527356E+02  0.36749591216E+01  0.24336001417E+02  0.51100000000E-03 0.  1.
        -12    1    3    3    0    0  0.75603998060E+01  0.16790518525E+02  0.83907519826E+01  0.20235757372E+02  0.00000000000E+00 0.  1.
</event>
<event>
 7    1  0.7383168E-013  0.5930194E+02  0.7816164E-02  0.1266605E+00
        -11   -1    0    0    0    0  0.00000000000E+00  0.00000000000E+00  0.45593999997E+02  0.45594000000E+02  0.51100000000E-03 0.  1.
         11   -1    0    0    0    0 -0.00000000000E+00 -0.00000000000E+00 -0.45593999997E+02  0.45594000000E+02  0.51100000000E-03 0. -1.
    9900012    2    1    2    0    0  0.11196820682E+02  0.29808177637E+02  0.16807042201E+01  0.59301936992E+02  0.49999987169E+02 0.  0.
        -12    1    1    2    0    0 -0.11196820682E+02 -0.29808177637E+02 -0.16807042201E+01  0.31886063008E+02  0.00000000000E+00 0.  1.
         11    1    3    3    0    0  0.11337148745E+02  0.41504413153E+01  0.31067394090E+01  0.12466311997E+02  0.51100000000E-03 0. -1.
        -11    1    3    3    0    0  0.11992490274E+02  0.26663711944E+02  0.92273936311E+01  0.30658084596E+02  0.51100000000E-03 0.  1.
         12    1    3    3    0    0 -0.12132818337E+02 -0.10059756222E+01 -0.10653428820E+02  0.16177540399E+02  0.00000000000E+00 0. -1.
</event>
<event>
 7    1  0.7383168E-013  0.5930193E+02  0.7816164E-02  0.1266605E+00
        -11   -1    0    0    0    0  0.00000000000E+00  0.00000000000E+00  0.45593999997E+02  0.45594000000E+02  0.51100000000E-03 0.  1.
         11   -1    0    0    0    0 -0.00000000000E+00 -0.00000000000E+00 -0.45593999997E+02  0.45594000000E+02  0.51100000000E-03 0. -1.
    9900012    2    1    2    0    0  0.24474349219E+02 -0.42432995349E+01 -0.19993048698E+02  0.59301931618E+02  0.49999977367E+02 0.  0.
        -12    1    1    2    0    0 -0.24474349219E+02  0.42432995349E+01  0.19993048698E+02  0.31886068382E+02  0.00000000000E+00 0.  1.
         11    1    3    3    0    0 -0.12924480414E+02 -0.79112302657E+01 -0.10295367513E+02  0.18320053241E+02  0.51100000000E-03 0. -1.
        -11    1    3    3    0    0  0.30911808583E+01 -0.35212537853E+01 -0.19957326397E+01  0.50928946925E+01  0.51100000000E-03 0.  1.
         12    1    3    3    0    0  0.34307648775E+02  0.71891845161E+01 -0.77019485452E+01  0.35888983684E+02  0.00000000000E+00 0. -1.
</event>
<event>
 7    1  0.7383168E-013  0.5930191E+02  0.7816164E-02  0.1266605E+00
        -11   -1    0    0    0    0  0.00000000000E+00  0.00000000000E+00  0.45593999997E+02  0.45594000000E+02  0.51100000000E-03 0.  1.
         11   -1    0    0    0    0 -0.00000000000E+00 -0.00000000000E+00 -0.45593999997E+02  0.45594000000E+02  0.51100000000E-03 0. -1.
    9900012    2    1    2    0    0  0.22321940495E+01  0.15731789976E+02 -0.27645084948E+02  0.59301911687E+02  0.49999941019E+02 0.  0.
        -12    1    1    2    0    0 -0.22321940495E+01 -0.15731789976E+02  0.27645084948E+02  0.31886088313E+02  0.00000000000E+00 0.  1.
         11    1    3    3    0    0  0.65333883646E+01 -0.31130356768E+01 -0.23233615131E+02  0.24334687731E+02  0.51100000000E-03 0. -1.
        -11    1    3    3    0    0 -0.66157185320E+01  0.12652265354E+02 -0.16112279923E+02  0.21527961233E+02  0.51100000000E-03 0.  1.
        -12    1    3    3    0    0  0.23145242169E+01  0.61925602994E+01  0.11700810106E+02  0.13439262723E+02  0.00000000000E+00 0.  1.
</event>
<event>
 7    1  0.7383168E-013  0.5930195E+02  0.7816164E-02  0.1266605E+00
        -11   -1    0    0    0    0  0.00000000000E+00  0.00000000000E+00  0.45593999997E+02  0.45594000000E+02  0.51100000000E-03 0. -1.
         11   -1    0    0    0    0 -0.00000000000E+00 -0.00000000000E+00 -0.45593999997E+02  0.45594000000E+02  0.51100000000E-03 0.  1.
    9900012    2    1    2    0    0  0.86731556958E+00  0.68048723913E+01  0.31139385996E+02  0.59301954702E+02  0.50000019468E+02 0.  0.
        -12    1    1    2    0    0 -0.86731556958E+00 -0.68048723913E+01 -0.31139385996E+02  0.31886045298E+02  0.00000000000E+00 0.  1.
         11    1    3    3    0    0  0.51015157537E+01 -0.47855370329E+01  0.33350607637E+02  0.34076235968E+02  0.51100000000E-03 0. -1.
        -11    1    3    3    0    0 -0.12652218992E+02  0.78623686297E+01  0.21287140871E+01  0.15047488488E+02  0.51100000000E-03 0.  1.
         12    1    3    3    0    0  0.84180188076E+01  0.37280407945E+01 -0.43399357289E+01  0.10178230246E+02  0.00000000000E+00 0. -1.
</event>
<event>
 7    1  0.7383168E-013  0.5930194E+02  0.7816164E-02  0.1266605E+00
        -11   -1    0    0    0    0  0.00000000000E+00  0.00000000000E+00  0.45593999997E+02  0.45594000000E+02  0.51100000000E-03 0. -1.
         11   -1    0    0    0    0 -0.00000000000E+00 -0.00000000000E+00 -0.45593999997E+02  0.45594000000E+02  0.51100000000E-03 0.  1.
    9900012    2    1    2    0    0 -0.60799871777E+00  0.25139680961E+01  0.31780989397E+02  0.59301937448E+02  0.49999987999E+02 0.  0.
        -12    1    1    2    0    0  0.60799871777E+00 -0.25139680961E+01 -0.31780989397E+02  0.31886062552E+02  0.00000000000E+00 0.  1.
         11    1    3    3    0    0  0.33935618506E+01  0.49692654881E+01  0.26764292270E+02  0.27432411533E+02  0.51100000000E-03 0. -1.
        -11    1    3    3    0    0 -0.88482243282E+01  0.19291514985E+00  0.16725924240E+02  0.18923129549E+02  0.51100000000E-03 0.  1.
        -12    1    3    3    0    0  0.48466637598E+01 -0.26482125419E+01 -0.11709227113E+02  0.12946396365E+02  0.00000000000E+00 0.  1.
</event>
<event>
 7    1  0.7383168E-013  0.5930170E+02  0.7816164E-02  0.1266606E+00
        -11   -1    0    0    0    0  0.00000000000E+00  0.00000000000E+00  0.45593999997E+02  0.45594000000E+02  0.51100000000E-03 0.  1.
         11   -1    0    0    0    0 -0.00000000000E+00 -0.00000000000E+00 -0.45593999997E+02  0.45594000000E+02  0.51100000000E-03 0. -1.
    9900012    2    1    2    0    0 -0.12204475309E+02  0.31996590521E+01 -0.29283939168E+02  0.59301699983E+02  0.49999554918E+02 0.  0.
        -12    1    1    2    0    0  0.12204475309E+02 -0.31996590521E+01  0.29283939168E+02  0.31886300017E+02  0.00000000000E+00 0.  1.
         11    1    3    3    0    0 -0.15424794262E+02  0.17951356962E+02 -0.12390977220E+01  0.23700440043E+02  0.51100000000E-03 0. -1.
        -11    1    3    3    0    0 -0.58521636344E+01 -0.68387166678E+01 -0.71853525478E+01  0.11517167897E+02  0.51100000000E-03 0.  1.
        -12    1    3    3    0    0  0.90724825872E+01 -0.79129812422E+01 -0.20859488898E+02  0.24084092043E+02  0.00000000000E+00 0.  1.
</event>
<event>
 7    1  0.7383168E-013  0.5930198E+02  0.7816164E-02  0.1266605E+00
        -11   -1    0    0    0    0  0.00000000000E+00  0.00000000000E+00  0.45593999997E+02  0.45594000000E+02  0.51100000000E-03 0. -1.
         11   -1    0    0    0    0 -0.00000000000E+00 -0.00000000000E+00 -0.45593999997E+02  0.45594000000E+02  0.51100000000E-03 0.  1.
    9900012    2    1    2    0    0 -0.23841237824E+02 -0.20578752041E+02 -0.49828620890E+01  0.59301975300E+02  0.50000057033E+02 0.  0.
        -12    1    1    2    0    0  0.23841237824E+02  0.20578752041E+02  0.49828620890E+01  0.31886024700E+02  0.00000000000E+00 0.  1.
         11    1    3    3    0    0 -0.14351462094E+01 -0.10777611123E+02 -0.55466711702E+01  0.12205822688E+02  0.51100000000E-03 0. -1.
        -11    1    3    3    0    0 -0.53506287060E+01 -0.24188389702E+02  0.68415403261E+00  0.24782564252E+02  0.51100000000E-03 0.  1.
        -12    1    3    3    0    0 -0.17055462909E+02  0.14387248783E+02 -0.12034495139E+00  0.22313588360E+02  0.00000000000E+00 0.  1.
</event>
<event>
 7    1  0.7383168E-013  0.5930195E+02  0.7816164E-02  0.1266605E+00
        -11   -1    0    0    0    0  0.00000000000E+00  0.00000000000E+00  0.45593999997E+02  0.45594000000E+02  0.51100000000E-03 0. -1.
         11   -1    0    0    0    0 -0.00000000000E+00 -0.00000000000E+00 -0.45593999997E+02  0.45594000000E+02  0.51100000000E-03 0.  1.
    9900012    2    1    2    0    0 -0.26297036825E+02  0.11061274344E+02 -0.14241992287E+02  0.59301948501E+02  0.50000008159E+02 0.  0.
        -12    1    1    2    0    0  0.26297036825E+02 -0.11061274344E+02  0.14241992287E+02  0.31886051499E+02  0.00000000000E+00 0.  1.
         11    1    3    3    0    0 -0.18479648251E+02  0.69573599271E+01 -0.23508026401E+01  0.19885384833E+02  0.51100000000E-03 0.  1.
        -11    1    3    3    0    0 -0.16987892710E+02  0.13597897121E+02 -0.16500515291E+00  0.21760480964E+02  0.51100000000E-03 0. -1.
        -12    1    3    3    0    0  0.91705041359E+01 -0.94939827040E+01 -0.11726184494E+02  0.17656082705E+02  0.00000000000E+00 0.  1.
</event>
<event>
 7    1  0.7383168E-013  0.5930203E+02  0.7816164E-02  0.1266604E+00
        -11   -1    0    0    0    0  0.00000000000E+00  0.00000000000E+00  0.45593999997E+02  0.45594000000E+02  0.51100000000E-03 0.  1.
         11   -1    0    0    0    0 -0.00000000000E+00 -0.00000000000E+00 -0.45593999997E+02  0.45594000000E+02  0.51100000000E-03 0. -1.
    9900012    2    1    2    0    0 -0.15187151204E+01  0.26282039985E+02  0.17990641324E+02  0.59302026647E+02  0.50000150678E+02 0.  0.
        -12    1    1    2    0    0  0.15187151204E+01 -0.26282039985E+02 -0.17990641324E+02  0.31885973353E+02  0.00000000000E+00 0.  1.
         11    1    3    3    0    0 -0.11928382598E+02  0.25614466986E+00  0.24061688380E+01  0.12171342171E+02  0.51100000000E-03 0. -1.
        -11    1    3    3    0    0 -0.11777317050E+02  0.73405219430E+01  0.11117723618E+02  0.17781795129E+02  0.51100000000E-03 0.  1.
        -12    1    3    3    0    0  0.22186984528E+02  0.18685373372E+02  0.44667488682E+01  0.29348889348E+02  0.00000000000E+00 0.  1.
</event>
<event>
 7    1  0.7383168E-013  0.5930194E+02  0.7816164E-02  0.1266605E+00
        -11   -1    0    0    0    0  0.00000000000E+00  0.00000000000E+00  0.45593999997E+02  0.45594000000E+02  0.51100000000E-03 0. -1.
         11   -1    0    0    0    0 -0.00000000000E+00 -0.00000000000E+00 -0.45593999997E+02  0.45594000000E+02  0.51100000000E-03 0.  1.
    9900012    2    1    2    0    0 -0.21047823284E+02  0.20900049449E+02 -0.11700328995E+02  0.59301943007E+02  0.49999998138E+02 0.  0.
        -12    1    1    2    0    0  0.21047823284E+02 -0.20900049449E+02  0.11700328995E+02  0.31886056993E+02  0.00000000000E+00 0.  1.
         11    1    3    3    0    0 -0.86092079825E+01  0.77631059937E+01 -0.47897710441E+01  0.12542973478E+02  0.51100000000E-03 0. -1.
        -11    1    3    3    0    0 -0.68946247802E+01  0.25033210681E+02 -0.16267544107E+02  0.30640340719E+02  0.51100000000E-03 0.  1.
         12    1    3    3    0    0 -0.55439905212E+01 -0.11896267225E+02  0.93569861555E+01  0.16118628810E+02  0.00000000000E+00 0. -1.
</event>
<event>
 7    1  0.7383168E-013  0.5930194E+02  0.7816164E-02  0.1266605E+00
        -11   -1    0    0    0    0  0.00000000000E+00  0.00000000000E+00  0.45593999997E+02  0.45594000000E+02  0.51100000000E-03 0.  1.
         11   -1    0    0    0    0 -0.00000000000E+00 -0.00000000000E+00 -0.45593999997E+02  0.45594000000E+02  0.51100000000E-03 0. -1.
    9900012    2    1    2    0    0 -0.24952671767E+02  0.31544652429E+01 -0.19599340035E+02  0.59301943344E+02  0.49999998752E+02 0.  0.
        -12    1    1    2    0    0  0.24952671767E+02 -0.31544652429E+01  0.19599340035E+02  0.31886056656E+02  0.00000000000E+00 0.  1.
         11    1    3    3    0    0 -0.28164384062E+01  0.75763907303E+01 -0.14909966748E+02  0.16959986158E+02  0.51100000000E-03 0. -1.
        -11    1    3    3    0    0 -0.33328711677E+00  0.48633878414E+01  0.12268625152E+02  0.13201620544E+02  0.51100000000E-03 0.  1.
        -12    1    3    3    0    0 -0.21802946244E+02 -0.92853133288E+01 -0.16957998439E+02  0.29140336642E+02  0.00000000000E+00 0.  1.
</event>
<event>
 7    1  0.7383168E-013  0.5930201E+02  0.7816164E-02  0.1266605E+00
        -11   -1    0    0    0    0  0.00000000000E+00  0.00000000000E+00  0.45593999997E+02  0.45594000000E+02  0.51100000000E-03 0. -1.
         11   -1    0    0    0    0 -0.00000000000E+00 -0.00000000000E+00 -0.45593999997E+02  0.45594000000E+02  0.51100000000E-03 0.  1.
    9900012    2    1    2    0    0 -0.73234104899E+01 -0.30270613074E+02  0.68391523544E+01  0.59302009942E+02  0.50000120211E+02 0.  0.
        -12    1    1    2    0    0  0.73234104899E+01  0.30270613074E+02 -0.68391523544E+01  0.31885990058E+02  0.00000000000E+00 0.  1.
         11    1    3    3    0    0 -0.16892419160E+02 -0.23049747752E+02  0.12867360521E+02  0.31340288185E+02  0.51100000000E-03 0. -1.
        -11    1    3    3    0    0  0.10311269356E+02 -0.29757112642E+01  0.79360545357E+01  0.13347587614E+02  0.51100000000E-03 0.  1.
        -12    1    3    3    0    0 -0.74226068647E+00 -0.42451540580E+01 -0.13964262702E+02  0.14614134142E+02  0.00000000000E+00 0.  1.
</event>
<event>
 7    1  0.7383168E-013  0.5930196E+02  0.7816164E-02  0.1266605E+00
        -11   -1    0    0    0    0  0.00000000000E+00  0.00000000000E+00  0.45593999997E+02  0.45594000000E+02  0.51100000000E-03 0.  1.
         11   -1    0    0    0    0 -0.00000000000E+00 -0.00000000000E+00 -0.45593999997E+02  0.45594000000E+02  0.51100000000E-03 0. -1.
    9900012    2    1    2    0    0  0.20099138955E+02  0.22676596430E+02 -0.99255361284E+01  0.59301957915E+02  0.50000025328E+02 0.  0.
        -12    1    1    2    0    0 -0.20099138955E+02 -0.22676596430E+02  0.99255361284E+01  0.31886042085E+02  0.00000000000E+00 0.  1.
         11    1    3    3    0    0  0.12218674667E+02  0.17066501800E+01 -0.11349353646E+02  0.16763546578E+02  0.51100000000E-03 0. -1.
        -11    1    3    3    0    0  0.47880548688E+01 -0.95965826278E+01  0.45646459570E+01  0.11655722223E+02  0.51100000000E-03 0.  1.
        -12    1    3    3    0    0  0.30924094196E+01  0.30566528878E+02 -0.31408284399E+01  0.30882689114E+02  0.00000000000E+00 0.  1.
</event>
<event>
 7    1  0.7383168E-013  0.5930194E+02  0.7816164E-02  0.1266605E+00
        -11   -1    0    0    0    0  0.00000000000E+00  0.00000000000E+00  0.45593999997E+02  0.45594000000E+02  0.51100000000E-03 0.  1.
         11   -1    0    0    0    0 -0.00000000000E+00 -0.00000000000E+00 -0.45593999997E+02  0.45594000000E+02  0.51100000000E-03 0. -1.
    9900012    2    1    2    0    0  0.16592646101E+02 -0.27226630585E+02 -0.33989509168E+00  0.59301939624E+02  0.49999991968E+02 0.  0.
        -12    1    1    2    0    0 -0.16592646101E+02  0.27226630585E+02  0.33989509168E+00  0.31886060376E+02  0.00000000000E+00 0.  1.
         11    1    3    3    0    0  0.48422973900E+01 -0.85457272943E+01  0.31015535420E+01  0.10300336579E+02  0.51100000000E-03 0. -1.
        -11    1    3    3    0    0  0.15913620023E+02 -0.29374050510E+02  0.62430544665E+01  0.33986083548E+02  0.51100000000E-03 0.  1.
        -12    1    3    3    0    0 -0.41632713115E+01  0.10693147219E+02 -0.96845031002E+01  0.15015519497E+02  0.00000000000E+00 0.  1.
</event>
<event>
 7    1  0.7383168E-013  0.5930195E+02  0.7816164E-02  0.1266605E+00
        -11   -1    0    0    0    0  0.00000000000E+00  0.00000000000E+00  0.45593999997E+02  0.45594000000E+02  0.51100000000E-03 0.  1.
         11   -1    0    0    0    0 -0.00000000000E+00 -0.00000000000E+00 -0.45593999997E+02  0.45594000000E+02  0.51100000000E-03 0. -1.
    9900012    2    1    2    0    0  0.82215393683E+01  0.17523295984E+02 -0.25338914538E+02  0.59301949732E+02  0.50000010403E+02 0.  0.
        -12    1    1    2    0    0 -0.82215393683E+01 -0.17523295984E+02  0.25338914538E+02  0.31886050268E+02  0.00000000000E+00 0.  1.
         11    1    3    3    0    0 -0.14489024447E+01 -0.58940453960E+00 -0.15219141007E+02  0.15299312706E+02  0.51100000000E-03 0. -1.
        -11    1    3    3    0    0 -0.13392689821E+02  0.53660179987E+01  0.27326535441E+01  0.14684198496E+02  0.51100000000E-03 0.  1.
         12    1    3    3    0    0  0.23063131634E+02  0.12746682525E+02 -0.12852427075E+02  0.29318438531E+02  0.00000000000E+00 0. -1.
</event>
<event>
 7    1  0.7383168E-013  0.5930194E+02  0.7816164E-02  0.1266605E+00
        -11   -1    0    0    0    0  0.00000000000E+00  0.00000000000E+00  0.45593999997E+02  0.45594000000E+02  0.51100000000E-03 0.  1.
         11   -1    0    0    0    0 -0.00000000000E+00 -0.00000000000E+00 -0.45593999997E+02  0.45594000000E+02  0.51100000000E-03 0. -1.
    9900012    2    1    2    0    0 -0.13508577113E+02 -0.15660254021E+02 -0.24269227468E+02  0.59301943275E+02  0.49999998626E+02 0.  0.
        -12    1    1    2    0    0  0.13508577113E+02  0.15660254021E+02  0.24269227468E+02  0.31886056725E+02  0.00000000000E+00 0.  1.
         11    1    3    3    0    0 -0.21220153835E+02 -0.15945363885E+02 -0.48659015497E+01  0.26985673169E+02  0.51100000000E-03 0. -1.
        -11    1    3    3    0    0 -0.77672102566E+01  0.52288688284E+00 -0.13815889956E+02  0.15858177115E+02  0.51100000000E-03 0.  1.
        -12    1    3    3    0    0  0.15478786979E+02 -0.23777701872E+00 -0.55874359620E+01  0.16458092991E+02  0.00000000000E+00 0.  1.
</event>
<event>
 7    1  0.7383168E-013  0.5930196E+02  0.7816164E-02  0.1266605E+00
        -11   -1    0    0    0    0  0.00000000000E+00  0.00000000000E+00  0.45593999997E+02  0.45594000000E+02  0.51100000000E-03 0. -1.
         11   -1    0    0    0    0 -0.00000000000E+00 -0.00000000000E+00 -0.45593999997E+02  0.45594000000E+02  0.51100000000E-03 0.  1.
    9900012    2    1    2    0    0  0.89227709343E+01  0.18766354634E+02  0.24185275979E+02  0.59301961024E+02  0.50000030997E+02 0.  0.
        -12    1    1    2    0    0 -0.89227709343E+01 -0.18766354634E+02 -0.24185275979E+02  0.31886038976E+02  0.00000000000E+00 0.  1.
         11    1    3    3    0    0  0.74295737345E+01 -0.55742924602E+01 -0.72993501311E+01  0.11813205107E+02  0.51100000000E-03 0. -1.
        -11    1    3    3    0    0  0.29483589429E+01 -0.24873346988E+01 -0.21692508959E+01  0.44255286770E+01  0.51100000000E-03 0.  1.
         12    1    3    3    0    0 -0.14551617432E+01  0.26827981793E+02  0.33653877006E+02  0.43063227240E+02  0.00000000000E+00 0. -1.
</event>
<event>
 7    1  0.7383168E-013  0.5930195E+02  0.7816164E-02  0.1266605E+00
        -11   -1    0    0    0    0  0.00000000000E+00  0.00000000000E+00  0.45593999997E+02  0.45594000000E+02  0.51100000000E-03 0. -1.
         11   -1    0    0    0    0 -0.00000000000E+00 -0.00000000000E+00 -0.45593999997E+02  0.45594000000E+02  0.51100000000E-03 0.  1.
    9900012    2    1    2    0    0 -0.26336840502E+02  0.17698880559E+02  0.31370001595E+01  0.59301948024E+02  0.50000007287E+02 0.  0.
        -12    1    1    2    0    0  0.26336840502E+02 -0.17698880559E+02 -0.31370001595E+01  0.31886051976E+02  0.00000000000E+00 0.  1.
         11    1    3    3    0    0 -0.56986075393E+01 -0.31181719788E+01  0.42452696978E+01  0.77601185200E+01  0.51100000000E-03 0. -1.
        -11    1    3    3    0    0  0.53104628139E+00 -0.81603488199E+01  0.10965364721E+02  0.13678908098E+02  0.51100000000E-03 0.  1.
         12    1    3    3    0    0 -0.21169279244E+02  0.28977401358E+02 -0.12073634260E+02  0.37862921406E+02  0.00000000000E+00 0. -1.
</event>
<event>
 7    1  0.7383168E-013  0.5930195E+02  0.7816164E-02  0.1266605E+00
        -11   -1    0    0    0    0  0.00000000000E+00  0.00000000000E+00  0.45593999997E+02  0.45594000000E+02  0.51100000000E-03 0.  1.
         11   -1    0    0    0    0 -0.00000000000E+00 -0.00000000000E+00 -0.45593999997E+02  0.45594000000E+02  0.51100000000E-03 0. -1.
    9900012    2    1    2    0    0 -0.25785083317E+01  0.31536655570E+02 -0.39383631497E+01  0.59301952047E+02  0.50000014625E+02 0.  0.
        -12    1    1    2    0    0  0.25785083317E+01 -0.31536655570E+02  0.39383631497E+01  0.31886047953E+02  0.00000000000E+00 0.  1.
         11    1    3    3    0    0  0.35884042786E+01  0.12988781374E+02  0.27173216908E+01  0.13746596825E+02  0.51100000000E-03 0. -1.
        -11    1    3    3    0    0 -0.55627791949E+01  0.26144134572E+02  0.89504692976E+01  0.28188139098E+02  0.51100000000E-03 0.  1.
         12    1    3    3    0    0 -0.60413341536E+00 -0.75962603763E+01 -0.15606154138E+02  0.17367216123E+02  0.00000000000E+00 0. -1.
</event>
<event>
 7    1  0.7383168E-013  0.5930194E+02  0.7816164E-02  0.1266605E+00
        -11   -1    0    0    0    0  0.00000000000E+00  0.00000000000E+00  0.45593999997E+02  0.45594000000E+02  0.51100000000E-03 0. -1.
         11   -1    0    0    0    0 -0.00000000000E+00 -0.00000000000E+00 -0.45593999997E+02  0.45594000000E+02  0.51100000000E-03 0.  1.
    9900012    2    1    2    0    0 -0.26657786321E+02  0.75288055385E+01  0.15792420402E+02  0.59301936798E+02  0.49999986815E+02 0.  0.
        -12    1    1    2    0    0  0.26657786321E+02 -0.75288055385E+01 -0.15792420402E+02  0.31886063202E+02  0.00000000000E+00 0.  1.
         11    1    3    3    0    0 -0.24266284353E+02  0.18396150159E+00 -0.48534279620E+01  0.24747568797E+02  0.51100000000E-03 0. -1.
        -11    1    3    3    0    0  0.83017300000E+00 -0.34511477170E+01 -0.52365210354E+01  0.63261963762E+01  0.51100000000E-03 0.  1.
        -12    1    3    3    0    0 -0.32216749678E+01  0.10795991754E+02  0.25882369399E+02  0.28228171625E+02  0.00000000000E+00 0.  1.
</event>
<event>
 7    1  0.7383168E-013  0.5930193E+02  0.7816164E-02  0.1266605E+00
        -11   -1    0    0    0    0  0.00000000000E+00  0.00000000000E+00  0.45593999997E+02  0.45594000000E+02  0.51100000000E-03 0. -1.
         11   -1    0    0    0    0 -0.00000000000E+00 -0.00000000000E+00 -0.45593999997E+02  0.45594000000E+02  0.51100000000E-03 0.  1.
    9900012    2    1    2    0    0  0.61129390711E+01 -0.28387973848E+02  0.13171031149E+02  0.59301934943E+02  0.49999983432E+02 0.  0.
        -12    1    1    2    0    0 -0.61129390711E+01  0.28387973848E+02 -0.13171031149E+02  0.31886065057E+02  0.00000000000E+00 0.  1.
         11    1    3    3    0    0  0.10875275605E+01  0.87709143747E+01  0.15497313643E+02  0.17840358336E+02  0.51100000000E-03 0. -1.
        -11    1    3    3    0    0  0.78742547017E+01 -0.13612732709E+02  0.52237699087E+01  0.16571003326E+02  0.51100000000E-03 0.  1.
        -12    1    3    3    0    0 -0.28488431910E+01 -0.23546155514E+02 -0.75500524018E+01  0.24890573281E+02  0.00000000000E+00 0.  1.
</event>
<event>
 7    1  0.7383168E-013  0.5930193E+02  0.7816164E-02  0.1266605E+00
        -11   -1    0    0    0    0  0.00000000000E+00  0.00000000000E+00  0.45593999997E+02  0.45594000000E+02  0.51100000000E-03 0.  1.
         11   -1    0    0    0    0 -0.00000000000E+00 -0.00000000000E+00 -0.45593999997E+02  0.45594000000E+02  0.51100000000E-03 0. -1.
    9900012    2    1    2    0    0 -0.58529333267E+01  0.36001176055E+01 -0.31136855546E+02  0.59301930180E+02  0.49999974745E+02 0.  0.
        -12    1    1    2    0    0  0.58529333267E+01 -0.36001176055E+01  0.31136855546E+02  0.31886069820E+02  0.00000000000E+00 0.  1.
         11    1    3    3    0    0 -0.22940402035E+01 -0.65000347360E+01 -0.21501865050E+02  0.22579709319E+02  0.51100000000E-03 0. -1.
        -11    1    3    3    0    0 -0.45594511000E-01  0.12288609882E+01 -0.21478280273E+02  0.21513453975E+02  0.51100000000E-03 0.  1.
        -12    1    3    3    0    0 -0.35132986122E+01  0.88712913533E+01  0.11843289778E+02  0.15208766886E+02  0.00000000000E+00 0.  1.
</event>
<event>
 7    1  0.7383168E-013  0.5930191E+02  0.7816164E-02  0.1266605E+00
        -11   -1    0    0    0    0  0.00000000000E+00  0.00000000000E+00  0.45593999997E+02  0.45594000000E+02  0.51100000000E-03 0. -1.
         11   -1    0    0    0    0 -0.00000000000E+00 -0.00000000000E+00 -0.45593999997E+02  0.45594000000E+02  0.51100000000E-03 0.  1.
    9900012    2    1    2    0    0 -0.19216620420E+02 -0.53522084078E+01  0.24875646497E+02  0.59301914887E+02  0.49999946854E+02 0.  0.
        -12    1    1    2    0    0  0.19216620420E+02  0.53522084078E+01 -0.24875646497E+02  0.31886085113E+02  0.00000000000E+00 0.  1.
         11    1    3    3    0    0 -0.71539644172E+01  0.13003300235E+02  0.23095620635E+02  0.27453100311E+02  0.51100000000E-03 0. -1.
        -11    1    3    3    0    0 -0.83683099764E+00  0.51673851170E+01  0.24416867867E+01  0.57761570002E+01  0.51100000000E-03 0.  1.
         12    1    3    3    0    0 -0.11225825005E+02 -0.23522893760E+02 -0.66166092474E+00  0.26072657576E+02  0.00000000000E+00 0. -1.
</event>
<event>
 7    1  0.7383168E-013  0.5930196E+02  0.7816164E-02  0.1266605E+00
        -11   -1    0    0    0    0  0.00000000000E+00  0.00000000000E+00  0.45593999997E+02  0.45594000000E+02  0.51100000000E-03 0.  1.
         11   -1    0    0    0    0 -0.00000000000E+00 -0.00000000000E+00 -0.45593999997E+02  0.45594000000E+02  0.51100000000E-03 0. -1.
    9900012    2    1    2    0    0  0.21641760304E+02 -0.17654885086E+02 -0.15383721360E+02  0.59301958550E+02  0.50000026485E+02 0.  0.
        -12    1    1    2    0    0 -0.21641760304E+02  0.17654885086E+02  0.15383721360E+02  0.31886041450E+02  0.00000000000E+00 0.  1.
         11    1    3    3    0    0  0.89421332673E+01  0.88809078278E+01 -0.30273936239E+01  0.12961380468E+02  0.51100000000E-03 0. -1.
        -11    1    3    3    0    0  0.14790964966E+02 -0.12623178915E+02 -0.21940541230E+02  0.29317309568E+02  0.51100000000E-03 0.  1.
        -12    1    3    3    0    0 -0.20913379293E+01 -0.13912613999E+02  0.95842134942E+01  0.17023268514E+02  0.00000000000E+00 0.  1.
</event>
<event>
 7    1  0.7383168E-013  0.5930194E+02  0.7816164E-02  0.1266605E+00
        -11   -1    0    0    0    0  0.00000000000E+00  0.00000000000E+00  0.45593999997E+02  0.45594000000E+02  0.51100000000E-03 0.  1.
         11   -1    0    0    0    0 -0.00000000000E+00 -0.00000000000E+00 -0.45593999997E+02  0.45594000000E+02  0.51100000000E-03 0. -1.
    9900012    2    1    2    0    0 -0.77583940416E+01  0.40609360331E+01 -0.30660019834E+02  0.59301941984E+02  0.49999996273E+02 0.  0.
        -12    1    1    2    0    0  0.77583940416E+01 -0.40609360331E+01  0.30660019834E+02  0.31886058016E+02  0.00000000000E+00 0.  1.
         11    1    3    3    0    0 -0.94062846090E+01  0.33157094490E+01 -0.37018593170E+02  0.38338601433E+02  0.51100000000E-03 0. -1.
        -11    1    3    3    0    0  0.76807786879E+01  0.95069420079E+00 -0.41966307171E+01  0.88039701472E+01  0.51100000000E-03 0.  1.
        -12    1    3    3    0    0 -0.60328881205E+01 -0.20546761671E+00  0.10555204053E+02  0.12159370404E+02  0.00000000000E+00 0.  1.
</event>
<event>
 7    1  0.7383168E-013  0.5930197E+02  0.7816164E-02  0.1266605E+00
        -11   -1    0    0    0    0  0.00000000000E+00  0.00000000000E+00  0.45593999997E+02  0.45594000000E+02  0.51100000000E-03 0.  1.
         11   -1    0    0    0    0 -0.00000000000E+00 -0.00000000000E+00 -0.45593999997E+02  0.45594000000E+02  0.51100000000E-03 0. -1.
    9900012    2    1    2    0    0 -0.20140914150E+02  0.18510914346E+02 -0.16383175445E+02  0.59301971548E+02  0.50000050191E+02 0.  0.
        -12    1    1    2    0    0  0.20140914150E+02 -0.18510914346E+02  0.16383175445E+02  0.31886028452E+02  0.00000000000E+00 0.  1.
         11    1    3    3    0    0 -0.82330252187E+01 -0.12382836972E+02  0.35781058074E+01  0.15294449881E+02  0.51100000000E-03 0. -1.
        -11    1    3    3    0    0 -0.16185609493E+02  0.19855833816E+02 -0.72183687861E+01  0.26614524970E+02  0.51100000000E-03 0.  1.
        -12    1    3    3    0    0  0.42777205609E+01  0.11037917503E+02 -0.12742912466E+02  0.17392996698E+02  0.00000000000E+00 0.  1.
</event>
<event>
 7    1  0.7383168E-013  0.5930195E+02  0.7816164E-02  0.1266605E+00
        -11   -1    0    0    0    0  0.00000000000E+00  0.00000000000E+00  0.45593999997E+02  0.45594000000E+02  0.51100000000E-03 0.  1.
         11   -1    0    0    0    0 -0.00000000000E+00 -0.00000000000E+00 -0.45593999997E+02  0.45594000000E+02  0.51100000000E-03 0. -1.
    9900012    2    1    2    0    0 -0.28116321290E+02 -0.46351931139E+01  0.14307600141E+02  0.59301953524E+02  0.50000017318E+02 0.  0.
        -12    1    1    2    0    0  0.28116321290E+02  0.46351931139E+01 -0.14307600141E+02  0.31886046476E+02  0.00000000000E+00 0.  1.
         11    1    3    3    0    0 -0.22349340248E+02  0.68597567405E+01  0.48386721559E+01  0.23873877367E+02  0.51100000000E-03 0. -1.
        -11    1    3    3    0    0 -0.37042981979E+01  0.73943102745E+01 -0.65699989936E+01  0.10562316820E+02  0.51100000000E-03 0.  1.
         12    1    3    3    0    0 -0.20626828444E+01 -0.18889260129E+02  0.16038926978E+02  0.24865759336E+02  0.00000000000E+00 0. -1.
</event>
<event>
 7    1  0.7383168E-013  0.5930190E+02  0.7816164E-02  0.1266605E+00
        -11   -1    0    0    0    0  0.00000000000E+00  0.00000000000E+00  0.45593999997E+02  0.45594000000E+02  0.51100000000E-03 0. -1.
         11   -1    0    0    0    0 -0.00000000000E+00 -0.00000000000E+00 -0.45593999997E+02  0.45594000000E+02  0.51100000000E-03 0.  1.
    9900012    2    1    2    0    0  0.14943852494E+02 -0.21799205331E+02  0.17838141480E+02  0.59301900021E+02  0.49999919742E+02 0.  0.
        -12    1    1    2    0    0 -0.14943852494E+02  0.21799205331E+02 -0.17838141480E+02  0.31886099979E+02  0.00000000000E+00 0.  1.
         11    1    3    3    0    0 -0.98815593988E+01  0.71350688396E+01 -0.17650531614E+01  0.12315430826E+02  0.51100000000E-03 0. -1.
        -11    1    3    3    0    0  0.36736410374E+01 -0.15009874352E+02  0.85220418641E+00  0.15476376151E+02  0.51100000000E-03 0.  1.
        -12    1    3    3    0    0  0.21151770855E+02 -0.13924399819E+02  0.18750990455E+02  0.31510093044E+02  0.00000000000E+00 0.  1.
</event>
<event>
 7    1  0.7383168E-013  0.5930196E+02  0.7816164E-02  0.1266605E+00
        -11   -1    0    0    0    0  0.00000000000E+00  0.00000000000E+00  0.45593999997E+02  0.45594000000E+02  0.51100000000E-03 0.  1.
         11   -1    0    0    0    0 -0.00000000000E+00 -0.00000000000E+00 -0.45593999997E+02  0.45594000000E+02  0.51100000000E-03 0. -1.
    9900012    2    1    2    0    0  0.23812030007E+02  0.18480859034E+01 -0.21125607500E+02  0.59301960942E+02  0.50000030847E+02 0.  0.
        -12    1    1    2    0    0 -0.23812030007E+02 -0.18480859034E+01  0.21125607500E+02  0.31886039058E+02  0.00000000000E+00 0.  1.
         11    1    3    3    0    0 -0.87755846521E+01 -0.56906931890E+00  0.65278242505E+01  0.10952041617E+02  0.51100000000E-03 0. -1.
        -11    1    3    3    0    0  0.74229499450E-01  0.68402452498E+01 -0.44166919057E+01  0.81425814547E+01  0.51100000000E-03 0.  1.
         12    1    3    3    0    0  0.32513385160E+02 -0.44230900275E+01 -0.23236739845E+02  0.40207337870E+02  0.00000000000E+00 0. -1.
</event>
<event>
 7    1  0.7383168E-013  0.5930185E+02  0.7816164E-02  0.1266605E+00
        -11   -1    0    0    0    0  0.00000000000E+00  0.00000000000E+00  0.45593999997E+02  0.45594000000E+02  0.51100000000E-03 0. -1.
         11   -1    0    0    0    0 -0.00000000000E+00 -0.00000000000E+00 -0.45593999997E+02  0.45594000000E+02  0.51100000000E-03 0.  1.
    9900012    2    1    2    0    0 -0.29378290206E+02  0.12162256449E+02  0.23920952233E+01  0.59301850390E+02  0.49999829228E+02 0.  0.
        -12    1    1    2    0    0  0.29378290206E+02 -0.12162256449E+02 -0.23920952233E+01  0.31886149610E+02  0.00000000000E+00 0.  1.
         11    1    3    3    0    0 -0.12942608626E+02  0.23690866587E+02  0.11909219663E+01  0.27021964641E+02  0.51100000000E-03 0. -1.
        -11    1    3    3    0    0 -0.10237771558E+02  0.27300706866E+00 -0.10409013406E+02  0.14602536070E+02  0.51100000000E-03 0.  1.
        -12    1    3    3    0    0 -0.61979100215E+01 -0.11801617206E+02  0.11610186663E+02  0.17677349679E+02  0.00000000000E+00 0.  1.
</event>
<event>
 7    1  0.7383168E-013  0.5930194E+02  0.7816164E-02  0.1266605E+00
        -11   -1    0    0    0    0  0.00000000000E+00  0.00000000000E+00  0.45593999997E+02  0.45594000000E+02  0.51100000000E-03 0.  1.
         11   -1    0    0    0    0 -0.00000000000E+00 -0.00000000000E+00 -0.45593999997E+02  0.45594000000E+02  0.51100000000E-03 0. -1.
    9900012    2    1    2    0    0 -0.17010628153E+02  0.20597580391E+02 -0.17409734207E+02  0.59301942965E+02  0.49999998062E+02 0.  0.
        -12    1    1    2    0    0  0.17010628153E+02 -0.20597580391E+02  0.17409734207E+02  0.31886057035E+02  0.00000000000E+00 0.  1.
         11    1    3    3    0    0  0.28212291246E+01 -0.71383117973E+01 -0.15339414058E+02  0.17152622336E+02  0.51100000000E-03 0. -1.
        -11    1    3    3    0    0 -0.11804717993E+02  0.30996535928E+01 -0.91900487277E+01  0.15277965021E+02  0.51100000000E-03 0.  1.
         12    1    3    3    0    0 -0.80271392841E+01  0.24636238595E+02  0.71197285788E+01  0.26871355608E+02  0.00000000000E+00 0. -1.
</event>
<event>
 7    1  0.7383168E-013  0.5930223E+02  0.7816164E-02  0.1266604E+00
        -11   -1    0    0    0    0  0.00000000000E+00  0.00000000000E+00  0.45593999997E+02  0.45594000000E+02  0.51100000000E-03 0. -1.
         11   -1    0    0    0    0 -0.00000000000E+00 -0.00000000000E+00 -0.45593999997E+02  0.45594000000E+02  0.51100000000E-03 0.  1.
    9900012    2    1    2    0    0 -0.15355818716E+02  0.27180518084E+02  0.64900224923E+01  0.59302233211E+02  0.50000527398E+02 0.  0.
        -12    1    1    2    0    0  0.15355818716E+02 -0.27180518084E+02 -0.64900224923E+01  0.31885766789E+02  0.00000000000E+00 0.  1.
         11    1    3    3    0    0 -0.12100656292E+02  0.69805127132E+01 -0.37778629731E+01  0.14471547580E+02  0.51100000000E-03 0.  1.
        -11    1    3    3    0    0 -0.11289291945E+02  0.26350286881E+02  0.16373464088E+02  0.33013270934E+02  0.51100000000E-03 0. -1.
        -12    1    3    3    0    0  0.80341295209E+01 -0.61502815095E+01 -0.61055786220E+01  0.11817414697E+02  0.00000000000E+00 0.  1.
</event>
<event>
 7    1  0.7383168E-013  0.5930196E+02  0.7816164E-02  0.1266605E+00
        -11   -1    0    0    0    0  0.00000000000E+00  0.00000000000E+00  0.45593999997E+02  0.45594000000E+02  0.51100000000E-03 0.  1.
         11   -1    0    0    0    0 -0.00000000000E+00 -0.00000000000E+00 -0.45593999997E+02  0.45594000000E+02  0.51100000000E-03 0. -1.
    9900012    2    1    2    0    0  0.19547882071E+02 -0.69899799687E+01 -0.24202068978E+02  0.59301958285E+02  0.50000026002E+02 0.  0.
        -12    1    1    2    0    0 -0.19547882071E+02  0.69899799687E+01  0.24202068978E+02  0.31886041715E+02  0.00000000000E+00 0.  1.
         11    1    3    3    0    0  0.41270719128E+00  0.39968066868E+01  0.28469955923E+01  0.49244466777E+01  0.51100000000E-03 0. -1.
        -11    1    3    3    0    0 -0.75874485153E+01  0.21993816033E+01  0.59687304251E+01  0.99011311252E+01  0.51100000000E-03 0.  1.
         12    1    3    3    0    0  0.26722623395E+02 -0.13186168259E+02 -0.33017794996E+02  0.44476380482E+02  0.00000000000E+00 0. -1.
</event>
<event>
 7    1  0.7383168E-013  0.5930203E+02  0.7816164E-02  0.1266604E+00
        -11   -1    0    0    0    0  0.00000000000E+00  0.00000000000E+00  0.45593999997E+02  0.45594000000E+02  0.51100000000E-03 0.  1.
         11   -1    0    0    0    0 -0.00000000000E+00 -0.00000000000E+00 -0.45593999997E+02  0.45594000000E+02  0.51100000000E-03 0. -1.
    9900012    2    1    2    0    0 -0.14266177135E+02  0.98108249827E+01 -0.26775713738E+02  0.59302032192E+02  0.50000160790E+02 0.  0.
        -12    1    1    2    0    0  0.14266177135E+02 -0.98108249827E+01  0.26775713738E+02  0.31885967808E+02  0.00000000000E+00 0.  1.
         11    1    3    3    0    0 -0.11860784263E+02  0.11188916286E+02 -0.29795992035E+02  0.33965735567E+02  0.51100000000E-03 0. -1.
        -11    1    3    3    0    0  0.34303637921E+01 -0.34090151980E+01 -0.98979857839E+01  0.11016301703E+02  0.51100000000E-03 0.  1.
        -12    1    3    3    0    0 -0.58357566640E+01  0.20309238949E+01  0.12918264081E+02  0.14319994922E+02  0.00000000000E+00 0.  1.
</event>
<event>
 7    1  0.7383168E-013  0.5930193E+02  0.7816164E-02  0.1266605E+00
        -11   -1    0    0    0    0  0.00000000000E+00  0.00000000000E+00  0.45593999997E+02  0.45594000000E+02  0.51100000000E-03 0. -1.
         11   -1    0    0    0    0 -0.00000000000E+00 -0.00000000000E+00 -0.45593999997E+02  0.45594000000E+02  0.51100000000E-03 0.  1.
    9900012    2    1    2    0    0 -0.34610760956E+01 -0.20270540588E+02  0.24368985042E+02  0.59301932581E+02  0.49999979124E+02 0.  0.
        -12    1    1    2    0    0  0.34610760956E+01  0.20270540588E+02 -0.24368985042E+02  0.31886067419E+02  0.00000000000E+00 0.  1.
         11    1    3    3    0    0 -0.42551030441E+01 -0.10148325483E+02  0.25334490016E+02  0.27621201941E+02  0.51100000000E-03 0. -1.
        -11    1    3    3    0    0 -0.13470117509E+02 -0.41386161582E+01  0.52118935969E+01  0.15024514786E+02  0.51100000000E-03 0.  1.
         12    1    3    3    0    0  0.14264144458E+02 -0.59835989466E+01 -0.61773985715E+01  0.16656215854E+02  0.00000000000E+00 0. -1.
</event>
<event>
 7    1  0.7383168E-013  0.5930195E+02  0.7816164E-02  0.1266605E+00
        -11   -1    0    0    0    0  0.00000000000E+00  0.00000000000E+00  0.45593999997E+02  0.45594000000E+02  0.51100000000E-03 0.  1.
         11   -1    0    0    0    0 -0.00000000000E+00 -0.00000000000E+00 -0.45593999997E+02  0.45594000000E+02  0.51100000000E-03 0. -1.
    9900012    2    1    2    0    0 -0.16559201986E+02  0.78523162354E-01 -0.27248973643E+02  0.59301954448E+02  0.50000019005E+02 0.  0.
        -12    1    1    2    0    0  0.16559201986E+02 -0.78523162354E-01  0.27248973643E+02  0.31886045552E+02  0.00000000000E+00 0.  1.
         11    1    3    3    0    0 -0.19260246847E+02  0.15345117964E+01 -0.88068233758E+01  0.21233746097E+02  0.51100000000E-03 0. -1.
        -11    1    3    3    0    0 -0.13288404158E+02  0.39458245334E+01 -0.11570825102E+01  0.13910070327E+02  0.51100000000E-03 0.  1.
         12    1    3    3    0    0  0.15989449019E+02 -0.54018131675E+01 -0.17285067757E+02  0.24158138024E+02  0.00000000000E+00 0. -1.
</event>
<event>
 7    1  0.7383168E-013  0.5930195E+02  0.7816164E-02  0.1266605E+00
        -11   -1    0    0    0    0  0.00000000000E+00  0.00000000000E+00  0.45593999997E+02  0.45594000000E+02  0.51100000000E-03 0.  1.
         11   -1    0    0    0    0 -0.00000000000E+00 -0.00000000000E+00 -0.45593999997E+02  0.45594000000E+02  0.51100000000E-03 0. -1.
    9900012    2    1    2    0    0  0.40212751391E+01 -0.31251561542E+02 -0.48877036221E+01  0.59301946634E+02  0.50000004754E+02 0.  0.
        -12    1    1    2    0    0 -0.40212751391E+01  0.31251561542E+02  0.48877036221E+01  0.31886053366E+02  0.00000000000E+00 0.  1.
         11    1    3    3    0    0  0.14271611156E+02 -0.28828187939E+02 -0.44024097857E+01  0.32467283795E+02  0.51100000000E-03 0. -1.
        -11    1    3    3    0    0 -0.24018736959E+01 -0.61320000808E+01 -0.11231837176E+02  0.13020160861E+02  0.51100000000E-03 0.  1.
        -12    1    3    3    0    0 -0.78484623205E+01  0.37086264782E+01  0.10746543340E+02  0.13814501978E+02  0.00000000000E+00 0.  1.
</event>
<event>
 7    1  0.7383168E-013  0.5930191E+02  0.7816164E-02  0.1266605E+00
        -11   -1    0    0    0    0  0.00000000000E+00  0.00000000000E+00  0.45593999997E+02  0.45594000000E+02  0.51100000000E-03 0. -1.
         11   -1    0    0    0    0 -0.00000000000E+00 -0.00000000000E+00 -0.45593999997E+02  0.45594000000E+02  0.51100000000E-03 0.  1.
    9900012    2    1    2    0    0  0.12082920891E+02 -0.23589324949E+02  0.17727639345E+02  0.59301914860E+02  0.49999946806E+02 0.  0.
        -12    1    1    2    0    0 -0.12082920891E+02  0.23589324949E+02 -0.17727639345E+02  0.31886085140E+02  0.00000000000E+00 0.  1.
         11    1    3    3    0    0  0.10389582662E+02 -0.98123960307E+01  0.25660999571E+02  0.29371983981E+02  0.51100000000E-03 0. -1.
        -11    1    3    3    0    0  0.10563357720E+02 -0.16174175931E+02 -0.31569327175E+01  0.19574338247E+02  0.51100000000E-03 0.  1.
        -12    1    3    3    0    0 -0.88700194906E+01  0.23972470132E+01 -0.47764275090E+01  0.10355592632E+02  0.00000000000E+00 0.  1.
</event>
<event>
 7    1  0.7383168E-013  0.5930191E+02  0.7816164E-02  0.1266605E+00
        -11   -1    0    0    0    0  0.00000000000E+00  0.00000000000E+00  0.45593999997E+02  0.45594000000E+02  0.51100000000E-03 0.  1.
         11   -1    0    0    0    0 -0.00000000000E+00 -0.00000000000E+00 -0.45593999997E+02  0.45594000000E+02  0.51100000000E-03 0. -1.
    9900012    2    1    2    0    0 -0.13224366320E+02 -0.13426061975E+02 -0.25721194490E+02  0.59301908193E+02  0.49999934647E+02 0.  0.
        -12    1    1    2    0    0  0.13224366320E+02  0.13426061975E+02  0.25721194490E+02  0.31886091807E+02  0.00000000000E+00 0.  1.
         11    1    3    3    0    0  0.27775170947E+01 -0.17578938179E+02 -0.96797341175E+01  0.20259094786E+02  0.51100000000E-03 0. -1.
        -11    1    3    3    0    0 -0.15520238557E+02 -0.77098839289E+01  0.20005844687E+01  0.17444840313E+02  0.51100000000E-03 0.  1.
        -12    1    3    3    0    0 -0.48164485808E+00  0.11862760133E+02 -0.18042044841E+02  0.21597973094E+02  0.00000000000E+00 0.  1.
</event>
<event>
 7    1  0.7383168E-013  0.5930194E+02  0.7816164E-02  0.1266605E+00
        -11   -1    0    0    0    0  0.00000000000E+00  0.00000000000E+00  0.45593999997E+02  0.45594000000E+02  0.51100000000E-03 0.  1.
         11   -1    0    0    0    0 -0.00000000000E+00 -0.00000000000E+00 -0.45593999997E+02  0.45594000000E+02  0.51100000000E-03 0. -1.
    9900012    2    1    2    0    0 -0.66497524134E+01 -0.27279376079E+01 -0.31065409681E+02  0.59301944593E+02  0.50000001031E+02 0.  0.
        -12    1    1    2    0    0  0.66497524134E+01  0.27279376079E+01  0.31065409681E+02  0.31886055407E+02  0.00000000000E+00 0.  1.
         11    1    3    3    0    0  0.42400113615E+01 -0.18080154839E+02 -0.82477832782E+01  0.20319833282E+02  0.51100000000E-03 0. -1.
        -11    1    3    3    0    0  0.24998648941E+01  0.77866041289E+01  0.31813374635E+01  0.87750462487E+01  0.51100000000E-03 0.  1.
         12    1    3    3    0    0 -0.13389628669E+02  0.75656131024E+01 -0.25998963867E+02  0.30207065062E+02  0.00000000000E+00 0. -1.
</event>
<event>
 7    1  0.7383168E-013  0.5930194E+02  0.7816164E-02  0.1266605E+00
        -11   -1    0    0    0    0  0.00000000000E+00  0.00000000000E+00  0.45593999997E+02  0.45594000000E+02  0.51100000000E-03 0. -1.
         11   -1    0    0    0    0 -0.00000000000E+00 -0.00000000000E+00 -0.45593999997E+02  0.45594000000E+02  0.51100000000E-03 0.  1.
    9900012    2    1    2    0    0  0.28196903095E+02  0.14015998202E+02  0.50207068859E+01  0.59301936471E+02  0.49999986219E+02 0.  0.
        -12    1    1    2    0    0 -0.28196903095E+02 -0.14015998202E+02 -0.50207068859E+01  0.31886063529E+02  0.00000000000E+00 0.  1.
         11    1    3    3    0    0  0.57989585405E+01  0.65938130293E+01 -0.15354687438E+02  0.17688208417E+02  0.51100000000E-03 0. -1.
        -11    1    3    3    0    0 -0.38999535658E+01  0.72890208567E+01  0.10856826513E+02  0.13645883814E+02  0.51100000000E-03 0.  1.
         12    1    3    3    0    0  0.26297898120E+02  0.13316431578E+00  0.95185678109E+01  0.27967844240E+02  0.00000000000E+00 0. -1.
</event>
<event>
 7    1  0.7383168E-013  0.5930193E+02  0.7816164E-02  0.1266605E+00
        -11   -1    0    0    0    0  0.00000000000E+00  0.00000000000E+00  0.45593999997E+02  0.45594000000E+02  0.51100000000E-03 0. -1.
         11   -1    0    0    0    0 -0.00000000000E+00 -0.00000000000E+00 -0.45593999997E+02  0.45594000000E+02  0.51100000000E-03 0.  1.
    9900012    2    1    2    0    0 -0.18323119730E+02  0.25592426038E+02 -0.51002311971E+01  0.59301931798E+02  0.49999977696E+02 0.  0.
        -12    1    1    2    0    0  0.18323119730E+02 -0.25592426038E+02  0.51002311971E+01  0.31886068202E+02  0.00000000000E+00 0.  1.
         11    1    3    3    0    0 -0.59614981356E+01 -0.47578304990E+01 -0.12320591684E+02  0.14490458612E+02  0.51100000000E-03 0.  1.
        -11    1    3    3    0    0 -0.16687140243E+02  0.25317646336E+02  0.15618132881E+02  0.34108209282E+02  0.51100000000E-03 0. -1.
         12    1    3    3    0    0  0.43255186486E+01  0.50326102009E+01 -0.83977723946E+01  0.10703263904E+02  0.00000000000E+00 0. -1.
</event>
<event>
 7    1  0.7383168E-013  0.5930192E+02  0.7816164E-02  0.1266605E+00
        -11   -1    0    0    0    0  0.00000000000E+00  0.00000000000E+00  0.45593999997E+02  0.45594000000E+02  0.51100000000E-03 0.  1.
         11   -1    0    0    0    0 -0.00000000000E+00 -0.00000000000E+00 -0.45593999997E+02  0.45594000000E+02  0.51100000000E-03 0. -1.
    9900012    2    1    2    0    0 -0.25329557558E+02 -0.10534067872E+01 -0.19339752380E+02  0.59301918804E+02  0.49999953997E+02 0.  0.
        -12    1    1    2    0    0  0.25329557558E+02  0.10534067872E+01  0.19339752380E+02  0.31886081196E+02  0.00000000000E+00 0.  1.
         11    1    3    3    0    0 -0.28151324437E+01 -0.15016879412E+01 -0.13681846198E+02  0.14048948466E+02  0.51100000000E-03 0. -1.
        -11    1    3    3    0    0  0.19138267963E+01  0.15811386685E+02 -0.47703760062E+00  0.15933933822E+02  0.51100000000E-03 0.  1.
        -12    1    3    3    0    0 -0.24428251910E+02 -0.15363105531E+02 -0.51808685818E+01  0.29319036516E+02  0.00000000000E+00 0.  1.
</event>
<event>
 7    1  0.7383168E-013  0.5930195E+02  0.7816164E-02  0.1266605E+00
        -11   -1    0    0    0    0  0.00000000000E+00  0.00000000000E+00  0.45593999997E+02  0.45594000000E+02  0.51100000000E-03 0.  1.
         11   -1    0    0    0    0 -0.00000000000E+00 -0.00000000000E+00 -0.45593999997E+02  0.45594000000E+02  0.51100000000E-03 0. -1.
    9900012    2    1    2    0    0 -0.99337756556E+01 -0.23905598049E+02 -0.18616198326E+02  0.59301947297E+02  0.50000005963E+02 0.  0.
        -12    1    1    2    0    0  0.99337756556E+01  0.23905598049E+02  0.18616198326E+02  0.31886052703E+02  0.00000000000E+00 0.  1.
         11    1    3    3    0    0 -0.68803988789E+01 -0.16872149174E+02 -0.11773567141E+02  0.21693920576E+02  0.51100000000E-03 0. -1.
        -11    1    3    3    0    0 -0.24249517065E+01  0.27886838159E+00 -0.21276144941E+02  0.21415706903E+02  0.51100000000E-03 0.  1.
        -12    1    3    3    0    0 -0.62842507023E+00 -0.73123172566E+01  0.14433513757E+02  0.16192319818E+02  0.00000000000E+00 0.  1.
</event>
<event>
 7    1  0.7383168E-013  0.5930194E+02  0.7816164E-02  0.1266605E+00
        -11   -1    0    0    0    0  0.00000000000E+00  0.00000000000E+00  0.45593999997E+02  0.45594000000E+02  0.51100000000E-03 0.  1.
         11   -1    0    0    0    0 -0.00000000000E+00 -0.00000000000E+00 -0.45593999997E+02  0.45594000000E+02  0.51100000000E-03 0. -1.
    9900012    2    1    2    0    0  0.17325709707E+02 -0.26350942310E+02 -0.47083238841E+01  0.59301942055E+02  0.49999996403E+02 0.  0.
        -12    1    1    2    0    0 -0.17325709707E+02  0.26350942310E+02  0.47083238841E+01  0.31886057945E+02  0.00000000000E+00 0.  1.
         11    1    3    3    0    0  0.12693681996E+02 -0.10337011142E+02 -0.17149484906E+02  0.23708399245E+02  0.51100000000E-03 0. -1.
        -11    1    3    3    0    0 -0.10839054028E+02  0.17037718405E+00  0.54808598301E+01  0.12147178493E+02  0.51100000000E-03 0.  1.
         12    1    3    3    0    0  0.15471081739E+02 -0.16184308352E+02  0.69603011921E+01  0.23446364317E+02  0.00000000000E+00 0. -1.
</event>
<event>
 7    1  0.7383168E-013  0.5930191E+02  0.7816164E-02  0.1266605E+00
        -11   -1    0    0    0    0  0.00000000000E+00  0.00000000000E+00  0.45593999997E+02  0.45594000000E+02  0.51100000000E-03 0.  1.
         11   -1    0    0    0    0 -0.00000000000E+00 -0.00000000000E+00 -0.45593999997E+02  0.45594000000E+02  0.51100000000E-03 0. -1.
    9900012    2    1    2    0    0 -0.26831345616E+02  0.16575697210E+02 -0.46954893846E+01  0.59301914224E+02  0.49999945644E+02 0.  0.
        -12    1    1    2    0    0  0.26831345616E+02 -0.16575697210E+02  0.46954893846E+01  0.31886085776E+02  0.00000000000E+00 0.  1.
         11    1    3    3    0    0 -0.73749257789E+01  0.17403361187E+02 -0.46681363210E+01  0.19469412108E+02  0.51100000000E-03 0. -1.
        -11    1    3    3    0    0  0.41889484437E+01  0.30459506688E+01  0.11965367394E+02  0.13038217734E+02  0.51100000000E-03 0.  1.
         12    1    3    3    0    0 -0.23645368281E+02 -0.38736146460E+01 -0.11992720457E+02  0.26794284382E+02  0.00000000000E+00 0. -1.
</event>
<event>
 7    1  0.7383168E-013  0.5930194E+02  0.7816164E-02  0.1266605E+00
        -11   -1    0    0    0    0  0.00000000000E+00  0.00000000000E+00  0.45593999997E+02  0.45594000000E+02  0.51100000000E-03 0.  1.
         11   -1    0    0    0    0 -0.00000000000E+00 -0.00000000000E+00 -0.45593999997E+02  0.45594000000E+02  0.51100000000E-03 0. -1.
    9900012    2    1    2    0    0 -0.56583999311E+01 -0.30279056956E+02 -0.82390538509E+01  0.59301940534E+02  0.49999993629E+02 0.  0.
        -12    1    1    2    0    0  0.56583999311E+01  0.30279056956E+02  0.82390538509E+01  0.31886059466E+02  0.00000000000E+00 0.  1.
         11    1    3    3    0    0  0.12523045276E+01 -0.13774688514E+02  0.78348047620E+01  0.15896366762E+02  0.51100000000E-03 0. -1.
        -11    1    3    3    0    0  0.99158041228E+01  0.29026763985E+01  0.37163824825E+01  0.10979990924E+02  0.51100000000E-03 0.  1.
         12    1    3    3    0    0 -0.16826508581E+02 -0.19407044840E+02 -0.19790241095E+02  0.32425582848E+02  0.00000000000E+00 0. -1.
</event>
<event>
 7    1  0.7383168E-013  0.5930192E+02  0.7816164E-02  0.1266605E+00
        -11   -1    0    0    0    0  0.00000000000E+00  0.00000000000E+00  0.45593999997E+02  0.45594000000E+02  0.51100000000E-03 0.  1.
         11   -1    0    0    0    0 -0.00000000000E+00 -0.00000000000E+00 -0.45593999997E+02  0.45594000000E+02  0.51100000000E-03 0. -1.
    9900012    2    1    2    0    0  0.31282543551E+02  0.16352381304E+01  0.59540625322E+01  0.59301915332E+02  0.49999947667E+02 0.  0.
        -12    1    1    2    0    0 -0.31282543551E+02 -0.16352381304E+01 -0.59540625322E+01  0.31886084668E+02  0.00000000000E+00 0.  1.
         11    1    3    3    0    0 -0.59241984318E+01 -0.14363269479E+01 -0.45315187469E+01  0.75956451059E+01  0.51100000000E-03 0. -1.
        -11    1    3    3    0    0 -0.25636180459E+01 -0.87670140592E+01  0.16835129625E+01  0.92879970475E+01  0.51100000000E-03 0.  1.
         12    1    3    3    0    0  0.39770360029E+02  0.11838579137E+02  0.88020683166E+01  0.42418273179E+02  0.00000000000E+00 0. -1.
</event>
<event>
 7    1  0.7383168E-013  0.5930171E+02  0.7816164E-02  0.1266606E+00
        -11   -1    0    0    0    0  0.00000000000E+00  0.00000000000E+00  0.45593999997E+02  0.45594000000E+02  0.51100000000E-03 0.  1.
         11   -1    0    0    0    0 -0.00000000000E+00 -0.00000000000E+00 -0.45593999997E+02  0.45594000000E+02  0.51100000000E-03 0. -1.
    9900012    2    1    2    0    0 -0.18586225493E+02  0.20257172268E+02 -0.16153466057E+02  0.59301713418E+02  0.49999579421E+02 0.  0.
        -12    1    1    2    0    0  0.18586225493E+02 -0.20257172268E+02  0.16153466057E+02  0.31886286582E+02  0.00000000000E+00 0.  1.
         11    1    3    3    0    0 -0.21637767583E+01  0.35713649911E+01 -0.28496769980E+02  0.28801084656E+02  0.51100000000E-03 0.  1.
        -11    1    3    3    0    0 -0.33578595476E+01  0.13577255133E+01 -0.33765247464E+01  0.49517228250E+01  0.51100000000E-03 0. -1.
        -12    1    3    3    0    0 -0.13064589187E+02  0.15328081763E+02  0.15719828670E+02  0.25548905937E+02  0.00000000000E+00 0.  1.
</event>
<event>
 7    1  0.7383168E-013  0.5930201E+02  0.7816164E-02  0.1266605E+00
        -11   -1    0    0    0    0  0.00000000000E+00  0.00000000000E+00  0.45593999997E+02  0.45594000000E+02  0.51100000000E-03 0.  1.
         11   -1    0    0    0    0 -0.00000000000E+00 -0.00000000000E+00 -0.45593999997E+02  0.45594000000E+02  0.51100000000E-03 0. -1.
    9900012    2    1    2    0    0  0.49651515605E+01  0.98798170302E+01 -0.29907408896E+02  0.59302005874E+02  0.50000112792E+02 0.  0.
        -12    1    1    2    0    0 -0.49651515605E+01 -0.98798170302E+01  0.29907408896E+02  0.31885994126E+02  0.00000000000E+00 0.  1.
         11    1    3    3    0    0 -0.22132034500E+01  0.82333640894E+01 -0.17767524504E+02  0.19707142893E+02  0.51100000000E-03 0. -1.
        -11    1    3    3    0    0 -0.93572879599E+01 -0.59286605578E+01  0.70694548535E+01  0.13140968235E+02  0.51100000000E-03 0.  1.
         12    1    3    3    0    0  0.16535642970E+02  0.75751134985E+01 -0.19209339245E+02  0.26453894745E+02  0.00000000000E+00 0. -1.
</event>
<event>
 7    1  0.7383168E-013  0.5930191E+02  0.7816164E-02  0.1266605E+00
        -11   -1    0    0    0    0  0.00000000000E+00  0.00000000000E+00  0.45593999997E+02  0.45594000000E+02  0.51100000000E-03 0.  1.
         11   -1    0    0    0    0 -0.00000000000E+00 -0.00000000000E+00 -0.45593999997E+02  0.45594000000E+02  0.51100000000E-03 0. -1.
    9900012    2    1    2    0    0  0.10087359369E+02 -0.24966981950E+02 -0.17076816417E+02  0.59301911095E+02  0.49999939938E+02 0.  0.
        -12    1    1    2    0    0 -0.10087359369E+02  0.24966981950E+02  0.17076816417E+02  0.31886088905E+02  0.00000000000E+00 0.  1.
         11    1    3    3    0    0 -0.14959789158E+02 -0.79980418299E+01 -0.69513914813E+01  0.18332643251E+02  0.51100000000E-03 0. -1.
        -11    1    3    3    0    0  0.53435923566E+01 -0.56809278091E-01  0.77724094853E+01  0.94322614487E+01  0.51100000000E-03 0.  1.
        -12    1    3    3    0    0  0.19703556171E+02 -0.16912130842E+02 -0.17897834421E+02  0.31537006395E+02  0.00000000000E+00 0.  1.
</event>
<event>
 7    1  0.7383168E-013  0.5930196E+02  0.7816164E-02  0.1266605E+00
        -11   -1    0    0    0    0  0.00000000000E+00  0.00000000000E+00  0.45593999997E+02  0.45594000000E+02  0.51100000000E-03 0.  1.
         11   -1    0    0    0    0 -0.00000000000E+00 -0.00000000000E+00 -0.45593999997E+02  0.45594000000E+02  0.51100000000E-03 0. -1.
    9900012    2    1    2    0    0  0.15651581579E-01  0.27217946543E+02 -0.16610323878E+02  0.59301957312E+02  0.50000024227E+02 0.  0.
        -12    1    1    2    0    0 -0.15651581579E-01 -0.27217946543E+02  0.16610323878E+02  0.31886042688E+02  0.00000000000E+00 0.  1.
         11    1    3    3    0    0 -0.48815234863E+01 -0.57648784806E+01  0.92000101902E+00  0.76098290112E+01  0.51100000000E-03 0. -1.
        -11    1    3    3    0    0 -0.38880604342E+01 -0.61008529179E+01  0.14272699297E+01  0.73739080534E+01  0.51100000000E-03 0.  1.
         12    1    3    3    0    0  0.87852355022E+01  0.39083677941E+02 -0.18957594827E+02  0.44318220247E+02  0.00000000000E+00 0. -1.
</event>
<event>
 7    1  0.7383168E-013  0.5930194E+02  0.7816164E-02  0.1266605E+00
        -11   -1    0    0    0    0  0.00000000000E+00  0.00000000000E+00  0.45593999997E+02  0.45594000000E+02  0.51100000000E-03 0.  1.
         11   -1    0    0    0    0 -0.00000000000E+00 -0.00000000000E+00 -0.45593999997E+02  0.45594000000E+02  0.51100000000E-03 0. -1.
    9900012    2    1    2    0    0 -0.83212262475E+01  0.24728745177E+00 -0.30780136070E+02  0.59301941388E+02  0.49999995185E+02 0.  0.
        -12    1    1    2    0    0  0.83212262475E+01 -0.24728745177E+00  0.30780136070E+02  0.31886058612E+02  0.00000000000E+00 0.  1.
         11    1    3    3    0    0  0.42371445014E+01  0.14213567371E+02 -0.16365708619E+02  0.22086541373E+02  0.51100000000E-03 0. -1.
        -11    1    3    3    0    0 -0.17563528162E+02  0.62157471853E+00 -0.25529244548E+01  0.17758978016E+02  0.51100000000E-03 0.  1.
         12    1    3    3    0    0  0.50051574135E+01 -0.14587854638E+02 -0.11861502996E+02  0.19456421999E+02  0.00000000000E+00 0. -1.
</event>
<event>
 7    1  0.7383168E-013  0.5930192E+02  0.7816164E-02  0.1266605E+00
        -11   -1    0    0    0    0  0.00000000000E+00  0.00000000000E+00  0.45593999997E+02  0.45594000000E+02  0.51100000000E-03 0.  1.
         11   -1    0    0    0    0 -0.00000000000E+00 -0.00000000000E+00 -0.45593999997E+02  0.45594000000E+02  0.51100000000E-03 0. -1.
    9900012    2    1    2    0    0 -0.25288341554E+02 -0.16771556458E+02 -0.97947171313E+01  0.59301924540E+02  0.49999964459E+02 0.  0.
        -12    1    1    2    0    0  0.25288341554E+02  0.16771556458E+02  0.97947171313E+01  0.31886075460E+02  0.00000000000E+00 0.  1.
         11    1    3    3    0    0 -0.42013630202E+01  0.47062050223E+00 -0.14955678819E+02  0.15541726548E+02  0.51100000000E-03 0. -1.
        -11    1    3    3    0    0 -0.60622943056E+01 -0.43854648877E+01 -0.14222052600E+02  0.16070174079E+02  0.51100000000E-03 0.  1.
        -12    1    3    3    0    0 -0.15024684228E+02 -0.12856712072E+02  0.19383014287E+02  0.27690023913E+02  0.00000000000E+00 0.  1.
</event>
<event>
 7    1  0.7383168E-013  0.5930197E+02  0.7816164E-02  0.1266605E+00
        -11   -1    0    0    0    0  0.00000000000E+00  0.00000000000E+00  0.45593999997E+02  0.45594000000E+02  0.51100000000E-03 0.  1.
         11   -1    0    0    0    0 -0.00000000000E+00 -0.00000000000E+00 -0.45593999997E+02  0.45594000000E+02  0.51100000000E-03 0. -1.
    9900012    2    1    2    0    0  0.70503025425E+01 -0.15344330519E+02 -0.27047437132E+02  0.59301967001E+02  0.50000041897E+02 0.  0.
        -12    1    1    2    0    0 -0.70503025425E+01  0.15344330519E+02  0.27047437132E+02  0.31886032999E+02  0.00000000000E+00 0.  1.
         11    1    3    3    0    0  0.19630028564E+01 -0.13858891799E+02 -0.25193172390E+02  0.28820447558E+02  0.51100000000E-03 0.  1.
        -11    1    3    3    0    0  0.80603863043E+01 -0.96615139126E+01 -0.11812471895E+02  0.17258307303E+02  0.51100000000E-03 0. -1.
        -12    1    3    3    0    0 -0.29730866183E+01  0.81760751930E+01  0.99582071520E+01  0.13223212139E+02  0.00000000000E+00 0.  1.
</event>
<event>
 7    1  0.7383168E-013  0.5930194E+02  0.7816164E-02  0.1266605E+00
        -11   -1    0    0    0    0  0.00000000000E+00  0.00000000000E+00  0.45593999997E+02  0.45594000000E+02  0.51100000000E-03 0. -1.
         11   -1    0    0    0    0 -0.00000000000E+00 -0.00000000000E+00 -0.45593999997E+02  0.45594000000E+02  0.51100000000E-03 0.  1.
    9900012    2    1    2    0    0  0.24489380498E+02  0.11399483495E+02  0.16942346259E+02  0.59301935993E+02  0.49999985346E+02 0.  0.
        -12    1    1    2    0    0 -0.24489380498E+02 -0.11399483495E+02 -0.16942346259E+02  0.31886064007E+02  0.00000000000E+00 0.  1.
         11    1    3    3    0    0  0.17961096963E+02  0.41538409618E+01  0.13710380773E+01  0.18486079750E+02  0.51100000000E-03 0. -1.
        -11    1    3    3    0    0  0.57386679917E+01  0.21811673013E+02  0.58974754978E+01  0.23312263028E+02  0.51100000000E-03 0.  1.
        -12    1    3    3    0    0  0.78961554347E+00 -0.14566030480E+02  0.96738326834E+01  0.17503593215E+02  0.00000000000E+00 0.  1.
</event>
<event>
 7    1  0.7383168E-013  0.5930202E+02  0.7816164E-02  0.1266604E+00
        -11   -1    0    0    0    0  0.00000000000E+00  0.00000000000E+00  0.45593999997E+02  0.45594000000E+02  0.51100000000E-03 0.  1.
         11   -1    0    0    0    0 -0.00000000000E+00 -0.00000000000E+00 -0.45593999997E+02  0.45594000000E+02  0.51100000000E-03 0. -1.
    9900012    2    1    2    0    0  0.30131064812E+02 -0.10264545396E+02 -0.18638015837E+01  0.59302020083E+02  0.50000138707E+02 0.  0.
        -12    1    1    2    0    0 -0.30131064812E+02  0.10264545396E+02  0.18638015837E+01  0.31885979917E+02  0.00000000000E+00 0.  1.
         11    1    3    3    0    0  0.92682847133E+01 -0.11767430177E+02 -0.25566679176E+00  0.14981284333E+02  0.51100000000E-03 0. -1.
        -11    1    3    3    0    0  0.55573065549E+01 -0.18020864519E+02  0.29793598535E+01  0.19092192109E+02  0.51100000000E-03 0.  1.
        -12    1    3    3    0    0  0.15305473544E+02  0.19523749299E+02 -0.45874946454E+01  0.25228543641E+02  0.00000000000E+00 0.  1.
</event>
<event>
 7    1  0.7383168E-013  0.5930175E+02  0.7816164E-02  0.1266605E+00
        -11   -1    0    0    0    0  0.00000000000E+00  0.00000000000E+00  0.45593999997E+02  0.45594000000E+02  0.51100000000E-03 0.  1.
         11   -1    0    0    0    0 -0.00000000000E+00 -0.00000000000E+00 -0.45593999997E+02  0.45594000000E+02  0.51100000000E-03 0. -1.
    9900012    2    1    2    0    0 -0.13073528646E+02  0.52731502617E+01 -0.28600872366E+02  0.59301746456E+02  0.49999639676E+02 0.  0.
        -12    1    1    2    0    0  0.13073528646E+02 -0.52731502617E+01  0.28600872366E+02  0.31886253544E+02  0.00000000000E+00 0.  1.
         11    1    3    3    0    0  0.64667865693E+01 -0.65783932786E+01 -0.33378437374E+01  0.98099840845E+01  0.51100000000E-03 0. -1.
        -11    1    3    3    0    0  0.86906220675E+01 -0.39974050245E+01 -0.24153072232E+01  0.98660969027E+01  0.51100000000E-03 0.  1.
         12    1    3    3    0    0 -0.28230937282E+02  0.15848948565E+02 -0.22847721406E+02  0.39625665469E+02  0.00000000000E+00 0. -1.
</event>
<event>
 7    1  0.7383168E-013  0.5930195E+02  0.7816164E-02  0.1266605E+00
        -11   -1    0    0    0    0  0.00000000000E+00  0.00000000000E+00  0.45593999997E+02  0.45594000000E+02  0.51100000000E-03 0. -1.
         11   -1    0    0    0    0 -0.00000000000E+00 -0.00000000000E+00 -0.45593999997E+02  0.45594000000E+02  0.51100000000E-03 0.  1.
    9900012    2    1    2    0    0  0.72278362261E+01  0.29687446688E+02 -0.91178004721E+01  0.59301946735E+02  0.50000004938E+02 0.  0.
        -12    1    1    2    0    0 -0.72278362261E+01 -0.29687446688E+02  0.91178004721E+01  0.31886053265E+02  0.00000000000E+00 0.  1.
         11    1    3    3    0    0  0.15608709949E+02  0.32172925049E+01  0.47252992086E+01  0.16622612617E+02  0.51100000000E-03 0. -1.
        -11    1    3    3    0    0  0.88613363909E+01  0.11138651333E+02 -0.13480206342E+02  0.19603795536E+02  0.51100000000E-03 0.  1.
         12    1    3    3    0    0 -0.17242210114E+02  0.15331502850E+02 -0.36289333901E+00  0.23075538582E+02  0.00000000000E+00 0. -1.
</event>
<event>
 7    1  0.7383168E-013  0.5930195E+02  0.7816164E-02  0.1266605E+00
        -11   -1    0    0    0    0  0.00000000000E+00  0.00000000000E+00  0.45593999997E+02  0.45594000000E+02  0.51100000000E-03 0. -1.
         11   -1    0    0    0    0 -0.00000000000E+00 -0.00000000000E+00 -0.45593999997E+02  0.45594000000E+02  0.51100000000E-03 0.  1.
    9900012    2    1    2    0    0  0.31744341776E+02 -0.25637062403E+01  0.15635173000E+01  0.59301946453E+02  0.50000004423E+02 0.  0.
        -12    1    1    2    0    0 -0.31744341776E+02  0.25637062403E+01 -0.15635173000E+01  0.31886053547E+02  0.00000000000E+00 0.  1.
         11    1    3    3    0    0 -0.64435678925E+00  0.10895157013E+02  0.39351083989E+01  0.11601927442E+02  0.51100000000E-03 0. -1.
        -11    1    3    3    0    0  0.26944181589E+02 -0.36262002237E+01 -0.14790811207E+02  0.30950062132E+02  0.51100000000E-03 0.  1.
         12    1    3    3    0    0  0.54445169761E+01 -0.98326630294E+01  0.12419220108E+02  0.16749956879E+02  0.00000000000E+00 0. -1.
</event>
<event>
 7    1  0.7383168E-013  0.5930194E+02  0.7816164E-02  0.1266605E+00
        -11   -1    0    0    0    0  0.00000000000E+00  0.00000000000E+00  0.45593999997E+02  0.45594000000E+02  0.51100000000E-03 0.  1.
         11   -1    0    0    0    0 -0.00000000000E+00 -0.00000000000E+00 -0.45593999997E+02  0.45594000000E+02  0.51100000000E-03 0. -1.
    9900012    2    1    2    0    0 -0.18610723847E+02 -0.23122476135E+02 -0.11649582685E+02  0.59301941582E+02  0.49999995539E+02 0.  0.
        -12    1    1    2    0    0  0.18610723847E+02  0.23122476135E+02  0.11649582685E+02  0.31886058418E+02  0.00000000000E+00 0.  1.
         11    1    3    3    0    0  0.73450417070E+00 -0.11814922188E+01 -0.33821247757E+01  0.36570737618E+01  0.51100000000E-03 0. -1.
        -11    1    3    3    0    0  0.58735861219E+01 -0.27284062982E+02 -0.10386828421E+02  0.29779276547E+02  0.51100000000E-03 0.  1.
        -12    1    3    3    0    0 -0.25218814140E+02  0.53430790662E+01  0.21193705122E+01  0.25865591273E+02  0.00000000000E+00 0.  1.
</event>
<event>
 7    1  0.7383168E-013  0.5930193E+02  0.7816164E-02  0.1266605E+00
        -11   -1    0    0    0    0  0.00000000000E+00  0.00000000000E+00  0.45593999997E+02  0.45594000000E+02  0.51100000000E-03 0.  1.
         11   -1    0    0    0    0 -0.00000000000E+00 -0.00000000000E+00 -0.45593999997E+02  0.45594000000E+02  0.51100000000E-03 0. -1.
    9900012    2    1    2    0    0 -0.41718365724E+01 -0.86248951795E+01 -0.30412640487E+02  0.59301925631E+02  0.49999966449E+02 0.  0.
        -12    1    1    2    0    0  0.41718365724E+01  0.86248951795E+01  0.30412640487E+02  0.31886074369E+02  0.00000000000E+00 0.  1.
         11    1    3    3    0    0 -0.22865876166E+02 -0.18837991001E-01 -0.88334736575E+01  0.24512831432E+02  0.51100000000E-03 0. -1.
        -11    1    3    3    0    0 -0.25188258761E+01  0.21428401879E+01 -0.13639061693E+01  0.35772179364E+01  0.51100000000E-03 0.  1.
         12    1    3    3    0    0  0.21212865470E+02 -0.10748897376E+02 -0.20215260660E+02  0.31211876262E+02  0.00000000000E+00 0. -1.
</event>
<event>
 7    1  0.7383168E-013  0.5930227E+02  0.7816164E-02  0.1266604E+00
        -11   -1    0    0    0    0  0.00000000000E+00  0.00000000000E+00  0.45593999997E+02  0.45594000000E+02  0.51100000000E-03 0.  1.
         11   -1    0    0    0    0 -0.00000000000E+00 -0.00000000000E+00 -0.45593999997E+02  0.45594000000E+02  0.51100000000E-03 0. -1.
    9900012    2    1    2    0    0  0.17017640361E+02 -0.21907112479E+02  0.15721906442E+02  0.59302266469E+02  0.50000588053E+02 0.  0.
        -12    1    1    2    0    0 -0.17017640361E+02  0.21907112479E+02 -0.15721906442E+02  0.31885733531E+02  0.00000000000E+00 0.  1.
         11    1    3    3    0    0  0.28870644464E+02 -0.22416366746E+02  0.59161920508E+01  0.37027137865E+02  0.51100000000E-03 0. -1.
        -11    1    3    3    0    0  0.33255367377E+00 -0.59167630036E+01  0.47705014683E+01  0.76076514712E+01  0.51100000000E-03 0.  1.
        -12    1    3    3    0    0 -0.12185557776E+02  0.64260172704E+01  0.50352129226E+01  0.14667477133E+02  0.00000000000E+00 0.  1.
</event>
<event>
 7    1  0.7383168E-013  0.5930197E+02  0.7816164E-02  0.1266605E+00
        -11   -1    0    0    0    0  0.00000000000E+00  0.00000000000E+00  0.45593999997E+02  0.45594000000E+02  0.51100000000E-03 0.  1.
         11   -1    0    0    0    0 -0.00000000000E+00 -0.00000000000E+00 -0.45593999997E+02  0.45594000000E+02  0.51100000000E-03 0. -1.
    9900012    2    1    2    0    0  0.38141058898E+01  0.19326577689E+02 -0.25072996798E+02  0.59301965795E+02  0.50000039698E+02 0.  0.
        -12    1    1    2    0    0 -0.38141058898E+01 -0.19326577689E+02  0.25072996798E+02  0.31886034205E+02  0.00000000000E+00 0.  1.
         11    1    3    3    0    0  0.97090631122E+01 -0.50766419931E+01  0.24824154942E+01  0.11233903480E+02  0.51100000000E-03 0. -1.
        -11    1    3    3    0    0 -0.10186913339E+02  0.35982643035E+01  0.26657576029E+01  0.11127756882E+02  0.51100000000E-03 0.  1.
         12    1    3    3    0    0  0.42919561166E+01  0.20804955378E+02 -0.30221169895E+02  0.36940305433E+02  0.00000000000E+00 0. -1.
</event>
<event>
 7    1  0.7383168E-013  0.5930190E+02  0.7816164E-02  0.1266605E+00
        -11   -1    0    0    0    0  0.00000000000E+00  0.00000000000E+00  0.45593999997E+02  0.45594000000E+02  0.51100000000E-03 0.  1.
         11   -1    0    0    0    0 -0.00000000000E+00 -0.00000000000E+00 -0.45593999997E+02  0.45594000000E+02  0.51100000000E-03 0. -1.
    9900012    2    1    2    0    0  0.80946197834E+01 -0.95791313235E+01 -0.29316216334E+02  0.59301903241E+02  0.49999925615E+02 0.  0.
        -12    1    1    2    0    0 -0.80946197834E+01  0.95791313235E+01  0.29316216334E+02  0.31886096759E+02  0.00000000000E+00 0.  1.
         11    1    3    3    0    0  0.11739143276E+02  0.11458235862E+02 -0.12519818344E+02  0.20636000231E+02  0.51100000000E-03 0. -1.
        -11    1    3    3    0    0 -0.75012821083E+01  0.33139438212E+01  0.99670248310E+00  0.82610455161E+01  0.51100000000E-03 0.  1.
         12    1    3    3    0    0  0.38567586154E+01 -0.24351311007E+02 -0.17793100474E+02  0.30404857494E+02  0.00000000000E+00 0. -1.
</event>
<event>
 7    1  0.7383168E-013  0.5930195E+02  0.7816164E-02  0.1266605E+00
        -11   -1    0    0    0    0  0.00000000000E+00  0.00000000000E+00  0.45593999997E+02  0.45594000000E+02  0.51100000000E-03 0.  1.
         11   -1    0    0    0    0 -0.00000000000E+00 -0.00000000000E+00 -0.45593999997E+02  0.45594000000E+02  0.51100000000E-03 0. -1.
    9900012    2    1    2    0    0 -0.24214081243E+02 -0.94846130161E+01 -0.18451032176E+02  0.59301949714E+02  0.50000010370E+02 0.  0.
        -12    1    1    2    0    0  0.24214081243E+02  0.94846130161E+01  0.18451032176E+02  0.31886050286E+02  0.00000000000E+00 0.  1.
         11    1    3    3    0    0 -0.21933530831E+02 -0.10766003094E+02 -0.29537646582E+02  0.38333525317E+02  0.51100000000E-03 0. -1.
        -11    1    3    3    0    0 -0.17858721798E+01 -0.59319349900E+01 -0.15712626207E+01  0.63910921330E+01  0.51100000000E-03 0.  1.
        -12    1    3    3    0    0 -0.49467823202E+00  0.72133250682E+01  0.12657877027E+02  0.14577332264E+02  0.00000000000E+00 0.  1.
</event>
<event>
 7    1  0.7383168E-013  0.5930195E+02  0.7816164E-02  0.1266605E+00
        -11   -1    0    0    0    0  0.00000000000E+00  0.00000000000E+00  0.45593999997E+02  0.45594000000E+02  0.51100000000E-03 0.  1.
         11   -1    0    0    0    0 -0.00000000000E+00 -0.00000000000E+00 -0.45593999997E+02  0.45594000000E+02  0.51100000000E-03 0. -1.
    9900012    2    1    2    0    0  0.11448626618E+02  0.25605562335E+01 -0.29649497091E+02  0.59301950113E+02  0.50000011097E+02 0.  0.
        -12    1    1    2    0    0 -0.11448626618E+02 -0.25605562335E+01  0.29649497091E+02  0.31886049887E+02  0.00000000000E+00 0.  1.
         11    1    3    3    0    0 -0.63672988270E+01  0.15955903890E+01 -0.18535554848E+02  0.19663549954E+02  0.51100000000E-03 0. -1.
        -11    1    3    3    0    0 -0.70778034847E+01 -0.44208784113E+01  0.47793238161E+01  0.96167252480E+01  0.51100000000E-03 0.  1.
         12    1    3    3    0    0  0.24893728930E+02  0.53858442558E+01 -0.15893266060E+02  0.30021674910E+02  0.00000000000E+00 0. -1.
</event>
<event>
 7    1  0.1030419E-012  0.5930204E+02  0.7816164E-02  0.1266604E+00
        -11   -1    0    0    0    0  0.00000000000E+00  0.00000000000E+00  0.45593999997E+02  0.45594000000E+02  0.51100000000E-03 0. -1.
         11   -1    0    0    0    0 -0.00000000000E+00 -0.00000000000E+00 -0.45593999997E+02  0.45594000000E+02  0.51100000000E-03 0.  1.
    9900012    2    1    2    0    0 -0.44177703220E+01  0.12172254504E+02  0.29138188450E+02  0.59302039132E+02  0.50000173447E+02 0.  0.
        -12    1    1    2    0    0  0.44177703220E+01 -0.12172254504E+02 -0.29138188450E+02  0.31885960868E+02  0.00000000000E+00 0.  1.
         11    1    3    3    0    0  0.10884064571E+02 -0.21917431341E+00  0.15538573950E+02  0.18972563865E+02  0.51100000000E-03 0. -1.
        -11    1    3    3    0    0  0.33997745429E+00  0.14349114846E+02 -0.56707613502E+01  0.15432764370E+02  0.51100000000E-03 0.  1.
         12    1    3    3    0    0 -0.15641812347E+02 -0.19576860286E+01  0.19270375850E+02  0.24896710897E+02  0.00000000000E+00 0. -1.
</event>
<event>
 7    1  0.7383168E-013  0.5930189E+02  0.7816164E-02  0.1266605E+00
        -11   -1    0    0    0    0  0.00000000000E+00  0.00000000000E+00  0.45593999997E+02  0.45594000000E+02  0.51100000000E-03 0.  1.
         11   -1    0    0    0    0 -0.00000000000E+00 -0.00000000000E+00 -0.45593999997E+02  0.45594000000E+02  0.51100000000E-03 0. -1.
    9900012    2    1    2    0    0 -0.18640247223E+02 -0.25355833924E+02 -0.51329051057E+01  0.59301892596E+02  0.49999906201E+02 0.  0.
        -12    1    1    2    0    0  0.18640247223E+02  0.25355833924E+02  0.51329051057E+01  0.31886107404E+02  0.00000000000E+00 0.  1.
         11    1    3    3    0    0 -0.91409082170E+00  0.13415212199E+00 -0.68558656122E+01  0.69178358159E+01  0.51100000000E-03 0. -1.
        -11    1    3    3    0    0 -0.96475547851E+01  0.50098841391E+01 -0.13515865775E+02  0.17345111136E+02  0.51100000000E-03 0.  1.
         12    1    3    3    0    0 -0.80786016164E+01 -0.30499870185E+02  0.15238826282E+02  0.35038945644E+02  0.00000000000E+00 0. -1.
</event>
<event>
 7    1  0.7383168E-013  0.5930195E+02  0.7816164E-02  0.1266605E+00
        -11   -1    0    0    0    0  0.00000000000E+00  0.00000000000E+00  0.45593999997E+02  0.45594000000E+02  0.51100000000E-03 0.  1.
         11   -1    0    0    0    0 -0.00000000000E+00 -0.00000000000E+00 -0.45593999997E+02  0.45594000000E+02  0.51100000000E-03 0. -1.
    9900012    2    1    2    0    0 -0.14339334761E+02 -0.28156450852E+02  0.42799767940E+01  0.59301945880E+02  0.50000003378E+02 0.  0.
        -12    1    1    2    0    0  0.14339334761E+02  0.28156450852E+02 -0.42799767940E+01  0.31886054120E+02  0.00000000000E+00 0.  1.
         11    1    3    3    0    0  0.64431871641E+01 -0.21743910946E+02 -0.42775089976E+01  0.23078331992E+02  0.51100000000E-03 0. -1.
        -11    1    3    3    0    0 -0.10420597454E+02 -0.13547987024E+02 -0.49204693357E+01  0.17786169414E+02  0.51100000000E-03 0.  1.
        -12    1    3    3    0    0 -0.10361924471E+02  0.71354471173E+01  0.13477955127E+02  0.18437444474E+02  0.00000000000E+00 0.  1.
</event>
<event>
 7    1  0.7383168E-013  0.5930194E+02  0.7816164E-02  0.1266605E+00
        -11   -1    0    0    0    0  0.00000000000E+00  0.00000000000E+00  0.45593999997E+02  0.45594000000E+02  0.51100000000E-03 0. -1.
         11   -1    0    0    0    0 -0.00000000000E+00 -0.00000000000E+00 -0.45593999997E+02  0.45594000000E+02  0.51100000000E-03 0.  1.
    9900012    2    1    2    0    0 -0.23515312733E+02 -0.34215361540E+01  0.21261327835E+02  0.59301938721E+02  0.49999990322E+02 0.  0.
        -12    1    1    2    0    0  0.23515312733E+02  0.34215361540E+01 -0.21261327835E+02  0.31886061279E+02  0.00000000000E+00 0.  1.
         11    1    3    3    0    0  0.18278425002E+01  0.20853032068E+01  0.84212209546E+01  0.88660284399E+01  0.51100000000E-03 0. -1.
        -11    1    3    3    0    0 -0.18803641259E+02  0.18553754134E+01 -0.12898619055E+02  0.22877799639E+02  0.51100000000E-03 0.  1.
         12    1    3    3    0    0 -0.65395139739E+01 -0.73622147742E+01  0.25738725935E+02  0.27558110642E+02  0.00000000000E+00 0. -1.
</event>
<event>
 7    1  0.7383168E-013  0.5930198E+02  0.7816164E-02  0.1266605E+00
        -11   -1    0    0    0    0  0.00000000000E+00  0.00000000000E+00  0.45593999997E+02  0.45594000000E+02  0.51100000000E-03 0.  1.
         11   -1    0    0    0    0 -0.00000000000E+00 -0.00000000000E+00 -0.45593999997E+02  0.45594000000E+02  0.51100000000E-03 0. -1.
    9900012    2    1    2    0    0  0.23654681086E+02  0.20425725565E+02 -0.63217054298E+01  0.59301981722E+02  0.50000068744E+02 0.  0.
        -12    1    1    2    0    0 -0.23654681086E+02 -0.20425725565E+02  0.63217054298E+01  0.31886018278E+02  0.00000000000E+00 0.  1.
         11    1    3    3    0    0  0.65442117404E+01  0.23088228195E+02 -0.26154989216E+01  0.24139880351E+02  0.51100000000E-03 0. -1.
        -11    1    3    3    0    0 -0.29709398877E+01  0.10528144863E+02 -0.12680801328E+01  0.11012553998E+02  0.51100000000E-03 0.  1.
         12    1    3    3    0    0  0.20081409233E+02 -0.13190647493E+02 -0.24381263754E+01  0.24149547373E+02  0.00000000000E+00 0. -1.
</event>
<event>
 7    1  0.7383168E-013  0.5930195E+02  0.7816164E-02  0.1266605E+00
        -11   -1    0    0    0    0  0.00000000000E+00  0.00000000000E+00  0.45593999997E+02  0.45594000000E+02  0.51100000000E-03 0. -1.
         11   -1    0    0    0    0 -0.00000000000E+00 -0.00000000000E+00 -0.45593999997E+02  0.45594000000E+02  0.51100000000E-03 0.  1.
    9900012    2    1    2    0    0 -0.39427071843E+01 -0.58527175840E+01  0.31095355552E+02  0.59301946936E+02  0.50000005305E+02 0.  0.
        -12    1    1    2    0    0  0.39427071843E+01  0.58527175840E+01 -0.31095355552E+02  0.31886053064E+02  0.00000000000E+00 0.  1.
         11    1    3    3    0    0  0.15494655005E+02  0.12232422691E+02  0.17935863489E+02  0.26672302075E+02  0.51100000000E-03 0. -1.
        -11    1    3    3    0    0 -0.14825120279E+02 -0.44719620766E+01  0.67724895515E+01  0.16901161235E+02  0.51100000000E-03 0.  1.
        -12    1    3    3    0    0 -0.46122419110E+01 -0.13613178198E+02  0.63870025116E+01  0.15728483627E+02  0.00000000000E+00 0.  1.
</event>
<event>
 7    1  0.7383168E-013  0.5930194E+02  0.7816164E-02  0.1266605E+00
        -11   -1    0    0    0    0  0.00000000000E+00  0.00000000000E+00  0.45593999997E+02  0.45594000000E+02  0.51100000000E-03 0.  1.
         11   -1    0    0    0    0 -0.00000000000E+00 -0.00000000000E+00 -0.45593999997E+02  0.45594000000E+02  0.51100000000E-03 0. -1.
    9900012    2    1    2    0    0 -0.28374112988E+01  0.31531493773E+02  0.37993361386E+01  0.59301937880E+02  0.49999988788E+02 0.  0.
        -12    1    1    2    0    0  0.28374112988E+01 -0.31531493773E+02 -0.37993361386E+01  0.31886062120E+02  0.00000000000E+00 0.  1.
         11    1    3    3    0    0  0.10738022279E+02  0.11419136574E+02 -0.31132472955E+01  0.15981054769E+02  0.51100000000E-03 0. -1.
        -11    1    3    3    0    0  0.10817529026E+02  0.13088997536E+02 -0.11907998971E+00  0.16981017962E+02  0.51100000000E-03 0.  1.
        -12    1    3    3    0    0 -0.24392962603E+02  0.70233596627E+01  0.70316634238E+01  0.26339865148E+02  0.00000000000E+00 0.  1.
</event>
<event>
 7    1  0.7383168E-013  0.5930200E+02  0.7816164E-02  0.1266605E+00
        -11   -1    0    0    0    0  0.00000000000E+00  0.00000000000E+00  0.45593999997E+02  0.45594000000E+02  0.51100000000E-03 0.  1.
         11   -1    0    0    0    0 -0.00000000000E+00 -0.00000000000E+00 -0.45593999997E+02  0.45594000000E+02  0.51100000000E-03 0. -1.
    9900012    2    1    2    0    0  0.28535554878E+02  0.58554205606E+01 -0.12967383246E+02  0.59302001969E+02  0.50000105672E+02 0.  0.
        -12    1    1    2    0    0 -0.28535554878E+02 -0.58554205606E+01  0.12967383246E+02  0.31885998031E+02  0.00000000000E+00 0.  1.
         11    1    3    3    0    0  0.94221666244E+01  0.13475115233E+02 -0.51353097297E+00  0.16450521839E+02  0.51100000000E-03 0. -1.
        -11    1    3    3    0    0 -0.82869380371E+01  0.14035351449E+01 -0.11164855626E+02  0.13974879404E+02  0.51100000000E-03 0.  1.
         12    1    3    3    0    0  0.27400326291E+02 -0.90232298173E+01 -0.12889966469E+01  0.28876600727E+02  0.00000000000E+00 0. -1.
</event>
