<event>
 7    1  0.1549900E-008  0.4614232E+02  0.7816164E-02  0.1320468E+00
        -11   -1    0    0    0    0  0.00000000000E+00  0.00000000000E+00  0.45593999997E+02  0.45594000000E+02  0.51100000000E-03 0. -1.
         11   -1    0    0    0    0 -0.00000000000E+00 -0.00000000000E+00 -0.45593999997E+02  0.45594000000E+02  0.51100000000E-03 0.  1.
    9900012    2    1    2    0    0 -0.41782187793E+02  0.78463593342E+01  0.14892847684E+02  0.46142317813E+02  0.10000000475E+02 0.  0.
        -12    1    1    2    0    0  0.41782187793E+02 -0.78463593342E+01 -0.14892847684E+02  0.45045682187E+02  0.00000000000E+00 0.  1.
         11    1    3    3    0    0 -0.95116115513E+01  0.16755559281E+01  0.58593778733E+01  0.11296484024E+02  0.51100000000E-03 0. -1.
        -11    1    3    3    0    0 -0.13661740639E+02  0.14471191400E+01  0.73301942620E+01  0.15571418024E+02  0.51100000000E-03 0.  1.
        -12    1    3    3    0    0 -0.18608835602E+02  0.47236842662E+01  0.17032755484E+01  0.19274415766E+02  0.00000000000E+00 0.  1.
</event>
<event>
 7    1  0.1549900E-008  0.4614232E+02  0.7816164E-02  0.1320468E+00
        -11   -1    0    0    0    0  0.00000000000E+00  0.00000000000E+00  0.45593999997E+02  0.45594000000E+02  0.51100000000E-03 0.  1.
         11   -1    0    0    0    0 -0.00000000000E+00 -0.00000000000E+00 -0.45593999997E+02  0.45594000000E+02  0.51100000000E-03 0. -1.
    9900012    2    1    2    0    0 -0.26026660934E+02 -0.34115641651E+02  0.13705820321E+02  0.46142316574E+02  0.99999891755E+01 0.  0.
        -12    1    1    2    0    0  0.26026660934E+02  0.34115641651E+02 -0.13705820321E+02  0.45045683426E+02  0.00000000000E+00 0.  1.
         11    1    3    3    0    0 -0.15447272611E+02 -0.21065977551E+02  0.69989323942E+01  0.27044014055E+02  0.51100000000E-03 0. -1.
        -11    1    3    3    0    0 -0.82412300704E+01 -0.59372819906E+01  0.53824157234E+01  0.11495198554E+02  0.51100000000E-03 0.  1.
        -12    1    3    3    0    0 -0.23381582526E+01 -0.71123821100E+01  0.13244722034E+01  0.76031039655E+01  0.00000000000E+00 0.  1.
</event>
<event>
 7    1  0.1549900E-008  0.4614232E+02  0.7816164E-02  0.1320468E+00
        -11   -1    0    0    0    0  0.00000000000E+00  0.00000000000E+00  0.45593999997E+02  0.45594000000E+02  0.51100000000E-03 0.  1.
         11   -1    0    0    0    0 -0.00000000000E+00 -0.00000000000E+00 -0.45593999997E+02  0.45594000000E+02  0.51100000000E-03 0. -1.
    9900012    2    1    2    0    0  0.10957539825E+02  0.31043204964E+01 -0.43582209986E+02  0.46142317498E+02  0.99999976030E+01 0.  0.
        -12    1    1    2    0    0 -0.10957539825E+02 -0.31043204964E+01  0.43582209986E+02  0.45045682502E+02  0.00000000000E+00 0.  1.
         11    1    3    3    0    0  0.10636586290E+02  0.53217817735E+00 -0.31247509603E+02  0.33012528503E+02  0.51100000000E-03 0. -1.
        -11    1    3    3    0    0 -0.12664821595E+01 -0.22152685001E+00 -0.36321158858E+01  0.38529621429E+01  0.51100000000E-03 0.  1.
         12    1    3    3    0    0  0.15874356942E+01  0.27936691690E+01 -0.87025844980E+01  0.92768268526E+01  0.00000000000E+00 0. -1.
</event>
<event>
 7    1  0.1549900E-008  0.4614232E+02  0.7816164E-02  0.1320468E+00
        -11   -1    0    0    0    0  0.00000000000E+00  0.00000000000E+00  0.45593999997E+02  0.45594000000E+02  0.51100000000E-03 0.  1.
         11   -1    0    0    0    0 -0.00000000000E+00 -0.00000000000E+00 -0.45593999997E+02  0.45594000000E+02  0.51100000000E-03 0. -1.
    9900012    2    1    2    0    0  0.18584959972E+02  0.36865080377E+02 -0.18018839290E+02  0.46142318101E+02  0.10000003102E+02 0.  0.
        -12    1    1    2    0    0 -0.18584959972E+02 -0.36865080377E+02  0.18018839290E+02  0.45045681899E+02  0.00000000000E+00 0.  1.
         11    1    3    3    0    0 -0.44406493486E+00  0.31727876152E+01 -0.30098790672E+01  0.43958101844E+01  0.51100000000E-03 0. -1.
        -11    1    3    3    0    0  0.67096416735E+01  0.96690349904E+01 -0.26983492536E+01  0.12074378576E+02  0.51100000000E-03 0.  1.
         12    1    3    3    0    0  0.12319383233E+02  0.24023257772E+02 -0.12310610969E+02  0.29672129341E+02  0.00000000000E+00 0. -1.
</event>
<event>
 7    1  0.1549900E-008  0.4614232E+02  0.7816164E-02  0.1320468E+00
        -11   -1    0    0    0    0  0.00000000000E+00  0.00000000000E+00  0.45593999997E+02  0.45594000000E+02  0.51100000000E-03 0. -1.
         11   -1    0    0    0    0 -0.00000000000E+00 -0.00000000000E+00 -0.45593999997E+02  0.45594000000E+02  0.51100000000E-03 0.  1.
    9900012    2    1    2    0    0  0.44553499276E+02  0.24575601185E+01 -0.61692516932E+01  0.46142316900E+02  0.99999921502E+01 0.  0.
        -12    1    1    2    0    0 -0.44553499276E+02 -0.24575601185E+01  0.61692516932E+01  0.45045683100E+02  0.00000000000E+00 0.  1.
         11    1    3    3    0    0  0.43901890321E+01 -0.51591941681E+00 -0.33644675352E+00  0.44331850019E+01  0.51100000000E-03 0. -1.
        -11    1    3    3    0    0  0.37040242432E+02  0.17644444777E+00 -0.45172969284E+01  0.37315099677E+02  0.51100000000E-03 0.  1.
        -12    1    3    3    0    0  0.31230678116E+01  0.27970350876E+01 -0.13155080113E+01  0.43940322216E+01  0.00000000000E+00 0.  1.
</event>
<event>
 7    1  0.1549900E-008  0.4614232E+02  0.7816164E-02  0.1320468E+00
        -11   -1    0    0    0    0  0.00000000000E+00  0.00000000000E+00  0.45593999997E+02  0.45594000000E+02  0.51100000000E-03 0.  1.
         11   -1    0    0    0    0 -0.00000000000E+00 -0.00000000000E+00 -0.45593999997E+02  0.45594000000E+02  0.51100000000E-03 0. -1.
    9900012    2    1    2    0    0 -0.96850410401E+01 -0.10500785671E+02 -0.42720566019E+02  0.46142320067E+02  0.10000021026E+02 0.  0.
        -12    1    1    2    0    0  0.96850410401E+01  0.10500785671E+02  0.42720566019E+02  0.45045679933E+02  0.00000000000E+00 0.  1.
         11    1    3    3    0    0 -0.19571448247E+01 -0.16571442390E+01 -0.83065102874E+01  0.86933685249E+01  0.51100000000E-03 0. -1.
        -11    1    3    3    0    0 -0.10668648795E+01 -0.17797229869E+01 -0.44846951088E+00  0.21229083222E+01  0.51100000000E-03 0.  1.
        -12    1    3    3    0    0 -0.66610313359E+01 -0.70639184448E+01 -0.33965586221E+02  0.35326043220E+02  0.00000000000E+00 0.  1.
</event>
<event>
 7    1  0.1549900E-008  0.4614232E+02  0.7816164E-02  0.1320468E+00
        -11   -1    0    0    0    0  0.00000000000E+00  0.00000000000E+00  0.45593999997E+02  0.45594000000E+02  0.51100000000E-03 0. -1.
         11   -1    0    0    0    0 -0.00000000000E+00 -0.00000000000E+00 -0.45593999997E+02  0.45594000000E+02  0.51100000000E-03 0.  1.
    9900012    2    1    2    0    0  0.35189281237E+02  0.99235460894E+01  0.26312567590E+02  0.46142317697E+02  0.99999994130E+01 0.  0.
        -12    1    1    2    0    0 -0.35189281237E+02 -0.99235460894E+01 -0.26312567590E+02  0.45045682303E+02  0.00000000000E+00 0.  1.
         11    1    3    3    0    0  0.13957793234E+02  0.28343167778E+01  0.56665787927E+01  0.15328517836E+02  0.51100000000E-03 0. -1.
        -11    1    3    3    0    0  0.34340277403E+01  0.28974693050E+01  0.29959488885E+01  0.54003319248E+01  0.51100000000E-03 0.  1.
         12    1    3    3    0    0  0.17797460263E+02  0.41917600066E+01  0.17650039909E+02  0.25413467936E+02  0.00000000000E+00 0. -1.
</event>
<event>
 7    1  0.1549900E-008  0.4614232E+02  0.7816164E-02  0.1320468E+00
        -11   -1    0    0    0    0  0.00000000000E+00  0.00000000000E+00  0.45593999997E+02  0.45594000000E+02  0.51100000000E-03 0. -1.
         11   -1    0    0    0    0 -0.00000000000E+00 -0.00000000000E+00 -0.45593999997E+02  0.45594000000E+02  0.51100000000E-03 0.  1.
    9900012    2    1    2    0    0  0.35039420483E+02  0.25779768825E+02 -0.11694270419E+02  0.46142318419E+02  0.10000005998E+02 0.  0.
        -12    1    1    2    0    0 -0.35039420483E+02 -0.25779768825E+02  0.11694270419E+02  0.45045681581E+02  0.00000000000E+00 0.  1.
         11    1    3    3    0    0  0.88003135127E+01  0.11338903673E+02 -0.15026024881E+01  0.14431703605E+02  0.51100000000E-03 0. -1.
        -11    1    3    3    0    0  0.17508494238E+02  0.10706372110E+02 -0.73450226585E+01  0.21797319385E+02  0.51100000000E-03 0.  1.
        -12    1    3    3    0    0  0.87306127326E+01  0.37344930418E+01 -0.28466452726E+01  0.99132954295E+01  0.00000000000E+00 0.  1.
</event>
<event>
 7    1  0.1549900E-008  0.4614232E+02  0.7816164E-02  0.1320468E+00
        -11   -1    0    0    0    0  0.00000000000E+00  0.00000000000E+00  0.45593999997E+02  0.45594000000E+02  0.51100000000E-03 0.  1.
         11   -1    0    0    0    0 -0.00000000000E+00 -0.00000000000E+00 -0.45593999997E+02  0.45594000000E+02  0.51100000000E-03 0. -1.
    9900012    2    1    2    0    0 -0.42221479330E+02 -0.87418949486E+01 -0.13039915475E+02  0.46142318301E+02  0.10000004921E+02 0.  0.
        -12    1    1    2    0    0  0.42221479330E+02  0.87418949486E+01  0.13039915475E+02  0.45045681699E+02  0.00000000000E+00 0.  1.
         11    1    3    3    0    0 -0.17657114038E+02 -0.34236753486E+01 -0.51004236466E+01  0.18695174529E+02  0.51100000000E-03 0. -1.
        -11    1    3    3    0    0 -0.11154561313E+02 -0.41799989866E+01 -0.73063407807E+01  0.13974235059E+02  0.51100000000E-03 0.  1.
        -12    1    3    3    0    0 -0.13409803979E+02 -0.11382206134E+01 -0.63315104806E+00  0.13472908712E+02  0.00000000000E+00 0.  1.
</event>
<event>
 7    1  0.1549900E-008  0.4614232E+02  0.7816164E-02  0.1320468E+00
        -11   -1    0    0    0    0  0.00000000000E+00  0.00000000000E+00  0.45593999997E+02  0.45594000000E+02  0.51100000000E-03 0.  1.
         11   -1    0    0    0    0 -0.00000000000E+00 -0.00000000000E+00 -0.45593999997E+02  0.45594000000E+02  0.51100000000E-03 0. -1.
    9900012    2    1    2    0    0  0.30730052001E+02 -0.14155860703E+02 -0.29738675068E+02  0.46142320040E+02  0.10000020780E+02 0.  0.
        -12    1    1    2    0    0 -0.30730052001E+02  0.14155860703E+02  0.29738675068E+02  0.45045679960E+02  0.00000000000E+00 0.  1.
         11    1    3    3    0    0  0.17098629198E+02 -0.37905311625E+01 -0.12925593698E+02  0.21766998406E+02  0.51100000000E-03 0. -1.
        -11    1    3    3    0    0  0.13112312969E+02 -0.10761944074E+02 -0.16442206011E+02  0.23624104860E+02  0.51100000000E-03 0.  1.
         12    1    3    3    0    0  0.51910983482E+00  0.39661453356E+00 -0.37087535935E+00  0.75121677364E+00  0.00000000000E+00 0. -1.
</event>
<event>
 7    1  0.1549900E-008  0.4614232E+02  0.7816164E-02  0.1320468E+00
        -11   -1    0    0    0    0  0.00000000000E+00  0.00000000000E+00  0.45593999997E+02  0.45594000000E+02  0.51100000000E-03 0.  1.
         11   -1    0    0    0    0 -0.00000000000E+00 -0.00000000000E+00 -0.45593999997E+02  0.45594000000E+02  0.51100000000E-03 0. -1.
    9900012    2    1    2    0    0  0.63229556441E+01  0.13021227956E+01 -0.44580690763E+02  0.46142320066E+02  0.10000021015E+02 0.  0.
        -12    1    1    2    0    0 -0.63229556441E+01 -0.13021227956E+01  0.44580690763E+02  0.45045679934E+02  0.00000000000E+00 0.  1.
         11    1    3    3    0    0  0.24983369563E+01  0.16394091816E+01 -0.16099135763E+02  0.16374111352E+02  0.51100000000E-03 0. -1.
        -11    1    3    3    0    0  0.18326524679E+01 -0.28447224515E+01 -0.48103632099E+01  0.58813820966E+01  0.51100000000E-03 0.  1.
        -12    1    3    3    0    0  0.19919662199E+01  0.25074360655E+01 -0.23671191790E+02  0.23886826617E+02  0.00000000000E+00 0.  1.
</event>
<event>
 7    1  0.1549900E-008  0.4614232E+02  0.7816164E-02  0.1320468E+00
        -11   -1    0    0    0    0  0.00000000000E+00  0.00000000000E+00  0.45593999997E+02  0.45594000000E+02  0.51100000000E-03 0.  1.
         11   -1    0    0    0    0 -0.00000000000E+00 -0.00000000000E+00 -0.45593999997E+02  0.45594000000E+02  0.51100000000E-03 0. -1.
    9900012    2    1    2    0    0 -0.19141784112E+02  0.39610916521E+02 -0.96788856222E+01  0.46142318370E+02  0.10000005554E+02 0.  0.
        -12    1    1    2    0    0  0.19141784112E+02 -0.39610916521E+02  0.96788856222E+01  0.45045681630E+02  0.00000000000E+00 0.  1.
         11    1    3    3    0    0 -0.11522551256E+02  0.13874692342E+02 -0.17307444048E+01  0.18118271206E+02  0.51100000000E-03 0.  1.
        -11    1    3    3    0    0 -0.57207886269E+01  0.21139890734E+02 -0.64556748361E+01  0.22831954376E+02  0.51100000000E-03 0. -1.
        -12    1    3    3    0    0 -0.18984442286E+01  0.45963334448E+01 -0.14924663814E+01  0.51920927885E+01  0.00000000000E+00 0.  1.
</event>
<event>
 7    1  0.1549900E-008  0.4614232E+02  0.7816164E-02  0.1320468E+00
        -11   -1    0    0    0    0  0.00000000000E+00  0.00000000000E+00  0.45593999997E+02  0.45594000000E+02  0.51100000000E-03 0.  1.
         11   -1    0    0    0    0 -0.00000000000E+00 -0.00000000000E+00 -0.45593999997E+02  0.45594000000E+02  0.51100000000E-03 0. -1.
    9900012    2    1    2    0    0 -0.12644833766E+02 -0.36449094570E+01 -0.43080579450E+02  0.46142317503E+02  0.99999976456E+01 0.  0.
        -12    1    1    2    0    0  0.12644833766E+02  0.36449094570E+01  0.43080579450E+02  0.45045682497E+02  0.00000000000E+00 0.  1.
         11    1    3    3    0    0 -0.83396051944E+01  0.25760464768E+01 -0.26162717906E+02  0.27580298017E+02  0.51100000000E-03 0. -1.
        -11    1    3    3    0    0 -0.73115614763E+00 -0.12129250254E+01 -0.22851308526E+01  0.26884195551E+01  0.51100000000E-03 0.  1.
         12    1    3    3    0    0 -0.35740724238E+01 -0.50080309084E+01 -0.14632730691E+02  0.15873599930E+02  0.00000000000E+00 0. -1.
</event>
<event>
 7    1  0.1549900E-008  0.4614232E+02  0.7816164E-02  0.1320468E+00
        -11   -1    0    0    0    0  0.00000000000E+00  0.00000000000E+00  0.45593999997E+02  0.45594000000E+02  0.51100000000E-03 0.  1.
         11   -1    0    0    0    0 -0.00000000000E+00 -0.00000000000E+00 -0.45593999997E+02  0.45594000000E+02  0.51100000000E-03 0. -1.
    9900012    2    1    2    0    0  0.29517933786E+02  0.33395253174E+02  0.65239642543E+01  0.46142318085E+02  0.10000002958E+02 0.  0.
        -12    1    1    2    0    0 -0.29517933786E+02 -0.33395253174E+02 -0.65239642543E+01  0.45045681915E+02  0.00000000000E+00 0.  1.
         11    1    3    3    0    0  0.50297985628E+01  0.62126312511E+01 -0.92099517818E+00  0.80463589918E+01  0.51100000000E-03 0. -1.
        -11    1    3    3    0    0  0.89538107476E+01  0.50560373921E+01  0.28767508790E+01  0.10677543580E+02  0.51100000000E-03 0.  1.
         12    1    3    3    0    0  0.15534324475E+02  0.22126584531E+02  0.45682085534E+01  0.27418415514E+02  0.00000000000E+00 0. -1.
</event>
<event>
 7    1  0.1549900E-008  0.4614232E+02  0.7816164E-02  0.1320468E+00
        -11   -1    0    0    0    0  0.00000000000E+00  0.00000000000E+00  0.45593999997E+02  0.45594000000E+02  0.51100000000E-03 0. -1.
         11   -1    0    0    0    0 -0.00000000000E+00 -0.00000000000E+00 -0.45593999997E+02  0.45594000000E+02  0.51100000000E-03 0.  1.
    9900012    2    1    2    0    0 -0.44498775314E+02  0.18442072528E+01  0.67506565668E+01  0.46142317977E+02  0.10000001967E+02 0.  0.
        -12    1    1    2    0    0  0.44498775314E+02 -0.18442072528E+01 -0.67506565668E+01  0.45045682023E+02  0.00000000000E+00 0.  1.
         11    1    3    3    0    0 -0.74190681380E+01 -0.14552202336E+01 -0.14969468911E+01  0.77072101451E+01  0.51100000000E-03 0. -1.
        -11    1    3    3    0    0 -0.12647363640E+02  0.18081108151E+01  0.50978330395E+01  0.13755470683E+02  0.51100000000E-03 0.  1.
         12    1    3    3    0    0 -0.24432343537E+02  0.14913166713E+01  0.31497704184E+01  0.24679637149E+02  0.00000000000E+00 0. -1.
</event>
<event>
 7    1  0.1549900E-008  0.4614232E+02  0.7816164E-02  0.1320468E+00
        -11   -1    0    0    0    0  0.00000000000E+00  0.00000000000E+00  0.45593999997E+02  0.45594000000E+02  0.51100000000E-03 0. -1.
         11   -1    0    0    0    0 -0.00000000000E+00 -0.00000000000E+00 -0.45593999997E+02  0.45594000000E+02  0.51100000000E-03 0.  1.
    9900012    2    1    2    0    0 -0.10192806669E+02 -0.40175623180E+02  0.17639139193E+02  0.46142320550E+02  0.10000025427E+02 0.  0.
        -12    1    1    2    0    0  0.10192806669E+02  0.40175623180E+02 -0.17639139193E+02  0.45045679450E+02  0.00000000000E+00 0.  1.
         11    1    3    3    0    0 -0.73419677771E+01 -0.12411282737E+02  0.58775813238E+01  0.15572103021E+02  0.51100000000E-03 0. -1.
        -11    1    3    3    0    0  0.99227935479E+00 -0.70452513150E+01  0.23645277018E+01  0.74974112814E+01  0.51100000000E-03 0.  1.
         12    1    3    3    0    0 -0.38431182463E+01 -0.20719089128E+02  0.93970301676E+01  0.23072806247E+02  0.00000000000E+00 0. -1.
</event>
<event>
 7    1  0.1549900E-008  0.4614232E+02  0.7816164E-02  0.1320468E+00
        -11   -1    0    0    0    0  0.00000000000E+00  0.00000000000E+00  0.45593999997E+02  0.45594000000E+02  0.51100000000E-03 0.  1.
         11   -1    0    0    0    0 -0.00000000000E+00 -0.00000000000E+00 -0.45593999997E+02  0.45594000000E+02  0.51100000000E-03 0. -1.
    9900012    2    1    2    0    0  0.21628559576E+02  0.16197993572E+02 -0.36040866151E+02  0.46142316322E+02  0.99999868743E+01 0.  0.
        -12    1    1    2    0    0 -0.21628559576E+02 -0.16197993572E+02  0.36040866151E+02  0.45045683678E+02  0.00000000000E+00 0.  1.
         11    1    3    3    0    0  0.11951155255E+02  0.68071675852E+01 -0.21906737395E+02  0.25866441310E+02  0.51100000000E-03 0. -1.
        -11    1    3    3    0    0  0.10482896674E+00  0.30334296440E+01 -0.32783902790E+01  0.44677206269E+01  0.51100000000E-03 0.  1.
        -12    1    3    3    0    0  0.95725753548E+01  0.63573963429E+01 -0.10855738477E+02  0.15808154385E+02  0.00000000000E+00 0.  1.
</event>
<event>
 7    1  0.1549900E-008  0.4614232E+02  0.7816164E-02  0.1320468E+00
        -11   -1    0    0    0    0  0.00000000000E+00  0.00000000000E+00  0.45593999997E+02  0.45594000000E+02  0.51100000000E-03 0. -1.
         11   -1    0    0    0    0 -0.00000000000E+00 -0.00000000000E+00 -0.45593999997E+02  0.45594000000E+02  0.51100000000E-03 0.  1.
    9900012    2    1    2    0    0  0.89138081190E+01 -0.33652160113E+02  0.28586529081E+02  0.46142317628E+02  0.99999987863E+01 0.  0.
        -12    1    1    2    0    0 -0.89138081190E+01  0.33652160113E+02 -0.28586529081E+02  0.45045682372E+02  0.00000000000E+00 0.  1.
         11    1    3    3    0    0  0.37981878856E+01 -0.19056254515E+02  0.20292454683E+02  0.28095387249E+02  0.51100000000E-03 0. -1.
        -11    1    3    3    0    0  0.15060814435E+01 -0.35275678987E+01  0.14900755702E+00  0.38385179572E+01  0.51100000000E-03 0.  1.
         12    1    3    3    0    0  0.36095387899E+01 -0.11068337699E+02  0.81450668416E+01  0.14208412422E+02  0.00000000000E+00 0. -1.
</event>
<event>
 7    1  0.1549900E-008  0.4614232E+02  0.7816164E-02  0.1320468E+00
        -11   -1    0    0    0    0  0.00000000000E+00  0.00000000000E+00  0.45593999997E+02  0.45594000000E+02  0.51100000000E-03 0.  1.
         11   -1    0    0    0    0 -0.00000000000E+00 -0.00000000000E+00 -0.45593999997E+02  0.45594000000E+02  0.51100000000E-03 0. -1.
    9900012    2    1    2    0    0  0.28887122418E+02 -0.83585001430E+01 -0.33537787709E+02  0.46142316848E+02  0.99999916702E+01 0.  0.
        -12    1    1    2    0    0 -0.28887122418E+02  0.83585001430E+01  0.33537787709E+02  0.45045683152E+02  0.00000000000E+00 0.  1.
         11    1    3    3    0    0  0.22594476172E+02 -0.32807093921E+01 -0.21211417072E+02  0.31164043737E+02  0.51100000000E-03 0. -1.
        -11    1    3    3    0    0  0.52146164367E+01 -0.35470346653E+01 -0.11014196604E+02  0.12691974102E+02  0.51100000000E-03 0.  1.
        -12    1    3    3    0    0  0.10780298092E+01 -0.15307560857E+01 -0.13121740331E+01  0.22862990085E+01  0.00000000000E+00 0.  1.
</event>
<event>
 7    1  0.1549900E-008  0.4614232E+02  0.7816164E-02  0.1320468E+00
        -11   -1    0    0    0    0  0.00000000000E+00  0.00000000000E+00  0.45593999997E+02  0.45594000000E+02  0.51100000000E-03 0.  1.
         11   -1    0    0    0    0 -0.00000000000E+00 -0.00000000000E+00 -0.45593999997E+02  0.45594000000E+02  0.51100000000E-03 0. -1.
    9900012    2    1    2    0    0  0.26178995413E+02  0.35903228276E+02  0.73980644580E+01  0.46142323635E+02  0.10000053560E+02 0.  0.
        -12    1    1    2    0    0 -0.26178995413E+02 -0.35903228276E+02 -0.73980644580E+01  0.45045676365E+02  0.00000000000E+00 0.  1.
         11    1    3    3    0    0  0.12582476441E+02  0.18722717207E+02  0.26175496193E+01  0.22709258448E+02  0.51100000000E-03 0. -1.
        -11    1    3    3    0    0  0.76517683120E+01  0.46070848547E+01  0.29441501104E+01  0.94044037181E+01  0.51100000000E-03 0.  1.
        -12    1    3    3    0    0  0.59447506599E+01  0.12573426214E+02  0.18363647283E+01  0.14028661468E+02  0.00000000000E+00 0.  1.
</event>
<event>
 7    1  0.1549900E-008  0.4614232E+02  0.7816164E-02  0.1320468E+00
        -11   -1    0    0    0    0  0.00000000000E+00  0.00000000000E+00  0.45593999997E+02  0.45594000000E+02  0.51100000000E-03 0. -1.
         11   -1    0    0    0    0 -0.00000000000E+00 -0.00000000000E+00 -0.45593999997E+02  0.45594000000E+02  0.51100000000E-03 0.  1.
    9900012    2    1    2    0    0 -0.10960539763E+02  0.28967045550E+02  0.32709177988E+02  0.46142317805E+02  0.10000000398E+02 0.  0.
        -12    1    1    2    0    0  0.10960539763E+02 -0.28967045550E+02 -0.32709177988E+02  0.45045682195E+02  0.00000000000E+00 0.  1.
         11    1    3    3    0    0 -0.52391619468E+01  0.72624301499E+01  0.13585077685E+02  0.16271018577E+02  0.51100000000E-03 0. -1.
        -11    1    3    3    0    0 -0.52300893314E+01  0.10494387824E+02  0.98743674995E+01  0.15329355629E+02  0.51100000000E-03 0.  1.
        -12    1    3    3    0    0 -0.49128848433E+00  0.11210227576E+02  0.92497328037E+01  0.14541943598E+02  0.00000000000E+00 0.  1.
</event>
<event>
 7    1  0.1549900E-008  0.4614233E+02  0.7816164E-02  0.1320468E+00
        -11   -1    0    0    0    0  0.00000000000E+00  0.00000000000E+00  0.45593999997E+02  0.45594000000E+02  0.51100000000E-03 0.  1.
         11   -1    0    0    0    0 -0.00000000000E+00 -0.00000000000E+00 -0.45593999997E+02  0.45594000000E+02  0.51100000000E-03 0. -1.
    9900012    2    1    2    0    0 -0.11146820958E+02  0.27760975132E+02 -0.33677728955E+02  0.46142325565E+02  0.10000071163E+02 0.  0.
        -12    1    1    2    0    0  0.11146820958E+02 -0.27760975132E+02  0.33677728955E+02  0.45045674435E+02  0.00000000000E+00 0.  1.
         11    1    3    3    0    0 -0.10099723401E+01  0.11738596088E+00 -0.10880848458E+01  0.14892120347E+01  0.51100000000E-03 0. -1.
        -11    1    3    3    0    0  0.13062414223E+01  0.17532515827E+01 -0.29027989760E+01  0.36340610785E+01  0.51100000000E-03 0.  1.
         12    1    3    3    0    0 -0.11443090040E+02  0.25890337588E+02 -0.29686845133E+02  0.41019052452E+02  0.00000000000E+00 0. -1.
</event>
<event>
 7    1  0.1549900E-008  0.4614232E+02  0.7816164E-02  0.1320468E+00
        -11   -1    0    0    0    0  0.00000000000E+00  0.00000000000E+00  0.45593999997E+02  0.45594000000E+02  0.51100000000E-03 0.  1.
         11   -1    0    0    0    0 -0.00000000000E+00 -0.00000000000E+00 -0.45593999997E+02  0.45594000000E+02  0.51100000000E-03 0. -1.
    9900012    2    1    2    0    0 -0.32523671448E+02 -0.86722584244E+00 -0.31154008337E+02  0.46142317403E+02  0.99999967361E+01 0.  0.
        -12    1    1    2    0    0  0.32523671448E+02  0.86722584244E+00  0.31154008337E+02  0.45045682597E+02  0.00000000000E+00 0.  1.
         11    1    3    3    0    0 -0.20976535613E+02 -0.28690591879E+01 -0.23604684724E+02  0.31708479752E+02  0.51100000000E-03 0. -1.
        -11    1    3    3    0    0 -0.83729417334E+01 -0.27228118885E+00 -0.55284146381E+01  0.10037114077E+02  0.51100000000E-03 0.  1.
         12    1    3    3    0    0 -0.31741941014E+01  0.22741145344E+01 -0.20209089749E+01  0.43967235749E+01  0.00000000000E+00 0. -1.
</event>
<event>
 7    1  0.1549900E-008  0.4614232E+02  0.7816164E-02  0.1320468E+00
        -11   -1    0    0    0    0  0.00000000000E+00  0.00000000000E+00  0.45593999997E+02  0.45594000000E+02  0.51100000000E-03 0. -1.
         11   -1    0    0    0    0 -0.00000000000E+00 -0.00000000000E+00 -0.45593999997E+02  0.45594000000E+02  0.51100000000E-03 0.  1.
    9900012    2    1    2    0    0 -0.42759661438E+02 -0.29120132241E+01  0.13865250348E+02  0.46142316139E+02  0.99999852085E+01 0.  0.
        -12    1    1    2    0    0  0.42759661438E+02  0.29120132241E+01 -0.13865250348E+02  0.45045683861E+02  0.00000000000E+00 0.  1.
         11    1    3    3    0    0 -0.13539937612E+02 -0.36872366113E+00  0.64190683514E+01  0.14989006186E+02  0.51100000000E-03 0. -1.
        -11    1    3    3    0    0 -0.28986068596E+02 -0.13925949600E+01  0.67714030303E+01  0.29799050196E+02  0.51100000000E-03 0.  1.
        -12    1    3    3    0    0 -0.23365523037E+00 -0.11506946031E+01  0.67477896606E+00  0.13542597569E+01  0.00000000000E+00 0.  1.
</event>
<event>
 7    1  0.1549900E-008  0.4614232E+02  0.7816164E-02  0.1320468E+00
        -11   -1    0    0    0    0  0.00000000000E+00  0.00000000000E+00  0.45593999997E+02  0.45594000000E+02  0.51100000000E-03 0. -1.
         11   -1    0    0    0    0 -0.00000000000E+00 -0.00000000000E+00 -0.45593999997E+02  0.45594000000E+02  0.51100000000E-03 0.  1.
    9900012    2    1    2    0    0  0.36925674699E+02 -0.31111512265E+01  0.25611108229E+02  0.46142316759E+02  0.99999908640E+01 0.  0.
        -12    1    1    2    0    0 -0.36925674699E+02  0.31111512265E+01 -0.25611108229E+02  0.45045683241E+02  0.00000000000E+00 0.  1.
         11    1    3    3    0    0  0.13025836664E+02 -0.42899359563E+01  0.90881634198E+01  0.16452072390E+02  0.51100000000E-03 0. -1.
        -11    1    3    3    0    0  0.22017872483E+02  0.12697130932E+01  0.16879575183E+02  0.27772629307E+02  0.51100000000E-03 0.  1.
        -12    1    3    3    0    0  0.18819655515E+01 -0.90928363501E-01 -0.35663037351E+00  0.19176150624E+01  0.00000000000E+00 0.  1.
</event>
<event>
 7    1  0.1549900E-008  0.4614232E+02  0.7816164E-02  0.1320468E+00
        -11   -1    0    0    0    0  0.00000000000E+00  0.00000000000E+00  0.45593999997E+02  0.45594000000E+02  0.51100000000E-03 0. -1.
         11   -1    0    0    0    0 -0.00000000000E+00 -0.00000000000E+00 -0.45593999997E+02  0.45594000000E+02  0.51100000000E-03 0.  1.
    9900012    2    1    2    0    0 -0.41270191890E+02 -0.17864556694E+02 -0.25965504741E+01  0.46142320975E+02  0.10000029306E+02 0.  0.
        -12    1    1    2    0    0  0.41270191890E+02  0.17864556694E+02  0.25965504741E+01  0.45045679025E+02  0.00000000000E+00 0.  1.
         11    1    3    3    0    0 -0.11771712786E+02 -0.25478292762E+01  0.17566247432E+01  0.12171704346E+02  0.51100000000E-03 0. -1.
        -11    1    3    3    0    0 -0.16372124313E+02 -0.11539692486E+02 -0.24398947853E+01  0.20178306272E+02  0.51100000000E-03 0.  1.
        -12    1    3    3    0    0 -0.13126354791E+02 -0.37770349315E+01 -0.19132804319E+01  0.13792310357E+02  0.00000000000E+00 0.  1.
</event>
<event>
 7    1  0.1549900E-008  0.4614232E+02  0.7816164E-02  0.1320468E+00
        -11   -1    0    0    0    0  0.00000000000E+00  0.00000000000E+00  0.45593999997E+02  0.45594000000E+02  0.51100000000E-03 0.  1.
         11   -1    0    0    0    0 -0.00000000000E+00 -0.00000000000E+00 -0.45593999997E+02  0.45594000000E+02  0.51100000000E-03 0. -1.
    9900012    2    1    2    0    0 -0.27096302324E+02  0.23878444284E+01 -0.35905459998E+02  0.46142318095E+02  0.10000003041E+02 0.  0.
        -12    1    1    2    0    0  0.27096302324E+02 -0.23878444284E+01  0.35905459998E+02  0.45045681905E+02  0.00000000000E+00 0.  1.
         11    1    3    3    0    0 -0.10533673430E+02  0.54631464787E+00 -0.21241562225E+02  0.23716253955E+02  0.51100000000E-03 0. -1.
        -11    1    3    3    0    0 -0.84107791353E+01 -0.14435972038E+00 -0.89026041799E+01  0.12248200147E+02  0.51100000000E-03 0.  1.
         12    1    3    3    0    0 -0.81518497583E+01  0.19858895009E+01 -0.57612935932E+01  0.10177863993E+02  0.00000000000E+00 0. -1.
</event>
<event>
 7    1  0.1549900E-008  0.4614232E+02  0.7816164E-02  0.1320468E+00
        -11   -1    0    0    0    0  0.00000000000E+00  0.00000000000E+00  0.45593999997E+02  0.45594000000E+02  0.51100000000E-03 0.  1.
         11   -1    0    0    0    0 -0.00000000000E+00 -0.00000000000E+00 -0.45593999997E+02  0.45594000000E+02  0.51100000000E-03 0. -1.
    9900012    2    1    2    0    0 -0.13456244707E+02 -0.66370429669E+01 -0.42473433229E+02  0.46142318839E+02  0.10000009831E+02 0.  0.
        -12    1    1    2    0    0  0.13456244707E+02  0.66370429669E+01  0.42473433229E+02  0.45045681161E+02  0.00000000000E+00 0.  1.
         11    1    3    3    0    0 -0.46168854310E+01 -0.28858126886E+01 -0.13408388189E+02  0.14471641926E+02  0.51100000000E-03 0. -1.
        -11    1    3    3    0    0 -0.13823837548E+01  0.27785825151E+00 -0.15754791936E-01  0.14101200403E+01  0.51100000000E-03 0.  1.
        -12    1    3    3    0    0 -0.74569755214E+01 -0.40290885298E+01 -0.29049290248E+02  0.30260556873E+02  0.00000000000E+00 0.  1.
</event>
<event>
 7    1  0.1549900E-008  0.4614232E+02  0.7816164E-02  0.1320468E+00
        -11   -1    0    0    0    0  0.00000000000E+00  0.00000000000E+00  0.45593999997E+02  0.45594000000E+02  0.51100000000E-03 0. -1.
         11   -1    0    0    0    0 -0.00000000000E+00 -0.00000000000E+00 -0.45593999997E+02  0.45594000000E+02  0.51100000000E-03 0.  1.
    9900012    2    1    2    0    0 -0.32251793108E+02 -0.19714063781E+02  0.24500836777E+02  0.46142317941E+02  0.10000001636E+02 0.  0.
        -12    1    1    2    0    0  0.32251793108E+02  0.19714063781E+02 -0.24500836777E+02  0.45045682059E+02  0.00000000000E+00 0.  1.
         11    1    3    3    0    0 -0.10371880517E+02 -0.34355604396E+01  0.36046021620E+01  0.11505309122E+02  0.51100000000E-03 0.  1.
        -11    1    3    3    0    0 -0.10576403595E+02 -0.78518401268E+01  0.73459670988E+01  0.15082272351E+02  0.51100000000E-03 0. -1.
         12    1    3    3    0    0 -0.11303508995E+02 -0.84266632147E+01  0.13550267516E+02  0.19554736467E+02  0.00000000000E+00 0. -1.
</event>
<event>
 7    1  0.1549900E-008  0.4614232E+02  0.7816164E-02  0.1320468E+00
        -11   -1    0    0    0    0  0.00000000000E+00  0.00000000000E+00  0.45593999997E+02  0.45594000000E+02  0.51100000000E-03 0. -1.
         11   -1    0    0    0    0 -0.00000000000E+00 -0.00000000000E+00 -0.45593999997E+02  0.45594000000E+02  0.51100000000E-03 0.  1.
    9900012    2    1    2    0    0  0.41738050351E+02  0.13313952328E+02 -0.10477939934E+02  0.46142318754E+02  0.10000009052E+02 0.  0.
        -12    1    1    2    0    0 -0.41738050351E+02 -0.13313952328E+02  0.10477939934E+02  0.45045681246E+02  0.00000000000E+00 0.  1.
         11    1    3    3    0    0  0.88255536541E+01  0.58033444159E+01 -0.27096499353E+01  0.10904650693E+02  0.51100000000E-03 0.  1.
        -11    1    3    3    0    0  0.56184879510E+01  0.34677179906E+01 -0.29363327156E+01  0.72259618734E+01  0.51100000000E-03 0. -1.
        -12    1    3    3    0    0  0.27294008746E+02  0.40428899214E+01 -0.48319572827E+01  0.28011706187E+02  0.00000000000E+00 0.  1.
</event>
<event>
 7    1  0.1549900E-008  0.4614232E+02  0.7816164E-02  0.1320468E+00
        -11   -1    0    0    0    0  0.00000000000E+00  0.00000000000E+00  0.45593999997E+02  0.45594000000E+02  0.51100000000E-03 0.  1.
         11   -1    0    0    0    0 -0.00000000000E+00 -0.00000000000E+00 -0.45593999997E+02  0.45594000000E+02  0.51100000000E-03 0. -1.
    9900012    2    1    2    0    0 -0.28734461647E+02 -0.19698278840E+02 -0.28555594385E+02  0.46142318231E+02  0.10000004284E+02 0.  0.
        -12    1    1    2    0    0  0.28734461647E+02  0.19698278840E+02  0.28555594385E+02  0.45045681769E+02  0.00000000000E+00 0.  1.
         11    1    3    3    0    0 -0.10983078716E+02 -0.57102143750E+01 -0.65013682819E+01  0.13982215708E+02  0.51100000000E-03 0. -1.
        -11    1    3    3    0    0 -0.11681673259E+02 -0.54435905532E+01 -0.11245135737E+02  0.17104012577E+02  0.51100000000E-03 0.  1.
        -12    1    3    3    0    0 -0.60697096714E+01 -0.85444739120E+01 -0.10809090366E+02  0.15056089946E+02  0.00000000000E+00 0.  1.
</event>
<event>
 7    1  0.1549900E-008  0.4614232E+02  0.7816164E-02  0.1320468E+00
        -11   -1    0    0    0    0  0.00000000000E+00  0.00000000000E+00  0.45593999997E+02  0.45594000000E+02  0.51100000000E-03 0.  1.
         11   -1    0    0    0    0 -0.00000000000E+00 -0.00000000000E+00 -0.45593999997E+02  0.45594000000E+02  0.51100000000E-03 0. -1.
    9900012    2    1    2    0    0 -0.57288222961E+01 -0.30002838407E+01 -0.44579056041E+02  0.46142319347E+02  0.10000014459E+02 0.  0.
        -12    1    1    2    0    0  0.57288222961E+01  0.30002838407E+01  0.44579056041E+02  0.45045680653E+02  0.00000000000E+00 0.  1.
         11    1    3    3    0    0 -0.13038366667E+01 -0.23915789795E+01 -0.32424519939E+02  0.32538732822E+02  0.51100000000E-03 0. -1.
        -11    1    3    3    0    0 -0.18027732224E+01 -0.22226388787E+01 -0.74524581324E+01  0.79830600244E+01  0.51100000000E-03 0.  1.
         12    1    3    3    0    0 -0.26222124069E+01  0.16139340175E+01 -0.47020779690E+01  0.56205265008E+01  0.00000000000E+00 0. -1.
</event>
<event>
 7    1  0.1549900E-008  0.4614232E+02  0.7816164E-02  0.1320468E+00
        -11   -1    0    0    0    0  0.00000000000E+00  0.00000000000E+00  0.45593999997E+02  0.45594000000E+02  0.51100000000E-03 0.  1.
         11   -1    0    0    0    0 -0.00000000000E+00 -0.00000000000E+00 -0.45593999997E+02  0.45594000000E+02  0.51100000000E-03 0. -1.
    9900012    2    1    2    0    0 -0.45491769384E+01 -0.29524437667E+02 -0.33715368595E+02  0.46142317523E+02  0.99999978272E+01 0.  0.
        -12    1    1    2    0    0  0.45491769384E+01  0.29524437667E+02  0.33715368595E+02  0.45045682477E+02  0.00000000000E+00 0.  1.
         11    1    3    3    0    0  0.20831537781E+01 -0.42707845962E+01 -0.89646614106E+01  0.10146146323E+02  0.51100000000E-03 0. -1.
        -11    1    3    3    0    0 -0.14155755688E+01 -0.43394794193E+01 -0.48317624477E+01  0.66468687691E+01  0.51100000000E-03 0.  1.
         12    1    3    3    0    0 -0.52167551477E+01 -0.20914173651E+02 -0.19918944736E+02  0.29349302431E+02  0.00000000000E+00 0. -1.
</event>
<event>
 7    1  0.1549900E-008  0.4614232E+02  0.7816164E-02  0.1320468E+00
        -11   -1    0    0    0    0  0.00000000000E+00  0.00000000000E+00  0.45593999997E+02  0.45594000000E+02  0.51100000000E-03 0.  1.
         11   -1    0    0    0    0 -0.00000000000E+00 -0.00000000000E+00 -0.45593999997E+02  0.45594000000E+02  0.51100000000E-03 0. -1.
    9900012    2    1    2    0    0 -0.40510926690E+02  0.93280938899E+01 -0.17348338351E+02  0.46142319181E+02  0.10000012948E+02 0.  0.
        -12    1    1    2    0    0  0.40510926690E+02 -0.93280938899E+01  0.17348338351E+02  0.45045680819E+02  0.00000000000E+00 0.  1.
         11    1    3    3    0    0 -0.33238774300E+02  0.10308517292E+02 -0.13989984741E+02  0.37507350201E+02  0.51100000000E-03 0. -1.
        -11    1    3    3    0    0 -0.50935632580E+01 -0.20088363232E+01 -0.28503399865E+01  0.61728638683E+01  0.51100000000E-03 0.  1.
        -12    1    3    3    0    0 -0.21785891321E+01  0.10284129209E+01 -0.50801362258E+00  0.24621051121E+01  0.00000000000E+00 0.  1.
</event>
<event>
 7    1  0.1549900E-008  0.4614232E+02  0.7816164E-02  0.1320468E+00
        -11   -1    0    0    0    0  0.00000000000E+00  0.00000000000E+00  0.45593999997E+02  0.45594000000E+02  0.51100000000E-03 0.  1.
         11   -1    0    0    0    0 -0.00000000000E+00 -0.00000000000E+00 -0.45593999997E+02  0.45594000000E+02  0.51100000000E-03 0. -1.
    9900012    2    1    2    0    0  0.16771643105E+02 -0.41106198280E+02 -0.76227210299E+01  0.46142318460E+02  0.10000006372E+02 0.  0.
        -12    1    1    2    0    0 -0.16771643105E+02  0.41106198280E+02  0.76227210299E+01  0.45045681540E+02  0.00000000000E+00 0.  1.
         11    1    3    3    0    0  0.16159596485E+01 -0.14870406319E+02 -0.13924509632E+01  0.15022623926E+02  0.51100000000E-03 0. -1.
        -11    1    3    3    0    0  0.12644132513E+02 -0.23876149407E+02 -0.59291874397E+01  0.27660438562E+02  0.51100000000E-03 0.  1.
         12    1    3    3    0    0  0.25115509440E+01 -0.23596425545E+01 -0.30108262693E+00  0.34592559717E+01  0.00000000000E+00 0. -1.
</event>
<event>
 7    1  0.1549900E-008  0.4614232E+02  0.7816164E-02  0.1320468E+00
        -11   -1    0    0    0    0  0.00000000000E+00  0.00000000000E+00  0.45593999997E+02  0.45594000000E+02  0.51100000000E-03 0.  1.
         11   -1    0    0    0    0 -0.00000000000E+00 -0.00000000000E+00 -0.45593999997E+02  0.45594000000E+02  0.51100000000E-03 0. -1.
    9900012    2    1    2    0    0  0.15416197560E+02  0.37790101615E+02 -0.19062073288E+02  0.46142316907E+02  0.99999922094E+01 0.  0.
        -12    1    1    2    0    0 -0.15416197560E+02 -0.37790101615E+02  0.19062073288E+02  0.45045683093E+02  0.00000000000E+00 0.  1.
         11    1    3    3    0    0  0.68994216303E+01  0.20063899393E+02 -0.14722254268E+02  0.25824539661E+02  0.51100000000E-03 0. -1.
        -11    1    3    3    0    0  0.18951914652E+01  0.18741364244E+01 -0.72394543288E+00  0.27619260088E+01  0.51100000000E-03 0.  1.
         12    1    3    3    0    0  0.66215844640E+01  0.15852065798E+02 -0.36158735875E+01  0.17555851237E+02  0.00000000000E+00 0. -1.
</event>
<event>
 7    1  0.1549900E-008  0.4614232E+02  0.7816164E-02  0.1320468E+00
        -11   -1    0    0    0    0  0.00000000000E+00  0.00000000000E+00  0.45593999997E+02  0.45594000000E+02  0.51100000000E-03 0. -1.
         11   -1    0    0    0    0 -0.00000000000E+00 -0.00000000000E+00 -0.45593999997E+02  0.45594000000E+02  0.51100000000E-03 0.  1.
    9900012    2    1    2    0    0 -0.79841270488E+01  0.43024050058E+02  0.10691050855E+02  0.46142315007E+02  0.99999748814E+01 0.  0.
        -12    1    1    2    0    0  0.79841270488E+01 -0.43024050058E+02 -0.10691050855E+02  0.45045684993E+02  0.00000000000E+00 0.  1.
         11    1    3    3    0    0 -0.11041666350E+01  0.22750208688E+02  0.26372735518E+01  0.22929160285E+02  0.51100000000E-03 0. -1.
        -11    1    3    3    0    0 -0.48090012698E+01  0.14802154202E+02  0.39206200481E+01  0.16049969597E+02  0.51100000000E-03 0.  1.
        -12    1    3    3    0    0 -0.20709591441E+01  0.54716871679E+01  0.41331572549E+01  0.71631851249E+01  0.00000000000E+00 0.  1.
</event>
<event>
 7    1  0.1549900E-008  0.4614232E+02  0.7816164E-02  0.1320468E+00
        -11   -1    0    0    0    0  0.00000000000E+00  0.00000000000E+00  0.45593999997E+02  0.45594000000E+02  0.51100000000E-03 0.  1.
         11   -1    0    0    0    0 -0.00000000000E+00 -0.00000000000E+00 -0.45593999997E+02  0.45594000000E+02  0.51100000000E-03 0. -1.
    9900012    2    1    2    0    0  0.39161866733E+02  0.13455715121E+02 -0.17731482382E+02  0.46142317156E+02  0.99999944802E+01 0.  0.
        -12    1    1    2    0    0 -0.39161866733E+02 -0.13455715121E+02  0.17731482382E+02  0.45045682844E+02  0.00000000000E+00 0.  1.
         11    1    3    3    0    0  0.22190349780E+02  0.54624942034E+01 -0.77641811842E+01  0.24135719919E+02  0.51100000000E-03 0. -1.
        -11    1    3    3    0    0  0.58259072805E+00 -0.74465252357E+00 -0.37976049083E-01  0.94623558308E+00  0.51100000000E-03 0.  1.
         12    1    3    3    0    0  0.16388926225E+02  0.87378734407E+01 -0.99293251484E+01  0.21060361654E+02  0.00000000000E+00 0. -1.
</event>
<event>
 7    1  0.1549900E-008  0.4614232E+02  0.7816164E-02  0.1320468E+00
        -11   -1    0    0    0    0  0.00000000000E+00  0.00000000000E+00  0.45593999997E+02  0.45594000000E+02  0.51100000000E-03 0. -1.
         11   -1    0    0    0    0 -0.00000000000E+00 -0.00000000000E+00 -0.45593999997E+02  0.45594000000E+02  0.51100000000E-03 0.  1.
    9900012    2    1    2    0    0 -0.27155764480E+02 -0.16524156609E+02  0.31915989010E+02  0.46142315960E+02  0.99999835768E+01 0.  0.
        -12    1    1    2    0    0  0.27155764480E+02  0.16524156609E+02 -0.31915989010E+02  0.45045684040E+02  0.00000000000E+00 0.  1.
         11    1    3    3    0    0 -0.64979092138E+01 -0.23644143099E+01  0.66210819290E+01  0.95735053847E+01  0.51100000000E-03 0. -1.
        -11    1    3    3    0    0 -0.14010900615E+01  0.74087926466E+00  0.19068805011E+00  0.15963450876E+01  0.51100000000E-03 0.  1.
        -12    1    3    3    0    0 -0.19256765205E+02 -0.14900621564E+02  0.25104219031E+02  0.34972465488E+02  0.00000000000E+00 0.  1.
</event>
<event>
 7    1  0.1549900E-008  0.4614232E+02  0.7816164E-02  0.1320468E+00
        -11   -1    0    0    0    0  0.00000000000E+00  0.00000000000E+00  0.45593999997E+02  0.45594000000E+02  0.51100000000E-03 0. -1.
         11   -1    0    0    0    0 -0.00000000000E+00 -0.00000000000E+00 -0.45593999997E+02  0.45594000000E+02  0.51100000000E-03 0.  1.
    9900012    2    1    2    0    0  0.44857372005E+02  0.24422376722E+01 -0.33113649307E+01  0.46142317790E+02  0.10000000265E+02 0.  0.
        -12    1    1    2    0    0 -0.44857372005E+02 -0.24422376722E+01  0.33113649307E+01  0.45045682210E+02  0.00000000000E+00 0.  1.
         11    1    3    3    0    0  0.32314480968E+02  0.38254783938E+01 -0.33338760664E+00  0.32541836346E+02  0.51100000000E-03 0. -1.
        -11    1    3    3    0    0  0.67442843153E+01  0.59805287449E+00 -0.31559486582E+01  0.74701439318E+01  0.51100000000E-03 0.  1.
        -12    1    3    3    0    0  0.57986067214E+01 -0.19812935961E+01  0.17797133414E+00  0.61303375127E+01  0.00000000000E+00 0.  1.
</event>
<event>
 7    1  0.1549900E-008  0.4614232E+02  0.7816164E-02  0.1320468E+00
        -11   -1    0    0    0    0  0.00000000000E+00  0.00000000000E+00  0.45593999997E+02  0.45594000000E+02  0.51100000000E-03 0.  1.
         11   -1    0    0    0    0 -0.00000000000E+00 -0.00000000000E+00 -0.45593999997E+02  0.45594000000E+02  0.51100000000E-03 0. -1.
    9900012    2    1    2    0    0  0.10314770547E+02  0.10486623054E+02 -0.42576399212E+02  0.46142317362E+02  0.99999963567E+01 0.  0.
        -12    1    1    2    0    0 -0.10314770547E+02 -0.10486623054E+02  0.42576399212E+02  0.45045682638E+02  0.00000000000E+00 0.  1.
         11    1    3    3    0    0  0.29597248066E+01  0.53978559187E+01 -0.24084484753E+02  0.24858785681E+02  0.51100000000E-03 0. -1.
        -11    1    3    3    0    0  0.75690310784E+01  0.58982259925E+01 -0.16024121818E+02  0.18677574298E+02  0.51100000000E-03 0.  1.
        -12    1    3    3    0    0 -0.21398533808E+00 -0.80945885738E+00 -0.24677926407E+01  0.26059573834E+01  0.00000000000E+00 0.  1.
</event>
<event>
 7    1  0.1549900E-008  0.4614231E+02  0.7816164E-02  0.1320468E+00
        -11   -1    0    0    0    0  0.00000000000E+00  0.00000000000E+00  0.45593999997E+02  0.45594000000E+02  0.51100000000E-03 0.  1.
         11   -1    0    0    0    0 -0.00000000000E+00 -0.00000000000E+00 -0.45593999997E+02  0.45594000000E+02  0.51100000000E-03 0. -1.
    9900012    2    1    2    0    0 -0.35608895238E+02 -0.24747956542E+02 -0.12192580339E+02  0.46142314431E+02  0.99999696332E+01 0.  0.
        -12    1    1    2    0    0  0.35608895238E+02  0.24747956542E+02  0.12192580339E+02  0.45045685569E+02  0.00000000000E+00 0.  1.
         11    1    3    3    0    0 -0.13249866062E+02 -0.54459158557E+01 -0.57442913196E+01  0.15434177438E+02  0.51100000000E-03 0. -1.
        -11    1    3    3    0    0 -0.22452471319E+02 -0.19496714612E+02 -0.65797202852E+01  0.30455345480E+02  0.51100000000E-03 0.  1.
         12    1    3    3    0    0  0.93442143383E-01  0.19467392553E+00  0.13143126590E+00  0.25279151310E+00  0.00000000000E+00 0. -1.
</event>
<event>
 7    1  0.1549900E-008  0.4614233E+02  0.7816164E-02  0.1320468E+00
        -11   -1    0    0    0    0  0.00000000000E+00  0.00000000000E+00  0.45593999997E+02  0.45594000000E+02  0.51100000000E-03 0.  1.
         11   -1    0    0    0    0 -0.00000000000E+00 -0.00000000000E+00 -0.45593999997E+02  0.45594000000E+02  0.51100000000E-03 0. -1.
    9900012    2    1    2    0    0  0.15912623893E+02 -0.16678081881E+02 -0.38700682134E+02  0.46142325269E+02  0.10000068460E+02 0.  0.
        -12    1    1    2    0    0 -0.15912623893E+02  0.16678081881E+02  0.38700682134E+02  0.45045674731E+02  0.00000000000E+00 0.  1.
         11    1    3    3    0    0  0.89265867417E+01 -0.58717307849E+01 -0.23329064380E+02  0.25659431373E+02  0.51100000000E-03 0. -1.
        -11    1    3    3    0    0  0.56829613641E+01 -0.10080055637E+02 -0.15001342988E+02  0.18945813871E+02  0.51100000000E-03 0.  1.
        -12    1    3    3    0    0  0.13030757875E+01 -0.72629545872E+00 -0.37027476534E+00  0.15370800250E+01  0.00000000000E+00 0.  1.
</event>
<event>
 7    1  0.1549900E-008  0.4614231E+02  0.7816164E-02  0.1320468E+00
        -11   -1    0    0    0    0  0.00000000000E+00  0.00000000000E+00  0.45593999997E+02  0.45594000000E+02  0.51100000000E-03 0.  1.
         11   -1    0    0    0    0 -0.00000000000E+00 -0.00000000000E+00 -0.45593999997E+02  0.45594000000E+02  0.51100000000E-03 0. -1.
    9900012    2    1    2    0    0  0.18261990549E+02  0.12805396367E+02 -0.39136113367E+02  0.46142313809E+02  0.99999639602E+01 0.  0.
        -12    1    1    2    0    0 -0.18261990549E+02 -0.12805396367E+02  0.39136113367E+02  0.45045686191E+02  0.00000000000E+00 0.  1.
         11    1    3    3    0    0  0.12534820623E+02  0.11357358169E+02 -0.33469533315E+02  0.37500946298E+02  0.51100000000E-03 0. -1.
        -11    1    3    3    0    0  0.22891868077E+01  0.11024431224E+01 -0.78245059289E+00  0.26585684626E+01  0.51100000000E-03 0.  1.
         12    1    3    3    0    0  0.34379831189E+01  0.34559507532E+00 -0.48841294591E+01  0.59827990486E+01  0.00000000000E+00 0. -1.
</event>
<event>
 7    1  0.1549900E-008  0.4614231E+02  0.7816164E-02  0.1320468E+00
        -11   -1    0    0    0    0  0.00000000000E+00  0.00000000000E+00  0.45593999997E+02  0.45594000000E+02  0.51100000000E-03 0.  1.
         11   -1    0    0    0    0 -0.00000000000E+00 -0.00000000000E+00 -0.45593999997E+02  0.45594000000E+02  0.51100000000E-03 0. -1.
    9900012    2    1    2    0    0 -0.23839166567E+01 -0.31391129277E+02 -0.32218439116E+02  0.46142313470E+02  0.99999608729E+01 0.  0.
        -12    1    1    2    0    0  0.23839166567E+01  0.31391129277E+02  0.32218439116E+02  0.45045686530E+02  0.00000000000E+00 0.  1.
         11    1    3    3    0    0 -0.96776913980E+00 -0.25869273996E+02 -0.20950002861E+02  0.33302530449E+02  0.51100000000E-03 0. -1.
        -11    1    3    3    0    0  0.55049198904E+00 -0.23183574723E+01 -0.39698769705E+01  0.46300913837E+01  0.51100000000E-03 0.  1.
         12    1    3    3    0    0 -0.19666395060E+01 -0.32034978082E+01 -0.72985592845E+01  0.82096916375E+01  0.00000000000E+00 0. -1.
</event>
<event>
 7    1  0.1549900E-008  0.4614232E+02  0.7816164E-02  0.1320468E+00
        -11   -1    0    0    0    0  0.00000000000E+00  0.00000000000E+00  0.45593999997E+02  0.45594000000E+02  0.51100000000E-03 0.  1.
         11   -1    0    0    0    0 -0.00000000000E+00 -0.00000000000E+00 -0.45593999997E+02  0.45594000000E+02  0.51100000000E-03 0. -1.
    9900012    2    1    2    0    0 -0.53969051372E+01  0.39301689396E+02 -0.21339250152E+02  0.46142323498E+02  0.10000052318E+02 0.  0.
        -12    1    1    2    0    0  0.53969051372E+01 -0.39301689396E+02  0.21339250152E+02  0.45045676502E+02  0.00000000000E+00 0.  1.
         11    1    3    3    0    0 -0.13031990394E+01  0.10684162471E+02 -0.80078068930E+01  0.13415462233E+02  0.51100000000E-03 0. -1.
        -11    1    3    3    0    0 -0.71298631703E+00  0.51566023235E+01  0.58801110926E+00  0.52387645812E+01  0.51100000000E-03 0.  1.
        -12    1    3    3    0    0 -0.33807197808E+01  0.23460924602E+02 -0.13919454368E+02  0.27488096684E+02  0.00000000000E+00 0.  1.
</event>
<event>
 7    1  0.1549900E-008  0.4614232E+02  0.7816164E-02  0.1320468E+00
        -11   -1    0    0    0    0  0.00000000000E+00  0.00000000000E+00  0.45593999997E+02  0.45594000000E+02  0.51100000000E-03 0.  1.
         11   -1    0    0    0    0 -0.00000000000E+00 -0.00000000000E+00 -0.45593999997E+02  0.45594000000E+02  0.51100000000E-03 0. -1.
    9900012    2    1    2    0    0 -0.19325922936E+00  0.15392773247E+02 -0.42333659149E+02  0.46142317473E+02  0.99999973722E+01 0.  0.
        -12    1    1    2    0    0  0.19325922936E+00 -0.15392773247E+02  0.42333659149E+02  0.45045682527E+02  0.00000000000E+00 0.  1.
         11    1    3    3    0    0  0.19125061331E+01  0.77871432243E+01 -0.32773919801E+02  0.33740585334E+02  0.51100000000E-03 0. -1.
        -11    1    3    3    0    0 -0.11926925555E+01  0.39000883947E+01 -0.51697917513E+01  0.65848274109E+01  0.51100000000E-03 0.  1.
         12    1    3    3    0    0 -0.91307280702E+00  0.37055416285E+01 -0.43899475968E+01  0.58169047279E+01  0.00000000000E+00 0. -1.
</event>
<event>
 7    1  0.1549900E-008  0.4614232E+02  0.7816164E-02  0.1320468E+00
        -11   -1    0    0    0    0  0.00000000000E+00  0.00000000000E+00  0.45593999997E+02  0.45594000000E+02  0.51100000000E-03 0.  1.
         11   -1    0    0    0    0 -0.00000000000E+00 -0.00000000000E+00 -0.45593999997E+02  0.45594000000E+02  0.51100000000E-03 0. -1.
    9900012    2    1    2    0    0  0.16456566039E+02  0.30643959309E+02 -0.28622413439E+02  0.46142319197E+02  0.10000013093E+02 0.  0.
        -12    1    1    2    0    0 -0.16456566039E+02 -0.30643959309E+02  0.28622413439E+02  0.45045680803E+02  0.00000000000E+00 0.  1.
         11    1    3    3    0    0  0.63068187267E+01  0.80828916617E+01 -0.12170570209E+02  0.15913261122E+02  0.51100000000E-03 0. -1.
        -11    1    3    3    0    0  0.10926633782E+01  0.62671732078E+00 -0.22353033148E+01  0.25657881886E+01  0.51100000000E-03 0.  1.
         12    1    3    3    0    0  0.90570839341E+01  0.21934350327E+02 -0.14216539916E+02  0.27663269887E+02  0.00000000000E+00 0. -1.
</event>
<event>
 7    1  0.1549900E-008  0.4614233E+02  0.7816164E-02  0.1320468E+00
        -11   -1    0    0    0    0  0.00000000000E+00  0.00000000000E+00  0.45593999997E+02  0.45594000000E+02  0.51100000000E-03 0.  1.
         11   -1    0    0    0    0 -0.00000000000E+00 -0.00000000000E+00 -0.45593999997E+02  0.45594000000E+02  0.51100000000E-03 0. -1.
    9900012    2    1    2    0    0 -0.23325001590E+01  0.49376316858E+01 -0.44713443295E+02  0.46142325680E+02  0.10000072208E+02 0.  0.
        -12    1    1    2    0    0  0.23325001590E+01 -0.49376316858E+01  0.44713443295E+02  0.45045674320E+02  0.00000000000E+00 0.  1.
         11    1    3    3    0    0  0.12811750978E+01  0.23022397142E+01 -0.21164379015E+02  0.21327743826E+02  0.51100000000E-03 0. -1.
        -11    1    3    3    0    0 -0.17972900289E-01 -0.17887663295E+01 -0.30340425771E+01  0.35221332495E+01  0.51100000000E-03 0.  1.
         12    1    3    3    0    0 -0.35957023565E+01  0.44241583012E+01 -0.20515021703E+02  0.21292448605E+02  0.00000000000E+00 0. -1.
</event>
<event>
 7    1  0.1741242E-008  0.4614232E+02  0.7816164E-02  0.1320468E+00
        -11   -1    0    0    0    0  0.00000000000E+00  0.00000000000E+00  0.45593999997E+02  0.45594000000E+02  0.51100000000E-03 0. -1.
         11   -1    0    0    0    0 -0.00000000000E+00 -0.00000000000E+00 -0.45593999997E+02  0.45594000000E+02  0.51100000000E-03 0.  1.
    9900012    2    1    2    0    0  0.28274216580E+02  0.34768115715E+02  0.45673255846E+01  0.46142315894E+02  0.99999829739E+01 0.  0.
        -12    1    1    2    0    0 -0.28274216580E+02 -0.34768115715E+02 -0.45673255846E+01  0.45045684106E+02  0.00000000000E+00 0.  1.
         11    1    3    3    0    0  0.20561156139E+02  0.18852933500E+02  0.40923352640E+01  0.28194706090E+02  0.51100000000E-03 0. -1.
        -11    1    3    3    0    0  0.99389150627E+00  0.47305957628E+01  0.77974355433E+00  0.48963615949E+01  0.51100000000E-03 0.  1.
         12    1    3    3    0    0  0.67191689352E+01  0.11184586452E+02 -0.30475323377E+00  0.13051248209E+02  0.00000000000E+00 0. -1.
</event>
<event>
 7    1  0.1600764E-008  0.4614232E+02  0.7816164E-02  0.1320468E+00
        -11   -1    0    0    0    0  0.00000000000E+00  0.00000000000E+00  0.45593999997E+02  0.45594000000E+02  0.51100000000E-03 0.  1.
         11   -1    0    0    0    0 -0.00000000000E+00 -0.00000000000E+00 -0.45593999997E+02  0.45594000000E+02  0.51100000000E-03 0. -1.
    9900012    2    1    2    0    0 -0.35740443999E+02 -0.17965861498E+02 -0.20711396510E+02  0.46142318054E+02  0.10000002671E+02 0.  0.
        -12    1    1    2    0    0  0.35740443999E+02  0.17965861498E+02  0.20711396510E+02  0.45045681946E+02  0.00000000000E+00 0.  1.
         11    1    3    3    0    0 -0.27221925807E+02 -0.13938098413E+02 -0.18218596050E+02  0.35598048743E+02  0.51100000000E-03 0. -1.
        -11    1    3    3    0    0  0.32188842365E+00 -0.45257242059E+00  0.26805742282E+00  0.61667576263E+00  0.51100000000E-03 0.  1.
         12    1    3    3    0    0 -0.88404066158E+01 -0.35751906641E+01 -0.27608578826E+01  0.99275935486E+01  0.00000000000E+00 0. -1.
</event>
<event>
 7    1  0.1549900E-008  0.4614232E+02  0.7816164E-02  0.1320468E+00
        -11   -1    0    0    0    0  0.00000000000E+00  0.00000000000E+00  0.45593999997E+02  0.45594000000E+02  0.51100000000E-03 0.  1.
         11   -1    0    0    0    0 -0.00000000000E+00 -0.00000000000E+00 -0.45593999997E+02  0.45594000000E+02  0.51100000000E-03 0. -1.
    9900012    2    1    2    0    0  0.11768586581E+02 -0.43421606130E+02 -0.22755144288E+01  0.46142317910E+02  0.10000001355E+02 0.  0.
        -12    1    1    2    0    0 -0.11768586581E+02  0.43421606130E+02  0.22755144288E+01  0.45045682090E+02  0.00000000000E+00 0.  1.
         11    1    3    3    0    0  0.88681994726E+00 -0.27209025140E+01 -0.11496245103E+01  0.30840552662E+01  0.51100000000E-03 0. -1.
        -11    1    3    3    0    0  0.10177525245E+01 -0.20723551615E+02  0.30772334380E-01  0.20748550767E+02  0.51100000000E-03 0.  1.
        -12    1    3    3    0    0  0.98640141095E+01 -0.19977152002E+02 -0.11566622529E+01  0.22309711876E+02  0.00000000000E+00 0.  1.
</event>
<event>
 7    1  0.1549900E-008  0.4614232E+02  0.7816164E-02  0.1320468E+00
        -11   -1    0    0    0    0  0.00000000000E+00  0.00000000000E+00  0.45593999997E+02  0.45594000000E+02  0.51100000000E-03 0.  1.
         11   -1    0    0    0    0 -0.00000000000E+00 -0.00000000000E+00 -0.45593999997E+02  0.45594000000E+02  0.51100000000E-03 0. -1.
    9900012    2    1    2    0    0  0.24253801364E+02 -0.36233678619E+02  0.11313137204E+02  0.46142318517E+02  0.10000006897E+02 0.  0.
        -12    1    1    2    0    0 -0.24253801364E+02  0.36233678619E+02 -0.11313137204E+02  0.45045681483E+02  0.00000000000E+00 0.  1.
         11    1    3    3    0    0  0.44624896534E+01 -0.71886539032E+01  0.37591920796E+01  0.92586221545E+01  0.51100000000E-03 0. -1.
        -11    1    3    3    0    0  0.10635229238E+02 -0.96512265780E+01  0.73947829922E+00  0.14380580789E+02  0.51100000000E-03 0.  1.
        -12    1    3    3    0    0  0.91560824722E+01 -0.19393798137E+02  0.68144668253E+01  0.22503115574E+02  0.00000000000E+00 0.  1.
</event>
<event>
 7    1  0.1549900E-008  0.4614232E+02  0.7816164E-02  0.1320468E+00
        -11   -1    0    0    0    0  0.00000000000E+00  0.00000000000E+00  0.45593999997E+02  0.45594000000E+02  0.51100000000E-03 0.  1.
         11   -1    0    0    0    0 -0.00000000000E+00 -0.00000000000E+00 -0.45593999997E+02  0.45594000000E+02  0.51100000000E-03 0. -1.
    9900012    2    1    2    0    0 -0.15000018266E+01  0.14508282923E+02 -0.42618929726E+02  0.46142318188E+02  0.10000003896E+02 0.  0.
        -12    1    1    2    0    0  0.15000018266E+01 -0.14508282923E+02  0.42618929726E+02  0.45045681812E+02  0.00000000000E+00 0.  1.
         11    1    3    3    0    0 -0.35675110635E+01  0.11426664113E+02 -0.38882706183E+02  0.40683665374E+02  0.51100000000E-03 0. -1.
        -11    1    3    3    0    0  0.51186905461E+00  0.16938271055E+01 -0.10470418982E+01  0.20560537906E+01  0.51100000000E-03 0.  1.
         12    1    3    3    0    0  0.15556401823E+01  0.13877917049E+01 -0.26891816453E+01  0.34025990235E+01  0.00000000000E+00 0. -1.
</event>
<event>
 7    1  0.1549900E-008  0.4614232E+02  0.7816164E-02  0.1320468E+00
        -11   -1    0    0    0    0  0.00000000000E+00  0.00000000000E+00  0.45593999997E+02  0.45594000000E+02  0.51100000000E-03 0.  1.
         11   -1    0    0    0    0 -0.00000000000E+00 -0.00000000000E+00 -0.45593999997E+02  0.45594000000E+02  0.51100000000E-03 0. -1.
    9900012    2    1    2    0    0 -0.29990493448E+02  0.33564316383E+02  0.17664802269E+01  0.46142317811E+02  0.10000000456E+02 0.  0.
        -12    1    1    2    0    0  0.29990493448E+02 -0.33564316383E+02 -0.17664802269E+01  0.45045682189E+02  0.00000000000E+00 0.  1.
         11    1    3    3    0    0 -0.35481673918E+01  0.36251210746E+01  0.24633934501E-01  0.50726326239E+01  0.51100000000E-03 0. -1.
        -11    1    3    3    0    0 -0.24110474070E+02  0.23838185569E+02  0.40411120141E+01  0.34145345769E+02  0.51100000000E-03 0.  1.
        -12    1    3    3    0    0 -0.23318519858E+01  0.61010097391E+01 -0.22992657217E+01  0.69243394182E+01  0.00000000000E+00 0.  1.
</event>
<event>
 7    1  0.1549900E-008  0.4614232E+02  0.7816164E-02  0.1320468E+00
        -11   -1    0    0    0    0  0.00000000000E+00  0.00000000000E+00  0.45593999997E+02  0.45594000000E+02  0.51100000000E-03 0.  1.
         11   -1    0    0    0    0 -0.00000000000E+00 -0.00000000000E+00 -0.45593999997E+02  0.45594000000E+02  0.51100000000E-03 0. -1.
    9900012    2    1    2    0    0  0.33699077161E+02 -0.10528172493E+02 -0.27975757246E+02  0.46142320839E+02  0.10000028068E+02 0.  0.
        -12    1    1    2    0    0 -0.33699077161E+02  0.10528172493E+02  0.27975757246E+02  0.45045679161E+02  0.00000000000E+00 0.  1.
         11    1    3    3    0    0  0.10645809809E+02 -0.20712635124E+01 -0.68811920801E+01  0.12844228421E+02  0.51100000000E-03 0. -1.
        -11    1    3    3    0    0  0.20199032139E+02 -0.57917915183E+01 -0.20484735502E+02  0.29345700489E+02  0.51100000000E-03 0.  1.
        -12    1    3    3    0    0  0.28542352138E+01 -0.26651174625E+01 -0.60982966366E+00  0.39523919294E+01  0.00000000000E+00 0.  1.
</event>
<event>
 7    1  0.1549900E-008  0.4614232E+02  0.7816164E-02  0.1320468E+00
        -11   -1    0    0    0    0  0.00000000000E+00  0.00000000000E+00  0.45593999997E+02  0.45594000000E+02  0.51100000000E-03 0.  1.
         11   -1    0    0    0    0 -0.00000000000E+00 -0.00000000000E+00 -0.45593999997E+02  0.45594000000E+02  0.51100000000E-03 0. -1.
    9900012    2    1    2    0    0  0.18070081770E+02  0.86907547772E+01 -0.40336788835E+02  0.46142316441E+02  0.99999879598E+01 0.  0.
        -12    1    1    2    0    0 -0.18070081770E+02 -0.86907547772E+01  0.40336788835E+02  0.45045683559E+02  0.00000000000E+00 0.  1.
         11    1    3    3    0    0  0.16282251795E+02  0.52363368114E+01 -0.32840222409E+02  0.37027167794E+02  0.51100000000E-03 0. -1.
        -11    1    3    3    0    0 -0.30707871672E+00  0.24523766992E+01 -0.21113751238E+01  0.32505928671E+01  0.51100000000E-03 0.  1.
        -12    1    3    3    0    0  0.20949086923E+01  0.10020412666E+01 -0.53851913026E+01  0.58645557798E+01  0.00000000000E+00 0.  1.
</event>
<event>
 7    1  0.1549900E-008  0.4614232E+02  0.7816164E-02  0.1320468E+00
        -11   -1    0    0    0    0  0.00000000000E+00  0.00000000000E+00  0.45593999997E+02  0.45594000000E+02  0.51100000000E-03 0.  1.
         11   -1    0    0    0    0 -0.00000000000E+00 -0.00000000000E+00 -0.45593999997E+02  0.45594000000E+02  0.51100000000E-03 0. -1.
    9900012    2    1    2    0    0 -0.19262722313E+02  0.38229750002E+02 -0.14019525678E+02  0.46142319226E+02  0.10000013360E+02 0.  0.
        -12    1    1    2    0    0  0.19262722313E+02 -0.38229750002E+02  0.14019525678E+02  0.45045680774E+02  0.00000000000E+00 0.  1.
         11    1    3    3    0    0 -0.24212760821E+01  0.84053594040E+01  0.28305636195E+00  0.87517293001E+01  0.51100000000E-03 0.  1.
        -11    1    3    3    0    0 -0.12881673168E+02  0.18535423819E+02 -0.88862977890E+01  0.24258312563E+02  0.51100000000E-03 0. -1.
         12    1    3    3    0    0 -0.39597730626E+01  0.11288966779E+02 -0.54162842509E+01  0.13132277363E+02  0.00000000000E+00 0. -1.
</event>
<event>
 7    1  0.1549900E-008  0.4614232E+02  0.7816164E-02  0.1320468E+00
        -11   -1    0    0    0    0  0.00000000000E+00  0.00000000000E+00  0.45593999997E+02  0.45594000000E+02  0.51100000000E-03 0.  1.
         11   -1    0    0    0    0 -0.00000000000E+00 -0.00000000000E+00 -0.45593999997E+02  0.45594000000E+02  0.51100000000E-03 0. -1.
    9900012    2    1    2    0    0  0.69048838393E+01  0.66083449962E+01 -0.44020062065E+02  0.46142317536E+02  0.99999979465E+01 0.  0.
        -12    1    1    2    0    0 -0.69048838393E+01 -0.66083449962E+01  0.44020062065E+02  0.45045682464E+02  0.00000000000E+00 0.  1.
         11    1    3    3    0    0  0.49651492345E+01  0.41939456553E+01 -0.20705413406E+02  0.21701521413E+02  0.51100000000E-03 0. -1.
        -11    1    3    3    0    0  0.31911059557E+00 -0.74855340588E+00  0.42470337742E-01  0.81484217145E+00  0.51100000000E-03 0.  1.
        -12    1    3    3    0    0  0.16206240093E+01  0.31629527468E+01 -0.23357118997E+02  0.23625953951E+02  0.00000000000E+00 0.  1.
</event>
<event>
 7    1  0.1549900E-008  0.4614232E+02  0.7816164E-02  0.1320468E+00
        -11   -1    0    0    0    0  0.00000000000E+00  0.00000000000E+00  0.45593999997E+02  0.45594000000E+02  0.51100000000E-03 0.  1.
         11   -1    0    0    0    0 -0.00000000000E+00 -0.00000000000E+00 -0.45593999997E+02  0.45594000000E+02  0.51100000000E-03 0. -1.
    9900012    2    1    2    0    0 -0.12150915358E+01 -0.43517424852E+02  0.11570251673E+02  0.46142318332E+02  0.10000005201E+02 0.  0.
        -12    1    1    2    0    0  0.12150915358E+01  0.43517424852E+02 -0.11570251673E+02  0.45045681668E+02  0.00000000000E+00 0.  1.
         11    1    3    3    0    0 -0.20562935832E+01 -0.23286225006E+02  0.80751824335E+01  0.24732270214E+02  0.51100000000E-03 0. -1.
        -11    1    3    3    0    0 -0.16230306537E+01 -0.15959999178E+02  0.15791975839E+01  0.16119853211E+02  0.51100000000E-03 0.  1.
         12    1    3    3    0    0  0.24642327012E+01 -0.42712006676E+01  0.19158716552E+01  0.52901949064E+01  0.00000000000E+00 0. -1.
</event>
<event>
 7    1  0.1549900E-008  0.4614232E+02  0.7816164E-02  0.1320468E+00
        -11   -1    0    0    0    0  0.00000000000E+00  0.00000000000E+00  0.45593999997E+02  0.45594000000E+02  0.51100000000E-03 0.  1.
         11   -1    0    0    0    0 -0.00000000000E+00 -0.00000000000E+00 -0.45593999997E+02  0.45594000000E+02  0.51100000000E-03 0. -1.
    9900012    2    1    2    0    0 -0.25316133960E+01 -0.36940407640E+02 -0.25653668378E+02  0.46142317807E+02  0.10000000414E+02 0.  0.
        -12    1    1    2    0    0  0.25316133960E+01  0.36940407640E+02  0.25653668378E+02  0.45045682193E+02  0.00000000000E+00 0.  1.
         11    1    3    3    0    0  0.25048633792E+01 -0.17051450202E+02 -0.15346825100E+02  0.23077073806E+02  0.51100000000E-03 0. -1.
        -11    1    3    3    0    0 -0.81046574066E+00 -0.47388311013E+01 -0.14855488568E+01  0.50319211629E+01  0.51100000000E-03 0.  1.
         12    1    3    3    0    0 -0.42260110345E+01 -0.15150126337E+02 -0.88212944214E+01  0.18033322837E+02  0.00000000000E+00 0. -1.
</event>
<event>
 7    1  0.1549900E-008  0.4614232E+02  0.7816164E-02  0.1320468E+00
        -11   -1    0    0    0    0  0.00000000000E+00  0.00000000000E+00  0.45593999997E+02  0.45594000000E+02  0.51100000000E-03 0.  1.
         11   -1    0    0    0    0 -0.00000000000E+00 -0.00000000000E+00 -0.45593999997E+02  0.45594000000E+02  0.51100000000E-03 0. -1.
    9900012    2    1    2    0    0 -0.33964267214E+02 -0.28199426637E+02 -0.89629422556E+01  0.46142318255E+02  0.10000004500E+02 0.  0.
        -12    1    1    2    0    0  0.33964267214E+02  0.28199426637E+02  0.89629422556E+01  0.45045681745E+02  0.00000000000E+00 0.  1.
         11    1    3    3    0    0 -0.18334299101E+02 -0.15036514831E+02 -0.51970858241E+01  0.24274534045E+02  0.51100000000E-03 0. -1.
        -11    1    3    3    0    0 -0.35321375218E+00 -0.12905354556E+01  0.13024800658E+01  0.18672697448E+01  0.51100000000E-03 0.  1.
        -12    1    3    3    0    0 -0.15276754361E+02 -0.11872376351E+02 -0.50683364973E+01  0.20000514465E+02  0.00000000000E+00 0.  1.
</event>
<event>
 7    1  0.1549900E-008  0.4614232E+02  0.7816164E-02  0.1320468E+00
        -11   -1    0    0    0    0  0.00000000000E+00  0.00000000000E+00  0.45593999997E+02  0.45594000000E+02  0.51100000000E-03 0. -1.
         11   -1    0    0    0    0 -0.00000000000E+00 -0.00000000000E+00 -0.45593999997E+02  0.45594000000E+02  0.51100000000E-03 0.  1.
    9900012    2    1    2    0    0  0.31571383434E+02 -0.26372471112E+02  0.18353583163E+02  0.46142317638E+02  0.99999988773E+01 0.  0.
        -12    1    1    2    0    0 -0.31571383434E+02  0.26372471112E+02 -0.18353583163E+02  0.45045682362E+02  0.00000000000E+00 0.  1.
         11    1    3    3    0    0  0.21696631325E+02 -0.18529629501E+02  0.12293010105E+02  0.31067814181E+02  0.51100000000E-03 0. -1.
        -11    1    3    3    0    0  0.31930064752E+01 -0.39976500608E+01  0.52371444088E+01  0.73214874294E+01  0.51100000000E-03 0.  1.
        -12    1    3    3    0    0  0.66817456343E+01 -0.38451915501E+01  0.82342864965E+00  0.77530160273E+01  0.00000000000E+00 0.  1.
</event>
<event>
 7    1  0.1549900E-008  0.4614232E+02  0.7816164E-02  0.1320468E+00
        -11   -1    0    0    0    0  0.00000000000E+00  0.00000000000E+00  0.45593999997E+02  0.45594000000E+02  0.51100000000E-03 0.  1.
         11   -1    0    0    0    0 -0.00000000000E+00 -0.00000000000E+00 -0.45593999997E+02  0.45594000000E+02  0.51100000000E-03 0. -1.
    9900012    2    1    2    0    0  0.37018861355E+02  0.21002769208E+02 -0.14751308321E+02  0.46142317548E+02  0.99999980566E+01 0.  0.
        -12    1    1    2    0    0 -0.37018861355E+02 -0.21002769208E+02  0.14751308321E+02  0.45045682452E+02  0.00000000000E+00 0.  1.
         11    1    3    3    0    0  0.15720757254E+02  0.13987406741E+02 -0.90381453123E+01  0.22901480889E+02  0.51100000000E-03 0. -1.
        -11    1    3    3    0    0  0.76947266575E+01  0.21328261815E+01 -0.10469450957E+01  0.80531894395E+01  0.51100000000E-03 0.  1.
         12    1    3    3    0    0  0.13603377444E+02  0.48825362849E+01 -0.46662179129E+01  0.15187647219E+02  0.00000000000E+00 0. -1.
</event>
<event>
 7    1  0.1549900E-008  0.4614232E+02  0.7816164E-02  0.1320468E+00
        -11   -1    0    0    0    0  0.00000000000E+00  0.00000000000E+00  0.45593999997E+02  0.45594000000E+02  0.51100000000E-03 0. -1.
         11   -1    0    0    0    0 -0.00000000000E+00 -0.00000000000E+00 -0.45593999997E+02  0.45594000000E+02  0.51100000000E-03 0.  1.
    9900012    2    1    2    0    0  0.39420997426E+02 -0.21750750463E+02 -0.14153343313E+01  0.46142319241E+02  0.10000013495E+02 0.  0.
        -12    1    1    2    0    0 -0.39420997426E+02  0.21750750463E+02  0.14153343313E+01  0.45045680759E+02  0.00000000000E+00 0.  1.
         11    1    3    3    0    0  0.17798778213E+02 -0.14256668123E+02 -0.10751043244E+01  0.22829913303E+02  0.51100000000E-03 0. -1.
        -11    1    3    3    0    0  0.21766399936E+02 -0.71343634797E+01 -0.44796313148E+00  0.22910171969E+02  0.51100000000E-03 0.  1.
         12    1    3    3    0    0 -0.14418072313E+00 -0.35971886114E+00  0.10773312453E+00  0.40223396935E+00  0.00000000000E+00 0. -1.
</event>
<event>
 7    1  0.1549900E-008  0.4614232E+02  0.7816164E-02  0.1320468E+00
        -11   -1    0    0    0    0  0.00000000000E+00  0.00000000000E+00  0.45593999997E+02  0.45594000000E+02  0.51100000000E-03 0.  1.
         11   -1    0    0    0    0 -0.00000000000E+00 -0.00000000000E+00 -0.45593999997E+02  0.45594000000E+02  0.51100000000E-03 0. -1.
    9900012    2    1    2    0    0 -0.83436541630E+01 -0.40051313065E+02 -0.18851769307E+02  0.46142318198E+02  0.10000003983E+02 0.  0.
        -12    1    1    2    0    0  0.83436541630E+01  0.40051313065E+02  0.18851769307E+02  0.45045681802E+02  0.00000000000E+00 0.  1.
         11    1    3    3    0    0  0.22893431204E+00 -0.20100059402E+02 -0.68638126677E+01  0.21240920966E+02  0.51100000000E-03 0. -1.
        -11    1    3    3    0    0 -0.25280857758E+01 -0.66594597954E+01 -0.50739934427E+01  0.87455721468E+01  0.51100000000E-03 0.  1.
         12    1    3    3    0    0 -0.60445026993E+01 -0.13291793867E+02 -0.69139631968E+01  0.16155825085E+02  0.00000000000E+00 0. -1.
</event>
<event>
 7    1  0.1549900E-008  0.4614232E+02  0.7816164E-02  0.1320468E+00
        -11   -1    0    0    0    0  0.00000000000E+00  0.00000000000E+00  0.45593999997E+02  0.45594000000E+02  0.51100000000E-03 0.  1.
         11   -1    0    0    0    0 -0.00000000000E+00 -0.00000000000E+00 -0.45593999997E+02  0.45594000000E+02  0.51100000000E-03 0. -1.
    9900012    2    1    2    0    0 -0.16121348757E+02 -0.20756612619E+02 -0.36583858062E+02  0.46142317367E+02  0.99999964081E+01 0.  0.
        -12    1    1    2    0    0  0.16121348757E+02  0.20756612619E+02  0.36583858062E+02  0.45045682633E+02  0.00000000000E+00 0.  1.
         11    1    3    3    0    0 -0.77949115470E+01 -0.14606245877E+02 -0.27012536528E+02  0.31682490346E+02  0.51100000000E-03 0. -1.
        -11    1    3    3    0    0 -0.75890829182E+01 -0.50142288386E+01 -0.94235921349E+01  0.13097356961E+02  0.51100000000E-03 0.  1.
         12    1    3    3    0    0 -0.73735429126E+00 -0.11361379039E+01 -0.14772939956E+00  0.13624700595E+01  0.00000000000E+00 0. -1.
</event>
<event>
 7    1  0.1549900E-008  0.4614232E+02  0.7816164E-02  0.1320468E+00
        -11   -1    0    0    0    0  0.00000000000E+00  0.00000000000E+00  0.45593999997E+02  0.45594000000E+02  0.51100000000E-03 0.  1.
         11   -1    0    0    0    0 -0.00000000000E+00 -0.00000000000E+00 -0.45593999997E+02  0.45594000000E+02  0.51100000000E-03 0. -1.
    9900012    2    1    2    0    0 -0.62064496231E+01  0.82695146379E+01 -0.43842999668E+02  0.46142317530E+02  0.99999978916E+01 0.  0.
        -12    1    1    2    0    0  0.62064496231E+01 -0.82695146379E+01  0.43842999668E+02  0.45045682470E+02  0.00000000000E+00 0.  1.
         11    1    3    3    0    0 -0.31527588811E+01  0.47453683677E+01 -0.10364636900E+02  0.11827261215E+02  0.51100000000E-03 0. -1.
        -11    1    3    3    0    0  0.14145656854E+00  0.15203277174E+01 -0.15899736176E+01  0.22044098291E+01  0.51100000000E-03 0.  1.
         12    1    3    3    0    0 -0.31951473106E+01  0.20038185528E+01 -0.31888389150E+02  0.32110646486E+02  0.00000000000E+00 0. -1.
</event>
<event>
 7    1  0.1549900E-008  0.4614232E+02  0.7816164E-02  0.1320468E+00
        -11   -1    0    0    0    0  0.00000000000E+00  0.00000000000E+00  0.45593999997E+02  0.45594000000E+02  0.51100000000E-03 0. -1.
         11   -1    0    0    0    0 -0.00000000000E+00 -0.00000000000E+00 -0.45593999997E+02  0.45594000000E+02  0.51100000000E-03 0.  1.
    9900012    2    1    2    0    0 -0.18315864602E+02  0.20190713199E+02  0.35860530858E+02  0.46142317976E+02  0.10000001961E+02 0.  0.
        -12    1    1    2    0    0  0.18315864602E+02 -0.20190713199E+02 -0.35860530858E+02  0.45045682024E+02  0.00000000000E+00 0.  1.
         11    1    3    3    0    0 -0.13067138937E+02  0.15849667722E+02  0.27719389822E+02  0.34501110986E+02  0.51100000000E-03 0. -1.
        -11    1    3    3    0    0 -0.40915902306E+01  0.31641840995E+00  0.45197801604E+01  0.61048869101E+01  0.51100000000E-03 0.  1.
        -12    1    3    3    0    0 -0.11571354342E+01  0.40246270665E+01  0.36213608753E+01  0.55363200799E+01  0.00000000000E+00 0.  1.
</event>
<event>
 7    1  0.1549900E-008  0.4614232E+02  0.7816164E-02  0.1320468E+00
        -11   -1    0    0    0    0  0.00000000000E+00  0.00000000000E+00  0.45593999997E+02  0.45594000000E+02  0.51100000000E-03 0.  1.
         11   -1    0    0    0    0 -0.00000000000E+00 -0.00000000000E+00 -0.45593999997E+02  0.45594000000E+02  0.51100000000E-03 0. -1.
    9900012    2    1    2    0    0 -0.22758808117E+02  0.38661353622E+02  0.40558433341E+01  0.46142317899E+02  0.10000001262E+02 0.  0.
        -12    1    1    2    0    0  0.22758808117E+02 -0.38661353622E+02 -0.40558433341E+01  0.45045682101E+02  0.00000000000E+00 0.  1.
         11    1    3    3    0    0 -0.81930836916E+01  0.19144155144E+02  0.79621299144E+00  0.20838887973E+02  0.51100000000E-03 0. -1.
        -11    1    3    3    0    0 -0.66868763210E+01  0.81840701764E+01 -0.15608267079E+01  0.10683140917E+02  0.51100000000E-03 0.  1.
         12    1    3    3    0    0 -0.78788481043E+01  0.11333128301E+02  0.48204570506E+01  0.14620289009E+02  0.00000000000E+00 0. -1.
</event>
<event>
 7    1  0.1549900E-008  0.4614232E+02  0.7816164E-02  0.1320468E+00
        -11   -1    0    0    0    0  0.00000000000E+00  0.00000000000E+00  0.45593999997E+02  0.45594000000E+02  0.51100000000E-03 0.  1.
         11   -1    0    0    0    0 -0.00000000000E+00 -0.00000000000E+00 -0.45593999997E+02  0.45594000000E+02  0.51100000000E-03 0. -1.
    9900012    2    1    2    0    0 -0.42773536401E+02  0.21634463456E+01 -0.13959136145E+02  0.46142318761E+02  0.10000009122E+02 0.  0.
        -12    1    1    2    0    0  0.42773536401E+02 -0.21634463456E+01  0.13959136145E+02  0.45045681239E+02  0.00000000000E+00 0.  1.
         11    1    3    3    0    0 -0.53693256072E+00  0.77580964075E+00  0.50122412024E-01  0.94482257104E+00  0.51100000000E-03 0.  1.
        -11    1    3    3    0    0 -0.40664632758E+02  0.26004434204E+01 -0.14314172083E+02  0.43188773843E+02  0.51100000000E-03 0. -1.
         12    1    3    3    0    0 -0.15719710821E+01 -0.12128067155E+01  0.30491352634E+00  0.20087223479E+01  0.00000000000E+00 0. -1.
</event>
<event>
 7    1  0.1549900E-008  0.4614232E+02  0.7816164E-02  0.1320468E+00
        -11   -1    0    0    0    0  0.00000000000E+00  0.00000000000E+00  0.45593999997E+02  0.45594000000E+02  0.51100000000E-03 0.  1.
         11   -1    0    0    0    0 -0.00000000000E+00 -0.00000000000E+00 -0.45593999997E+02  0.45594000000E+02  0.51100000000E-03 0. -1.
    9900012    2    1    2    0    0  0.29604138225E+02  0.21597683992E+02  0.26196342113E+02  0.46142319919E+02  0.10000019674E+02 0.  0.
        -12    1    1    2    0    0 -0.29604138225E+02 -0.21597683992E+02 -0.26196342113E+02  0.45045680081E+02  0.00000000000E+00 0.  1.
         11    1    3    3    0    0  0.28884217569E+01  0.48960700309E+01  0.62120065361E+01  0.84204220476E+01  0.51100000000E-03 0.  1.
        -11    1    3    3    0    0  0.79084724815E+01  0.37915300700E+01  0.83706784697E+01  0.12123856464E+02  0.51100000000E-03 0. -1.
         12    1    3    3    0    0  0.18807243987E+02  0.12910083891E+02  0.11613657107E+02  0.25598041407E+02  0.00000000000E+00 0. -1.
</event>
<event>
 7    1  0.1549900E-008  0.4614232E+02  0.7816164E-02  0.1320468E+00
        -11   -1    0    0    0    0  0.00000000000E+00  0.00000000000E+00  0.45593999997E+02  0.45594000000E+02  0.51100000000E-03 0.  1.
         11   -1    0    0    0    0 -0.00000000000E+00 -0.00000000000E+00 -0.45593999997E+02  0.45594000000E+02  0.51100000000E-03 0. -1.
    9900012    2    1    2    0    0  0.10857309614E+02 -0.44412367652E-01 -0.43717620198E+02  0.46142318072E+02  0.10000002838E+02 0.  0.
        -12    1    1    2    0    0 -0.10857309614E+02  0.44412367652E-01  0.43717620198E+02  0.45045681928E+02  0.00000000000E+00 0.  1.
         11    1    3    3    0    0  0.27277468252E+01 -0.16219769951E+01 -0.14790226022E+02  0.15126870071E+02  0.51100000000E-03 0. -1.
        -11    1    3    3    0    0 -0.73604351054E+00  0.13617764500E+00 -0.10386872488E+02  0.10413809329E+02  0.51100000000E-03 0.  1.
        -12    1    3    3    0    0  0.88656062992E+01  0.14413869824E+01 -0.18540521689E+02  0.20601638673E+02  0.00000000000E+00 0.  1.
</event>
<event>
 7    1  0.1549900E-008  0.4614232E+02  0.7816164E-02  0.1320468E+00
        -11   -1    0    0    0    0  0.00000000000E+00  0.00000000000E+00  0.45593999997E+02  0.45594000000E+02  0.51100000000E-03 0.  1.
         11   -1    0    0    0    0 -0.00000000000E+00 -0.00000000000E+00 -0.45593999997E+02  0.45594000000E+02  0.51100000000E-03 0. -1.
    9900012    2    1    2    0    0  0.13442876517E+01  0.45771853943E+01 -0.44792362815E+02  0.46142317610E+02  0.99999986230E+01 0.  0.
        -12    1    1    2    0    0 -0.13442876517E+01 -0.45771853943E+01  0.44792362815E+02  0.45045682390E+02  0.00000000000E+00 0.  1.
         11    1    3    3    0    0  0.37092478783E+01  0.66171678030E+00 -0.16451664449E+02  0.16877608015E+02  0.51100000000E-03 0. -1.
        -11    1    3    3    0    0 -0.27539042659E+01  0.49717543131E+01 -0.26535415751E+02  0.27137255185E+02  0.51100000000E-03 0.  1.
        -12    1    3    3    0    0  0.38894403927E+00 -0.10562856991E+01 -0.18052826153E+01  0.21274544096E+01  0.00000000000E+00 0.  1.
</event>
<event>
 7    1  0.1549900E-008  0.4614232E+02  0.7816164E-02  0.1320468E+00
        -11   -1    0    0    0    0  0.00000000000E+00  0.00000000000E+00  0.45593999997E+02  0.45594000000E+02  0.51100000000E-03 0.  1.
         11   -1    0    0    0    0 -0.00000000000E+00 -0.00000000000E+00 -0.45593999997E+02  0.45594000000E+02  0.51100000000E-03 0. -1.
    9900012    2    1    2    0    0  0.44103366255E+02  0.68332490931E+01 -0.61084631485E+01  0.46142317296E+02  0.99999957596E+01 0.  0.
        -12    1    1    2    0    0 -0.44103366255E+02 -0.68332490931E+01  0.61084631485E+01  0.45045682704E+02  0.00000000000E+00 0.  1.
         11    1    3    3    0    0  0.36279811681E+02  0.24380364886E+01 -0.31462732452E+01  0.36497503930E+02  0.51100000000E-03 0. -1.
        -11    1    3    3    0    0  0.34264120012E+01  0.30283065445E+01 -0.15509972012E+01  0.48287195309E+01  0.51100000000E-03 0.  1.
        -12    1    3    3    0    0  0.43971425730E+01  0.13669060600E+01 -0.14111927021E+01  0.48160938349E+01  0.00000000000E+00 0.  1.
</event>
<event>
 7    1  0.1549900E-008  0.4614232E+02  0.7816164E-02  0.1320468E+00
        -11   -1    0    0    0    0  0.00000000000E+00  0.00000000000E+00  0.45593999997E+02  0.45594000000E+02  0.51100000000E-03 0. -1.
         11   -1    0    0    0    0 -0.00000000000E+00 -0.00000000000E+00 -0.45593999997E+02  0.45594000000E+02  0.51100000000E-03 0.  1.
    9900012    2    1    2    0    0 -0.37781951742E+02 -0.22299228037E+02  0.10216754598E+02  0.46142317377E+02  0.99999964982E+01 0.  0.
        -12    1    1    2    0    0  0.37781951742E+02  0.22299228037E+02 -0.10216754598E+02  0.45045682623E+02  0.00000000000E+00 0.  1.
         11    1    3    3    0    0 -0.13900217679E+02 -0.89678804659E+01  0.35727343072E+01  0.16923455979E+02  0.51100000000E-03 0. -1.
        -11    1    3    3    0    0 -0.22829849893E+02 -0.10034485078E+02  0.64205797129E+01  0.25751053979E+02  0.51100000000E-03 0.  1.
        -12    1    3    3    0    0 -0.10518841694E+01 -0.32968624931E+01  0.22344057792E+00  0.34678074191E+01  0.00000000000E+00 0.  1.
</event>
<event>
 7    1  0.1549900E-008  0.4614232E+02  0.7816164E-02  0.1320468E+00
        -11   -1    0    0    0    0  0.00000000000E+00  0.00000000000E+00  0.45593999997E+02  0.45594000000E+02  0.51100000000E-03 0. -1.
         11   -1    0    0    0    0 -0.00000000000E+00 -0.00000000000E+00 -0.45593999997E+02  0.45594000000E+02  0.51100000000E-03 0.  1.
    9900012    2    1    2    0    0 -0.30045914973E+02  0.28281119122E+02  0.18070267315E+02  0.46142320228E+02  0.10000022491E+02 0.  0.
        -12    1    1    2    0    0  0.30045914973E+02 -0.28281119122E+02 -0.18070267315E+02  0.45045679772E+02  0.00000000000E+00 0.  1.
         11    1    3    3    0    0 -0.16497704325E+02  0.13284911056E+02  0.76931145997E+01  0.22535463657E+02  0.51100000000E-03 0. -1.
        -11    1    3    3    0    0 -0.11257803498E+02  0.13819071005E+02  0.65411256906E+01  0.18986605505E+02  0.51100000000E-03 0.  1.
        -12    1    3    3    0    0 -0.22904071501E+01  0.11771370609E+01  0.38360270243E+01  0.46202510651E+01  0.00000000000E+00 0.  1.
</event>
<event>
 7    1  0.1549900E-008  0.4614232E+02  0.7816164E-02  0.1320468E+00
        -11   -1    0    0    0    0  0.00000000000E+00  0.00000000000E+00  0.45593999997E+02  0.45594000000E+02  0.51100000000E-03 0.  1.
         11   -1    0    0    0    0 -0.00000000000E+00 -0.00000000000E+00 -0.45593999997E+02  0.45594000000E+02  0.51100000000E-03 0. -1.
    9900012    2    1    2    0    0 -0.37344388136E+02 -0.13460983375E+02 -0.21291123148E+02  0.46142319590E+02  0.10000016681E+02 0.  0.
        -12    1    1    2    0    0  0.37344388136E+02  0.13460983375E+02  0.21291123148E+02  0.45045680410E+02  0.00000000000E+00 0.  1.
         11    1    3    3    0    0 -0.16948664631E+02 -0.57026098732E+01 -0.11261261811E+02  0.21132747336E+02  0.51100000000E-03 0. -1.
        -11    1    3    3    0    0 -0.14097094850E+02 -0.86184044193E+01 -0.66607064241E+01  0.17814881091E+02  0.51100000000E-03 0.  1.
        -12    1    3    3    0    0 -0.62986286542E+01  0.86003091806E+00 -0.33691549131E+01  0.71946911631E+01  0.00000000000E+00 0.  1.
</event>
<event>
 7    1  0.1549900E-008  0.4614231E+02  0.7816164E-02  0.1320468E+00
        -11   -1    0    0    0    0  0.00000000000E+00  0.00000000000E+00  0.45593999997E+02  0.45594000000E+02  0.51100000000E-03 0. -1.
         11   -1    0    0    0    0 -0.00000000000E+00 -0.00000000000E+00 -0.45593999997E+02  0.45594000000E+02  0.51100000000E-03 0.  1.
    9900012    2    1    2    0    0  0.27808695850E+02 -0.20398097863E+02  0.28977719202E+02  0.46142310179E+02  0.99999308631E+01 0.  0.
        -12    1    1    2    0    0 -0.27808695850E+02  0.20398097863E+02 -0.28977719202E+02  0.45045689821E+02  0.00000000000E+00 0.  1.
         11    1    3    3    0    0  0.10813640132E+02 -0.84320840250E+01  0.17223076559E+02  0.22015204299E+02  0.51100000000E-03 0. -1.
        -11    1    3    3    0    0  0.86345075775E+01 -0.77932897321E+01  0.76475580798E+01  0.13920317195E+02  0.51100000000E-03 0.  1.
        -12    1    3    3    0    0  0.83605481405E+01 -0.41727241062E+01  0.41070845632E+01  0.10206788686E+02  0.00000000000E+00 0.  1.
</event>
<event>
 7    1  0.1549900E-008  0.4614232E+02  0.7816164E-02  0.1320468E+00
        -11   -1    0    0    0    0  0.00000000000E+00  0.00000000000E+00  0.45593999997E+02  0.45594000000E+02  0.51100000000E-03 0.  1.
         11   -1    0    0    0    0 -0.00000000000E+00 -0.00000000000E+00 -0.45593999997E+02  0.45594000000E+02  0.51100000000E-03 0. -1.
    9900012    2    1    2    0    0 -0.36684317875E+02 -0.12565567402E+02 -0.22923369717E+02  0.46142317174E+02  0.99999946431E+01 0.  0.
        -12    1    1    2    0    0  0.36684317875E+02  0.12565567402E+02  0.22923369717E+02  0.45045682826E+02  0.00000000000E+00 0.  1.
         11    1    3    3    0    0 -0.19528030917E+02 -0.11702878026E+02 -0.11974799645E+02  0.25723475122E+02  0.51100000000E-03 0. -1.
        -11    1    3    3    0    0 -0.13062361370E+02 -0.10761197512E+01 -0.78231970794E+01  0.15263870121E+02  0.51100000000E-03 0.  1.
         12    1    3    3    0    0 -0.40939255889E+01  0.21343037598E+00 -0.31253729934E+01  0.51549719302E+01  0.00000000000E+00 0. -1.
</event>
<event>
 7    1  0.1549900E-008  0.4614232E+02  0.7816164E-02  0.1320468E+00
        -11   -1    0    0    0    0  0.00000000000E+00  0.00000000000E+00  0.45593999997E+02  0.45594000000E+02  0.51100000000E-03 0.  1.
         11   -1    0    0    0    0 -0.00000000000E+00 -0.00000000000E+00 -0.45593999997E+02  0.45594000000E+02  0.51100000000E-03 0. -1.
    9900012    2    1    2    0    0  0.75199711571E+00  0.29180348406E+01 -0.44944779608E+02  0.46142316067E+02  0.99999845478E+01 0.  0.
        -12    1    1    2    0    0 -0.75199711571E+00 -0.29180348406E+01  0.44944779608E+02  0.45045683933E+02  0.00000000000E+00 0.  1.
         11    1    3    3    0    0 -0.93689391919E+00 -0.11618000365E+01 -0.19147629853E+01  0.24277287928E+01  0.51100000000E-03 0. -1.
        -11    1    3    3    0    0 -0.23112580948E+01  0.56191381967E+00 -0.13068436672E+02  0.13283135866E+02  0.51100000000E-03 0.  1.
         12    1    3    3    0    0  0.40001491297E+01  0.35179210574E+01 -0.29961579951E+02  0.30431451407E+02  0.00000000000E+00 0. -1.
</event>
<event>
 7    1  0.1549900E-008  0.4614232E+02  0.7816164E-02  0.1320468E+00
        -11   -1    0    0    0    0  0.00000000000E+00  0.00000000000E+00  0.45593999997E+02  0.45594000000E+02  0.51100000000E-03 0. -1.
         11   -1    0    0    0    0 -0.00000000000E+00 -0.00000000000E+00 -0.45593999997E+02  0.45594000000E+02  0.51100000000E-03 0.  1.
    9900012    2    1    2    0    0  0.25519915610E+01  0.10840877593E+02  0.43647176974E+02  0.46142319345E+02  0.10000014444E+02 0.  0.
        -12    1    1    2    0    0 -0.25519915610E+01 -0.10840877593E+02 -0.43647176974E+02  0.45045680655E+02  0.00000000000E+00 0.  1.
         11    1    3    3    0    0  0.27810709574E+01  0.28875293774E+01  0.74717287115E+01  0.84793226012E+01  0.51100000000E-03 0. -1.
        -11    1    3    3    0    0 -0.29124483525E+01  0.13465960998E+01  0.14262283071E+02  0.14618768592E+02  0.51100000000E-03 0.  1.
        -12    1    3    3    0    0  0.26833689560E+01  0.66067521153E+01  0.21913165191E+02  0.23044228152E+02  0.00000000000E+00 0.  1.
</event>
<event>
 7    1  0.1549900E-008  0.4614232E+02  0.7816164E-02  0.1320468E+00
        -11   -1    0    0    0    0  0.00000000000E+00  0.00000000000E+00  0.45593999997E+02  0.45594000000E+02  0.51100000000E-03 0. -1.
         11   -1    0    0    0    0 -0.00000000000E+00 -0.00000000000E+00 -0.45593999997E+02  0.45594000000E+02  0.51100000000E-03 0.  1.
    9900012    2    1    2    0    0 -0.14101740808E+02 -0.48260948227E+01  0.42508389638E+02  0.46142317913E+02  0.10000001388E+02 0.  0.
        -12    1    1    2    0    0  0.14101740808E+02  0.48260948227E+01 -0.42508389638E+02  0.45045682087E+02  0.00000000000E+00 0.  1.
         11    1    3    3    0    0 -0.50336466133E+01 -0.50401062004E+01  0.28065987943E+02  0.28955827534E+02  0.51100000000E-03 0. -1.
        -11    1    3    3    0    0 -0.91590669748E+01  0.16539147613E+00  0.14415506897E+02  0.17079891731E+02  0.51100000000E-03 0.  1.
         12    1    3    3    0    0  0.90972780081E-01  0.48619901560E-01  0.26894798169E-01  0.10659864780E+00  0.00000000000E+00 0. -1.
</event>
<event>
 7    1  0.1549900E-008  0.4614232E+02  0.7816164E-02  0.1320468E+00
        -11   -1    0    0    0    0  0.00000000000E+00  0.00000000000E+00  0.45593999997E+02  0.45594000000E+02  0.51100000000E-03 0.  1.
         11   -1    0    0    0    0 -0.00000000000E+00 -0.00000000000E+00 -0.45593999997E+02  0.45594000000E+02  0.51100000000E-03 0. -1.
    9900012    2    1    2    0    0  0.17219976708E+02  0.31682178252E+01 -0.41503593017E+02  0.46142318350E+02  0.10000005367E+02 0.  0.
        -12    1    1    2    0    0 -0.17219976708E+02 -0.31682178252E+01  0.41503593017E+02  0.45045681650E+02  0.00000000000E+00 0.  1.
         11    1    3    3    0    0  0.62701766121E+01  0.31580703288E+01 -0.23606306788E+02  0.24628159562E+02  0.51100000000E-03 0. -1.
        -11    1    3    3    0    0  0.10997984770E+02 -0.52355411666E+00 -0.15227529396E+02  0.18791152963E+02  0.51100000000E-03 0.  1.
        -12    1    3    3    0    0 -0.48184674688E-01  0.53370161308E+00 -0.26697568327E+01  0.27230058245E+01  0.00000000000E+00 0.  1.
</event>
<event>
 7    1  0.1549900E-008  0.4614231E+02  0.7816164E-02  0.1320468E+00
        -11   -1    0    0    0    0  0.00000000000E+00  0.00000000000E+00  0.45593999997E+02  0.45594000000E+02  0.51100000000E-03 0. -1.
         11   -1    0    0    0    0 -0.00000000000E+00 -0.00000000000E+00 -0.45593999997E+02  0.45594000000E+02  0.51100000000E-03 0.  1.
    9900012    2    1    2    0    0 -0.65470194998E+01  0.43120599847E+01  0.44358273448E+02  0.46142314869E+02  0.99999736306E+01 0.  0.
        -12    1    1    2    0    0  0.65470194998E+01 -0.43120599847E+01 -0.44358273448E+02  0.45045685131E+02  0.00000000000E+00 0.  1.
         11    1    3    3    0    0  0.17774462617E+01  0.32212273560E+01  0.12434441353E+02  0.12967303224E+02  0.51100000000E-03 0. -1.
        -11    1    3    3    0    0 -0.26834113287E+01  0.19523943929E+01  0.11731230121E+02  0.12191566784E+02  0.51100000000E-03 0.  1.
         12    1    3    3    0    0 -0.56410544328E+01 -0.86156176421E+00  0.20192601973E+02  0.20983444861E+02  0.00000000000E+00 0. -1.
</event>
<event>
 7    1  0.1549900E-008  0.4614232E+02  0.7816164E-02  0.1320468E+00
        -11   -1    0    0    0    0  0.00000000000E+00  0.00000000000E+00  0.45593999997E+02  0.45594000000E+02  0.51100000000E-03 0.  1.
         11   -1    0    0    0    0 -0.00000000000E+00 -0.00000000000E+00 -0.45593999997E+02  0.45594000000E+02  0.51100000000E-03 0. -1.
    9900012    2    1    2    0    0  0.18538733744E+02  0.23580150361E+02 -0.33606620410E+02  0.46142322346E+02  0.10000041812E+02 0.  0.
        -12    1    1    2    0    0 -0.18538733744E+02 -0.23580150361E+02  0.33606620410E+02  0.45045677654E+02  0.00000000000E+00 0.  1.
         11    1    3    3    0    0  0.14386791505E+02  0.14822109321E+02 -0.22689727463E+02  0.30683846356E+02  0.51100000000E-03 0. -1.
        -11    1    3    3    0    0  0.99054978142E+00  0.56924971827E+01 -0.32831887753E+01  0.66456784334E+01  0.51100000000E-03 0.  1.
        -12    1    3    3    0    0  0.31613924573E+01  0.30655438571E+01 -0.76337041717E+01  0.88127975575E+01  0.00000000000E+00 0.  1.
</event>
<event>
 7    1  0.1549900E-008  0.4614232E+02  0.7816164E-02  0.1320468E+00
        -11   -1    0    0    0    0  0.00000000000E+00  0.00000000000E+00  0.45593999997E+02  0.45594000000E+02  0.51100000000E-03 0. -1.
         11   -1    0    0    0    0 -0.00000000000E+00 -0.00000000000E+00 -0.45593999997E+02  0.45594000000E+02  0.51100000000E-03 0.  1.
    9900012    2    1    2    0    0  0.19344319420E+02 -0.17144636680E+02  0.36891357282E+02  0.46142317601E+02  0.99999985382E+01 0.  0.
        -12    1    1    2    0    0 -0.19344319420E+02  0.17144636680E+02 -0.36891357282E+02  0.45045682399E+02  0.00000000000E+00 0.  1.
         11    1    3    3    0    0  0.28218245924E+01 -0.68239004962E+00  0.93328388632E+01  0.97739568097E+01  0.51100000000E-03 0.  1.
        -11    1    3    3    0    0  0.96497191438E+01 -0.72183319011E+01  0.11966377231E+02  0.16982802456E+02  0.51100000000E-03 0. -1.
        -12    1    3    3    0    0  0.68727756842E+01 -0.92439147288E+01  0.15592141188E+02  0.19385558335E+02  0.00000000000E+00 0.  1.
</event>
<event>
 7    1  0.1549900E-008  0.4614232E+02  0.7816164E-02  0.1320468E+00
        -11   -1    0    0    0    0  0.00000000000E+00  0.00000000000E+00  0.45593999997E+02  0.45594000000E+02  0.51100000000E-03 0.  1.
         11   -1    0    0    0    0 -0.00000000000E+00 -0.00000000000E+00 -0.45593999997E+02  0.45594000000E+02  0.51100000000E-03 0. -1.
    9900012    2    1    2    0    0  0.52506714291E+01 -0.31647391653E+02 -0.31622563805E+02  0.46142317738E+02  0.99999997857E+01 0.  0.
        -12    1    1    2    0    0 -0.52506714291E+01  0.31647391653E+02  0.31622563805E+02  0.45045682262E+02  0.00000000000E+00 0.  1.
         11    1    3    3    0    0  0.56805700722E+01 -0.26084707678E+02 -0.21632676578E+02  0.34360639505E+02  0.51100000000E-03 0. -1.
        -11    1    3    3    0    0 -0.10048002996E+01 -0.55784395153E+01 -0.89703702890E+01  0.10611133514E+02  0.51100000000E-03 0.  1.
        -12    1    3    3    0    0  0.57490165654E+00  0.15755540494E-01 -0.10195169381E+01  0.11705447189E+01  0.00000000000E+00 0.  1.
</event>
<event>
 7    1  0.1549900E-008  0.4614232E+02  0.7816164E-02  0.1320468E+00
        -11   -1    0    0    0    0  0.00000000000E+00  0.00000000000E+00  0.45593999997E+02  0.45594000000E+02  0.51100000000E-03 0. -1.
         11   -1    0    0    0    0 -0.00000000000E+00 -0.00000000000E+00 -0.45593999997E+02  0.45594000000E+02  0.51100000000E-03 0.  1.
    9900012    2    1    2    0    0 -0.25407448674E+00  0.42106763860E+02 -0.16002167551E+02  0.46142317822E+02  0.10000000554E+02 0.  0.
        -12    1    1    2    0    0  0.25407448674E+00 -0.42106763860E+02  0.16002167551E+02  0.45045682178E+02  0.00000000000E+00 0.  1.
         11    1    3    3    0    0 -0.45328434500E+01  0.14959118103E+02 -0.57876229664E+01  0.16667887210E+02  0.51100000000E-03 0. -1.
        -11    1    3    3    0    0  0.29186877588E+01  0.16694832219E+02 -0.78188621786E+01  0.18664693062E+02  0.51100000000E-03 0.  1.
         12    1    3    3    0    0  0.13600812044E+01  0.10452813537E+02 -0.23956824059E+01  0.10809737550E+02  0.00000000000E+00 0. -1.
</event>
<event>
 7    1  0.1549900E-008  0.4614232E+02  0.7816164E-02  0.1320468E+00
        -11   -1    0    0    0    0  0.00000000000E+00  0.00000000000E+00  0.45593999997E+02  0.45594000000E+02  0.51100000000E-03 0. -1.
         11   -1    0    0    0    0 -0.00000000000E+00 -0.00000000000E+00 -0.45593999997E+02  0.45594000000E+02  0.51100000000E-03 0.  1.
    9900012    2    1    2    0    0  0.37102280300E+02  0.12519061871E+02  0.22266734638E+02  0.46142316688E+02  0.99999902127E+01 0.  0.
        -12    1    1    2    0    0 -0.37102280300E+02 -0.12519061871E+02 -0.22266734638E+02  0.45045683312E+02  0.00000000000E+00 0.  1.
         11    1    3    3    0    0  0.26867434043E+02  0.12213977920E+02  0.16518866087E+02  0.33821785964E+02  0.51100000000E-03 0. -1.
        -11    1    3    3    0    0  0.81331890736E+01  0.11314446086E+01  0.58138242108E+01  0.10061286380E+02  0.51100000000E-03 0.  1.
        -12    1    3    3    0    0  0.21016571834E+01 -0.82636065850E+00 -0.65955660131E-01  0.22592443435E+01  0.00000000000E+00 0.  1.
</event>
<event>
 7    1  0.1549900E-008  0.4614232E+02  0.7816164E-02  0.1320468E+00
        -11   -1    0    0    0    0  0.00000000000E+00  0.00000000000E+00  0.45593999997E+02  0.45594000000E+02  0.51100000000E-03 0. -1.
         11   -1    0    0    0    0 -0.00000000000E+00 -0.00000000000E+00 -0.45593999997E+02  0.45594000000E+02  0.51100000000E-03 0.  1.
    9900012    2    1    2    0    0 -0.12311154276E+02 -0.27835556252E+01  0.43241191711E+02  0.46142319163E+02  0.10000012781E+02 0.  0.
        -12    1    1    2    0    0  0.12311154276E+02  0.27835556252E+01 -0.43241191711E+02  0.45045680837E+02  0.00000000000E+00 0.  1.
         11    1    3    3    0    0 -0.40167370446E+01  0.63170242542E+00  0.91968699083E+01  0.10055627321E+02  0.51100000000E-03 0. -1.
        -11    1    3    3    0    0 -0.65238727412E+01 -0.27057230031E+01  0.33297471806E+02  0.34038264960E+02  0.51100000000E-03 0.  1.
        -12    1    3    3    0    0 -0.17705444902E+01 -0.70953504747E+00  0.74684999602E+00  0.20484268823E+01  0.00000000000E+00 0.  1.
</event>
<event>
 7    1  0.1549900E-008  0.4614232E+02  0.7816164E-02  0.1320468E+00
        -11   -1    0    0    0    0  0.00000000000E+00  0.00000000000E+00  0.45593999997E+02  0.45594000000E+02  0.51100000000E-03 0. -1.
         11   -1    0    0    0    0 -0.00000000000E+00 -0.00000000000E+00 -0.45593999997E+02  0.45594000000E+02  0.51100000000E-03 0.  1.
    9900012    2    1    2    0    0 -0.43891270997E+02  0.73829050732E+01  0.69399243134E+01  0.46142317560E+02  0.99999981623E+01 0.  0.
        -12    1    1    2    0    0  0.43891270997E+02 -0.73829050732E+01 -0.69399243134E+01  0.45045682440E+02  0.00000000000E+00 0.  1.
         11    1    3    3    0    0 -0.78794308481E+01 -0.16673084133E+01  0.14079824795E+01  0.81760481138E+01  0.51100000000E-03 0. -1.
        -11    1    3    3    0    0 -0.14610632281E+02  0.60417322654E+01  0.72880266456E+00  0.15827326307E+02  0.51100000000E-03 0.  1.
         12    1    3    3    0    0 -0.21401207867E+02  0.30084812211E+01  0.48031391693E+01  0.22138943139E+02  0.00000000000E+00 0. -1.
</event>
<event>
 7    1  0.1549900E-008  0.4614232E+02  0.7816164E-02  0.1320468E+00
        -11   -1    0    0    0    0  0.00000000000E+00  0.00000000000E+00  0.45593999997E+02  0.45594000000E+02  0.51100000000E-03 0. -1.
         11   -1    0    0    0    0 -0.00000000000E+00 -0.00000000000E+00 -0.45593999997E+02  0.45594000000E+02  0.51100000000E-03 0.  1.
    9900012    2    1    2    0    0  0.95787580375E+01 -0.43880884408E+02  0.34393139799E+01  0.46142317603E+02  0.99999985555E+01 0.  0.
        -12    1    1    2    0    0 -0.95787580375E+01  0.43880884408E+02 -0.34393139799E+01  0.45045682397E+02  0.00000000000E+00 0.  1.
         11    1    3    3    0    0  0.17136603974E+01 -0.16819832101E+02  0.21299584830E+01  0.17040543045E+02  0.51100000000E-03 0. -1.
        -11    1    3    3    0    0  0.92366553109E+01 -0.23004076680E+02  0.10514344041E+01  0.24811466297E+02  0.51100000000E-03 0.  1.
        -12    1    3    3    0    0 -0.13715576709E+01 -0.40569756277E+01  0.25792109282E+00  0.42903082615E+01  0.00000000000E+00 0.  1.
</event>
<event>
 7    1  0.1549900E-008  0.4614232E+02  0.7816164E-02  0.1320468E+00
        -11   -1    0    0    0    0  0.00000000000E+00  0.00000000000E+00  0.45593999997E+02  0.45594000000E+02  0.51100000000E-03 0.  1.
         11   -1    0    0    0    0 -0.00000000000E+00 -0.00000000000E+00 -0.45593999997E+02  0.45594000000E+02  0.51100000000E-03 0. -1.
    9900012    2    1    2    0    0  0.12550155909E+02 -0.17803732301E+02 -0.39428851339E+02  0.46142316355E+02  0.99999871742E+01 0.  0.
        -12    1    1    2    0    0 -0.12550155909E+02  0.17803732301E+02  0.39428851339E+02  0.45045683645E+02  0.00000000000E+00 0.  1.
         11    1    3    3    0    0  0.66085848443E+01 -0.59580451559E+01 -0.24234010193E+02  0.25815866168E+02  0.51100000000E-03 0.  1.
        -11    1    3    3    0    0 -0.63797871011E-01 -0.12151152219E+01 -0.20660756796E+01  0.23977581499E+01  0.51100000000E-03 0. -1.
         12    1    3    3    0    0  0.60053689356E+01 -0.10630571923E+02 -0.13128765467E+02  0.17928692037E+02  0.00000000000E+00 0. -1.
</event>
<event>
 7    1  0.1549900E-008  0.4614232E+02  0.7816164E-02  0.1320468E+00
        -11   -1    0    0    0    0  0.00000000000E+00  0.00000000000E+00  0.45593999997E+02  0.45594000000E+02  0.51100000000E-03 0.  1.
         11   -1    0    0    0    0 -0.00000000000E+00 -0.00000000000E+00 -0.45593999997E+02  0.45594000000E+02  0.51100000000E-03 0. -1.
    9900012    2    1    2    0    0  0.12646346999E+02 -0.28878197067E+02 -0.32175039138E+02  0.46142317612E+02  0.99999986384E+01 0.  0.
        -12    1    1    2    0    0 -0.12646346999E+02  0.28878197067E+02  0.32175039138E+02  0.45045682388E+02  0.00000000000E+00 0.  1.
         11    1    3    3    0    0 -0.63315065612E+00 -0.14614427477E+01 -0.15578237131E+00  0.16003009300E+01  0.51100000000E-03 0.  1.
        -11    1    3    3    0    0  0.96346173843E+01 -0.23860523165E+02 -0.28205805505E+02  0.38180071795E+02  0.51100000000E-03 0. -1.
        -12    1    3    3    0    0  0.36448802706E+01 -0.35562311548E+01 -0.38134512622E+01  0.63619448867E+01  0.00000000000E+00 0.  1.
</event>
<event>
 7    1  0.1549900E-008  0.4614232E+02  0.7816164E-02  0.1320468E+00
        -11   -1    0    0    0    0  0.00000000000E+00  0.00000000000E+00  0.45593999997E+02  0.45594000000E+02  0.51100000000E-03 0.  1.
         11   -1    0    0    0    0 -0.00000000000E+00 -0.00000000000E+00 -0.45593999997E+02  0.45594000000E+02  0.51100000000E-03 0. -1.
    9900012    2    1    2    0    0 -0.19929569883E+02  0.16535650998E+02 -0.36857807590E+02  0.46142317743E+02  0.99999998323E+01 0.  0.
        -12    1    1    2    0    0  0.19929569883E+02 -0.16535650998E+02  0.36857807590E+02  0.45045682257E+02  0.00000000000E+00 0.  1.
         11    1    3    3    0    0 -0.16759818123E+02  0.16681324304E+02 -0.33667602420E+02  0.41142016686E+02  0.51100000000E-03 0. -1.
        -11    1    3    3    0    0 -0.13281297297E+00  0.31418711470E+00  0.22376665496E+00  0.40795171996E+00  0.51100000000E-03 0.  1.
         12    1    3    3    0    0 -0.30369387872E+01 -0.45986042061E+00 -0.34139718255E+01  0.45923493365E+01  0.00000000000E+00 0. -1.
</event>
<event>
 7    1  0.1549900E-008  0.4614232E+02  0.7816164E-02  0.1320468E+00
        -11   -1    0    0    0    0  0.00000000000E+00  0.00000000000E+00  0.45593999997E+02  0.45594000000E+02  0.51100000000E-03 0.  1.
         11   -1    0    0    0    0 -0.00000000000E+00 -0.00000000000E+00 -0.45593999997E+02  0.45594000000E+02  0.51100000000E-03 0. -1.
    9900012    2    1    2    0    0  0.74559225956E+01 -0.10033479666E+02 -0.43276459029E+02  0.46142318720E+02  0.10000008739E+02 0.  0.
        -12    1    1    2    0    0 -0.74559225956E+01  0.10033479666E+02  0.43276459029E+02  0.45045681280E+02  0.00000000000E+00 0.  1.
         11    1    3    3    0    0  0.44538293901E+00 -0.16799796044E+01 -0.57212067790E+01  0.59793732701E+01  0.51100000000E-03 0. -1.
        -11    1    3    3    0    0  0.97868997870E+00 -0.80084096405E+00  0.11745656015E+00  0.12700301684E+01  0.51100000000E-03 0.  1.
        -12    1    3    3    0    0  0.60318496779E+01 -0.75526590971E+01 -0.37672708810E+02  0.38892915281E+02  0.00000000000E+00 0.  1.
</event>
<event>
 7    1  0.1604799E-008  0.4614232E+02  0.7816164E-02  0.1320468E+00
        -11   -1    0    0    0    0  0.00000000000E+00  0.00000000000E+00  0.45593999997E+02  0.45594000000E+02  0.51100000000E-03 0.  1.
         11   -1    0    0    0    0 -0.00000000000E+00 -0.00000000000E+00 -0.45593999997E+02  0.45594000000E+02  0.51100000000E-03 0. -1.
    9900012    2    1    2    0    0  0.32947566155E+02  0.40494745262E+01 -0.30449517846E+02  0.46142317670E+02  0.99999991700E+01 0.  0.
        -12    1    1    2    0    0 -0.32947566155E+02 -0.40494745262E+01  0.30449517846E+02  0.45045682330E+02  0.00000000000E+00 0.  1.
         11    1    3    3    0    0  0.25651386576E+02  0.22471245910E+01 -0.21878781393E+02  0.33789410733E+02  0.51100000000E-03 0. -1.
        -11    1    3    3    0    0  0.41761916189E+01  0.12082534288E+01 -0.80297443837E+01  0.91311142756E+01  0.51100000000E-03 0.  1.
         12    1    3    3    0    0  0.31199879605E+01  0.59409650652E+00 -0.54099206953E+00  0.32217926613E+01  0.00000000000E+00 0. -1.
</event>
<event>
 7    1  0.1549900E-008  0.4614232E+02  0.7816164E-02  0.1320468E+00
        -11   -1    0    0    0    0  0.00000000000E+00  0.00000000000E+00  0.45593999997E+02  0.45594000000E+02  0.51100000000E-03 0. -1.
         11   -1    0    0    0    0 -0.00000000000E+00 -0.00000000000E+00 -0.45593999997E+02  0.45594000000E+02  0.51100000000E-03 0.  1.
    9900012    2    1    2    0    0  0.32302192484E+02  0.30311456807E+02  0.81790906546E+01  0.46142316778E+02  0.99999910313E+01 0.  0.
        -12    1    1    2    0    0 -0.32302192484E+02 -0.30311456807E+02 -0.81790906546E+01  0.45045683222E+02  0.00000000000E+00 0.  1.
         11    1    3    3    0    0  0.73687991004E+01  0.31852927574E+01  0.36336044247E+00  0.80360015682E+01  0.51100000000E-03 0. -1.
        -11    1    3    3    0    0  0.81028658787E+01  0.11305771578E+02  0.52422768334E+01  0.14864668616E+02  0.51100000000E-03 0.  1.
         12    1    3    3    0    0  0.16830527505E+02  0.15820392472E+02  0.25734533787E+01  0.23241646593E+02  0.00000000000E+00 0. -1.
</event>
<event>
 7    1  0.1549900E-008  0.4614232E+02  0.7816164E-02  0.1320468E+00
        -11   -1    0    0    0    0  0.00000000000E+00  0.00000000000E+00  0.45593999997E+02  0.45594000000E+02  0.51100000000E-03 0.  1.
         11   -1    0    0    0    0 -0.00000000000E+00 -0.00000000000E+00 -0.45593999997E+02  0.45594000000E+02  0.51100000000E-03 0. -1.
    9900012    2    1    2    0    0  0.12320441753E+02  0.11710586519E+02 -0.41715492583E+02  0.46142318264E+02  0.10000004582E+02 0.  0.
        -12    1    1    2    0    0 -0.12320441753E+02 -0.11710586519E+02  0.41715492583E+02  0.45045681736E+02  0.00000000000E+00 0.  1.
         11    1    3    3    0    0  0.10658131765E+02  0.65319693724E+01 -0.25260818813E+02  0.28184594444E+02  0.51100000000E-03 0. -1.
        -11    1    3    3    0    0 -0.11702472691E+01  0.39028508926E+01 -0.88458057767E+01  0.97390966656E+01  0.51100000000E-03 0.  1.
        -12    1    3    3    0    0  0.28325572574E+01  0.12757662544E+01 -0.76088679938E+01  0.82186271542E+01  0.00000000000E+00 0.  1.
</event>
<event>
 7    1  0.1549900E-008  0.4614232E+02  0.7816164E-02  0.1320468E+00
        -11   -1    0    0    0    0  0.00000000000E+00  0.00000000000E+00  0.45593999997E+02  0.45594000000E+02  0.51100000000E-03 0.  1.
         11   -1    0    0    0    0 -0.00000000000E+00 -0.00000000000E+00 -0.45593999997E+02  0.45594000000E+02  0.51100000000E-03 0. -1.
    9900012    2    1    2    0    0  0.34139239494E+02  0.35546265632E+01 -0.29171737536E+02  0.46142319695E+02  0.10000017636E+02 0.  0.
        -12    1    1    2    0    0 -0.34139239494E+02 -0.35546265632E+01  0.29171737536E+02  0.45045680305E+02  0.00000000000E+00 0.  1.
         11    1    3    3    0    0  0.15812442353E+01 -0.94602480372E+00 -0.41964839284E+00  0.18898151486E+01  0.51100000000E-03 0. -1.
        -11    1    3    3    0    0  0.83675021747E-01 -0.66901562277E+00 -0.10896804185E+01  0.12814004403E+01  0.51100000000E-03 0.  1.
         12    1    3    3    0    0  0.32474320237E+02  0.51696669896E+01 -0.27662408725E+02  0.42971104106E+02  0.00000000000E+00 0. -1.
</event>
<event>
 7    1  0.1549900E-008  0.4614232E+02  0.7816164E-02  0.1320468E+00
        -11   -1    0    0    0    0  0.00000000000E+00  0.00000000000E+00  0.45593999997E+02  0.45594000000E+02  0.51100000000E-03 0.  1.
         11   -1    0    0    0    0 -0.00000000000E+00 -0.00000000000E+00 -0.45593999997E+02  0.45594000000E+02  0.51100000000E-03 0. -1.
    9900012    2    1    2    0    0  0.13554946688E+02 -0.39728760164E+01 -0.42773740107E+02  0.46142321336E+02  0.10000032600E+02 0.  0.
        -12    1    1    2    0    0 -0.13554946688E+02  0.39728760164E+01  0.42773740107E+02  0.45045678664E+02  0.00000000000E+00 0.  1.
         11    1    3    3    0    0  0.45620710435E+01 -0.79746700690E+00 -0.22119699523E+02  0.22599326386E+02  0.51100000000E-03 0. -1.
        -11    1    3    3    0    0  0.22366544684E+01 -0.17829498204E+01 -0.12682855847E+02  0.13001398616E+02  0.51100000000E-03 0.  1.
        -12    1    3    3    0    0  0.67562211759E+01 -0.13924591891E+01 -0.79711847370E+01  0.10541596335E+02  0.00000000000E+00 0.  1.
</event>
<event>
 7    1  0.1549900E-008  0.4614232E+02  0.7816164E-02  0.1320468E+00
        -11   -1    0    0    0    0  0.00000000000E+00  0.00000000000E+00  0.45593999997E+02  0.45594000000E+02  0.51100000000E-03 0.  1.
         11   -1    0    0    0    0 -0.00000000000E+00 -0.00000000000E+00 -0.45593999997E+02  0.45594000000E+02  0.51100000000E-03 0. -1.
    9900012    2    1    2    0    0  0.37596614184E+02  0.14985423393E+02  0.19774849375E+02  0.46142323402E+02  0.10000051437E+02 0.  0.
        -12    1    1    2    0    0 -0.37596614184E+02 -0.14985423393E+02 -0.19774849375E+02  0.45045676598E+02  0.00000000000E+00 0.  1.
         11    1    3    3    0    0  0.18837103215E+02  0.30939995655E+01  0.72805487067E+01  0.20430753304E+02  0.51100000000E-03 0. -1.
        -11    1    3    3    0    0  0.15774687819E+02  0.98987761419E+01  0.11826529121E+02  0.22061127265E+02  0.51100000000E-03 0.  1.
         12    1    3    3    0    0  0.29848231502E+01  0.19926476853E+01  0.66777154731E+00  0.36504428327E+01  0.00000000000E+00 0. -1.
</event>
<event>
 7    1  0.1549900E-008  0.4614232E+02  0.7816164E-02  0.1320468E+00
        -11   -1    0    0    0    0  0.00000000000E+00  0.00000000000E+00  0.45593999997E+02  0.45594000000E+02  0.51100000000E-03 0.  1.
         11   -1    0    0    0    0 -0.00000000000E+00 -0.00000000000E+00 -0.45593999997E+02  0.45594000000E+02  0.51100000000E-03 0. -1.
    9900012    2    1    2    0    0  0.73054135875E+01  0.41616787152E+02 -0.15613688337E+02  0.46142319807E+02  0.10000018659E+02 0.  0.
        -12    1    1    2    0    0 -0.73054135875E+01 -0.41616787152E+02  0.15613688337E+02  0.45045680193E+02  0.00000000000E+00 0.  1.
         11    1    3    3    0    0  0.51211337681E+01  0.24994564338E+02 -0.76678917333E+01  0.26641149026E+02  0.51100000000E-03 0. -1.
        -11    1    3    3    0    0  0.42578042171E+00  0.10210890141E+02 -0.16633823808E+01  0.10354245875E+02  0.51100000000E-03 0.  1.
        -12    1    3    3    0    0  0.17584993977E+01  0.64113326729E+01 -0.62824142226E+01  0.91469249061E+01  0.00000000000E+00 0.  1.
</event>
<event>
 7    1  0.1549900E-008  0.4614231E+02  0.7816164E-02  0.1320468E+00
        -11   -1    0    0    0    0  0.00000000000E+00  0.00000000000E+00  0.45593999997E+02  0.45594000000E+02  0.51100000000E-03 0.  1.
         11   -1    0    0    0    0 -0.00000000000E+00 -0.00000000000E+00 -0.45593999997E+02  0.45594000000E+02  0.51100000000E-03 0. -1.
    9900012    2    1    2    0    0 -0.55842906962E+01 -0.22643618549E+02 -0.38538240564E+02  0.46142314865E+02  0.99999735883E+01 0.  0.
        -12    1    1    2    0    0  0.55842906962E+01  0.22643618549E+02  0.38538240564E+02  0.45045685135E+02  0.00000000000E+00 0.  1.
         11    1    3    3    0    0 -0.58145391844E+01 -0.17578434884E+02 -0.27173748644E+02  0.32881953326E+02  0.51100000000E-03 0. -1.
        -11    1    3    3    0    0  0.59610010504E+00 -0.23114025207E+01 -0.11031027370E+01  0.26295917663E+01  0.51100000000E-03 0.  1.
        -12    1    3    3    0    0 -0.36585161678E+00 -0.27537811437E+01 -0.10261389182E+02  0.10630769772E+02  0.00000000000E+00 0.  1.
</event>
<event>
 7    1  0.1549900E-008  0.4614232E+02  0.7816164E-02  0.1320468E+00
        -11   -1    0    0    0    0  0.00000000000E+00  0.00000000000E+00  0.45593999997E+02  0.45594000000E+02  0.51100000000E-03 0.  1.
         11   -1    0    0    0    0 -0.00000000000E+00 -0.00000000000E+00 -0.45593999997E+02  0.45594000000E+02  0.51100000000E-03 0. -1.
    9900012    2    1    2    0    0  0.37386753174E+02  0.25041505450E+02 -0.20656963537E+01  0.46142318637E+02  0.10000007984E+02 0.  0.
        -12    1    1    2    0    0 -0.37386753174E+02 -0.25041505450E+02  0.20656963537E+01  0.45045681363E+02  0.00000000000E+00 0.  1.
         11    1    3    3    0    0  0.20138059618E+02  0.17047474612E+02 -0.82668530038E+00  0.26397750750E+02  0.51100000000E-03 0. -1.
        -11    1    3    3    0    0  0.17430013180E+02  0.71880230147E+01 -0.13883001368E+01  0.18905036680E+02  0.51100000000E-03 0.  1.
        -12    1    3    3    0    0 -0.18131962457E+00  0.80600782267E+00  0.14928908346E+00  0.83953120663E+00  0.00000000000E+00 0.  1.
</event>
<event>
 7    1  0.1549900E-008  0.4614232E+02  0.7816164E-02  0.1320468E+00
        -11   -1    0    0    0    0  0.00000000000E+00  0.00000000000E+00  0.45593999997E+02  0.45594000000E+02  0.51100000000E-03 0.  1.
         11   -1    0    0    0    0 -0.00000000000E+00 -0.00000000000E+00 -0.45593999997E+02  0.45594000000E+02  0.51100000000E-03 0. -1.
    9900012    2    1    2    0    0  0.22571842320E+01 -0.26167208880E+01 -0.44912931718E+02  0.46142317139E+02  0.99999943298E+01 0.  0.
        -12    1    1    2    0    0 -0.22571842320E+01  0.26167208880E+01  0.44912931718E+02  0.45045682861E+02  0.00000000000E+00 0.  1.
         11    1    3    3    0    0 -0.24514315906E+01 -0.84363104500E+00 -0.71714663163E+01  0.76256907602E+01  0.51100000000E-03 0. -1.
        -11    1    3    3    0    0 -0.70325273171E-01  0.92359725864E+00 -0.98226349560E+00  0.13501182823E+01  0.51100000000E-03 0.  1.
         12    1    3    3    0    0  0.47789410958E+01 -0.26966871016E+01 -0.36759201906E+02  0.37166508097E+02  0.00000000000E+00 0. -1.
</event>
<event>
 7    1  0.1549900E-008  0.4614232E+02  0.7816164E-02  0.1320468E+00
        -11   -1    0    0    0    0  0.00000000000E+00  0.00000000000E+00  0.45593999997E+02  0.45594000000E+02  0.51100000000E-03 0. -1.
         11   -1    0    0    0    0 -0.00000000000E+00 -0.00000000000E+00 -0.45593999997E+02  0.45594000000E+02  0.51100000000E-03 0.  1.
    9900012    2    1    2    0    0  0.46984332264E+01 -0.20887348675E+02  0.39632777209E+02  0.46142316091E+02  0.99999847751E+01 0.  0.
        -12    1    1    2    0    0 -0.46984332264E+01  0.20887348675E+02 -0.39632777209E+02  0.45045683909E+02  0.00000000000E+00 0.  1.
         11    1    3    3    0    0 -0.11227711622E+01 -0.83672045381E+01  0.11110829122E+02  0.13954255656E+02  0.51100000000E-03 0. -1.
        -11    1    3    3    0    0  0.64292824523E+01 -0.76593190670E+01  0.19914010488E+02  0.22283820485E+02  0.51100000000E-03 0.  1.
        -12    1    3    3    0    0 -0.60807806362E+00 -0.48608250699E+01  0.86079375997E+01  0.99042399513E+01  0.00000000000E+00 0.  1.
</event>
<event>
 7    1  0.1549900E-008  0.4614232E+02  0.7816164E-02  0.1320468E+00
        -11   -1    0    0    0    0  0.00000000000E+00  0.00000000000E+00  0.45593999997E+02  0.45594000000E+02  0.51100000000E-03 0.  1.
         11   -1    0    0    0    0 -0.00000000000E+00 -0.00000000000E+00 -0.45593999997E+02  0.45594000000E+02  0.51100000000E-03 0. -1.
    9900012    2    1    2    0    0 -0.22561109326E+02 -0.38191593323E+02 -0.78429560208E+01  0.46142318590E+02  0.10000007558E+02 0.  0.
        -12    1    1    2    0    0  0.22561109326E+02  0.38191593323E+02  0.78429560208E+01  0.45045681410E+02  0.00000000000E+00 0.  1.
         11    1    3    3    0    0 -0.25026147440E+01 -0.10519156066E+02 -0.13591755957E+01  0.10897847653E+02  0.51100000000E-03 0.  1.
        -11    1    3    3    0    0 -0.15339594964E+02 -0.17991865410E+02 -0.25562646961E+01  0.23781187609E+02  0.51100000000E-03 0. -1.
         12    1    3    3    0    0 -0.47188996179E+01 -0.96805718463E+01 -0.39275157290E+01  0.11463283329E+02  0.00000000000E+00 0. -1.
</event>
<event>
 7    1  0.1549900E-008  0.4614232E+02  0.7816164E-02  0.1320468E+00
        -11   -1    0    0    0    0  0.00000000000E+00  0.00000000000E+00  0.45593999997E+02  0.45594000000E+02  0.51100000000E-03 0.  1.
         11   -1    0    0    0    0 -0.00000000000E+00 -0.00000000000E+00 -0.45593999997E+02  0.45594000000E+02  0.51100000000E-03 0. -1.
    9900012    2    1    2    0    0  0.35609123988E+01 -0.26511407577E+02 -0.36243324311E+02  0.46142318898E+02  0.10000010369E+02 0.  0.
        -12    1    1    2    0    0 -0.35609123988E+01  0.26511407577E+02  0.36243324311E+02  0.45045681102E+02  0.00000000000E+00 0.  1.
         11    1    3    3    0    0 -0.28657609025E+01 -0.57963576180E+01 -0.10109664957E+02  0.12000653024E+02  0.51100000000E-03 0. -1.
        -11    1    3    3    0    0  0.22503189858E+01 -0.54258081243E+01 -0.49273233187E+01  0.76669318953E+01  0.51100000000E-03 0.  1.
         12    1    3    3    0    0  0.41763543155E+01 -0.15289241835E+02 -0.21206336035E+02  0.26474733979E+02  0.00000000000E+00 0. -1.
</event>
<event>
 7    1  0.1549900E-008  0.4614233E+02  0.7816164E-02  0.1320468E+00
        -11   -1    0    0    0    0  0.00000000000E+00  0.00000000000E+00  0.45593999997E+02  0.45594000000E+02  0.51100000000E-03 0.  1.
         11   -1    0    0    0    0 -0.00000000000E+00 -0.00000000000E+00 -0.45593999997E+02  0.45594000000E+02  0.51100000000E-03 0. -1.
    9900012    2    1    2    0    0 -0.31929772668E+02 -0.18831109349E+02 -0.25592806181E+02  0.46142325511E+02  0.10000070670E+02 0.  0.
        -12    1    1    2    0    0  0.31929772668E+02  0.18831109349E+02  0.25592806181E+02  0.45045674489E+02  0.00000000000E+00 0.  1.
         11    1    3    3    0    0 -0.90620009769E+01 -0.24280389504E+01 -0.83743535251E+01  0.12575572833E+02  0.51100000000E-03 0. -1.
        -11    1    3    3    0    0 -0.10628157534E+02 -0.10419762344E+02 -0.11420535481E+02  0.18760538659E+02  0.51100000000E-03 0.  1.
        -12    1    3    3    0    0 -0.12239614158E+02 -0.59833080547E+01 -0.57979171751E+01  0.14806214019E+02  0.00000000000E+00 0.  1.
</event>
<event>
 7    1  0.1549900E-008  0.4614232E+02  0.7816164E-02  0.1320468E+00
        -11   -1    0    0    0    0  0.00000000000E+00  0.00000000000E+00  0.45593999997E+02  0.45594000000E+02  0.51100000000E-03 0.  1.
         11   -1    0    0    0    0 -0.00000000000E+00 -0.00000000000E+00 -0.45593999997E+02  0.45594000000E+02  0.51100000000E-03 0. -1.
    9900012    2    1    2    0    0 -0.21704165182E+02 -0.77790340666E+01 -0.38697922498E+02  0.46142319154E+02  0.10000012697E+02 0.  0.
        -12    1    1    2    0    0  0.21704165182E+02  0.77790340666E+01  0.38697922498E+02  0.45045680846E+02  0.00000000000E+00 0.  1.
         11    1    3    3    0    0 -0.74772746479E+01 -0.45043612482E+01 -0.15138730414E+02  0.17475127045E+02  0.51100000000E-03 0. -1.
        -11    1    3    3    0    0  0.28697089145E+00  0.72492053924E+00 -0.90639934157E-01  0.78490632533E+00  0.51100000000E-03 0.  1.
        -12    1    3    3    0    0 -0.14513861426E+02 -0.39995933576E+01 -0.23468552150E+02  0.27882285783E+02  0.00000000000E+00 0.  1.
</event>
<event>
 7    1  0.1549900E-008  0.4614232E+02  0.7816164E-02  0.1320468E+00
        -11   -1    0    0    0    0  0.00000000000E+00  0.00000000000E+00  0.45593999997E+02  0.45594000000E+02  0.51100000000E-03 0.  1.
         11   -1    0    0    0    0 -0.00000000000E+00 -0.00000000000E+00 -0.45593999997E+02  0.45594000000E+02  0.51100000000E-03 0. -1.
    9900012    2    1    2    0    0 -0.53375458959E+00 -0.18516666261E+02 -0.41060461318E+02  0.46142319773E+02  0.10000018350E+02 0.  0.
        -12    1    1    2    0    0  0.53375458959E+00  0.18516666261E+02  0.41060461318E+02  0.45045680227E+02  0.00000000000E+00 0.  1.
         11    1    3    3    0    0 -0.45989105549E+01 -0.11862847577E+02 -0.25637472957E+02  0.28620921557E+02  0.51100000000E-03 0. -1.
        -11    1    3    3    0    0  0.31142141499E+01 -0.24084939520E+01 -0.80346057311E+01  0.89472935798E+01  0.51100000000E-03 0.  1.
        -12    1    3    3    0    0  0.95094181538E+00 -0.42453247322E+01 -0.73883826307E+01  0.85741046364E+01  0.00000000000E+00 0.  1.
</event>
<event>
 7    1  0.1549900E-008  0.4614231E+02  0.7816164E-02  0.1320468E+00
        -11   -1    0    0    0    0  0.00000000000E+00  0.00000000000E+00  0.45593999997E+02  0.45594000000E+02  0.51100000000E-03 0.  1.
         11   -1    0    0    0    0 -0.00000000000E+00 -0.00000000000E+00 -0.45593999997E+02  0.45594000000E+02  0.51100000000E-03 0. -1.
    9900012    2    1    2    0    0  0.77885833796E+01 -0.10143367797E+01 -0.44355643250E+02  0.46142312101E+02  0.99999483853E+01 0.  0.
        -12    1    1    2    0    0 -0.77885833796E+01  0.10143367797E+01  0.44355643250E+02  0.45045687899E+02  0.00000000000E+00 0.  1.
         11    1    3    3    0    0  0.71505372478E+01  0.11777886946E+01 -0.21226353653E+02  0.22429343699E+02  0.51100000000E-03 0. -1.
        -11    1    3    3    0    0 -0.76959298862E-01 -0.35650983314E+01 -0.13649003367E+02  0.14107130892E+02  0.51100000000E-03 0.  1.
         12    1    3    3    0    0  0.71500543065E+00  0.13729728570E+01 -0.94802862311E+01  0.96058375094E+01  0.00000000000E+00 0. -1.
</event>
<event>
 7    1  0.1549900E-008  0.4614232E+02  0.7816164E-02  0.1320468E+00
        -11   -1    0    0    0    0  0.00000000000E+00  0.00000000000E+00  0.45593999997E+02  0.45594000000E+02  0.51100000000E-03 0.  1.
         11   -1    0    0    0    0 -0.00000000000E+00 -0.00000000000E+00 -0.45593999997E+02  0.45594000000E+02  0.51100000000E-03 0. -1.
    9900012    2    1    2    0    0 -0.32045172159E+02 -0.22384576263E+02 -0.22386406204E+02  0.46142317677E+02  0.99999992337E+01 0.  0.
        -12    1    1    2    0    0  0.32045172159E+02  0.22384576263E+02  0.22386406204E+02  0.45045682323E+02  0.00000000000E+00 0.  1.
         11    1    3    3    0    0 -0.24840236583E+01 -0.17425197993E+01 -0.50262778436E+00  0.30756111160E+01  0.51100000000E-03 0. -1.
        -11    1    3    3    0    0 -0.20256462092E+02 -0.11747551019E+02 -0.97102027249E+01  0.25349896422E+02  0.51100000000E-03 0.  1.
        -12    1    3    3    0    0 -0.93046864093E+01 -0.88945054452E+01 -0.12173575695E+02  0.17716810139E+02  0.00000000000E+00 0.  1.
</event>
<event>
 7    1  0.1549900E-008  0.4614232E+02  0.7816164E-02  0.1320468E+00
        -11   -1    0    0    0    0  0.00000000000E+00  0.00000000000E+00  0.45593999997E+02  0.45594000000E+02  0.51100000000E-03 0.  1.
         11   -1    0    0    0    0 -0.00000000000E+00 -0.00000000000E+00 -0.45593999997E+02  0.45594000000E+02  0.51100000000E-03 0. -1.
    9900012    2    1    2    0    0 -0.22661915389E+02  0.15991220834E+02 -0.35494111448E+02  0.46142317628E+02  0.99999987867E+01 0.  0.
        -12    1    1    2    0    0  0.22661915389E+02 -0.15991220834E+02  0.35494111448E+02  0.45045682372E+02  0.00000000000E+00 0.  1.
         11    1    3    3    0    0 -0.10564543515E+02  0.58980763936E+01 -0.20023980192E+02  0.23395654892E+02  0.51100000000E-03 0. -1.
        -11    1    3    3    0    0  0.27698733944E+00  0.13641531935E+01 -0.22440106072E+01  0.26406854769E+01  0.51100000000E-03 0.  1.
        -12    1    3    3    0    0 -0.12374359214E+02  0.87289912466E+01 -0.13226120649E+02  0.20105977260E+02  0.00000000000E+00 0.  1.
</event>
<event>
 7    1  0.1549900E-008  0.4614232E+02  0.7816164E-02  0.1320468E+00
        -11   -1    0    0    0    0  0.00000000000E+00  0.00000000000E+00  0.45593999997E+02  0.45594000000E+02  0.51100000000E-03 0. -1.
         11   -1    0    0    0    0 -0.00000000000E+00 -0.00000000000E+00 -0.45593999997E+02  0.45594000000E+02  0.51100000000E-03 0.  1.
    9900012    2    1    2    0    0  0.94211408451E+01 -0.29444365265E+02  0.32762552336E+02  0.46142319006E+02  0.10000011348E+02 0.  0.
        -12    1    1    2    0    0 -0.94211408451E+01  0.29444365265E+02 -0.32762552336E+02  0.45045680994E+02  0.00000000000E+00 0.  1.
         11    1    3    3    0    0  0.31146408481E+01 -0.15069381262E+02  0.15755627826E+02  0.22023329623E+02  0.51100000000E-03 0. -1.
        -11    1    3    3    0    0 -0.24832840979E+00 -0.22601559631E+00  0.34202905473E+01  0.34367335855E+01  0.51100000000E-03 0.  1.
         12    1    3    3    0    0  0.65548284068E+01 -0.14148968406E+02  0.13586633963E+02  0.20682255797E+02  0.00000000000E+00 0. -1.
</event>
<event>
 7    1  0.1549900E-008  0.4614232E+02  0.7816164E-02  0.1320468E+00
        -11   -1    0    0    0    0  0.00000000000E+00  0.00000000000E+00  0.45593999997E+02  0.45594000000E+02  0.51100000000E-03 0.  1.
         11   -1    0    0    0    0 -0.00000000000E+00 -0.00000000000E+00 -0.45593999997E+02  0.45594000000E+02  0.51100000000E-03 0. -1.
    9900012    2    1    2    0    0  0.99162947999E+01  0.26888401542E+02 -0.34753338657E+02  0.46142316657E+02  0.99999899313E+01 0.  0.
        -12    1    1    2    0    0 -0.99162947999E+01 -0.26888401542E+02  0.34753338657E+02  0.45045683343E+02  0.00000000000E+00 0.  1.
         11    1    3    3    0    0  0.51391231855E+01  0.10685809564E+02 -0.10976499665E+02  0.16157990541E+02  0.51100000000E-03 0. -1.
        -11    1    3    3    0    0 -0.17935197008E+01  0.40045771684E+01 -0.64066612988E+01  0.77652212122E+01  0.51100000000E-03 0.  1.
        -12    1    3    3    0    0  0.65706913153E+01  0.12198014810E+02 -0.17370177693E+02  0.22219104904E+02  0.00000000000E+00 0.  1.
</event>
<event>
 7    1  0.1549900E-008  0.4614232E+02  0.7816164E-02  0.1320468E+00
        -11   -1    0    0    0    0  0.00000000000E+00  0.00000000000E+00  0.45593999997E+02  0.45594000000E+02  0.51100000000E-03 0. -1.
         11   -1    0    0    0    0 -0.00000000000E+00 -0.00000000000E+00 -0.45593999997E+02  0.45594000000E+02  0.51100000000E-03 0.  1.
    9900012    2    1    2    0    0  0.32578383852E+02 -0.20307932297E+01 -0.31042515718E+02  0.46142323208E+02  0.10000049666E+02 0.  0.
        -12    1    1    2    0    0 -0.32578383852E+02  0.20307932297E+01  0.31042515718E+02  0.45045676792E+02  0.00000000000E+00 0.  1.
         11    1    3    3    0    0  0.86316806364E+01 -0.17079136692E+01 -0.69964109582E+01  0.11241558890E+02  0.51100000000E-03 0. -1.
        -11    1    3    3    0    0  0.67149851416E+01 -0.37915539937E+01 -0.76956276484E+01  0.10894475311E+02  0.51100000000E-03 0.  1.
        -12    1    3    3    0    0  0.17231718074E+02  0.34686744331E+01 -0.16350477112E+02  0.24006289007E+02  0.00000000000E+00 0.  1.
</event>
<event>
 7    1  0.1549900E-008  0.4614231E+02  0.7816164E-02  0.1320468E+00
        -11   -1    0    0    0    0  0.00000000000E+00  0.00000000000E+00  0.45593999997E+02  0.45594000000E+02  0.51100000000E-03 0. -1.
         11   -1    0    0    0    0 -0.00000000000E+00 -0.00000000000E+00 -0.45593999997E+02  0.45594000000E+02  0.51100000000E-03 0.  1.
    9900012    2    1    2    0    0 -0.38171083149E+02 -0.12699476735E+02  0.20268343511E+02  0.46142311563E+02  0.99999434771E+01 0.  0.
        -12    1    1    2    0    0  0.38171083149E+02  0.12699476735E+02 -0.20268343511E+02  0.45045688437E+02  0.00000000000E+00 0.  1.
         11    1    3    3    0    0 -0.26648322885E+02 -0.80152812026E+01  0.13789148439E+02  0.31056697510E+02  0.51100000000E-03 0. -1.
        -11    1    3    3    0    0 -0.26830076317E+00 -0.16099737969E+01  0.20168959053E+01  0.25945847992E+01  0.51100000000E-03 0.  1.
        -12    1    3    3    0    0 -0.11254459501E+02 -0.30742217356E+01  0.44622991662E+01  0.12491029253E+02  0.00000000000E+00 0.  1.
</event>
<event>
 7    1  0.1549900E-008  0.4614232E+02  0.7816164E-02  0.1320468E+00
        -11   -1    0    0    0    0  0.00000000000E+00  0.00000000000E+00  0.45593999997E+02  0.45594000000E+02  0.51100000000E-03 0. -1.
         11   -1    0    0    0    0 -0.00000000000E+00 -0.00000000000E+00 -0.45593999997E+02  0.45594000000E+02  0.51100000000E-03 0.  1.
    9900012    2    1    2    0    0  0.80139227120E+01 -0.40588048921E+02  0.17818552277E+02  0.46142317880E+02  0.10000001081E+02 0.  0.
        -12    1    1    2    0    0 -0.80139227120E+01  0.40588048921E+02 -0.17818552277E+02  0.45045682120E+02  0.00000000000E+00 0.  1.
         11    1    3    3    0    0  0.15200593919E+01 -0.18270678303E+02  0.10191375510E+02  0.20975995835E+02  0.51100000000E-03 0. -1.
        -11    1    3    3    0    0  0.49204877980E+01 -0.20039708673E+02  0.47519044762E+01  0.21175025863E+02  0.51100000000E-03 0.  1.
        -12    1    3    3    0    0  0.15733755221E+01 -0.22776619448E+01  0.28752722908E+01  0.39912961823E+01  0.00000000000E+00 0.  1.
</event>
<event>
 7    1  0.1549900E-008  0.4614232E+02  0.7816164E-02  0.1320468E+00
        -11   -1    0    0    0    0  0.00000000000E+00  0.00000000000E+00  0.45593999997E+02  0.45594000000E+02  0.51100000000E-03 0.  1.
         11   -1    0    0    0    0 -0.00000000000E+00 -0.00000000000E+00 -0.45593999997E+02  0.45594000000E+02  0.51100000000E-03 0. -1.
    9900012    2    1    2    0    0  0.14785681677E+02 -0.52046333678E+01 -0.42230426255E+02  0.46142317712E+02  0.99999995534E+01 0.  0.
        -12    1    1    2    0    0 -0.14785681677E+02  0.52046333678E+01  0.42230426255E+02  0.45045682288E+02  0.00000000000E+00 0.  1.
         11    1    3    3    0    0  0.10330387354E+02 -0.45495665363E+01 -0.37012843794E+02  0.38695814561E+02  0.51100000000E-03 0. -1.
        -11    1    3    3    0    0  0.16871282416E+01 -0.66366227408E+00 -0.34940849938E+00  0.18463303816E+01  0.51100000000E-03 0.  1.
         12    1    3    3    0    0  0.27681660808E+01  0.85954425375E-02 -0.48681739615E+01  0.56001727698E+01  0.00000000000E+00 0. -1.
</event>
<event>
 7    1  0.1549900E-008  0.4614232E+02  0.7816164E-02  0.1320468E+00
        -11   -1    0    0    0    0  0.00000000000E+00  0.00000000000E+00  0.45593999997E+02  0.45594000000E+02  0.51100000000E-03 0.  1.
         11   -1    0    0    0    0 -0.00000000000E+00 -0.00000000000E+00 -0.45593999997E+02  0.45594000000E+02  0.51100000000E-03 0. -1.
    9900012    2    1    2    0    0  0.30512336839E+02 -0.16158365670E+02 -0.28931266065E+02  0.46142316115E+02  0.99999849902E+01 0.  0.
        -12    1    1    2    0    0 -0.30512336839E+02  0.16158365670E+02  0.28931266065E+02  0.45045683885E+02  0.00000000000E+00 0.  1.
         11    1    3    3    0    0  0.47911289588E+01 -0.71496380545E+01 -0.63048702454E+01  0.10668815777E+02  0.51100000000E-03 0. -1.
        -11    1    3    3    0    0  0.19438465955E+02 -0.75578353863E+01 -0.16752784252E+02  0.26751273144E+02  0.51100000000E-03 0.  1.
         12    1    3    3    0    0  0.62827419260E+01 -0.14508922293E+01 -0.58736115679E+01  0.87222271938E+01  0.00000000000E+00 0. -1.
</event>
<event>
 7    1  0.1549900E-008  0.4614232E+02  0.7816164E-02  0.1320468E+00
        -11   -1    0    0    0    0  0.00000000000E+00  0.00000000000E+00  0.45593999997E+02  0.45594000000E+02  0.51100000000E-03 0.  1.
         11   -1    0    0    0    0 -0.00000000000E+00 -0.00000000000E+00 -0.45593999997E+02  0.45594000000E+02  0.51100000000E-03 0. -1.
    9900012    2    1    2    0    0  0.23484981881E+02 -0.38580702627E+01 -0.38245056289E+02  0.46142318624E+02  0.10000007870E+02 0.  0.
        -12    1    1    2    0    0 -0.23484981881E+02  0.38580702627E+01  0.38245056289E+02  0.45045681376E+02  0.00000000000E+00 0.  1.
         11    1    3    3    0    0  0.99372828240E+01 -0.61013921958E+00 -0.11642436869E+02  0.15318883650E+02  0.51100000000E-03 0. -1.
        -11    1    3    3    0    0  0.13199321875E+02 -0.94210056081E+00 -0.22368858325E+02  0.25989911013E+02  0.51100000000E-03 0.  1.
        -12    1    3    3    0    0  0.34837718219E+00 -0.23058304823E+01 -0.42337610948E+01  0.48335239610E+01  0.00000000000E+00 0.  1.
</event>
<event>
 7    1  0.1549900E-008  0.4614232E+02  0.7816164E-02  0.1320468E+00
        -11   -1    0    0    0    0  0.00000000000E+00  0.00000000000E+00  0.45593999997E+02  0.45594000000E+02  0.51100000000E-03 0.  1.
         11   -1    0    0    0    0 -0.00000000000E+00 -0.00000000000E+00 -0.45593999997E+02  0.45594000000E+02  0.51100000000E-03 0. -1.
    9900012    2    1    2    0    0 -0.20000012510E+02 -0.19655211231E+02 -0.35253164814E+02  0.46142318095E+02  0.10000003042E+02 0.  0.
        -12    1    1    2    0    0  0.20000012510E+02  0.19655211231E+02  0.35253164814E+02  0.45045681905E+02  0.00000000000E+00 0.  1.
         11    1    3    3    0    0 -0.70874964390E+01 -0.38838144046E+01 -0.74007042525E+01  0.10958423417E+02  0.51100000000E-03 0. -1.
        -11    1    3    3    0    0 -0.38893863534E+01 -0.19003250638E+01 -0.27852599666E+01  0.51474493583E+01  0.51100000000E-03 0.  1.
         12    1    3    3    0    0 -0.90231297175E+01 -0.13871071762E+02 -0.25067200595E+02  0.30036445319E+02  0.00000000000E+00 0. -1.
</event>
<event>
 7    1  0.1549900E-008  0.4614232E+02  0.7816164E-02  0.1320468E+00
        -11   -1    0    0    0    0  0.00000000000E+00  0.00000000000E+00  0.45593999997E+02  0.45594000000E+02  0.51100000000E-03 0.  1.
         11   -1    0    0    0    0 -0.00000000000E+00 -0.00000000000E+00 -0.45593999997E+02  0.45594000000E+02  0.51100000000E-03 0. -1.
    9900012    2    1    2    0    0 -0.44448942372E+02  0.59845712690E+01  0.41940373882E+01  0.46142317401E+02  0.99999967119E+01 0.  0.
        -12    1    1    2    0    0  0.44448942372E+02 -0.59845712690E+01 -0.41940373882E+01  0.45045682599E+02  0.00000000000E+00 0.  1.
         11    1    3    3    0    0 -0.17201497026E+01  0.10523590783E+01  0.21183145934E+01  0.29246592292E+01  0.51100000000E-03 0. -1.
        -11    1    3    3    0    0 -0.97019698133E+01  0.15813869217E+01 -0.99152983952E+00  0.98798853505E+01  0.51100000000E-03 0.  1.
         12    1    3    3    0    0 -0.33026822856E+02  0.33508252690E+01  0.30672526343E+01  0.33337772821E+02  0.00000000000E+00 0. -1.
</event>
<event>
 7    1  0.1549900E-008  0.4614232E+02  0.7816164E-02  0.1320468E+00
        -11   -1    0    0    0    0  0.00000000000E+00  0.00000000000E+00  0.45593999997E+02  0.45594000000E+02  0.51100000000E-03 0.  1.
         11   -1    0    0    0    0 -0.00000000000E+00 -0.00000000000E+00 -0.45593999997E+02  0.45594000000E+02  0.51100000000E-03 0. -1.
    9900012    2    1    2    0    0 -0.40397700010E+02  0.10059010051E+02 -0.17203360795E+02  0.46142317944E+02  0.10000001665E+02 0.  0.
        -12    1    1    2    0    0  0.40397700010E+02 -0.10059010051E+02  0.17203360795E+02  0.45045682056E+02  0.00000000000E+00 0.  1.
         11    1    3    3    0    0 -0.13654903742E+02  0.16747977056E+01 -0.52331582811E+01  0.14718943216E+02  0.51100000000E-03 0. -1.
        -11    1    3    3    0    0 -0.19959356002E+01 -0.61137477076E+00  0.70099708684E+00  0.22020297926E+01  0.51100000000E-03 0.  1.
        -12    1    3    3    0    0 -0.24746860668E+02  0.89955871162E+01 -0.12671199601E+02  0.29221344935E+02  0.00000000000E+00 0.  1.
</event>
<event>
 7    1  0.1549900E-008  0.4614232E+02  0.7816164E-02  0.1320468E+00
        -11   -1    0    0    0    0  0.00000000000E+00  0.00000000000E+00  0.45593999997E+02  0.45594000000E+02  0.51100000000E-03 0.  1.
         11   -1    0    0    0    0 -0.00000000000E+00 -0.00000000000E+00 -0.45593999997E+02  0.45594000000E+02  0.51100000000E-03 0. -1.
    9900012    2    1    2    0    0  0.33575867197E+02 -0.24737893059E+02 -0.17023845033E+02  0.46142317513E+02  0.99999977354E+01 0.  0.
        -12    1    1    2    0    0 -0.33575867197E+02  0.24737893059E+02  0.17023845033E+02  0.45045682487E+02  0.00000000000E+00 0.  1.
         11    1    3    3    0    0  0.25877344790E+02 -0.17175985561E+02 -0.11458162255E+02  0.33104998654E+02  0.51100000000E-03 0. -1.
        -11    1    3    3    0    0  0.54851492132E+00 -0.25106440608E+00  0.79239125706E+00  0.99588459186E+00  0.51100000000E-03 0.  1.
         12    1    3    3    0    0  0.71500074853E+01 -0.73108430918E+01 -0.63580740355E+01  0.12041434266E+02  0.00000000000E+00 0. -1.
</event>
<event>
 7    1  0.1549900E-008  0.4614232E+02  0.7816164E-02  0.1320468E+00
        -11   -1    0    0    0    0  0.00000000000E+00  0.00000000000E+00  0.45593999997E+02  0.45594000000E+02  0.51100000000E-03 0.  1.
         11   -1    0    0    0    0 -0.00000000000E+00 -0.00000000000E+00 -0.45593999997E+02  0.45594000000E+02  0.51100000000E-03 0. -1.
    9900012    2    1    2    0    0 -0.18827277916E+02  0.16691267075E+02 -0.37363734370E+02  0.46142318338E+02  0.10000005262E+02 0.  0.
        -12    1    1    2    0    0  0.18827277916E+02 -0.16691267075E+02  0.37363734370E+02  0.45045681662E+02  0.00000000000E+00 0.  1.
         11    1    3    3    0    0 -0.10174105600E+02  0.43574141552E+01 -0.18367512945E+02  0.21444463503E+02  0.51100000000E-03 0. -1.
        -11    1    3    3    0    0 -0.33388294146E+01  0.86711802670E+01 -0.10361967716E+02  0.13917885051E+02  0.51100000000E-03 0.  1.
        -12    1    3    3    0    0 -0.53143429010E+01  0.36626726528E+01 -0.86342537094E+01  0.10779969784E+02  0.00000000000E+00 0.  1.
</event>
<event>
 7    1  0.1549900E-008  0.4614232E+02  0.7816164E-02  0.1320468E+00
        -11   -1    0    0    0    0  0.00000000000E+00  0.00000000000E+00  0.45593999997E+02  0.45594000000E+02  0.51100000000E-03 0.  1.
         11   -1    0    0    0    0 -0.00000000000E+00 -0.00000000000E+00 -0.45593999997E+02  0.45594000000E+02  0.51100000000E-03 0. -1.
    9900012    2    1    2    0    0  0.43461541435E+02  0.11839641322E+02  0.17554650365E+00  0.46142317553E+02  0.99999981004E+01 0.  0.
        -12    1    1    2    0    0 -0.43461541435E+02 -0.11839641322E+02 -0.17554650365E+00  0.45045682447E+02  0.00000000000E+00 0.  1.
         11    1    3    3    0    0  0.42649620235E+01  0.16828953481E+01 -0.16338946308E+01  0.48674068805E+01  0.51100000000E-03 0. -1.
        -11    1    3    3    0    0  0.10094062317E+02  0.62465679859E+01  0.41478734163E+00  0.11877784072E+02  0.51100000000E-03 0.  1.
         12    1    3    3    0    0  0.29102517095E+02  0.39101779880E+01  0.13946537928E+01  0.29397126601E+02  0.00000000000E+00 0. -1.
</event>
<event>
 7    1  0.1549900E-008  0.4614232E+02  0.7816164E-02  0.1320468E+00
        -11   -1    0    0    0    0  0.00000000000E+00  0.00000000000E+00  0.45593999997E+02  0.45594000000E+02  0.51100000000E-03 0.  1.
         11   -1    0    0    0    0 -0.00000000000E+00 -0.00000000000E+00 -0.45593999997E+02  0.45594000000E+02  0.51100000000E-03 0. -1.
    9900012    2    1    2    0    0  0.11402027702E+02  0.31703935375E+02 -0.29899293741E+02  0.46142317408E+02  0.99999967782E+01 0.  0.
        -12    1    1    2    0    0 -0.11402027702E+02 -0.31703935375E+02  0.29899293741E+02  0.45045682592E+02  0.00000000000E+00 0.  1.
         11    1    3    3    0    0  0.10657572932E+02  0.19654642258E+02 -0.16494815011E+02  0.27784307542E+02  0.51100000000E-03 0. -1.
        -11    1    3    3    0    0  0.48919461072E+00  0.54922023267E+01 -0.86366971577E+01  0.10246762212E+02  0.51100000000E-03 0.  1.
         12    1    3    3    0    0  0.25526015873E+00  0.65570907903E+01 -0.47677815723E+01  0.81112476538E+01  0.00000000000E+00 0. -1.
</event>
<event>
 7    1  0.1549900E-008  0.4614232E+02  0.7816164E-02  0.1320468E+00
        -11   -1    0    0    0    0  0.00000000000E+00  0.00000000000E+00  0.45593999997E+02  0.45594000000E+02  0.51100000000E-03 0.  1.
         11   -1    0    0    0    0 -0.00000000000E+00 -0.00000000000E+00 -0.45593999997E+02  0.45594000000E+02  0.51100000000E-03 0. -1.
    9900012    2    1    2    0    0 -0.17228884295E+02 -0.37799629422E+02 -0.17420305804E+02  0.46142317712E+02  0.99999995522E+01 0.  0.
        -12    1    1    2    0    0  0.17228884295E+02  0.37799629422E+02  0.17420305804E+02  0.45045682288E+02  0.00000000000E+00 0.  1.
         11    1    3    3    0    0 -0.14682553538E+02 -0.28296430672E+02 -0.14323962276E+02  0.34949123919E+02  0.51100000000E-03 0. -1.
        -11    1    3    3    0    0  0.94368977985E+00 -0.30731700563E+01 -0.20240733947E+01  0.37989206314E+01  0.51100000000E-03 0.  1.
        -12    1    3    3    0    0 -0.34900205366E+01 -0.64300286936E+01 -0.10722701336E+01  0.73942731615E+01  0.00000000000E+00 0.  1.
</event>
<event>
 7    1  0.1549900E-008  0.4614232E+02  0.7816164E-02  0.1320468E+00
        -11   -1    0    0    0    0  0.00000000000E+00  0.00000000000E+00  0.45593999997E+02  0.45594000000E+02  0.51100000000E-03 0.  1.
         11   -1    0    0    0    0 -0.00000000000E+00 -0.00000000000E+00 -0.45593999997E+02  0.45594000000E+02  0.51100000000E-03 0. -1.
    9900012    2    1    2    0    0 -0.94639278015E+01 -0.34010849974E+02 -0.27978725963E+02  0.46142323716E+02  0.10000054303E+02 0.  0.
        -12    1    1    2    0    0  0.94639278015E+01  0.34010849974E+02  0.27978725963E+02  0.45045676284E+02  0.00000000000E+00 0.  1.
         11    1    3    3    0    0 -0.45036209995E+01 -0.10501233842E+02 -0.12902326746E+02  0.17234516240E+02  0.51100000000E-03 0. -1.
        -11    1    3    3    0    0 -0.51274323073E+01 -0.12097653217E+02 -0.66881782004E+01  0.14743659767E+02  0.51100000000E-03 0.  1.
         12    1    3    3    0    0  0.16712550534E+00 -0.11411962915E+02 -0.83882210165E+01  0.14164147709E+02  0.00000000000E+00 0. -1.
</event>
<event>
 7    1  0.1549900E-008  0.4614232E+02  0.7816164E-02  0.1320468E+00
        -11   -1    0    0    0    0  0.00000000000E+00  0.00000000000E+00  0.45593999997E+02  0.45594000000E+02  0.51100000000E-03 0. -1.
         11   -1    0    0    0    0 -0.00000000000E+00 -0.00000000000E+00 -0.45593999997E+02  0.45594000000E+02  0.51100000000E-03 0.  1.
    9900012    2    1    2    0    0  0.16816690106E+02  0.27468833059E+02  0.31492469780E+02  0.46142317537E+02  0.99999979587E+01 0.  0.
        -12    1    1    2    0    0 -0.16816690106E+02 -0.27468833059E+02 -0.31492469780E+02  0.45045682463E+02  0.00000000000E+00 0.  1.
         11    1    3    3    0    0  0.24836846217E+01  0.49178900175E+01  0.62215525321E+01  0.83103578560E+01  0.51100000000E-03 0. -1.
        -11    1    3    3    0    0 -0.33448423591E+00  0.48690699958E+01  0.67108866366E+01  0.82979348056E+01  0.51100000000E-03 0.  1.
        -12    1    3    3    0    0  0.14667489720E+02  0.17681873045E+02  0.18560030611E+02  0.29534024876E+02  0.00000000000E+00 0.  1.
</event>
<event>
 7    1  0.1549900E-008  0.4614232E+02  0.7816164E-02  0.1320468E+00
        -11   -1    0    0    0    0  0.00000000000E+00  0.00000000000E+00  0.45593999997E+02  0.45594000000E+02  0.51100000000E-03 0.  1.
         11   -1    0    0    0    0 -0.00000000000E+00 -0.00000000000E+00 -0.45593999997E+02  0.45594000000E+02  0.51100000000E-03 0. -1.
    9900012    2    1    2    0    0 -0.32741831250E+02  0.79039300878E+01 -0.29910096044E+02  0.46142317967E+02  0.10000001881E+02 0.  0.
        -12    1    1    2    0    0  0.32741831250E+02 -0.79039300878E+01  0.29910096044E+02  0.45045682033E+02  0.00000000000E+00 0.  1.
         11    1    3    3    0    0 -0.77616647705E+01 -0.41453985765E+00 -0.11532289322E+02  0.13907155733E+02  0.51100000000E-03 0. -1.
        -11    1    3    3    0    0 -0.22649075374E+02  0.66494148453E+01 -0.16673411690E+02  0.28899792226E+02  0.51100000000E-03 0.  1.
         12    1    3    3    0    0 -0.23310911052E+01  0.16690551001E+01 -0.17043950319E+01  0.33353700084E+01  0.00000000000E+00 0. -1.
</event>
<event>
 7    1  0.1917435E-008  0.4614232E+02  0.7816164E-02  0.1320468E+00
        -11   -1    0    0    0    0  0.00000000000E+00  0.00000000000E+00  0.45593999997E+02  0.45594000000E+02  0.51100000000E-03 0.  1.
         11   -1    0    0    0    0 -0.00000000000E+00 -0.00000000000E+00 -0.45593999997E+02  0.45594000000E+02  0.51100000000E-03 0. -1.
    9900012    2    1    2    0    0  0.16864051784E+02 -0.35090834372E+02 -0.22657239119E+02  0.46142318920E+02  0.10000010567E+02 0.  0.
        -12    1    1    2    0    0 -0.16864051784E+02  0.35090834372E+02  0.22657239119E+02  0.45045681080E+02  0.00000000000E+00 0.  1.
         11    1    3    3    0    0  0.16836599790E+02 -0.29505767029E+02 -0.19037955908E+02  0.38942331028E+02  0.51100000000E-03 0. -1.
        -11    1    3    3    0    0 -0.66476696078E-03 -0.22347964253E+01  0.44541531014E-01  0.22352404151E+01  0.51100000000E-03 0.  1.
         12    1    3    3    0    0  0.28116761169E-01 -0.33502709173E+01 -0.36638247416E+01  0.49647474768E+01  0.00000000000E+00 0. -1.
</event>
<event>
 7    1  0.1549900E-008  0.4614232E+02  0.7816164E-02  0.1320468E+00
        -11   -1    0    0    0    0  0.00000000000E+00  0.00000000000E+00  0.45593999997E+02  0.45594000000E+02  0.51100000000E-03 0. -1.
         11   -1    0    0    0    0 -0.00000000000E+00 -0.00000000000E+00 -0.45593999997E+02  0.45594000000E+02  0.51100000000E-03 0.  1.
    9900012    2    1    2    0    0 -0.39326148299E+02 -0.79254614354E+01  0.20487912384E+02  0.46142318378E+02  0.10000005623E+02 0.  0.
        -12    1    1    2    0    0  0.39326148299E+02  0.79254614354E+01 -0.20487912384E+02  0.45045681622E+02  0.00000000000E+00 0.  1.
         11    1    3    3    0    0 -0.28941779681E+02 -0.58013875176E+01  0.19225602246E+02  0.35226502668E+02  0.51100000000E-03 0. -1.
        -11    1    3    3    0    0 -0.76524781900E+01 -0.17165673813E+01 -0.83926396788E-01  0.78430905850E+01  0.51100000000E-03 0.  1.
        -12    1    3    3    0    0 -0.27318904271E+01 -0.40750653658E+00  0.13462365345E+01  0.30727251244E+01  0.00000000000E+00 0.  1.
</event>
<event>
 7    1  0.1549900E-008  0.4614232E+02  0.7816164E-02  0.1320468E+00
        -11   -1    0    0    0    0  0.00000000000E+00  0.00000000000E+00  0.45593999997E+02  0.45594000000E+02  0.51100000000E-03 0.  1.
         11   -1    0    0    0    0 -0.00000000000E+00 -0.00000000000E+00 -0.45593999997E+02  0.45594000000E+02  0.51100000000E-03 0. -1.
    9900012    2    1    2    0    0  0.23809839191E+02  0.75610235541E+01 -0.37483809995E+02  0.46142317286E+02  0.99999956633E+01 0.  0.
        -12    1    1    2    0    0 -0.23809839191E+02 -0.75610235541E+01  0.37483809995E+02  0.45045682714E+02  0.00000000000E+00 0.  1.
         11    1    3    3    0    0  0.44967761513E+01  0.42112709597E+01 -0.91852428711E+01  0.11060040041E+02  0.51100000000E-03 0. -1.
        -11    1    3    3    0    0  0.41858474010E+01  0.70657052802E-02 -0.21919450222E+01  0.47250387967E+01  0.51100000000E-03 0.  1.
        -12    1    3    3    0    0  0.15127215639E+02  0.33426868891E+01 -0.26106622101E+02  0.30357238448E+02  0.00000000000E+00 0.  1.
</event>
<event>
 7    1  0.1549900E-008  0.4614231E+02  0.7816164E-02  0.1320468E+00
        -11   -1    0    0    0    0  0.00000000000E+00  0.00000000000E+00  0.45593999997E+02  0.45594000000E+02  0.51100000000E-03 0.  1.
         11   -1    0    0    0    0 -0.00000000000E+00 -0.00000000000E+00 -0.45593999997E+02  0.45594000000E+02  0.51100000000E-03 0. -1.
    9900012    2    1    2    0    0  0.85888703163E+01 -0.21311818341E+02 -0.38744696987E+02  0.46142313870E+02  0.99999645196E+01 0.  0.
        -12    1    1    2    0    0 -0.85888703163E+01  0.21311818341E+02  0.38744696987E+02  0.45045686130E+02  0.00000000000E+00 0.  1.
         11    1    3    3    0    0  0.16294123459E+00 -0.50340768938E+01 -0.43174325416E+01  0.66339056393E+01  0.51100000000E-03 0.  1.
        -11    1    3    3    0    0  0.94604845188E+01 -0.14551468421E+02 -0.30382008020E+02  0.34990175937E+02  0.51100000000E-03 0. -1.
         12    1    3    3    0    0 -0.10345554371E+01 -0.17262730263E+01 -0.40452564253E+01  0.45182322938E+01  0.00000000000E+00 0. -1.
</event>
<event>
 7    1  0.1549900E-008  0.4614232E+02  0.7816164E-02  0.1320468E+00
        -11   -1    0    0    0    0  0.00000000000E+00  0.00000000000E+00  0.45593999997E+02  0.45594000000E+02  0.51100000000E-03 0.  1.
         11   -1    0    0    0    0 -0.00000000000E+00 -0.00000000000E+00 -0.45593999997E+02  0.45594000000E+02  0.51100000000E-03 0. -1.
    9900012    2    1    2    0    0  0.20625552746E+02 -0.24768585852E+02 -0.31467717061E+02  0.46142317763E+02  0.10000000013E+02 0.  0.
        -12    1    1    2    0    0 -0.20625552746E+02  0.24768585852E+02  0.31467717061E+02  0.45045682237E+02  0.00000000000E+00 0.  1.
         11    1    3    3    0    0  0.73304263476E+01 -0.10416590655E+02 -0.16908434767E+02  0.21169215334E+02  0.51100000000E-03 0. -1.
        -11    1    3    3    0    0  0.75164074959E+01 -0.88828774997E+01 -0.53629422823E+01  0.12812612712E+02  0.51100000000E-03 0.  1.
         12    1    3    3    0    0  0.57787189024E+01 -0.54691176973E+01 -0.91963400115E+01  0.12160489717E+02  0.00000000000E+00 0. -1.
</event>
<event>
 7    1  0.1549900E-008  0.4614232E+02  0.7816164E-02  0.1320468E+00
        -11   -1    0    0    0    0  0.00000000000E+00  0.00000000000E+00  0.45593999997E+02  0.45594000000E+02  0.51100000000E-03 0. -1.
         11   -1    0    0    0    0 -0.00000000000E+00 -0.00000000000E+00 -0.45593999997E+02  0.45594000000E+02  0.51100000000E-03 0.  1.
    9900012    2    1    2    0    0  0.13819176706E+02 -0.12446797559E+02  0.41027077236E+02  0.46142317844E+02  0.10000000759E+02 0.  0.
        -12    1    1    2    0    0 -0.13819176706E+02  0.12446797559E+02 -0.41027077236E+02  0.45045682156E+02  0.00000000000E+00 0.  1.
         11    1    3    3    0    0  0.80731182602E+01 -0.90638382851E+01  0.16630304001E+02  0.20588720561E+02  0.51100000000E-03 0. -1.
        -11    1    3    3    0    0  0.42068380076E+01 -0.18675028942E+01  0.21210550154E+02  0.21704204458E+02  0.51100000000E-03 0.  1.
        -12    1    3    3    0    0  0.15392204383E+01 -0.15154563798E+01  0.31862230814E+01  0.38493928250E+01  0.00000000000E+00 0.  1.
</event>
<event>
 7    1  0.1549900E-008  0.4614232E+02  0.7816164E-02  0.1320468E+00
        -11   -1    0    0    0    0  0.00000000000E+00  0.00000000000E+00  0.45593999997E+02  0.45594000000E+02  0.51100000000E-03 0. -1.
         11   -1    0    0    0    0 -0.00000000000E+00 -0.00000000000E+00 -0.45593999997E+02  0.45594000000E+02  0.51100000000E-03 0.  1.
    9900012    2    1    2    0    0  0.31179755774E+01 -0.12574970592E+02  0.43142344012E+02  0.46142317588E+02  0.99999984213E+01 0.  0.
        -12    1    1    2    0    0 -0.31179755774E+01  0.12574970592E+02 -0.43142344012E+02  0.45045682412E+02  0.00000000000E+00 0.  1.
         11    1    3    3    0    0  0.20460184285E+01 -0.40158800617E+01  0.12320450172E+02  0.13118954866E+02  0.51100000000E-03 0. -1.
        -11    1    3    3    0    0  0.35607070141E+01 -0.84734328502E+01  0.21667640530E+02  0.23536447164E+02  0.51100000000E-03 0.  1.
         12    1    3    3    0    0 -0.24887498653E+01 -0.85657679886E-01  0.91542533096E+01  0.94869155571E+01  0.00000000000E+00 0. -1.
</event>
<event>
 7    1  0.1549900E-008  0.4614232E+02  0.7816164E-02  0.1320468E+00
        -11   -1    0    0    0    0  0.00000000000E+00  0.00000000000E+00  0.45593999997E+02  0.45594000000E+02  0.51100000000E-03 0.  1.
         11   -1    0    0    0    0 -0.00000000000E+00 -0.00000000000E+00 -0.45593999997E+02  0.45594000000E+02  0.51100000000E-03 0. -1.
    9900012    2    1    2    0    0 -0.28846706643E+01 -0.33379542203E+02 -0.30109772311E+02  0.46142317065E+02  0.99999936504E+01 0.  0.
        -12    1    1    2    0    0  0.28846706643E+01  0.33379542203E+02  0.30109772311E+02  0.45045682935E+02  0.00000000000E+00 0.  1.
         11    1    3    3    0    0  0.53904147818E+00 -0.55020019422E+01 -0.31479516342E+01  0.63617757615E+01  0.51100000000E-03 0. -1.
        -11    1    3    3    0    0 -0.15151429819E+01 -0.70189701392E+00 -0.32929285905E+01  0.36921127606E+01  0.51100000000E-03 0.  1.
        -12    1    3    3    0    0 -0.19085691605E+01 -0.27175643247E+02 -0.23668892086E+02  0.36088428543E+02  0.00000000000E+00 0.  1.
</event>
<event>
 7    1  0.1549900E-008  0.4614230E+02  0.7816164E-02  0.1320468E+00
        -11   -1    0    0    0    0  0.00000000000E+00  0.00000000000E+00  0.45593999997E+02  0.45594000000E+02  0.51100000000E-03 0. -1.
         11   -1    0    0    0    0 -0.00000000000E+00 -0.00000000000E+00 -0.45593999997E+02  0.45594000000E+02  0.51100000000E-03 0.  1.
    9900012    2    1    2    0    0  0.40691710923E+02  0.68719983937E+01  0.18057546621E+02  0.46142304426E+02  0.99998784014E+01 0.  0.
        -12    1    1    2    0    0 -0.40691710923E+02 -0.68719983937E+01 -0.18057546621E+02  0.45045695574E+02  0.00000000000E+00 0.  1.
         11    1    3    3    0    0  0.31945646532E+02  0.85555101828E+01  0.15568901465E+02  0.36552862814E+02  0.51100000000E-03 0. -1.
        -11    1    3    3    0    0  0.81019751186E+01 -0.11191132375E+01  0.28481991498E+01  0.86606381935E+01  0.51100000000E-03 0.  1.
         12    1    3    3    0    0  0.64408927279E+00 -0.56439855147E+00 -0.35955399398E+00  0.92880341882E+00  0.00000000000E+00 0. -1.
</event>
<event>
 7    1  0.1549900E-008  0.4614232E+02  0.7816164E-02  0.1320468E+00
        -11   -1    0    0    0    0  0.00000000000E+00  0.00000000000E+00  0.45593999997E+02  0.45594000000E+02  0.51100000000E-03 0.  1.
         11   -1    0    0    0    0 -0.00000000000E+00 -0.00000000000E+00 -0.45593999997E+02  0.45594000000E+02  0.51100000000E-03 0. -1.
    9900012    2    1    2    0    0  0.25091423792E+02  0.11872349055E+02 -0.35476489068E+02  0.46142317670E+02  0.99999991664E+01 0.  0.
        -12    1    1    2    0    0 -0.25091423792E+02 -0.11872349055E+02  0.35476489068E+02  0.45045682330E+02  0.00000000000E+00 0.  1.
         11    1    3    3    0    0  0.19980682288E+02  0.11458605749E+02 -0.26624752229E+02  0.35205180611E+02  0.51100000000E-03 0. -1.
        -11    1    3    3    0    0  0.20973655986E+01 -0.16451221894E+01 -0.27688983752E+01  0.38434578111E+01  0.51100000000E-03 0.  1.
         12    1    3    3    0    0  0.30133759059E+01  0.20588654955E+01 -0.60828384644E+01  0.70936792473E+01  0.00000000000E+00 0. -1.
</event>
<event>
 7    1  0.1549900E-008  0.4614232E+02  0.7816164E-02  0.1320468E+00
        -11   -1    0    0    0    0  0.00000000000E+00  0.00000000000E+00  0.45593999997E+02  0.45594000000E+02  0.51100000000E-03 0. -1.
         11   -1    0    0    0    0 -0.00000000000E+00 -0.00000000000E+00 -0.45593999997E+02  0.45594000000E+02  0.51100000000E-03 0.  1.
    9900012    2    1    2    0    0  0.22072040517E+01 -0.41856476608E+02  0.16500820502E+02  0.46142318065E+02  0.10000002772E+02 0.  0.
        -12    1    1    2    0    0 -0.22072040517E+01  0.41856476608E+02 -0.16500820502E+02  0.45045681935E+02  0.00000000000E+00 0.  1.
         11    1    3    3    0    0  0.42990719751E+00 -0.77976067126E+01  0.43209502124E+01  0.89251387464E+01  0.51100000000E-03 0. -1.
        -11    1    3    3    0    0 -0.26425501935E+01 -0.18041451032E+02  0.38744305094E+01  0.18641036423E+02  0.51100000000E-03 0.  1.
        -12    1    3    3    0    0  0.44198470476E+01 -0.16017418863E+02  0.83054397804E+01  0.18576142896E+02  0.00000000000E+00 0.  1.
</event>
<event>
 7    1  0.1549900E-008  0.4614232E+02  0.7816164E-02  0.1320468E+00
        -11   -1    0    0    0    0  0.00000000000E+00  0.00000000000E+00  0.45593999997E+02  0.45594000000E+02  0.51100000000E-03 0. -1.
         11   -1    0    0    0    0 -0.00000000000E+00 -0.00000000000E+00 -0.45593999997E+02  0.45594000000E+02  0.51100000000E-03 0.  1.
    9900012    2    1    2    0    0  0.37768200146E+01  0.36365053792E+02  0.26314100688E+02  0.46142318723E+02  0.10000008770E+02 0.  0.
        -12    1    1    2    0    0 -0.37768200146E+01 -0.36365053792E+02 -0.26314100688E+02  0.45045681277E+02  0.00000000000E+00 0.  1.
         11    1    3    3    0    0  0.20881503540E+01  0.14380346379E+02  0.12232250060E+02  0.18994280078E+02  0.51100000000E-03 0. -1.
        -11    1    3    3    0    0 -0.13723449952E+01  0.45919079205E+00  0.60929023749E+00  0.15701661771E+01  0.51100000000E-03 0.  1.
        -12    1    3    3    0    0  0.30610146557E+01  0.21525516621E+02  0.13472560390E+02  0.25577872468E+02  0.00000000000E+00 0.  1.
</event>
<event>
 7    1  0.1549900E-008  0.4614232E+02  0.7816164E-02  0.1320468E+00
        -11   -1    0    0    0    0  0.00000000000E+00  0.00000000000E+00  0.45593999997E+02  0.45594000000E+02  0.51100000000E-03 0.  1.
         11   -1    0    0    0    0 -0.00000000000E+00 -0.00000000000E+00 -0.45593999997E+02  0.45594000000E+02  0.51100000000E-03 0. -1.
    9900012    2    1    2    0    0 -0.27740381033E+02 -0.19075296976E+02 -0.29928545918E+02  0.46142317017E+02  0.99999932174E+01 0.  0.
        -12    1    1    2    0    0  0.27740381033E+02  0.19075296976E+02  0.29928545918E+02  0.45045682983E+02  0.00000000000E+00 0.  1.
         11    1    3    3    0    0 -0.22570470210E+02 -0.17970592525E+02 -0.21338178800E+02  0.35884344720E+02  0.51100000000E-03 0. -1.
        -11    1    3    3    0    0 -0.14117668640E+00 -0.44760026534E+00 -0.12572815447E+01  0.13420260795E+01  0.51100000000E-03 0.  1.
         12    1    3    3    0    0 -0.50287341365E+01 -0.65710418540E+00 -0.73330855741E+01  0.89159462180E+01  0.00000000000E+00 0. -1.
</event>
<event>
 7    1  0.1549900E-008  0.4614232E+02  0.7816164E-02  0.1320468E+00
        -11   -1    0    0    0    0  0.00000000000E+00  0.00000000000E+00  0.45593999997E+02  0.45594000000E+02  0.51100000000E-03 0. -1.
         11   -1    0    0    0    0 -0.00000000000E+00 -0.00000000000E+00 -0.45593999997E+02  0.45594000000E+02  0.51100000000E-03 0.  1.
    9900012    2    1    2    0    0 -0.10240608277E+02  0.14845012262E+02  0.41277948763E+02  0.46142317621E+02  0.99999987232E+01 0.  0.
        -12    1    1    2    0    0  0.10240608277E+02 -0.14845012262E+02 -0.41277948763E+02  0.45045682379E+02  0.00000000000E+00 0.  1.
         11    1    3    3    0    0 -0.19854828686E+01  0.28390492616E+01  0.41002393474E+01  0.53678958539E+01  0.51100000000E-03 0. -1.
        -11    1    3    3    0    0 -0.83515089197E+01  0.12303338391E+02  0.28994887386E+02  0.32585630753E+02  0.51100000000E-03 0.  1.
        -12    1    3    3    0    0  0.96383511762E-01 -0.29737539120E+00  0.81828220292E+01  0.81887910138E+01  0.00000000000E+00 0.  1.
</event>
<event>
 7    1  0.1549900E-008  0.4614232E+02  0.7816164E-02  0.1320468E+00
        -11   -1    0    0    0    0  0.00000000000E+00  0.00000000000E+00  0.45593999997E+02  0.45594000000E+02  0.51100000000E-03 0.  1.
         11   -1    0    0    0    0 -0.00000000000E+00 -0.00000000000E+00 -0.45593999997E+02  0.45594000000E+02  0.51100000000E-03 0. -1.
    9900012    2    1    2    0    0 -0.11587293159E+02  0.40940799197E+02 -0.14788481305E+02  0.46142316734E+02  0.99999906307E+01 0.  0.
        -12    1    1    2    0    0  0.11587293159E+02 -0.40940799197E+02  0.14788481305E+02  0.45045683266E+02  0.00000000000E+00 0.  1.
         11    1    3    3    0    0 -0.76869230441E+01  0.21777750911E+02 -0.83772270054E+01  0.24566993165E+02  0.51100000000E-03 0. -1.
        -11    1    3    3    0    0  0.30607089561E+00  0.13211614503E+02 -0.31187598754E+01  0.13578184731E+02  0.51100000000E-03 0.  1.
        -12    1    3    3    0    0 -0.42064410107E+01  0.59514337824E+01 -0.32924944242E+01  0.79971388368E+01  0.00000000000E+00 0.  1.
</event>
<event>
 7    1  0.1549900E-008  0.4614232E+02  0.7816164E-02  0.1320468E+00
        -11   -1    0    0    0    0  0.00000000000E+00  0.00000000000E+00  0.45593999997E+02  0.45594000000E+02  0.51100000000E-03 0.  1.
         11   -1    0    0    0    0 -0.00000000000E+00 -0.00000000000E+00 -0.45593999997E+02  0.45594000000E+02  0.51100000000E-03 0. -1.
    9900012    2    1    2    0    0  0.31298924463E+02  0.18550566699E+02 -0.26558751490E+02  0.46142317875E+02  0.10000001037E+02 0.  0.
        -12    1    1    2    0    0 -0.31298924463E+02 -0.18550566699E+02  0.26558751490E+02  0.45045682125E+02  0.00000000000E+00 0.  1.
         11    1    3    3    0    0  0.27822779363E+02  0.15740728851E+02 -0.18885712253E+02  0.37128799116E+02  0.51100000000E-03 0. -1.
        -11    1    3    3    0    0 -0.12678194538E+00  0.16804271729E+00 -0.13222909911E+00  0.24858964637E+00  0.51100000000E-03 0.  1.
         12    1    3    3    0    0  0.36029270453E+01  0.26417951312E+01 -0.75408101378E+01  0.87649291123E+01  0.00000000000E+00 0. -1.
</event>
<event>
 7    1  0.1549900E-008  0.4614232E+02  0.7816164E-02  0.1320468E+00
        -11   -1    0    0    0    0  0.00000000000E+00  0.00000000000E+00  0.45593999997E+02  0.45594000000E+02  0.51100000000E-03 0.  1.
         11   -1    0    0    0    0 -0.00000000000E+00 -0.00000000000E+00 -0.45593999997E+02  0.45594000000E+02  0.51100000000E-03 0. -1.
    9900012    2    1    2    0    0 -0.14585769981E+02 -0.40959604803E+02 -0.11776235406E+02  0.46142316168E+02  0.99999854729E+01 0.  0.
        -12    1    1    2    0    0  0.14585769981E+02  0.40959604803E+02  0.11776235406E+02  0.45045683832E+02  0.00000000000E+00 0.  1.
         11    1    3    3    0    0 -0.46359429283E+01 -0.61471926218E+01 -0.19861792946E+01  0.79514056880E+01  0.51100000000E-03 0. -1.
        -11    1    3    3    0    0 -0.83215048431E+01 -0.26754518446E+02 -0.10540790425E+02  0.29935930972E+02  0.51100000000E-03 0.  1.
        -12    1    3    3    0    0 -0.16283222099E+01 -0.80578937350E+01  0.75073431343E+00  0.82549795078E+01  0.00000000000E+00 0.  1.
</event>
<event>
 7    1  0.1549900E-008  0.4614232E+02  0.7816164E-02  0.1320468E+00
        -11   -1    0    0    0    0  0.00000000000E+00  0.00000000000E+00  0.45593999997E+02  0.45594000000E+02  0.51100000000E-03 0.  1.
         11   -1    0    0    0    0 -0.00000000000E+00 -0.00000000000E+00 -0.45593999997E+02  0.45594000000E+02  0.51100000000E-03 0. -1.
    9900012    2    1    2    0    0 -0.34051996687E+02  0.61802218442E+01 -0.28833657880E+02  0.46142318219E+02  0.10000004174E+02 0.  0.
        -12    1    1    2    0    0  0.34051996687E+02 -0.61802218442E+01  0.28833657880E+02  0.45045681781E+02  0.00000000000E+00 0.  1.
         11    1    3    3    0    0 -0.11441204938E+01  0.39168652023E+00 -0.28296932678E+01  0.30772705902E+01  0.51100000000E-03 0. -1.
        -11    1    3    3    0    0 -0.23249856717E+02  0.50667166096E+01 -0.22548720783E+02  0.32782194310E+02  0.51100000000E-03 0.  1.
        -12    1    3    3    0    0 -0.96580194759E+01  0.72181871437E+00 -0.34552438287E+01  0.10282853318E+02  0.00000000000E+00 0.  1.
</event>
<event>
 7    1  0.1549900E-008  0.4614232E+02  0.7816164E-02  0.1320468E+00
        -11   -1    0    0    0    0  0.00000000000E+00  0.00000000000E+00  0.45593999997E+02  0.45594000000E+02  0.51100000000E-03 0.  1.
         11   -1    0    0    0    0 -0.00000000000E+00 -0.00000000000E+00 -0.45593999997E+02  0.45594000000E+02  0.51100000000E-03 0. -1.
    9900012    2    1    2    0    0 -0.22196065156E+02  0.15164064551E+02 -0.36145530192E+02  0.46142317466E+02  0.99999973056E+01 0.  0.
        -12    1    1    2    0    0  0.22196065156E+02 -0.15164064551E+02  0.36145530192E+02  0.45045682534E+02  0.00000000000E+00 0.  1.
         11    1    3    3    0    0 -0.19428898841E+02  0.14430527728E+02 -0.30530250733E+02  0.38959189554E+02  0.51100000000E-03 0. -1.
        -11    1    3    3    0    0  0.10634758259E+00 -0.99614844554E+00 -0.20876344964E+01  0.23155646364E+01  0.51100000000E-03 0.  1.
        -12    1    3    3    0    0 -0.28735138974E+01  0.17296852685E+01 -0.35276449633E+01  0.48675632747E+01  0.00000000000E+00 0.  1.
</event>
<event>
 7    1  0.1624316E-008  0.4614232E+02  0.7816164E-02  0.1320468E+00
        -11   -1    0    0    0    0  0.00000000000E+00  0.00000000000E+00  0.45593999997E+02  0.45594000000E+02  0.51100000000E-03 0. -1.
         11   -1    0    0    0    0 -0.00000000000E+00 -0.00000000000E+00 -0.45593999997E+02  0.45594000000E+02  0.51100000000E-03 0.  1.
    9900012    2    1    2    0    0 -0.33032517655E+02 -0.29748904416E+02  0.72779760363E+01  0.46142317946E+02  0.10000001686E+02 0.  0.
        -12    1    1    2    0    0  0.33032517655E+02  0.29748904416E+02 -0.72779760363E+01  0.45045682054E+02  0.00000000000E+00 0.  1.
         11    1    3    3    0    0 -0.26169357572E+02 -0.23411871976E+02  0.35682118656E+01  0.35294236942E+02  0.51100000000E-03 0. -1.
        -11    1    3    3    0    0 -0.10739546224E+01  0.54084014713E+00  0.37616085456E+00  0.12599142215E+01  0.51100000000E-03 0.  1.
         12    1    3    3    0    0 -0.57892054603E+01 -0.68778725864E+01  0.33336033162E+01  0.95881667823E+01  0.00000000000E+00 0. -1.
</event>
<event>
 7    1  0.1549900E-008  0.4614232E+02  0.7816164E-02  0.1320468E+00
        -11   -1    0    0    0    0  0.00000000000E+00  0.00000000000E+00  0.45593999997E+02  0.45594000000E+02  0.51100000000E-03 0.  1.
         11   -1    0    0    0    0 -0.00000000000E+00 -0.00000000000E+00 -0.45593999997E+02  0.45594000000E+02  0.51100000000E-03 0. -1.
    9900012    2    1    2    0    0 -0.19834791518E+01  0.33762968295E+02 -0.29753003589E+02  0.46142318295E+02  0.10000004873E+02 0.  0.
        -12    1    1    2    0    0  0.19834791518E+01 -0.33762968295E+02  0.29753003589E+02  0.45045681705E+02  0.00000000000E+00 0.  1.
         11    1    3    3    0    0 -0.40707157866E+01  0.21327810308E+02 -0.19725412095E+02  0.29334929728E+02  0.51100000000E-03 0. -1.
        -11    1    3    3    0    0  0.24976870141E+01  0.24725527763E+01 -0.27636510190E+01  0.44709870127E+01  0.51100000000E-03 0.  1.
        -12    1    3    3    0    0 -0.41045037938E+00  0.99626052104E+01 -0.72639404750E+01  0.12336401555E+02  0.00000000000E+00 0.  1.
</event>
<event>
 7    1  0.1549900E-008  0.4614232E+02  0.7816164E-02  0.1320468E+00
        -11   -1    0    0    0    0  0.00000000000E+00  0.00000000000E+00  0.45593999997E+02  0.45594000000E+02  0.51100000000E-03 0.  1.
         11   -1    0    0    0    0 -0.00000000000E+00 -0.00000000000E+00 -0.45593999997E+02  0.45594000000E+02  0.51100000000E-03 0. -1.
    9900012    2    1    2    0    0 -0.37221728924E+02 -0.81263232549E+01  0.24033711381E+02  0.46142317449E+02  0.99999971567E+01 0.  0.
        -12    1    1    2    0    0  0.37221728924E+02  0.81263232549E+01 -0.24033711381E+02  0.45045682551E+02  0.00000000000E+00 0.  1.
         11    1    3    3    0    0 -0.16035696789E+02 -0.65328670979E+00  0.86444024693E+01  0.18228989258E+02  0.51100000000E-03 0. -1.
        -11    1    3    3    0    0 -0.96369904332E+00 -0.13546656425E+01  0.29760499386E+01  0.34089160077E+01  0.51100000000E-03 0.  1.
         12    1    3    3    0    0 -0.20222333091E+02 -0.61183709026E+01  0.12413258973E+02  0.24504412184E+02  0.00000000000E+00 0. -1.
</event>
<event>
 7    1  0.1549900E-008  0.4614232E+02  0.7816164E-02  0.1320468E+00
        -11   -1    0    0    0    0  0.00000000000E+00  0.00000000000E+00  0.45593999997E+02  0.45594000000E+02  0.51100000000E-03 0. -1.
         11   -1    0    0    0    0 -0.00000000000E+00 -0.00000000000E+00 -0.45593999997E+02  0.45594000000E+02  0.51100000000E-03 0.  1.
    9900012    2    1    2    0    0  0.34999375024E+02 -0.25764194906E+02  0.11847514898E+02  0.46142316516E+02  0.99999886483E+01 0.  0.
        -12    1    1    2    0    0 -0.34999375024E+02  0.25764194906E+02 -0.11847514898E+02  0.45045683484E+02  0.00000000000E+00 0.  1.
         11    1    3    3    0    0  0.19404065772E+02 -0.11251703901E+02  0.37503408230E+01  0.22741672448E+02  0.51100000000E-03 0. -1.
        -11    1    3    3    0    0  0.23764219863E+01 -0.53461410468E+01  0.25877661171E+01  0.63972759270E+01  0.51100000000E-03 0.  1.
        -12    1    3    3    0    0  0.13218887265E+02 -0.91663499587E+01  0.55094079583E+01  0.17003368141E+02  0.00000000000E+00 0.  1.
</event>
<event>
 7    1  0.1549900E-008  0.4614232E+02  0.7816164E-02  0.1320468E+00
        -11   -1    0    0    0    0  0.00000000000E+00  0.00000000000E+00  0.45593999997E+02  0.45594000000E+02  0.51100000000E-03 0.  1.
         11   -1    0    0    0    0 -0.00000000000E+00 -0.00000000000E+00 -0.45593999997E+02  0.45594000000E+02  0.51100000000E-03 0. -1.
    9900012    2    1    2    0    0 -0.27570265328E+02 -0.35542159332E+02  0.23976689923E+01  0.46142318333E+02  0.10000005216E+02 0.  0.
        -12    1    1    2    0    0  0.27570265328E+02  0.35542159332E+02 -0.23976689923E+01  0.45045681667E+02  0.00000000000E+00 0.  1.
         11    1    3    3    0    0 -0.12000555718E+02 -0.12603266996E+02  0.25950897520E-01  0.17402768465E+02  0.51100000000E-03 0. -1.
        -11    1    3    3    0    0 -0.10840638473E+02 -0.17539290140E+02 -0.13330221105E+01  0.20662117252E+02  0.51100000000E-03 0.  1.
        -12    1    3    3    0    0 -0.47290711367E+01 -0.53996021952E+01  0.37047402053E+01  0.80774326163E+01  0.00000000000E+00 0.  1.
</event>
<event>
 7    1  0.1549900E-008  0.4614232E+02  0.7816164E-02  0.1320468E+00
        -11   -1    0    0    0    0  0.00000000000E+00  0.00000000000E+00  0.45593999997E+02  0.45594000000E+02  0.51100000000E-03 0.  1.
         11   -1    0    0    0    0 -0.00000000000E+00 -0.00000000000E+00 -0.45593999997E+02  0.45594000000E+02  0.51100000000E-03 0. -1.
    9900012    2    1    2    0    0  0.26364033577E+01 -0.36071437269E+02 -0.26851709686E+02  0.46142317383E+02  0.99999965554E+01 0.  0.
        -12    1    1    2    0    0 -0.26364033577E+01  0.36071437269E+02  0.26851709686E+02  0.45045682617E+02  0.00000000000E+00 0.  1.
         11    1    3    3    0    0  0.68529129648E+00 -0.55612720289E+01 -0.74023232804E+01  0.92839517959E+01  0.51100000000E-03 0. -1.
        -11    1    3    3    0    0  0.44227825211E+01 -0.16499751665E+02 -0.10562941907E+02  0.20084286202E+02  0.51100000000E-03 0.  1.
        -12    1    3    3    0    0 -0.24716704599E+01 -0.14010413575E+02 -0.88864444982E+01  0.16774079385E+02  0.00000000000E+00 0.  1.
</event>
<event>
 7    1  0.1549900E-008  0.4614232E+02  0.7816164E-02  0.1320468E+00
        -11   -1    0    0    0    0  0.00000000000E+00  0.00000000000E+00  0.45593999997E+02  0.45594000000E+02  0.51100000000E-03 0.  1.
         11   -1    0    0    0    0 -0.00000000000E+00 -0.00000000000E+00 -0.45593999997E+02  0.45594000000E+02  0.51100000000E-03 0. -1.
    9900012    2    1    2    0    0 -0.31082216017E+02 -0.32603442316E+02 -0.15786211860E+00  0.46142317368E+02  0.99999964116E+01 0.  0.
        -12    1    1    2    0    0  0.31082216017E+02  0.32603442316E+02  0.15786211860E+00  0.45045682632E+02  0.00000000000E+00 0.  1.
         11    1    3    3    0    0 -0.80928878365E+01 -0.99672647993E+01  0.14881786632E+01  0.12925009753E+02  0.51100000000E-03 0. -1.
        -11    1    3    3    0    0 -0.14350139656E+02 -0.18414039406E+02 -0.28818238368E+01  0.23522505484E+02  0.51100000000E-03 0.  1.
        -12    1    3    3    0    0 -0.86391885245E+01 -0.42221381112E+01  0.12357830550E+01  0.96948021305E+01  0.00000000000E+00 0.  1.
</event>
<event>
 7    1  0.1549900E-008  0.4614232E+02  0.7816164E-02  0.1320468E+00
        -11   -1    0    0    0    0  0.00000000000E+00  0.00000000000E+00  0.45593999997E+02  0.45594000000E+02  0.51100000000E-03 0.  1.
         11   -1    0    0    0    0 -0.00000000000E+00 -0.00000000000E+00 -0.45593999997E+02  0.45594000000E+02  0.51100000000E-03 0. -1.
    9900012    2    1    2    0    0 -0.21942607464E+02  0.30483768878E+02 -0.24867152591E+02  0.46142318017E+02  0.10000002334E+02 0.  0.
        -12    1    1    2    0    0  0.21942607464E+02 -0.30483768878E+02  0.24867152591E+02  0.45045681983E+02  0.00000000000E+00 0.  1.
         11    1    3    3    0    0 -0.97811491105E+01  0.13675640316E+02 -0.11444980621E+02  0.20339164134E+02  0.51100000000E-03 0. -1.
        -11    1    3    3    0    0 -0.10625538884E+02  0.11445405153E+02 -0.65074132947E+01  0.16918800305E+02  0.51100000000E-03 0.  1.
        -12    1    3    3    0    0 -0.15359194695E+01  0.53627234081E+01 -0.69147586757E+01  0.88843535788E+01  0.00000000000E+00 0.  1.
</event>
<event>
 7    1  0.1549900E-008  0.4614232E+02  0.7816164E-02  0.1320468E+00
        -11   -1    0    0    0    0  0.00000000000E+00  0.00000000000E+00  0.45593999997E+02  0.45594000000E+02  0.51100000000E-03 0.  1.
         11   -1    0    0    0    0 -0.00000000000E+00 -0.00000000000E+00 -0.45593999997E+02  0.45594000000E+02  0.51100000000E-03 0. -1.
    9900012    2    1    2    0    0  0.57761963131E+01 -0.90074521918E+01 -0.43756312579E+02  0.46142317306E+02  0.99999958496E+01 0.  0.
        -12    1    1    2    0    0 -0.57761963131E+01  0.90074521918E+01  0.43756312579E+02  0.45045682694E+02  0.00000000000E+00 0.  1.
         11    1    3    3    0    0  0.26852273449E+01 -0.27216866914E+01 -0.19890403627E+02  0.20254534827E+02  0.51100000000E-03 0. -1.
        -11    1    3    3    0    0  0.39097105801E+01 -0.17338792908E+01 -0.56056060123E+01  0.70508859898E+01  0.51100000000E-03 0.  1.
        -12    1    3    3    0    0 -0.81874161196E+00 -0.45518862097E+01 -0.18260302940E+02  0.18836896489E+02  0.00000000000E+00 0.  1.
</event>
<event>
 7    1  0.1549900E-008  0.4614232E+02  0.7816164E-02  0.1320468E+00
        -11   -1    0    0    0    0  0.00000000000E+00  0.00000000000E+00  0.45593999997E+02  0.45594000000E+02  0.51100000000E-03 0. -1.
         11   -1    0    0    0    0 -0.00000000000E+00 -0.00000000000E+00 -0.45593999997E+02  0.45594000000E+02  0.51100000000E-03 0.  1.
    9900012    2    1    2    0    0  0.13168464333E+02 -0.66402771985E+01  0.42563032708E+02  0.46142317771E+02  0.10000000091E+02 0.  0.
        -12    1    1    2    0    0 -0.13168464333E+02  0.66402771985E+01 -0.42563032708E+02  0.45045682229E+02  0.00000000000E+00 0.  1.
         11    1    3    3    0    0  0.73826155035E+01 -0.19359016724E+01  0.14654891863E+02  0.16523213451E+02  0.51100000000E-03 0. -1.
        -11    1    3    3    0    0  0.36842662558E+01 -0.18238817937E+01  0.51805206344E+01  0.66134829663E+01  0.51100000000E-03 0.  1.
         12    1    3    3    0    0  0.21015825741E+01 -0.28804937325E+01  0.22727620210E+02  0.23005621354E+02  0.00000000000E+00 0. -1.
</event>
<event>
 7    1  0.1549900E-008  0.4614232E+02  0.7816164E-02  0.1320468E+00
        -11   -1    0    0    0    0  0.00000000000E+00  0.00000000000E+00  0.45593999997E+02  0.45594000000E+02  0.51100000000E-03 0. -1.
         11   -1    0    0    0    0 -0.00000000000E+00 -0.00000000000E+00 -0.45593999997E+02  0.45594000000E+02  0.51100000000E-03 0.  1.
    9900012    2    1    2    0    0  0.13508329424E+02  0.42754635247E+02 -0.43220001183E+01  0.46142317810E+02  0.10000000448E+02 0.  0.
        -12    1    1    2    0    0 -0.13508329424E+02 -0.42754635247E+02  0.43220001183E+01  0.45045682190E+02  0.00000000000E+00 0.  1.
         11    1    3    3    0    0  0.71954717074E+01  0.95757723646E+01 -0.15439103463E+01  0.12076998339E+02  0.51100000000E-03 0. -1.
        -11    1    3    3    0    0  0.23012280961E+01  0.97975623775E+01  0.70119227785E+00  0.10088585142E+02  0.51100000000E-03 0.  1.
         12    1    3    3    0    0  0.40116296201E+01  0.23381300505E+02 -0.34792820498E+01  0.23976734329E+02  0.00000000000E+00 0. -1.
</event>
<event>
 7    1  0.1549900E-008  0.4614232E+02  0.7816164E-02  0.1320468E+00
        -11   -1    0    0    0    0  0.00000000000E+00  0.00000000000E+00  0.45593999997E+02  0.45594000000E+02  0.51100000000E-03 0. -1.
         11   -1    0    0    0    0 -0.00000000000E+00 -0.00000000000E+00 -0.45593999997E+02  0.45594000000E+02  0.51100000000E-03 0.  1.
    9900012    2    1    2    0    0  0.13642488975E+02  0.42412032781E+02 -0.66494685547E+01  0.46142318053E+02  0.10000002661E+02 0.  0.
        -12    1    1    2    0    0 -0.13642488975E+02 -0.42412032781E+02  0.66494685547E+01  0.45045681947E+02  0.00000000000E+00 0.  1.
         11    1    3    3    0    0  0.26108625402E+01  0.14268365600E+02 -0.53853682858E+01  0.15472719603E+02  0.51100000000E-03 0. -1.
        -11    1    3    3    0    0  0.88414263964E+01  0.18600452639E+02 -0.27089753714E+01  0.20772246073E+02  0.51100000000E-03 0.  1.
        -12    1    3    3    0    0  0.21902000381E+01  0.95432145421E+01  0.14448751025E+01  0.98973523765E+01  0.00000000000E+00 0.  1.
</event>
<event>
 7    1  0.1549900E-008  0.4614232E+02  0.7816164E-02  0.1320468E+00
        -11   -1    0    0    0    0  0.00000000000E+00  0.00000000000E+00  0.45593999997E+02  0.45594000000E+02  0.51100000000E-03 0. -1.
         11   -1    0    0    0    0 -0.00000000000E+00 -0.00000000000E+00 -0.45593999997E+02  0.45594000000E+02  0.51100000000E-03 0.  1.
    9900012    2    1    2    0    0 -0.38339967254E+02 -0.18692929638E+02  0.14482222518E+02  0.46142317892E+02  0.10000001196E+02 0.  0.
        -12    1    1    2    0    0  0.38339967254E+02  0.18692929638E+02 -0.14482222518E+02  0.45045682108E+02  0.00000000000E+00 0.  1.
         11    1    3    3    0    0 -0.25491198744E+02 -0.14080899809E+02  0.93169941740E+01  0.30575796531E+02  0.51100000000E-03 0. -1.
        -11    1    3    3    0    0 -0.34224542791E+01  0.29236858780E+00 -0.58528993312E+00  0.34844278225E+01  0.51100000000E-03 0.  1.
         12    1    3    3    0    0 -0.94263142310E+01 -0.49043984173E+01  0.57505182768E+01  0.12082093538E+02  0.00000000000E+00 0. -1.
</event>
<event>
 7    1  0.1549900E-008  0.4614232E+02  0.7816164E-02  0.1320468E+00
        -11   -1    0    0    0    0  0.00000000000E+00  0.00000000000E+00  0.45593999997E+02  0.45594000000E+02  0.51100000000E-03 0. -1.
         11   -1    0    0    0    0 -0.00000000000E+00 -0.00000000000E+00 -0.45593999997E+02  0.45594000000E+02  0.51100000000E-03 0.  1.
    9900012    2    1    2    0    0  0.18515701705E+01  0.33969322928E+02  0.29525756159E+02  0.46142317754E+02  0.99999999310E+01 0.  0.
        -12    1    1    2    0    0 -0.18515701705E+01 -0.33969322928E+02 -0.29525756159E+02  0.45045682246E+02  0.00000000000E+00 0.  1.
         11    1    3    3    0    0  0.30120490945E+01  0.19652205554E+02  0.18511070805E+02  0.27165076211E+02  0.51100000000E-03 0. -1.
        -11    1    3    3    0    0 -0.34833768062E+01  0.86587246248E+01  0.68586783707E+01  0.11582266417E+02  0.51100000000E-03 0.  1.
        -12    1    3    3    0    0  0.23228978822E+01  0.56583927486E+01  0.41560069832E+01  0.73949751259E+01  0.00000000000E+00 0.  1.
</event>
<event>
 7    1  0.1549900E-008  0.4614232E+02  0.7816164E-02  0.1320468E+00
        -11   -1    0    0    0    0  0.00000000000E+00  0.00000000000E+00  0.45593999997E+02  0.45594000000E+02  0.51100000000E-03 0.  1.
         11   -1    0    0    0    0 -0.00000000000E+00 -0.00000000000E+00 -0.45593999997E+02  0.45594000000E+02  0.51100000000E-03 0. -1.
    9900012    2    1    2    0    0 -0.22111695631E+01  0.44794608965E+02  0.42032567438E+01  0.46142316185E+02  0.99999856252E+01 0.  0.
        -12    1    1    2    0    0  0.22111695631E+01 -0.44794608965E+02 -0.42032567438E+01  0.45045683815E+02  0.00000000000E+00 0.  1.
         11    1    3    3    0    0 -0.36458666663E+01  0.15066258152E+02  0.13064845726E+01  0.15556072147E+02  0.51100000000E-03 0. -1.
        -11    1    3    3    0    0  0.32988092696E+01  0.83088064374E+01  0.11810737560E+01  0.90173911133E+01  0.51100000000E-03 0.  1.
        -12    1    3    3    0    0 -0.18641121664E+01  0.21419544376E+02  0.17156984152E+01  0.21568852925E+02  0.00000000000E+00 0.  1.
</event>
<event>
 7    1  0.1549900E-008  0.4614232E+02  0.7816164E-02  0.1320468E+00
        -11   -1    0    0    0    0  0.00000000000E+00  0.00000000000E+00  0.45593999997E+02  0.45594000000E+02  0.51100000000E-03 0.  1.
         11   -1    0    0    0    0 -0.00000000000E+00 -0.00000000000E+00 -0.45593999997E+02  0.45594000000E+02  0.51100000000E-03 0. -1.
    9900012    2    1    2    0    0  0.31405852854E+02  0.16765583557E+02 -0.27598930744E+02  0.46142319144E+02  0.10000012615E+02 0.  0.
        -12    1    1    2    0    0 -0.31405852854E+02 -0.16765583557E+02  0.27598930744E+02  0.45045680856E+02  0.00000000000E+00 0.  1.
         11    1    3    3    0    0  0.15912076373E+01  0.15466641875E+01 -0.36961573277E+01  0.43111125138E+01  0.51100000000E-03 0. -1.
        -11    1    3    3    0    0  0.10114938011E+02  0.26110537040E+01 -0.10785335684E+02  0.15015093689E+02  0.51100000000E-03 0.  1.
         12    1    3    3    0    0  0.19699707206E+02  0.12607865666E+02 -0.13117437733E+02  0.26816112942E+02  0.00000000000E+00 0. -1.
</event>
<event>
 7    1  0.1549900E-008  0.4614232E+02  0.7816164E-02  0.1320468E+00
        -11   -1    0    0    0    0  0.00000000000E+00  0.00000000000E+00  0.45593999997E+02  0.45594000000E+02  0.51100000000E-03 0.  1.
         11   -1    0    0    0    0 -0.00000000000E+00 -0.00000000000E+00 -0.45593999997E+02  0.45594000000E+02  0.51100000000E-03 0. -1.
    9900012    2    1    2    0    0  0.13952076021E+02  0.42777868047E+02 -0.21229803301E+01  0.46142318016E+02  0.10000002324E+02 0.  0.
        -12    1    1    2    0    0 -0.13952076021E+02 -0.42777868047E+02  0.21229803301E+01  0.45045681984E+02  0.00000000000E+00 0.  1.
         11    1    3    3    0    0  0.36014930915E+01  0.11116556211E+02 -0.35190458177E+01  0.12203780489E+02  0.51100000000E-03 0. -1.
        -11    1    3    3    0    0  0.23605549742E+01  0.13361723483E+02  0.30336820639E+01  0.13903636263E+02  0.51100000000E-03 0.  1.
        -12    1    3    3    0    0  0.79900279555E+01  0.18299588353E+02 -0.16376165763E+01  0.20034901264E+02  0.00000000000E+00 0.  1.
</event>
<event>
 7    1  0.1611542E-008  0.4614231E+02  0.7816164E-02  0.1320468E+00
        -11   -1    0    0    0    0  0.00000000000E+00  0.00000000000E+00  0.45593999997E+02  0.45594000000E+02  0.51100000000E-03 0.  1.
         11   -1    0    0    0    0 -0.00000000000E+00 -0.00000000000E+00 -0.45593999997E+02  0.45594000000E+02  0.51100000000E-03 0. -1.
    9900012    2    1    2    0    0 -0.14756129586E+02  0.35939880404E+02 -0.22796840009E+02  0.46142308994E+02  0.99999200553E+01 0.  0.
        -12    1    1    2    0    0  0.14756129586E+02 -0.35939880404E+02  0.22796840009E+02  0.45045691006E+02  0.00000000000E+00 0.  1.
         11    1    3    3    0    0 -0.14671511240E+02  0.32600411974E+02 -0.23374626047E+02  0.42713150739E+02  0.51100000000E-03 0. -1.
        -11    1    3    3    0    0 -0.27296129381E+00  0.12436881833E+01  0.28329105362E+00  0.13044241056E+01  0.51100000000E-03 0.  1.
         12    1    3    3    0    0  0.18834294790E+00  0.20957802471E+01  0.29449498525E+00  0.21247341496E+01  0.00000000000E+00 0. -1.
</event>
<event>
 7    1  0.1549900E-008  0.4614232E+02  0.7816164E-02  0.1320468E+00
        -11   -1    0    0    0    0  0.00000000000E+00  0.00000000000E+00  0.45593999997E+02  0.45594000000E+02  0.51100000000E-03 0.  1.
         11   -1    0    0    0    0 -0.00000000000E+00 -0.00000000000E+00 -0.45593999997E+02  0.45594000000E+02  0.51100000000E-03 0. -1.
    9900012    2    1    2    0    0  0.37893649218E+02 -0.17462411717E+02 -0.16977883188E+02  0.46142323276E+02  0.10000050285E+02 0.  0.
        -12    1    1    2    0    0 -0.37893649218E+02  0.17462411717E+02  0.16977883188E+02  0.45045676724E+02  0.00000000000E+00 0.  1.
         11    1    3    3    0    0  0.27190532734E+02 -0.15471868641E+02 -0.10902534370E+02  0.33129579616E+02  0.51100000000E-03 0. -1.
        -11    1    3    3    0    0  0.92685410330E+01 -0.29276191984E+01 -0.56668175482E+01  0.11251205644E+02  0.51100000000E-03 0.  1.
        -12    1    3    3    0    0  0.14345754511E+01  0.93707612206E+00 -0.40853127008E+00  0.17615380161E+01  0.00000000000E+00 0.  1.
</event>
<event>
 7    1  0.1549900E-008  0.4614232E+02  0.7816164E-02  0.1320468E+00
        -11   -1    0    0    0    0  0.00000000000E+00  0.00000000000E+00  0.45593999997E+02  0.45594000000E+02  0.51100000000E-03 0. -1.
         11   -1    0    0    0    0 -0.00000000000E+00 -0.00000000000E+00 -0.45593999997E+02  0.45594000000E+02  0.51100000000E-03 0.  1.
    9900012    2    1    2    0    0  0.13359633986E+02 -0.32812369691E+02  0.27820534283E+02  0.46142317046E+02  0.99999934828E+01 0.  0.
        -12    1    1    2    0    0 -0.13359633986E+02  0.32812369691E+02 -0.27820534283E+02  0.45045682954E+02  0.00000000000E+00 0.  1.
         11    1    3    3    0    0  0.22973652317E+01 -0.16311730818E+02  0.12184653697E+02  0.20489417641E+02  0.51100000000E-03 0. -1.
        -11    1    3    3    0    0  0.11348447085E+02 -0.16463081718E+02  0.15602110993E+02  0.25362298370E+02  0.51100000000E-03 0.  1.
         12    1    3    3    0    0 -0.28617833029E+00 -0.37557155600E-01  0.33769591606E-01  0.29060103575E+00  0.00000000000E+00 0. -1.
</event>
<event>
 7    1  0.1549900E-008  0.4614232E+02  0.7816164E-02  0.1320468E+00
        -11   -1    0    0    0    0  0.00000000000E+00  0.00000000000E+00  0.45593999997E+02  0.45594000000E+02  0.51100000000E-03 0. -1.
         11   -1    0    0    0    0 -0.00000000000E+00 -0.00000000000E+00 -0.45593999997E+02  0.45594000000E+02  0.51100000000E-03 0.  1.
    9900012    2    1    2    0    0  0.37861711120E+02  0.42099771250E+01 -0.24039143584E+02  0.46142317626E+02  0.99999987668E+01 0.  0.
        -12    1    1    2    0    0 -0.37861711120E+02 -0.42099771250E+01  0.24039143584E+02  0.45045682374E+02  0.00000000000E+00 0.  1.
         11    1    3    3    0    0  0.87513092233E+01  0.11419687838E+01 -0.10745940219E+01  0.88906837982E+01  0.51100000000E-03 0. -1.
        -11    1    3    3    0    0  0.18313074986E+02  0.20693198499E+01 -0.15577790728E+02  0.24131273574E+02  0.51100000000E-03 0.  1.
         12    1    3    3    0    0  0.10797326910E+02  0.99868849131E+00 -0.73867588339E+01  0.13120360254E+02  0.00000000000E+00 0. -1.
</event>
<event>
 7    1  0.1549900E-008  0.4614232E+02  0.7816164E-02  0.1320468E+00
        -11   -1    0    0    0    0  0.00000000000E+00  0.00000000000E+00  0.45593999997E+02  0.45594000000E+02  0.51100000000E-03 0.  1.
         11   -1    0    0    0    0 -0.00000000000E+00 -0.00000000000E+00 -0.45593999997E+02  0.45594000000E+02  0.51100000000E-03 0. -1.
    9900012    2    1    2    0    0  0.25794930458E+02 -0.36590307604E+02  0.49884345038E+01  0.46142317335E+02  0.99999961186E+01 0.  0.
        -12    1    1    2    0    0 -0.25794930458E+02  0.36590307604E+02 -0.49884345038E+01  0.45045682665E+02  0.00000000000E+00 0.  1.
         11    1    3    3    0    0  0.11378534267E+02 -0.15463733364E+02  0.39982251605E+01  0.19610810700E+02  0.51100000000E-03 0. -1.
        -11    1    3    3    0    0  0.80419052893E+01 -0.75613924953E+01 -0.20782505187E+01  0.11232364962E+02  0.51100000000E-03 0.  1.
         12    1    3    3    0    0  0.63744909020E+01 -0.13565181745E+02  0.30684598620E+01  0.15299141674E+02  0.00000000000E+00 0. -1.
</event>
<event>
 7    1  0.1549900E-008  0.4614232E+02  0.7816164E-02  0.1320468E+00
        -11   -1    0    0    0    0  0.00000000000E+00  0.00000000000E+00  0.45593999997E+02  0.45594000000E+02  0.51100000000E-03 0.  1.
         11   -1    0    0    0    0 -0.00000000000E+00 -0.00000000000E+00 -0.45593999997E+02  0.45594000000E+02  0.51100000000E-03 0. -1.
    9900012    2    1    2    0    0  0.35141226067E+02 -0.27034469676E+02  0.79589765664E+01  0.46142316209E+02  0.99999858497E+01 0.  0.
        -12    1    1    2    0    0 -0.35141226067E+02  0.27034469676E+02 -0.79589765664E+01  0.45045683791E+02  0.00000000000E+00 0.  1.
         11    1    3    3    0    0  0.75744194410E+01 -0.48282451033E+01  0.20087945026E+01  0.92042944466E+01  0.51100000000E-03 0.  1.
        -11    1    3    3    0    0  0.12575930769E+02 -0.14492241018E+02  0.59143325572E+01  0.20078805101E+02  0.51100000000E-03 0. -1.
        -12    1    3    3    0    0  0.14990875857E+02 -0.77139835548E+01  0.35849506591E-01  0.16859216662E+02  0.00000000000E+00 0.  1.
</event>
<event>
 7    1  0.1549900E-008  0.4614232E+02  0.7816164E-02  0.1320468E+00
        -11   -1    0    0    0    0  0.00000000000E+00  0.00000000000E+00  0.45593999997E+02  0.45594000000E+02  0.51100000000E-03 0.  1.
         11   -1    0    0    0    0 -0.00000000000E+00 -0.00000000000E+00 -0.45593999997E+02  0.45594000000E+02  0.51100000000E-03 0. -1.
    9900012    2    1    2    0    0  0.37506685241E+01 -0.43188149320E+02 -0.12240491796E+02  0.46142318792E+02  0.10000009405E+02 0.  0.
        -12    1    1    2    0    0 -0.37506685241E+01  0.43188149320E+02  0.12240491796E+02  0.45045681208E+02  0.00000000000E+00 0.  1.
         11    1    3    3    0    0 -0.69617087987E+00 -0.11127576655E+01  0.60618465305E+00  0.14458020649E+01  0.51100000000E-03 0.  1.
        -11    1    3    3    0    0  0.24517807785E+00 -0.30418931111E+02 -0.91414073675E+01  0.31763765695E+02  0.51100000000E-03 0. -1.
        -12    1    3    3    0    0  0.42016613261E+01 -0.11656460543E+02 -0.37052690819E+01  0.12932751033E+02  0.00000000000E+00 0.  1.
</event>
<event>
 7    1  0.1549900E-008  0.4614232E+02  0.7816164E-02  0.1320468E+00
        -11   -1    0    0    0    0  0.00000000000E+00  0.00000000000E+00  0.45593999997E+02  0.45594000000E+02  0.51100000000E-03 0.  1.
         11   -1    0    0    0    0 -0.00000000000E+00 -0.00000000000E+00 -0.45593999997E+02  0.45594000000E+02  0.51100000000E-03 0. -1.
    9900012    2    1    2    0    0  0.11859688894E+01 -0.31283033907E+02 -0.32389485209E+02  0.46142317801E+02  0.10000000367E+02 0.  0.
        -12    1    1    2    0    0 -0.11859688894E+01  0.31283033907E+02  0.32389485209E+02  0.45045682199E+02  0.00000000000E+00 0.  1.
         11    1    3    3    0    0  0.78258682301E-01  0.41584938044E+00 -0.17803399788E+01  0.18299360179E+01  0.51100000000E-03 0. -1.
        -11    1    3    3    0    0 -0.84856807367E+00 -0.25659081569E+02 -0.25150657286E+02  0.35939728671E+02  0.51100000000E-03 0.  1.
         12    1    3    3    0    0  0.19562782808E+01 -0.60398017182E+01 -0.54584879445E+01  0.83726531128E+01  0.00000000000E+00 0. -1.
</event>
<event>
 7    1  0.1549900E-008  0.4614232E+02  0.7816164E-02  0.1320468E+00
        -11   -1    0    0    0    0  0.00000000000E+00  0.00000000000E+00  0.45593999997E+02  0.45594000000E+02  0.51100000000E-03 0. -1.
         11   -1    0    0    0    0 -0.00000000000E+00 -0.00000000000E+00 -0.45593999997E+02  0.45594000000E+02  0.51100000000E-03 0.  1.
    9900012    2    1    2    0    0  0.42464058042E+02  0.14930533223E+02 -0.17310129837E+01  0.46142318146E+02  0.10000003514E+02 0.  0.
        -12    1    1    2    0    0 -0.42464058042E+02 -0.14930533223E+02  0.17310129837E+01  0.45045681854E+02  0.00000000000E+00 0.  1.
         11    1    3    3    0    0  0.90885611613E+01  0.39601166374E+01  0.12914754356E+01  0.99976185578E+01  0.51100000000E-03 0. -1.
        -11    1    3    3    0    0  0.31114427697E+01  0.38005710988E+01 -0.21468809508E+00  0.49164527889E+01  0.51100000000E-03 0.  1.
        -12    1    3    3    0    0  0.30264054111E+02  0.71698454872E+01 -0.28078003242E+01  0.31228246800E+02  0.00000000000E+00 0.  1.
</event>
<event>
 7    1  0.1549900E-008  0.4614232E+02  0.7816164E-02  0.1320468E+00
        -11   -1    0    0    0    0  0.00000000000E+00  0.00000000000E+00  0.45593999997E+02  0.45594000000E+02  0.51100000000E-03 0.  1.
         11   -1    0    0    0    0 -0.00000000000E+00 -0.00000000000E+00 -0.45593999997E+02  0.45594000000E+02  0.51100000000E-03 0. -1.
    9900012    2    1    2    0    0 -0.74744391126E+01  0.19473095072E+01 -0.44378533643E+02  0.46142317602E+02  0.99999985531E+01 0.  0.
        -12    1    1    2    0    0  0.74744391126E+01 -0.19473095072E+01  0.44378533643E+02  0.45045682398E+02  0.00000000000E+00 0.  1.
         11    1    3    3    0    0 -0.43675901010E+01  0.31900855069E+01 -0.24721696519E+02  0.25306417524E+02  0.51100000000E-03 0. -1.
        -11    1    3    3    0    0  0.14878745852E+01 -0.46585915464E+00 -0.99157396513E+01  0.10037563879E+02  0.51100000000E-03 0.  1.
         12    1    3    3    0    0 -0.45947235968E+01 -0.77691684501E+00 -0.97410974725E+01  0.10798336200E+02  0.00000000000E+00 0. -1.
</event>
<event>
 7    1  0.1549900E-008  0.4614232E+02  0.7816164E-02  0.1320468E+00
        -11   -1    0    0    0    0  0.00000000000E+00  0.00000000000E+00  0.45593999997E+02  0.45594000000E+02  0.51100000000E-03 0.  1.
         11   -1    0    0    0    0 -0.00000000000E+00 -0.00000000000E+00 -0.45593999997E+02  0.45594000000E+02  0.51100000000E-03 0. -1.
    9900012    2    1    2    0    0  0.10954850682E+02  0.30772188838E+02 -0.31018981464E+02  0.46142316851E+02  0.99999916984E+01 0.  0.
        -12    1    1    2    0    0 -0.10954850682E+02 -0.30772188838E+02  0.31018981464E+02  0.45045683149E+02  0.00000000000E+00 0.  1.
         11    1    3    3    0    0  0.10630789437E+02  0.21449899205E+02 -0.19970189300E+02  0.31175636656E+02  0.51100000000E-03 0. -1.
        -11    1    3    3    0    0  0.25500296828E+00  0.28471034052E+00 -0.24906849884E+01  0.25198409602E+01  0.51100000000E-03 0.  1.
         12    1    3    3    0    0  0.69058276822E-01  0.90375792923E+01 -0.85581071755E+01  0.12446839235E+02  0.00000000000E+00 0. -1.
</event>
<event>
 7    1  0.1549900E-008  0.4614233E+02  0.7816164E-02  0.1320468E+00
        -11   -1    0    0    0    0  0.00000000000E+00  0.00000000000E+00  0.45593999997E+02  0.45594000000E+02  0.51100000000E-03 0.  1.
         11   -1    0    0    0    0 -0.00000000000E+00 -0.00000000000E+00 -0.45593999997E+02  0.45594000000E+02  0.51100000000E-03 0. -1.
    9900012    2    1    2    0    0 -0.13632137886E+02  0.32570099732E+02 -0.27972593965E+02  0.46142327700E+02  0.10000090628E+02 0.  0.
        -12    1    1    2    0    0  0.13632137886E+02 -0.32570099732E+02  0.27972593965E+02  0.45045672300E+02  0.00000000000E+00 0.  1.
         11    1    3    3    0    0 -0.10023127370E+02  0.27550682233E+02 -0.20011361034E+02  0.35495883486E+02  0.51100000000E-03 0. -1.
        -11    1    3    3    0    0 -0.17053659899E+01  0.17317984820E+00 -0.11135391874E+01  0.20440729445E+01  0.51100000000E-03 0.  1.
         12    1    3    3    0    0 -0.19036445258E+01  0.48462376506E+01 -0.68476937433E+01  0.86023712690E+01  0.00000000000E+00 0. -1.
</event>
<event>
 7    1  0.1549900E-008  0.4614232E+02  0.7816164E-02  0.1320468E+00
        -11   -1    0    0    0    0  0.00000000000E+00  0.00000000000E+00  0.45593999997E+02  0.45594000000E+02  0.51100000000E-03 0.  1.
         11   -1    0    0    0    0 -0.00000000000E+00 -0.00000000000E+00 -0.45593999997E+02  0.45594000000E+02  0.51100000000E-03 0. -1.
    9900012    2    1    2    0    0 -0.39345129876E+02 -0.56194312689E+01  0.21201325214E+02  0.46142318258E+02  0.10000004530E+02 0.  0.
        -12    1    1    2    0    0  0.39345129876E+02  0.56194312689E+01 -0.21201325214E+02  0.45045681742E+02  0.00000000000E+00 0.  1.
         11    1    3    3    0    0 -0.31458076686E+02 -0.70902715569E+01  0.17802629902E+02  0.36834985696E+02  0.51100000000E-03 0. -1.
        -11    1    3    3    0    0 -0.11125867633E+01  0.42374324711E-01  0.19325929321E+01  0.22303722989E+01  0.51100000000E-03 0.  1.
         12    1    3    3    0    0 -0.67744664270E+01  0.14284659632E+01  0.14661023806E+01  0.70769602633E+01  0.00000000000E+00 0. -1.
</event>
<event>
 7    1  0.1549900E-008  0.4614232E+02  0.7816164E-02  0.1320468E+00
        -11   -1    0    0    0    0  0.00000000000E+00  0.00000000000E+00  0.45593999997E+02  0.45594000000E+02  0.51100000000E-03 0. -1.
         11   -1    0    0    0    0 -0.00000000000E+00 -0.00000000000E+00 -0.45593999997E+02  0.45594000000E+02  0.51100000000E-03 0.  1.
    9900012    2    1    2    0    0  0.37578353085E+02  0.18503782672E+02  0.16570785017E+02  0.46142317523E+02  0.99999978259E+01 0.  0.
        -12    1    1    2    0    0 -0.37578353085E+02 -0.18503782672E+02 -0.16570785017E+02  0.45045682477E+02  0.00000000000E+00 0.  1.
         11    1    3    3    0    0  0.18642946116E+02  0.12012067405E+02  0.81427617608E+01  0.23625278254E+02  0.51100000000E-03 0. -1.
        -11    1    3    3    0    0  0.19031412694E+02  0.60649779143E+01  0.72316990360E+01  0.21243260047E+02  0.51100000000E-03 0.  1.
        -12    1    3    3    0    0 -0.96005723874E-01  0.42673735260E+00  0.11963242200E+01  0.12737792220E+01  0.00000000000E+00 0.  1.
</event>
<event>
 7    1  0.1757823E-008  0.4614231E+02  0.7816164E-02  0.1320468E+00
        -11   -1    0    0    0    0  0.00000000000E+00  0.00000000000E+00  0.45593999997E+02  0.45594000000E+02  0.51100000000E-03 0. -1.
         11   -1    0    0    0    0 -0.00000000000E+00 -0.00000000000E+00 -0.45593999997E+02  0.45594000000E+02  0.51100000000E-03 0.  1.
    9900012    2    1    2    0    0  0.33553646448E+02  0.27603902215E+02  0.11886608539E+02  0.46142311306E+02  0.99999411334E+01 0.  0.
        -12    1    1    2    0    0 -0.33553646448E+02 -0.27603902215E+02 -0.11886608539E+02  0.45045688694E+02  0.00000000000E+00 0.  1.
         11    1    3    3    0    0  0.74411067055E+01  0.87656433222E+01  0.52207022275E+01  0.12627838448E+02  0.51100000000E-03 0. -1.
        -11    1    3    3    0    0  0.49102983977E+01  0.20571185121E+01  0.33063015581E+01  0.62669288477E+01  0.51100000000E-03 0.  1.
         12    1    3    3    0    0  0.21202241344E+02  0.16781140380E+02  0.33596047530E+01  0.27247544010E+02  0.00000000000E+00 0. -1.
</event>
<event>
 7    1  0.1549900E-008  0.4614232E+02  0.7816164E-02  0.1320468E+00
        -11   -1    0    0    0    0  0.00000000000E+00  0.00000000000E+00  0.45593999997E+02  0.45594000000E+02  0.51100000000E-03 0.  1.
         11   -1    0    0    0    0 -0.00000000000E+00 -0.00000000000E+00 -0.45593999997E+02  0.45594000000E+02  0.51100000000E-03 0. -1.
    9900012    2    1    2    0    0  0.31683297631E+02  0.26657726287E+02  0.17738313395E+02  0.46142317835E+02  0.10000000678E+02 0.  0.
        -12    1    1    2    0    0 -0.31683297631E+02 -0.26657726287E+02 -0.17738313395E+02  0.45045682165E+02  0.00000000000E+00 0.  1.
         11    1    3    3    0    0  0.12006581899E+02  0.61743668221E+01  0.24807653915E+01  0.13727163281E+02  0.51100000000E-03 0. -1.
        -11    1    3    3    0    0  0.12134227378E+02  0.11444966269E+02  0.10551381924E+02  0.19737233538E+02  0.51100000000E-03 0.  1.
         12    1    3    3    0    0  0.75424883531E+01  0.90383931962E+01  0.47061660796E+01  0.12677921016E+02  0.00000000000E+00 0. -1.
</event>
<event>
 7    1  0.1549900E-008  0.4614232E+02  0.7816164E-02  0.1320468E+00
        -11   -1    0    0    0    0  0.00000000000E+00  0.00000000000E+00  0.45593999997E+02  0.45594000000E+02  0.51100000000E-03 0.  1.
         11   -1    0    0    0    0 -0.00000000000E+00 -0.00000000000E+00 -0.45593999997E+02  0.45594000000E+02  0.51100000000E-03 0. -1.
    9900012    2    1    2    0    0 -0.36813044629E+02 -0.17421468665E+02  0.19245923048E+02  0.46142318972E+02  0.10000011042E+02 0.  0.
        -12    1    1    2    0    0  0.36813044629E+02  0.17421468665E+02 -0.19245923048E+02  0.45045681028E+02  0.00000000000E+00 0.  1.
         11    1    3    3    0    0 -0.33058385919E+01 -0.24972646685E+01  0.31427994600E+01  0.52002007968E+01  0.51100000000E-03 0.  1.
        -11    1    3    3    0    0 -0.15592107595E+02 -0.23901013969E+01  0.70307071160E+01  0.17270125846E+02  0.51100000000E-03 0. -1.
        -12    1    3    3    0    0 -0.17915098443E+02 -0.12534102600E+02  0.90724164722E+01  0.23671992329E+02  0.00000000000E+00 0.  1.
</event>
<event>
 7    1  0.1549900E-008  0.4614232E+02  0.7816164E-02  0.1320468E+00
        -11   -1    0    0    0    0  0.00000000000E+00  0.00000000000E+00  0.45593999997E+02  0.45594000000E+02  0.51100000000E-03 0.  1.
         11   -1    0    0    0    0 -0.00000000000E+00 -0.00000000000E+00 -0.45593999997E+02  0.45594000000E+02  0.51100000000E-03 0. -1.
    9900012    2    1    2    0    0 -0.13003771438E+02 -0.18943182746E+02 -0.38744951882E+02  0.46142317183E+02  0.99999947244E+01 0.  0.
        -12    1    1    2    0    0  0.13003771438E+02  0.18943182746E+02  0.38744951882E+02  0.45045682817E+02  0.00000000000E+00 0.  1.
         11    1    3    3    0    0 -0.58770023237E+01 -0.45569303155E+01 -0.16221556895E+02  0.17844990293E+02  0.51100000000E-03 0. -1.
        -11    1    3    3    0    0 -0.59548149814E+01 -0.12611189588E+02 -0.15011831575E+02  0.20490412680E+02  0.51100000000E-03 0.  1.
        -12    1    3    3    0    0 -0.11719541326E+01 -0.17750628431E+01 -0.75115634121E+01  0.78069142099E+01  0.00000000000E+00 0.  1.
</event>
<event>
 7    1  0.1549900E-008  0.4614232E+02  0.7816164E-02  0.1320468E+00
        -11   -1    0    0    0    0  0.00000000000E+00  0.00000000000E+00  0.45593999997E+02  0.45594000000E+02  0.51100000000E-03 0.  1.
         11   -1    0    0    0    0 -0.00000000000E+00 -0.00000000000E+00 -0.45593999997E+02  0.45594000000E+02  0.51100000000E-03 0. -1.
    9900012    2    1    2    0    0 -0.11097756929E+02  0.32060283631E+02 -0.29632608319E+02  0.46142317953E+02  0.10000001746E+02 0.  0.
        -12    1    1    2    0    0  0.11097756929E+02 -0.32060283631E+02  0.29632608319E+02  0.45045682047E+02  0.00000000000E+00 0.  1.
         11    1    3    3    0    0 -0.13209061261E+01  0.12434659617E+02 -0.69344603168E+01  0.14298681510E+02  0.51100000000E-03 0. -1.
        -11    1    3    3    0    0 -0.10084888973E+02  0.18576696850E+02 -0.20813094230E+02  0.29664516567E+02  0.51100000000E-03 0.  1.
         12    1    3    3    0    0  0.30803816947E+00  0.10489271634E+01 -0.18850537724E+01  0.21791198758E+01  0.00000000000E+00 0. -1.
</event>
<event>
 7    1  0.1549900E-008  0.4614232E+02  0.7816164E-02  0.1320468E+00
        -11   -1    0    0    0    0  0.00000000000E+00  0.00000000000E+00  0.45593999997E+02  0.45594000000E+02  0.51100000000E-03 0. -1.
         11   -1    0    0    0    0 -0.00000000000E+00 -0.00000000000E+00 -0.45593999997E+02  0.45594000000E+02  0.51100000000E-03 0.  1.
    9900012    2    1    2    0    0  0.42679457252E+02 -0.13217432893E+02 -0.57338400245E+01  0.46142317354E+02  0.99999962892E+01 0.  0.
        -12    1    1    2    0    0 -0.42679457252E+02  0.13217432893E+02  0.57338400245E+01  0.45045682646E+02  0.00000000000E+00 0.  1.
         11    1    3    3    0    0  0.21141671567E+02 -0.81524857608E+01  0.35240520873E+00  0.22661806866E+02  0.51100000000E-03 0. -1.
        -11    1    3    3    0    0  0.21745424091E+02 -0.47565923703E+01 -0.61711877331E+01  0.23099181764E+02  0.51100000000E-03 0.  1.
        -12    1    3    3    0    0 -0.20763840663E+00 -0.30835476234E+00  0.84942499909E-01  0.38132872388E+00  0.00000000000E+00 0.  1.
</event>
<event>
 7    1  0.1549900E-008  0.4614232E+02  0.7816164E-02  0.1320468E+00
        -11   -1    0    0    0    0  0.00000000000E+00  0.00000000000E+00  0.45593999997E+02  0.45594000000E+02  0.51100000000E-03 0.  1.
         11   -1    0    0    0    0 -0.00000000000E+00 -0.00000000000E+00 -0.45593999997E+02  0.45594000000E+02  0.51100000000E-03 0. -1.
    9900012    2    1    2    0    0 -0.95991385840E+01  0.26057369699E+02 -0.35468062854E+02  0.46142318078E+02  0.10000002892E+02 0.  0.
        -12    1    1    2    0    0  0.95991385840E+01 -0.26057369699E+02  0.35468062854E+02  0.45045681922E+02  0.00000000000E+00 0.  1.
         11    1    3    3    0    0 -0.46276679463E+01  0.82832187492E+01 -0.15148535925E+02  0.17874707393E+02  0.51100000000E-03 0. -1.
        -11    1    3    3    0    0 -0.48263597005E+01  0.61012656739E+01 -0.10128927140E+02  0.12771623078E+02  0.51100000000E-03 0.  1.
        -12    1    3    3    0    0 -0.14511093714E+00  0.11672885276E+02 -0.10190599789E+02  0.15495987607E+02  0.00000000000E+00 0.  1.
</event>
<event>
 7    1  0.1549900E-008  0.4614232E+02  0.7816164E-02  0.1320468E+00
        -11   -1    0    0    0    0  0.00000000000E+00  0.00000000000E+00  0.45593999997E+02  0.45594000000E+02  0.51100000000E-03 0.  1.
         11   -1    0    0    0    0 -0.00000000000E+00 -0.00000000000E+00 -0.45593999997E+02  0.45594000000E+02  0.51100000000E-03 0. -1.
    9900012    2    1    2    0    0  0.37227503850E+02  0.81896227939E+01 -0.24003259339E+02  0.46142318483E+02  0.10000006586E+02 0.  0.
        -12    1    1    2    0    0 -0.37227503850E+02 -0.81896227939E+01  0.24003259339E+02  0.45045681517E+02  0.00000000000E+00 0.  1.
         11    1    3    3    0    0  0.24990764184E+02  0.54446357945E+01 -0.16466879458E+02  0.30419409474E+02  0.51100000000E-03 0. -1.
        -11    1    3    3    0    0  0.36382833941E+01 -0.18007214835E+01 -0.25381171783E+01  0.47876657140E+01  0.51100000000E-03 0.  1.
        -12    1    3    3    0    0  0.85984562720E+01  0.45457084830E+01 -0.49982627033E+01  0.10935243295E+02  0.00000000000E+00 0.  1.
</event>
<event>
 7    1  0.1549900E-008  0.4614232E+02  0.7816164E-02  0.1320468E+00
        -11   -1    0    0    0    0  0.00000000000E+00  0.00000000000E+00  0.45593999997E+02  0.45594000000E+02  0.51100000000E-03 0.  1.
         11   -1    0    0    0    0 -0.00000000000E+00 -0.00000000000E+00 -0.45593999997E+02  0.45594000000E+02  0.51100000000E-03 0. -1.
    9900012    2    1    2    0    0 -0.21803257485E+02 -0.47627669314E+01 -0.39128601963E+02  0.46142317883E+02  0.10000001113E+02 0.  0.
        -12    1    1    2    0    0  0.21803257485E+02  0.47627669314E+01  0.39128601963E+02  0.45045682117E+02  0.00000000000E+00 0.  1.
         11    1    3    3    0    0 -0.66824754491E+01 -0.60512045170E+01 -0.12963932798E+02  0.15790380238E+02  0.51100000000E-03 0. -1.
        -11    1    3    3    0    0 -0.15031924133E+01  0.60794400964E+00 -0.17333957353E+01  0.23735720731E+01  0.51100000000E-03 0.  1.
         12    1    3    3    0    0 -0.13617589623E+02  0.68049357587E+00 -0.24431273430E+02  0.27978365572E+02  0.00000000000E+00 0. -1.
</event>
<event>
 7    1  0.1549900E-008  0.4614232E+02  0.7816164E-02  0.1320468E+00
        -11   -1    0    0    0    0  0.00000000000E+00  0.00000000000E+00  0.45593999997E+02  0.45594000000E+02  0.51100000000E-03 0. -1.
         11   -1    0    0    0    0 -0.00000000000E+00 -0.00000000000E+00 -0.45593999997E+02  0.45594000000E+02  0.51100000000E-03 0.  1.
    9900012    2    1    2    0    0  0.44427071597E+02 -0.36611682315E+01 -0.64764865901E+01  0.46142315168E+02  0.99999763509E+01 0.  0.
        -12    1    1    2    0    0 -0.44427071597E+02  0.36611682315E+01  0.64764865901E+01  0.45045684832E+02  0.00000000000E+00 0.  1.
         11    1    3    3    0    0  0.37566226195E+02 -0.28804262401E+01 -0.56842113541E+01  0.38102866885E+02  0.51100000000E-03 0. -1.
        -11    1    3    3    0    0  0.47487763893E+01 -0.23907582627E+01 -0.21092405029E+00  0.53208168059E+01  0.51100000000E-03 0.  1.
        -12    1    3    3    0    0  0.21120690119E+01  0.16100162713E+01 -0.58135118572E+00  0.27186314767E+01  0.00000000000E+00 0.  1.
</event>
<event>
 7    1  0.1549900E-008  0.4614232E+02  0.7816164E-02  0.1320468E+00
        -11   -1    0    0    0    0  0.00000000000E+00  0.00000000000E+00  0.45593999997E+02  0.45594000000E+02  0.51100000000E-03 0.  1.
         11   -1    0    0    0    0 -0.00000000000E+00 -0.00000000000E+00 -0.45593999997E+02  0.45594000000E+02  0.51100000000E-03 0. -1.
    9900012    2    1    2    0    0  0.86113429869E+00  0.43507374815E+02  0.11639606217E+02  0.46142315984E+02  0.99999837994E+01 0.  0.
        -12    1    1    2    0    0 -0.86113429869E+00 -0.43507374815E+02 -0.11639606217E+02  0.45045684016E+02  0.00000000000E+00 0.  1.
         11    1    3    3    0    0  0.92678157746E+00  0.34797184533E+01 -0.14648619784E+01  0.38875680680E+01  0.51100000000E-03 0. -1.
        -11    1    3    3    0    0 -0.16735100470E+01  0.23458230462E+02  0.80395070867E+01  0.24854031599E+02  0.51100000000E-03 0.  1.
         12    1    3    3    0    0  0.16078627683E+01  0.16569425899E+02  0.50649611087E+01  0.17400716317E+02  0.00000000000E+00 0. -1.
</event>
<event>
 7    1  0.1549900E-008  0.4614232E+02  0.7816164E-02  0.1320468E+00
        -11   -1    0    0    0    0  0.00000000000E+00  0.00000000000E+00  0.45593999997E+02  0.45594000000E+02  0.51100000000E-03 0.  1.
         11   -1    0    0    0    0 -0.00000000000E+00 -0.00000000000E+00 -0.45593999997E+02  0.45594000000E+02  0.51100000000E-03 0. -1.
    9900012    2    1    2    0    0 -0.26423189714E+02 -0.77196739920E+01 -0.35655788006E+02  0.46142317193E+02  0.99999948196E+01 0.  0.
        -12    1    1    2    0    0  0.26423189714E+02  0.77196739920E+01  0.35655788006E+02  0.45045682807E+02  0.00000000000E+00 0.  1.
         11    1    3    3    0    0 -0.14425971422E+02 -0.86297729866E+01 -0.21971057763E+02  0.27664218998E+02  0.51100000000E-03 0. -1.
        -11    1    3    3    0    0 -0.74723746353E+01  0.19262156601E+01 -0.76354037660E+01  0.10855693455E+02  0.51100000000E-03 0.  1.
        -12    1    3    3    0    0 -0.45248436567E+01 -0.10161166654E+01 -0.60493264771E+01  0.76224047401E+01  0.00000000000E+00 0.  1.
</event>
<event>
 7    1  0.1549900E-008  0.4614232E+02  0.7816164E-02  0.1320468E+00
        -11   -1    0    0    0    0  0.00000000000E+00  0.00000000000E+00  0.45593999997E+02  0.45594000000E+02  0.51100000000E-03 0. -1.
         11   -1    0    0    0    0 -0.00000000000E+00 -0.00000000000E+00 -0.45593999997E+02  0.45594000000E+02  0.51100000000E-03 0.  1.
    9900012    2    1    2    0    0 -0.15655899908E+02  0.40051377291E+02  0.13412437565E+02  0.46142317562E+02  0.99999981877E+01 0.  0.
        -12    1    1    2    0    0  0.15655899908E+02 -0.40051377291E+02 -0.13412437565E+02  0.45045682438E+02  0.00000000000E+00 0.  1.
         11    1    3    3    0    0 -0.58342753985E+01  0.15324251117E+02  0.82748306641E+01  0.18366933999E+02  0.51100000000E-03 0. -1.
        -11    1    3    3    0    0 -0.42932615024E+01  0.40898271944E+01  0.98967470091E+00  0.60115087194E+01  0.51100000000E-03 0.  1.
        -12    1    3    3    0    0 -0.55283630069E+01  0.20637298979E+02  0.41479321995E+01  0.21763874844E+02  0.00000000000E+00 0.  1.
</event>
<event>
 7    1  0.1549900E-008  0.4614231E+02  0.7816164E-02  0.1320468E+00
        -11   -1    0    0    0    0  0.00000000000E+00  0.00000000000E+00  0.45593999997E+02  0.45594000000E+02  0.51100000000E-03 0.  1.
         11   -1    0    0    0    0 -0.00000000000E+00 -0.00000000000E+00 -0.45593999997E+02  0.45594000000E+02  0.51100000000E-03 0. -1.
    9900012    2    1    2    0    0 -0.23197044568E+01  0.29517183119E+02 -0.33948032572E+02  0.46142311599E+02  0.99999438091E+01 0.  0.
        -12    1    1    2    0    0  0.23197044568E+01 -0.29517183119E+02  0.33948032572E+02  0.45045688401E+02  0.00000000000E+00 0.  1.
         11    1    3    3    0    0  0.80655527010E+00  0.19644995328E+02 -0.22670985307E+02  0.30009164398E+02  0.51100000000E-03 0. -1.
        -11    1    3    3    0    0  0.49904146479E+00  0.13555886764E+01 -0.43169023764E+01  0.45521763401E+01  0.51100000000E-03 0.  1.
         12    1    3    3    0    0 -0.36253011917E+01  0.85165991146E+01 -0.69601448881E+01  0.11580970861E+02  0.00000000000E+00 0. -1.
</event>
<event>
 7    1  0.1549900E-008  0.4614232E+02  0.7816164E-02  0.1320468E+00
        -11   -1    0    0    0    0  0.00000000000E+00  0.00000000000E+00  0.45593999997E+02  0.45594000000E+02  0.51100000000E-03 0.  1.
         11   -1    0    0    0    0 -0.00000000000E+00 -0.00000000000E+00 -0.45593999997E+02  0.45594000000E+02  0.51100000000E-03 0. -1.
    9900012    2    1    2    0    0 -0.28221948182E+02 -0.34680756246E+02  0.54662824605E+01  0.46142318110E+02  0.10000003182E+02 0.  0.
        -12    1    1    2    0    0  0.28221948182E+02  0.34680756246E+02 -0.54662824605E+01  0.45045681890E+02  0.00000000000E+00 0.  1.
         11    1    3    3    0    0 -0.17998565708E+02 -0.25048187901E+02  0.92406967246E+00  0.30857964769E+02  0.51100000000E-03 0. -1.
        -11    1    3    3    0    0 -0.93500395654E+00 -0.10570636255E+01 -0.72812709642E+00  0.15880129838E+01  0.51100000000E-03 0.  1.
         12    1    3    3    0    0 -0.92883785175E+01 -0.85755047193E+01  0.52703398844E+01  0.13696340357E+02  0.00000000000E+00 0. -1.
</event>
<event>
 7    1  0.1549900E-008  0.4614232E+02  0.7816164E-02  0.1320468E+00
        -11   -1    0    0    0    0  0.00000000000E+00  0.00000000000E+00  0.45593999997E+02  0.45594000000E+02  0.51100000000E-03 0. -1.
         11   -1    0    0    0    0 -0.00000000000E+00 -0.00000000000E+00 -0.45593999997E+02  0.45594000000E+02  0.51100000000E-03 0.  1.
    9900012    2    1    2    0    0 -0.23220254975E+02 -0.34233931401E+02  0.17831746671E+02  0.46142317747E+02  0.99999998724E+01 0.  0.
        -12    1    1    2    0    0  0.23220254975E+02  0.34233931401E+02 -0.17831746671E+02  0.45045682253E+02  0.00000000000E+00 0.  1.
         11    1    3    3    0    0 -0.11346547023E+02 -0.18982206538E+02  0.73254030555E+01  0.23296562506E+02  0.51100000000E-03 0. -1.
        -11    1    3    3    0    0 -0.53410853255E+01 -0.47466342462E+01  0.69645404292E+01  0.99781036662E+01  0.51100000000E-03 0.  1.
        -12    1    3    3    0    0 -0.65326226260E+01 -0.10505090617E+02  0.35418031866E+01  0.12867651575E+02  0.00000000000E+00 0.  1.
</event>
<event>
 7    1  0.1549900E-008  0.4614232E+02  0.7816164E-02  0.1320468E+00
        -11   -1    0    0    0    0  0.00000000000E+00  0.00000000000E+00  0.45593999997E+02  0.45594000000E+02  0.51100000000E-03 0.  1.
         11   -1    0    0    0    0 -0.00000000000E+00 -0.00000000000E+00 -0.45593999997E+02  0.45594000000E+02  0.51100000000E-03 0. -1.
    9900012    2    1    2    0    0  0.33048796865E+02  0.29908196830E+02  0.65107931546E+01  0.46142316086E+02  0.99999847207E+01 0.  0.
        -12    1    1    2    0    0 -0.33048796865E+02 -0.29908196830E+02 -0.65107931546E+01  0.45045683914E+02  0.00000000000E+00 0.  1.
         11    1    3    3    0    0  0.14621936969E+02  0.16771558472E+02  0.58282063176E+01  0.23001178306E+02  0.51100000000E-03 0. -1.
        -11    1    3    3    0    0  0.18458721875E+01  0.79308457990E+00  0.14146501662E+01  0.24571248721E+01  0.51100000000E-03 0.  1.
         12    1    3    3    0    0  0.16580987708E+02  0.12343553777E+02 -0.73206332916E+00  0.20684012907E+02  0.00000000000E+00 0. -1.
</event>
<event>
 7    1  0.1549900E-008  0.4614232E+02  0.7816164E-02  0.1320468E+00
        -11   -1    0    0    0    0  0.00000000000E+00  0.00000000000E+00  0.45593999997E+02  0.45594000000E+02  0.51100000000E-03 0.  1.
         11   -1    0    0    0    0 -0.00000000000E+00 -0.00000000000E+00 -0.45593999997E+02  0.45594000000E+02  0.51100000000E-03 0. -1.
    9900012    2    1    2    0    0  0.25947169580E+01  0.70108580541E+01 -0.44421038974E+02  0.46142318850E+02  0.10000009931E+02 0.  0.
        -12    1    1    2    0    0 -0.25947169580E+01 -0.70108580541E+01  0.44421038974E+02  0.45045681150E+02  0.00000000000E+00 0.  1.
         11    1    3    3    0    0 -0.11767520297E+01  0.21773568000E+01 -0.15042743717E+02  0.15244991531E+02  0.51100000000E-03 0. -1.
        -11    1    3    3    0    0  0.14915642012E+01  0.24359030179E+01 -0.24399307357E+01  0.37565475552E+01  0.51100000000E-03 0.  1.
         12    1    3    3    0    0  0.22799047865E+01  0.23975982362E+01 -0.26938364521E+02  0.27140779764E+02  0.00000000000E+00 0. -1.
</event>
<event>
 7    1  0.1549900E-008  0.4614232E+02  0.7816164E-02  0.1320468E+00
        -11   -1    0    0    0    0  0.00000000000E+00  0.00000000000E+00  0.45593999997E+02  0.45594000000E+02  0.51100000000E-03 0.  1.
         11   -1    0    0    0    0 -0.00000000000E+00 -0.00000000000E+00 -0.45593999997E+02  0.45594000000E+02  0.51100000000E-03 0. -1.
    9900012    2    1    2    0    0  0.11004299154E+02 -0.21793734022E+02 -0.37855674743E+02  0.46142317047E+02  0.99999934856E+01 0.  0.
        -12    1    1    2    0    0 -0.11004299154E+02  0.21793734022E+02  0.37855674743E+02  0.45045682953E+02  0.00000000000E+00 0.  1.
         11    1    3    3    0    0  0.20483139758E+01 -0.12153464315E+01 -0.51477142671E+01  0.56720031320E+01  0.51100000000E-03 0. -1.
        -11    1    3    3    0    0  0.87183883887E+01 -0.10828182639E+02 -0.21614271249E+02  0.25698960237E+02  0.51100000000E-03 0.  1.
        -12    1    3    3    0    0  0.23759678998E+00 -0.97502049510E+01 -0.11093689227E+02  0.14771353678E+02  0.00000000000E+00 0.  1.
</event>
<event>
 7    1  0.1679187E-008  0.4614232E+02  0.7816164E-02  0.1320468E+00
        -11   -1    0    0    0    0  0.00000000000E+00  0.00000000000E+00  0.45593999997E+02  0.45594000000E+02  0.51100000000E-03 0. -1.
         11   -1    0    0    0    0 -0.00000000000E+00 -0.00000000000E+00 -0.45593999997E+02  0.45594000000E+02  0.51100000000E-03 0.  1.
    9900012    2    1    2    0    0  0.21425835110E+02  0.28013281079E+02  0.28023253610E+02  0.46142322407E+02  0.10000042361E+02 0.  0.
        -12    1    1    2    0    0 -0.21425835110E+02 -0.28013281079E+02 -0.28023253610E+02  0.45045677593E+02  0.00000000000E+00 0.  1.
         11    1    3    3    0    0  0.13570936849E+01  0.43780136902E+01  0.68688045028E+01  0.82576741701E+01  0.51100000000E-03 0. -1.
        -11    1    3    3    0    0  0.90671866988E+01  0.69255545110E+01  0.81995240878E+01  0.14050244676E+02  0.51100000000E-03 0.  1.
         12    1    3    3    0    0  0.11001554726E+02  0.16709712878E+02  0.12954925019E+02  0.23834403561E+02  0.00000000000E+00 0. -1.
</event>
<event>
 7    1  0.1549900E-008  0.4614232E+02  0.7816164E-02  0.1320468E+00
        -11   -1    0    0    0    0  0.00000000000E+00  0.00000000000E+00  0.45593999997E+02  0.45594000000E+02  0.51100000000E-03 0.  1.
         11   -1    0    0    0    0 -0.00000000000E+00 -0.00000000000E+00 -0.45593999997E+02  0.45594000000E+02  0.51100000000E-03 0. -1.
    9900012    2    1    2    0    0  0.55638063191E+01 -0.44213045019E+02 -0.65851447841E+01  0.46142318493E+02  0.10000006675E+02 0.  0.
        -12    1    1    2    0    0 -0.55638063191E+01  0.44213045019E+02  0.65851447841E+01  0.45045681507E+02  0.00000000000E+00 0.  1.
         11    1    3    3    0    0  0.52364328304E+00 -0.12141948843E+02 -0.17921526523E+01  0.12284662607E+02  0.51100000000E-03 0. -1.
        -11    1    3    3    0    0 -0.15383364355E+01 -0.14089200612E+01  0.22745051687E+00  0.20983967038E+01  0.51100000000E-03 0.  1.
        -12    1    3    3    0    0  0.65784994716E+01 -0.30662176115E+02 -0.50204426486E+01  0.31759259182E+02  0.00000000000E+00 0.  1.
</event>
<event>
 7    1  0.1549900E-008  0.4614231E+02  0.7816164E-02  0.1320468E+00
        -11   -1    0    0    0    0  0.00000000000E+00  0.00000000000E+00  0.45593999997E+02  0.45594000000E+02  0.51100000000E-03 0. -1.
         11   -1    0    0    0    0 -0.00000000000E+00 -0.00000000000E+00 -0.45593999997E+02  0.45594000000E+02  0.51100000000E-03 0.  1.
    9900012    2    1    2    0    0  0.20549411725E+02  0.34794861983E+02  0.19903594370E+02  0.46142314175E+02  0.99999672956E+01 0.  0.
        -12    1    1    2    0    0 -0.20549411725E+02 -0.34794861983E+02 -0.19903594370E+02  0.45045685825E+02  0.00000000000E+00 0.  1.
         11    1    3    3    0    0  0.55348754023E+01  0.10091111453E+02  0.78372863191E+01  0.13924382686E+02  0.51100000000E-03 0. -1.
        -11    1    3    3    0    0  0.14898632151E+02  0.24467668035E+02  0.10315411725E+02  0.30447392965E+02  0.51100000000E-03 0.  1.
        -12    1    3    3    0    0  0.11590417083E+00  0.23608249547E+00  0.17508963256E+01  0.17705385239E+01  0.00000000000E+00 0.  1.
</event>
<event>
 7    1  0.2240735E-008  0.4614232E+02  0.7816164E-02  0.1320468E+00
        -11   -1    0    0    0    0  0.00000000000E+00  0.00000000000E+00  0.45593999997E+02  0.45594000000E+02  0.51100000000E-03 0.  1.
         11   -1    0    0    0    0 -0.00000000000E+00 -0.00000000000E+00 -0.45593999997E+02  0.45594000000E+02  0.51100000000E-03 0. -1.
    9900012    2    1    2    0    0  0.38437741052E+02  0.15630286735E+02 -0.17531337189E+02  0.46142316697E+02  0.99999902967E+01 0.  0.
        -12    1    1    2    0    0 -0.38437741052E+02 -0.15630286735E+02  0.17531337189E+02  0.45045683303E+02  0.00000000000E+00 0.  1.
         11    1    3    3    0    0  0.15876112980E+02  0.84422370043E+01 -0.42974580212E+01  0.18487576226E+02  0.51100000000E-03 0. -1.
        -11    1    3    3    0    0  0.27194351867E+01  0.28595104027E+01 -0.26511235000E+01  0.47540071047E+01  0.51100000000E-03 0.  1.
         12    1    3    3    0    0  0.19842192886E+02  0.43285393276E+01 -0.10582755667E+02  0.22900733367E+02  0.00000000000E+00 0. -1.
</event>
<event>
 7    1  0.1549900E-008  0.4614232E+02  0.7816164E-02  0.1320468E+00
        -11   -1    0    0    0    0  0.00000000000E+00  0.00000000000E+00  0.45593999997E+02  0.45594000000E+02  0.51100000000E-03 0. -1.
         11   -1    0    0    0    0 -0.00000000000E+00 -0.00000000000E+00 -0.45593999997E+02  0.45594000000E+02  0.51100000000E-03 0.  1.
    9900012    2    1    2    0    0  0.43469757112E+02  0.96040594627E+01 -0.68742808173E+01  0.46142317873E+02  0.10000001016E+02 0.  0.
        -12    1    1    2    0    0 -0.43469757112E+02 -0.96040594627E+01  0.68742808173E+01  0.45045682127E+02  0.00000000000E+00 0.  1.
         11    1    3    3    0    0  0.13042110767E+02 -0.12412700696E+01 -0.55745363709E+00  0.13112900498E+02  0.51100000000E-03 0. -1.
        -11    1    3    3    0    0  0.24103991234E+02  0.79455400853E+01 -0.59211479604E+01  0.26061350581E+02  0.51100000000E-03 0.  1.
         12    1    3    3    0    0  0.63236551115E+01  0.28997894470E+01 -0.39567921977E+00  0.69680667944E+01  0.00000000000E+00 0. -1.
</event>
<event>
 7    1  0.1549900E-008  0.4614233E+02  0.7816164E-02  0.1320468E+00
        -11   -1    0    0    0    0  0.00000000000E+00  0.00000000000E+00  0.45593999997E+02  0.45594000000E+02  0.51100000000E-03 0.  1.
         11   -1    0    0    0    0 -0.00000000000E+00 -0.00000000000E+00 -0.45593999997E+02  0.45594000000E+02  0.51100000000E-03 0. -1.
    9900012    2    1    2    0    0  0.24685072634E+02 -0.34662617454E+02 -0.14773707485E+02  0.46142331034E+02  0.10000121032E+02 0.  0.
        -12    1    1    2    0    0 -0.24685072634E+02  0.34662617454E+02  0.14773707485E+02  0.45045668966E+02  0.00000000000E+00 0.  1.
         11    1    3    3    0    0  0.57459145536E+01 -0.96584251490E+01 -0.42113367558E+00  0.11246246674E+02  0.51100000000E-03 0. -1.
        -11    1    3    3    0    0  0.18904013556E+02 -0.23385821188E+02 -0.12899697086E+02  0.32720949655E+02  0.51100000000E-03 0.  1.
        -12    1    3    3    0    0  0.35144524234E-01 -0.16183711178E+01 -0.14528767229E+01  0.21751347049E+01  0.00000000000E+00 0.  1.
</event>
<event>
 7    1  0.1549900E-008  0.4614232E+02  0.7816164E-02  0.1320468E+00
        -11   -1    0    0    0    0  0.00000000000E+00  0.00000000000E+00  0.45593999997E+02  0.45594000000E+02  0.51100000000E-03 0. -1.
         11   -1    0    0    0    0 -0.00000000000E+00 -0.00000000000E+00 -0.45593999997E+02  0.45594000000E+02  0.51100000000E-03 0.  1.
    9900012    2    1    2    0    0 -0.24886360429E+02  0.14244366392E+02  0.34740186066E+02  0.46142318329E+02  0.10000005180E+02 0.  0.
        -12    1    1    2    0    0  0.24886360429E+02 -0.14244366392E+02 -0.34740186066E+02  0.45045681671E+02  0.00000000000E+00 0.  1.
         11    1    3    3    0    0 -0.15793413323E+02  0.12767646022E+02  0.26867996336E+02  0.33679874060E+02  0.51100000000E-03 0. -1.
        -11    1    3    3    0    0 -0.69097987597E+01 -0.18836530537E+00  0.57799169959E+01  0.90104517716E+01  0.51100000000E-03 0.  1.
         12    1    3    3    0    0 -0.21831483464E+01  0.16650856758E+01  0.20922727340E+01  0.34519924976E+01  0.00000000000E+00 0. -1.
</event>
<event>
 7    1  0.1549900E-008  0.4614232E+02  0.7816164E-02  0.1320468E+00
        -11   -1    0    0    0    0  0.00000000000E+00  0.00000000000E+00  0.45593999997E+02  0.45594000000E+02  0.51100000000E-03 0. -1.
         11   -1    0    0    0    0 -0.00000000000E+00 -0.00000000000E+00 -0.45593999997E+02  0.45594000000E+02  0.51100000000E-03 0.  1.
    9900012    2    1    2    0    0 -0.21154337224E+02  0.18060868249E+02  0.35431801002E+02  0.46142317992E+02  0.10000002110E+02 0.  0.
        -12    1    1    2    0    0  0.21154337224E+02 -0.18060868249E+02 -0.35431801002E+02  0.45045682008E+02  0.00000000000E+00 0.  1.
         11    1    3    3    0    0 -0.79428262244E+01  0.10401128227E+02  0.19138480233E+02  0.23185197491E+02  0.51100000000E-03 0. -1.
        -11    1    3    3    0    0 -0.44035202780E+01  0.46276013581E+01  0.40145084090E+01  0.75446645516E+01  0.51100000000E-03 0.  1.
         12    1    3    3    0    0 -0.88079907214E+01  0.30321386639E+01  0.12278812360E+02  0.15412455950E+02  0.00000000000E+00 0. -1.
</event>
<event>
 7    1  0.1549900E-008  0.4614232E+02  0.7816164E-02  0.1320468E+00
        -11   -1    0    0    0    0  0.00000000000E+00  0.00000000000E+00  0.45593999997E+02  0.45594000000E+02  0.51100000000E-03 0.  1.
         11   -1    0    0    0    0 -0.00000000000E+00 -0.00000000000E+00 -0.45593999997E+02  0.45594000000E+02  0.51100000000E-03 0. -1.
    9900012    2    1    2    0    0 -0.42383025048E+02  0.86361730821E+01 -0.12578120616E+02  0.46142318565E+02  0.10000007326E+02 0.  0.
        -12    1    1    2    0    0  0.42383025048E+02 -0.86361730821E+01  0.12578120616E+02  0.45045681435E+02  0.00000000000E+00 0.  1.
         11    1    3    3    0    0 -0.82632455058E+01  0.26125831784E+01 -0.11279637243E+00  0.86671529602E+01  0.51100000000E-03 0. -1.
        -11    1    3    3    0    0 -0.22875585603E+02  0.63722835690E+01 -0.10858452080E+02  0.26111384421E+02  0.51100000000E-03 0.  1.
         12    1    3    3    0    0 -0.11244193940E+02 -0.34869366524E+00 -0.16068721636E+01  0.11363781183E+02  0.00000000000E+00 0. -1.
</event>
<event>
 7    1  0.1549900E-008  0.4614232E+02  0.7816164E-02  0.1320468E+00
        -11   -1    0    0    0    0  0.00000000000E+00  0.00000000000E+00  0.45593999997E+02  0.45594000000E+02  0.51100000000E-03 0.  1.
         11   -1    0    0    0    0 -0.00000000000E+00 -0.00000000000E+00 -0.45593999997E+02  0.45594000000E+02  0.51100000000E-03 0. -1.
    9900012    2    1    2    0    0  0.30634866516E+02  0.39480580878E+01 -0.32787671410E+02  0.46142316460E+02  0.99999881336E+01 0.  0.
        -12    1    1    2    0    0 -0.30634866516E+02 -0.39480580878E+01  0.32787671410E+02  0.45045683540E+02  0.00000000000E+00 0.  1.
         11    1    3    3    0    0  0.54243883731E+01  0.22074978680E+01 -0.61035630221E+01  0.84587539204E+01  0.51100000000E-03 0. -1.
        -11    1    3    3    0    0  0.96602980209E+01  0.34840293609E+01 -0.65359503250E+01  0.12172857732E+02  0.51100000000E-03 0.  1.
        -12    1    3    3    0    0  0.15550180122E+02 -0.17434691410E+01 -0.20148158063E+02  0.25510704808E+02  0.00000000000E+00 0.  1.
</event>
<event>
 7    1  0.1549900E-008  0.4614232E+02  0.7816164E-02  0.1320468E+00
        -11   -1    0    0    0    0  0.00000000000E+00  0.00000000000E+00  0.45593999997E+02  0.45594000000E+02  0.51100000000E-03 0.  1.
         11   -1    0    0    0    0 -0.00000000000E+00 -0.00000000000E+00 -0.45593999997E+02  0.45594000000E+02  0.51100000000E-03 0. -1.
    9900012    2    1    2    0    0  0.12491338440E+02 -0.58791332245E+01 -0.42877916206E+02  0.46142318279E+02  0.10000004722E+02 0.  0.
        -12    1    1    2    0    0 -0.12491338440E+02  0.58791332245E+01  0.42877916206E+02  0.45045681721E+02  0.00000000000E+00 0.  1.
         11    1    3    3    0    0  0.51181672473E+01  0.68731479592E+00 -0.16693693877E+02  0.17474193919E+02  0.51100000000E-03 0. -1.
        -11    1    3    3    0    0  0.16673792220E+01 -0.18024792020E+01 -0.14734354106E+01  0.28635811345E+01  0.51100000000E-03 0.  1.
         12    1    3    3    0    0  0.57057919712E+01 -0.47639688185E+01 -0.24710786919E+02  0.25804543225E+02  0.00000000000E+00 0. -1.
</event>
<event>
 7    1  0.1549900E-008  0.4614232E+02  0.7816164E-02  0.1320468E+00
        -11   -1    0    0    0    0  0.00000000000E+00  0.00000000000E+00  0.45593999997E+02  0.45594000000E+02  0.51100000000E-03 0.  1.
         11   -1    0    0    0    0 -0.00000000000E+00 -0.00000000000E+00 -0.45593999997E+02  0.45594000000E+02  0.51100000000E-03 0. -1.
    9900012    2    1    2    0    0 -0.41003515663E+02  0.59890142450E+01 -0.17662300523E+02  0.46142318207E+02  0.10000004069E+02 0.  0.
        -12    1    1    2    0    0  0.41003515663E+02 -0.59890142450E+01  0.17662300523E+02  0.45045681793E+02  0.00000000000E+00 0.  1.
         11    1    3    3    0    0 -0.23069213175E+02  0.54167945994E+01 -0.77788489701E+01  0.24940744813E+02  0.51100000000E-03 0. -1.
        -11    1    3    3    0    0 -0.15162177585E+02 -0.89140805886E+00 -0.97806810338E+01  0.18065103354E+02  0.51100000000E-03 0.  1.
        -12    1    3    3    0    0 -0.27721249029E+01  0.14636277044E+01 -0.10277051958E+00  0.31364700404E+01  0.00000000000E+00 0.  1.
</event>
<event>
 7    1  0.1549900E-008  0.4614232E+02  0.7816164E-02  0.1320468E+00
        -11   -1    0    0    0    0  0.00000000000E+00  0.00000000000E+00  0.45593999997E+02  0.45594000000E+02  0.51100000000E-03 0.  1.
         11   -1    0    0    0    0 -0.00000000000E+00 -0.00000000000E+00 -0.45593999997E+02  0.45594000000E+02  0.51100000000E-03 0. -1.
    9900012    2    1    2    0    0  0.17622806197E+02  0.38072855788E+02 -0.16401458885E+02  0.46142317636E+02  0.99999988548E+01 0.  0.
        -12    1    1    2    0    0 -0.17622806197E+02 -0.38072855788E+02  0.16401458885E+02  0.45045682364E+02  0.00000000000E+00 0.  1.
         11    1    3    3    0    0  0.12647861621E+02  0.17009019173E+02 -0.55999882053E+01  0.21923389450E+02  0.51100000000E-03 0.  1.
        -11    1    3    3    0    0  0.42164404926E+01  0.16695623096E+02 -0.81284732918E+01  0.19041908500E+02  0.51100000000E-03 0. -1.
        -12    1    3    3    0    0  0.75850408330E+00  0.43682135192E+01 -0.26729973878E+01  0.51770196860E+01  0.00000000000E+00 0.  1.
</event>
<event>
 7    1  0.1549900E-008  0.4614232E+02  0.7816164E-02  0.1320468E+00
        -11   -1    0    0    0    0  0.00000000000E+00  0.00000000000E+00  0.45593999997E+02  0.45594000000E+02  0.51100000000E-03 0. -1.
         11   -1    0    0    0    0 -0.00000000000E+00 -0.00000000000E+00 -0.45593999997E+02  0.45594000000E+02  0.51100000000E-03 0.  1.
    9900012    2    1    2    0    0 -0.43129434048E+02  0.92978439225E+01 -0.90838009189E+01  0.46142318498E+02  0.10000006715E+02 0.  0.
        -12    1    1    2    0    0  0.43129434048E+02 -0.92978439225E+01  0.90838009189E+01  0.45045681502E+02  0.00000000000E+00 0.  1.
         11    1    3    3    0    0 -0.13071439240E+02  0.32944207067E+01 -0.32611271010E+01  0.13869054829E+02  0.51100000000E-03 0. -1.
        -11    1    3    3    0    0 -0.10322587923E+02  0.29676264364E+01  0.18185891799E+01  0.10893571268E+02  0.51100000000E-03 0.  1.
        -12    1    3    3    0    0 -0.19735406884E+02  0.30357967794E+01 -0.76412629978E+01  0.21379692401E+02  0.00000000000E+00 0.  1.
</event>
<event>
 7    1  0.1549900E-008  0.4614232E+02  0.7816164E-02  0.1320468E+00
        -11   -1    0    0    0    0  0.00000000000E+00  0.00000000000E+00  0.45593999997E+02  0.45594000000E+02  0.51100000000E-03 0. -1.
         11   -1    0    0    0    0 -0.00000000000E+00 -0.00000000000E+00 -0.45593999997E+02  0.45594000000E+02  0.51100000000E-03 0.  1.
    9900012    2    1    2    0    0  0.10052001278E+02 -0.43123849591E+02  0.82706961591E+01  0.46142317097E+02  0.99999939457E+01 0.  0.
        -12    1    1    2    0    0 -0.10052001278E+02  0.43123849591E+02 -0.82706961591E+01  0.45045682903E+02  0.00000000000E+00 0.  1.
         11    1    3    3    0    0  0.56649942062E+01 -0.18250601419E+02  0.73098930502E+01  0.20459988958E+02  0.51100000000E-03 0. -1.
        -11    1    3    3    0    0  0.12699920865E+01 -0.31084967567E+01  0.15256460598E+01  0.36882554341E+01  0.51100000000E-03 0.  1.
         12    1    3    3    0    0  0.31170149857E+01 -0.21764751415E+02 -0.56484295088E+00  0.21994072705E+02  0.00000000000E+00 0. -1.
</event>
<event>
 7    1  0.1549900E-008  0.4614232E+02  0.7816164E-02  0.1320468E+00
        -11   -1    0    0    0    0  0.00000000000E+00  0.00000000000E+00  0.45593999997E+02  0.45594000000E+02  0.51100000000E-03 0.  1.
         11   -1    0    0    0    0 -0.00000000000E+00 -0.00000000000E+00 -0.45593999997E+02  0.45594000000E+02  0.51100000000E-03 0. -1.
    9900012    2    1    2    0    0  0.44147455097E+02  0.25169874443E+01 -0.85895197840E+01  0.46142324653E+02  0.10000062846E+02 0.  0.
        -12    1    1    2    0    0 -0.44147455097E+02 -0.25169874443E+01  0.85895197840E+01  0.45045675347E+02  0.00000000000E+00 0.  1.
         11    1    3    3    0    0  0.13059489685E+02 -0.14489780620E+00 -0.25057070828E+01  0.13298489932E+02  0.51100000000E-03 0. -1.
        -11    1    3    3    0    0  0.22266763827E+02 -0.72705274904E+00 -0.14679008574E+01  0.22326936875E+02  0.51100000000E-03 0.  1.
        -12    1    3    3    0    0  0.88212015847E+01  0.33889379996E+01 -0.46159118438E+01  0.10516897846E+02  0.00000000000E+00 0.  1.
</event>
<event>
 7    1  0.1549900E-008  0.4614232E+02  0.7816164E-02  0.1320468E+00
        -11   -1    0    0    0    0  0.00000000000E+00  0.00000000000E+00  0.45593999997E+02  0.45594000000E+02  0.51100000000E-03 0.  1.
         11   -1    0    0    0    0 -0.00000000000E+00 -0.00000000000E+00 -0.45593999997E+02  0.45594000000E+02  0.51100000000E-03 0. -1.
    9900012    2    1    2    0    0  0.15668650491E+02  0.24172999228E+02 -0.34630521979E+02  0.46142317051E+02  0.99999935210E+01 0.  0.
        -12    1    1    2    0    0 -0.15668650491E+02 -0.24172999228E+02  0.34630521979E+02  0.45045682949E+02  0.00000000000E+00 0.  1.
         11    1    3    3    0    0  0.14572719166E+02  0.21089140195E+02 -0.25276516418E+02  0.36000253618E+02  0.51100000000E-03 0. -1.
        -11    1    3    3    0    0 -0.47282751479E+00  0.86560479506E+00 -0.12349951392E+01  0.15805223108E+01  0.51100000000E-03 0.  1.
         12    1    3    3    0    0  0.15687588389E+01  0.22182542378E+01 -0.81190104212E+01  0.85615411217E+01  0.00000000000E+00 0. -1.
</event>
<event>
 7    1  0.1549900E-008  0.4614232E+02  0.7816164E-02  0.1320468E+00
        -11   -1    0    0    0    0  0.00000000000E+00  0.00000000000E+00  0.45593999997E+02  0.45594000000E+02  0.51100000000E-03 0. -1.
         11   -1    0    0    0    0 -0.00000000000E+00 -0.00000000000E+00 -0.45593999997E+02  0.45594000000E+02  0.51100000000E-03 0.  1.
    9900012    2    1    2    0    0 -0.66720843511E+01  0.32136521053E+02  0.30851917789E+02  0.46142317341E+02  0.99999961678E+01 0.  0.
        -12    1    1    2    0    0  0.66720843511E+01 -0.32136521053E+02 -0.30851917789E+02  0.45045682659E+02  0.00000000000E+00 0.  1.
         11    1    3    3    0    0 -0.50058309897E+01  0.13877458803E+02  0.10910610251E+02  0.18348940652E+02  0.51100000000E-03 0. -1.
        -11    1    3    3    0    0 -0.22191493813E+01  0.15899500313E+02  0.19616719125E+02  0.25348262341E+02  0.51100000000E-03 0.  1.
        -12    1    3    3    0    0  0.55289601985E+00  0.23595619361E+01  0.32458841309E+00  0.24451143485E+01  0.00000000000E+00 0.  1.
</event>
<event>
 7    1  0.1549900E-008  0.4614232E+02  0.7816164E-02  0.1320468E+00
        -11   -1    0    0    0    0  0.00000000000E+00  0.00000000000E+00  0.45593999997E+02  0.45594000000E+02  0.51100000000E-03 0.  1.
         11   -1    0    0    0    0 -0.00000000000E+00 -0.00000000000E+00 -0.45593999997E+02  0.45594000000E+02  0.51100000000E-03 0. -1.
    9900012    2    1    2    0    0  0.84253008754E+01  0.12942127471E+02 -0.42315825259E+02  0.46142318457E+02  0.10000006348E+02 0.  0.
        -12    1    1    2    0    0 -0.84253008754E+01 -0.12942127471E+02  0.42315825259E+02  0.45045681543E+02  0.00000000000E+00 0.  1.
         11    1    3    3    0    0  0.72578178578E+01  0.38805135593E+01 -0.21042747274E+02  0.22594944537E+02  0.51100000000E-03 0. -1.
        -11    1    3    3    0    0 -0.14740549667E+01  0.24976044382E+01 -0.46386324683E+01  0.54706286121E+01  0.51100000000E-03 0.  1.
        -12    1    3    3    0    0  0.26415379843E+01  0.65640094733E+01 -0.16634445517E+02  0.18076745308E+02  0.00000000000E+00 0.  1.
</event>
<event>
 7    1  0.2458407E-008  0.4614232E+02  0.7816164E-02  0.1320468E+00
        -11   -1    0    0    0    0  0.00000000000E+00  0.00000000000E+00  0.45593999997E+02  0.45594000000E+02  0.51100000000E-03 0. -1.
         11   -1    0    0    0    0 -0.00000000000E+00 -0.00000000000E+00 -0.45593999997E+02  0.45594000000E+02  0.51100000000E-03 0.  1.
    9900012    2    1    2    0    0  0.19634295508E+02 -0.39783776357E+02  0.78012169773E+01  0.46142318657E+02  0.10000008171E+02 0.  0.
        -12    1    1    2    0    0 -0.19634295508E+02  0.39783776357E+02 -0.78012169773E+01  0.45045681343E+02  0.00000000000E+00 0.  1.
         11    1    3    3    0    0  0.15196246909E+02 -0.23299224892E+02  0.19553719999E+01  0.27885538916E+02  0.51100000000E-03 0. -1.
        -11    1    3    3    0    0 -0.96162330127E-01 -0.38794471687E+01  0.95847755326E+00  0.39972536834E+01  0.51100000000E-03 0.  1.
         12    1    3    3    0    0  0.45342109289E+01 -0.12605104296E+02  0.48873674242E+01  0.14259526058E+02  0.00000000000E+00 0. -1.
</event>
<event>
 7    1  0.2235704E-008  0.4614232E+02  0.7816164E-02  0.1320468E+00
        -11   -1    0    0    0    0  0.00000000000E+00  0.00000000000E+00  0.45593999997E+02  0.45594000000E+02  0.51100000000E-03 0. -1.
         11   -1    0    0    0    0 -0.00000000000E+00 -0.00000000000E+00 -0.45593999997E+02  0.45594000000E+02  0.51100000000E-03 0.  1.
    9900012    2    1    2    0    0  0.15791583708E+02 -0.41313089993E+02  0.85421265999E+01  0.46142318213E+02  0.10000004125E+02 0.  0.
        -12    1    1    2    0    0 -0.15791583708E+02  0.41313089993E+02 -0.85421265999E+01  0.45045681787E+02  0.00000000000E+00 0.  1.
         11    1    3    3    0    0  0.10183112604E+02 -0.16045302238E+02  0.50917561241E+01  0.19674183258E+02  0.51100000000E-03 0. -1.
        -11    1    3    3    0    0 -0.29068118207E+00 -0.72616909110E+01  0.42105226638E+00  0.72796933801E+01  0.51100000000E-03 0.  1.
         12    1    3    3    0    0  0.58991522862E+01 -0.18006096844E+02  0.30293182094E+01  0.19188441575E+02  0.00000000000E+00 0. -1.
</event>
<event>
 7    1  0.1549900E-008  0.4614232E+02  0.7816164E-02  0.1320468E+00
        -11   -1    0    0    0    0  0.00000000000E+00  0.00000000000E+00  0.45593999997E+02  0.45594000000E+02  0.51100000000E-03 0. -1.
         11   -1    0    0    0    0 -0.00000000000E+00 -0.00000000000E+00 -0.45593999997E+02  0.45594000000E+02  0.51100000000E-03 0.  1.
    9900012    2    1    2    0    0  0.50236653129E+01  0.12480277071E+02  0.42989753991E+02  0.46142317885E+02  0.10000001132E+02 0.  0.
        -12    1    1    2    0    0 -0.50236653129E+01 -0.12480277071E+02 -0.42989753991E+02  0.45045682115E+02  0.00000000000E+00 0.  1.
         11    1    3    3    0    0  0.30402100354E+01  0.11502067680E+01  0.43646958643E+01  0.54420972904E+01  0.51100000000E-03 0. -1.
        -11    1    3    3    0    0  0.12344119518E+01  0.10514335318E+02  0.37959593440E+02  0.39408194001E+02  0.51100000000E-03 0.  1.
        -12    1    3    3    0    0  0.74904332563E+00  0.81573498517E+00  0.66546468749E+00  0.12920265942E+01  0.00000000000E+00 0.  1.
</event>
<event>
 7    1  0.1549900E-008  0.4614232E+02  0.7816164E-02  0.1320468E+00
        -11   -1    0    0    0    0  0.00000000000E+00  0.00000000000E+00  0.45593999997E+02  0.45594000000E+02  0.51100000000E-03 0. -1.
         11   -1    0    0    0    0 -0.00000000000E+00 -0.00000000000E+00 -0.45593999997E+02  0.45594000000E+02  0.51100000000E-03 0.  1.
    9900012    2    1    2    0    0  0.22354922967E+02 -0.20307313031E+02  0.33421310138E+02  0.46142317468E+02  0.99999973295E+01 0.  0.
        -12    1    1    2    0    0 -0.22354922967E+02  0.20307313031E+02 -0.33421310138E+02  0.45045682532E+02  0.00000000000E+00 0.  1.
         11    1    3    3    0    0  0.70299285857E+01 -0.78992703528E+01  0.15030654009E+02  0.18377674723E+02  0.51100000000E-03 0. -1.
        -11    1    3    3    0    0  0.71241424963E+01 -0.96987157701E+01  0.91613211814E+01  0.15124427260E+02  0.51100000000E-03 0.  1.
        -12    1    3    3    0    0  0.82008518852E+01 -0.27093269086E+01  0.92293349479E+01  0.12640215486E+02  0.00000000000E+00 0.  1.
</event>
<event>
 7    1  0.1549900E-008  0.4614232E+02  0.7816164E-02  0.1320468E+00
        -11   -1    0    0    0    0  0.00000000000E+00  0.00000000000E+00  0.45593999997E+02  0.45594000000E+02  0.51100000000E-03 0. -1.
         11   -1    0    0    0    0 -0.00000000000E+00 -0.00000000000E+00 -0.45593999997E+02  0.45594000000E+02  0.51100000000E-03 0.  1.
    9900012    2    1    2    0    0  0.28583730789E+02 -0.29052589261E+02  0.19184122958E+02  0.46142321159E+02  0.10000030988E+02 0.  0.
        -12    1    1    2    0    0 -0.28583730789E+02  0.29052589261E+02 -0.19184122958E+02  0.45045678841E+02  0.00000000000E+00 0.  1.
         11    1    3    3    0    0  0.32156706064E+01 -0.74698878423E+01  0.20870354056E+01  0.83961585783E+01  0.51100000000E-03 0. -1.
        -11    1    3    3    0    0  0.15853573889E+02 -0.14075526382E+02  0.13379589007E+02  0.25069296963E+02  0.51100000000E-03 0.  1.
         12    1    3    3    0    0  0.95144862938E+01 -0.75071750357E+01  0.37174985455E+01  0.12676865618E+02  0.00000000000E+00 0. -1.
</event>
<event>
 7    1  0.1549900E-008  0.4614232E+02  0.7816164E-02  0.1320468E+00
        -11   -1    0    0    0    0  0.00000000000E+00  0.00000000000E+00  0.45593999997E+02  0.45594000000E+02  0.51100000000E-03 0.  1.
         11   -1    0    0    0    0 -0.00000000000E+00 -0.00000000000E+00 -0.45593999997E+02  0.45594000000E+02  0.51100000000E-03 0. -1.
    9900012    2    1    2    0    0  0.53435466651E+01 -0.52483191329E+01 -0.44418633544E+02  0.46142319290E+02  0.10000013946E+02 0.  0.
        -12    1    1    2    0    0 -0.53435466651E+01  0.52483191329E+01  0.44418633544E+02  0.45045680710E+02  0.00000000000E+00 0.  1.
         11    1    3    3    0    0  0.40012271071E+01  0.17424627088E+00 -0.17974871508E+02  0.18415650575E+02  0.51100000000E-03 0. -1.
        -11    1    3    3    0    0  0.31325150390E+01 -0.23646716447E+01 -0.76102167374E+01  0.85626935895E+01  0.51100000000E-03 0.  1.
         12    1    3    3    0    0 -0.17901954810E+01 -0.30578937591E+01 -0.18833545298E+02  0.19163975126E+02  0.00000000000E+00 0. -1.
</event>
<event>
 7    1  0.1549900E-008  0.4614232E+02  0.7816164E-02  0.1320468E+00
        -11   -1    0    0    0    0  0.00000000000E+00  0.00000000000E+00  0.45593999997E+02  0.45594000000E+02  0.51100000000E-03 0.  1.
         11   -1    0    0    0    0 -0.00000000000E+00 -0.00000000000E+00 -0.45593999997E+02  0.45594000000E+02  0.51100000000E-03 0. -1.
    9900012    2    1    2    0    0  0.36954694334E+02 -0.60841665461E+01 -0.25028923581E+02  0.46142317283E+02  0.99999956371E+01 0.  0.
        -12    1    1    2    0    0 -0.36954694334E+02  0.60841665461E+01  0.25028923581E+02  0.45045682717E+02  0.00000000000E+00 0.  1.
         11    1    3    3    0    0  0.13927020517E+02 -0.32954218165E+01 -0.56269422662E+01  0.15378042300E+02  0.51100000000E-03 0. -1.
        -11    1    3    3    0    0  0.14723477532E+02 -0.78109783922E+00 -0.15432566880E+02  0.21343735034E+02  0.51100000000E-03 0.  1.
        -12    1    3    3    0    0  0.83041962843E+01 -0.20076468904E+01 -0.39694144352E+01  0.94205399486E+01  0.00000000000E+00 0.  1.
</event>
<event>
 7    1  0.1549900E-008  0.4614232E+02  0.7816164E-02  0.1320468E+00
        -11   -1    0    0    0    0  0.00000000000E+00  0.00000000000E+00  0.45593999997E+02  0.45594000000E+02  0.51100000000E-03 0. -1.
         11   -1    0    0    0    0 -0.00000000000E+00 -0.00000000000E+00 -0.45593999997E+02  0.45594000000E+02  0.51100000000E-03 0.  1.
    9900012    2    1    2    0    0 -0.43186244925E+02  0.12119282411E+02 -0.41454535908E+01  0.46142317162E+02  0.99999945376E+01 0.  0.
        -12    1    1    2    0    0  0.43186244925E+02 -0.12119282411E+02  0.41454535908E+01  0.45045682838E+02  0.00000000000E+00 0.  1.
         11    1    3    3    0    0 -0.66964363123E+01  0.43919015093E+01 -0.14269152611E+01  0.81343189989E+01  0.51100000000E-03 0.  1.
        -11    1    3    3    0    0 -0.32350428423E+02  0.60012006726E+01 -0.28107657511E+00  0.32903550461E+02  0.51100000000E-03 0. -1.
         12    1    3    3    0    0 -0.41393801900E+01  0.17261802286E+01 -0.24374617546E+01  0.51044477021E+01  0.00000000000E+00 0. -1.
</event>
<event>
 7    1  0.1549900E-008  0.4614232E+02  0.7816164E-02  0.1320468E+00
        -11   -1    0    0    0    0  0.00000000000E+00  0.00000000000E+00  0.45593999997E+02  0.45594000000E+02  0.51100000000E-03 0. -1.
         11   -1    0    0    0    0 -0.00000000000E+00 -0.00000000000E+00 -0.45593999997E+02  0.45594000000E+02  0.51100000000E-03 0.  1.
    9900012    2    1    2    0    0  0.41076090657E+02 -0.46547582402E+01  0.17894179956E+02  0.46142315698E+02  0.99999811871E+01 0.  0.
        -12    1    1    2    0    0 -0.41076090657E+02  0.46547582402E+01 -0.17894179956E+02  0.45045684302E+02  0.00000000000E+00 0.  1.
         11    1    3    3    0    0  0.15781560097E+02 -0.35371970643E+01  0.81171849085E+01  0.18095803195E+02  0.51100000000E-03 0. -1.
        -11    1    3    3    0    0  0.15525017459E+02  0.26398296515E+01  0.48503860284E+01  0.16477897699E+02  0.51100000000E-03 0.  1.
        -12    1    3    3    0    0  0.97695131000E+01 -0.37573908274E+01  0.49266090194E+01  0.11568614804E+02  0.00000000000E+00 0.  1.
</event>
<event>
 7    1  0.1549900E-008  0.4614232E+02  0.7816164E-02  0.1320468E+00
        -11   -1    0    0    0    0  0.00000000000E+00  0.00000000000E+00  0.45593999997E+02  0.45594000000E+02  0.51100000000E-03 0.  1.
         11   -1    0    0    0    0 -0.00000000000E+00 -0.00000000000E+00 -0.45593999997E+02  0.45594000000E+02  0.51100000000E-03 0. -1.
    9900012    2    1    2    0    0  0.29650563300E+02  0.23274123662E+02 -0.24663182944E+02  0.46142319528E+02  0.10000016113E+02 0.  0.
        -12    1    1    2    0    0 -0.29650563300E+02 -0.23274123662E+02  0.24663182944E+02  0.45045680472E+02  0.00000000000E+00 0.  1.
         11    1    3    3    0    0  0.92633352326E+01  0.98316792655E+01 -0.53723140700E+01  0.14537298770E+02  0.51100000000E-03 0. -1.
        -11    1    3    3    0    0  0.23694757718E+01  0.10720159535E+01 -0.23977749030E+00  0.26117287653E+01  0.51100000000E-03 0.  1.
         12    1    3    3    0    0  0.18017752296E+02  0.12370428443E+02 -0.19051091383E+02  0.28993291992E+02  0.00000000000E+00 0. -1.
</event>
<event>
 7    1  0.1549900E-008  0.4614232E+02  0.7816164E-02  0.1320468E+00
        -11   -1    0    0    0    0  0.00000000000E+00  0.00000000000E+00  0.45593999997E+02  0.45594000000E+02  0.51100000000E-03 0.  1.
         11   -1    0    0    0    0 -0.00000000000E+00 -0.00000000000E+00 -0.45593999997E+02  0.45594000000E+02  0.51100000000E-03 0. -1.
    9900012    2    1    2    0    0 -0.10869060940E+02 -0.20269681403E+02 -0.38731345845E+02  0.46142316290E+02  0.99999865874E+01 0.  0.
        -12    1    1    2    0    0  0.10869060940E+02  0.20269681403E+02  0.38731345845E+02  0.45045683710E+02  0.00000000000E+00 0.  1.
         11    1    3    3    0    0 -0.22760538499E+01 -0.27471926719E+01 -0.11961788403E+02  0.12482462528E+02  0.51100000000E-03 0. -1.
        -11    1    3    3    0    0 -0.92518354625E+00 -0.20046438829E+01 -0.60688217325E+00  0.22897309722E+01  0.51100000000E-03 0.  1.
         12    1    3    3    0    0 -0.76678235434E+01 -0.15517844848E+02 -0.26162675269E+02  0.31370122790E+02  0.00000000000E+00 0. -1.
</event>
<event>
 7    1  0.1549900E-008  0.4614232E+02  0.7816164E-02  0.1320468E+00
        -11   -1    0    0    0    0  0.00000000000E+00  0.00000000000E+00  0.45593999997E+02  0.45594000000E+02  0.51100000000E-03 0. -1.
         11   -1    0    0    0    0 -0.00000000000E+00 -0.00000000000E+00 -0.45593999997E+02  0.45594000000E+02  0.51100000000E-03 0.  1.
    9900012    2    1    2    0    0 -0.16150616014E+02  0.41864472954E+02 -0.39543613092E+01  0.46142318001E+02  0.10000002188E+02 0.  0.
        -12    1    1    2    0    0  0.16150616014E+02 -0.41864472954E+02  0.39543613092E+01  0.45045681999E+02  0.00000000000E+00 0.  1.
         11    1    3    3    0    0 -0.67380492921E+01  0.25890252984E+02  0.70008581094E+00  0.26761850239E+02  0.51100000000E-03 0. -1.
        -11    1    3    3    0    0 -0.33984456582E+01  0.57781836541E+01 -0.32812844258E+01  0.74634889279E+01  0.51100000000E-03 0.  1.
         12    1    3    3    0    0 -0.60141210642E+01  0.10196036316E+02 -0.13731626943E+01  0.11916978834E+02  0.00000000000E+00 0. -1.
</event>
<event>
 7    1  0.1549900E-008  0.4614232E+02  0.7816164E-02  0.1320468E+00
        -11   -1    0    0    0    0  0.00000000000E+00  0.00000000000E+00  0.45593999997E+02  0.45594000000E+02  0.51100000000E-03 0. -1.
         11   -1    0    0    0    0 -0.00000000000E+00 -0.00000000000E+00 -0.45593999997E+02  0.45594000000E+02  0.51100000000E-03 0.  1.
    9900012    2    1    2    0    0 -0.17572906150E+02  0.14688661742E+02  0.38788523856E+02  0.46142318773E+02  0.10000009223E+02 0.  0.
        -12    1    1    2    0    0  0.17572906150E+02 -0.14688661742E+02 -0.38788523856E+02  0.45045681227E+02  0.00000000000E+00 0.  1.
         11    1    3    3    0    0 -0.76059330900E+01  0.63017757409E+01  0.16776750471E+02  0.19468486133E+02  0.51100000000E-03 0. -1.
        -11    1    3    3    0    0 -0.65503104082E+01  0.62255071101E+00  0.98814164936E+01  0.11871669133E+02  0.51100000000E-03 0.  1.
        -12    1    3    3    0    0 -0.34166626516E+01  0.77643352898E+01  0.12130356891E+02  0.14802163507E+02  0.00000000000E+00 0.  1.
</event>
<event>
 7    1  0.1549900E-008  0.4614231E+02  0.7816164E-02  0.1320468E+00
        -11   -1    0    0    0    0  0.00000000000E+00  0.00000000000E+00  0.45593999997E+02  0.45594000000E+02  0.51100000000E-03 0. -1.
         11   -1    0    0    0    0 -0.00000000000E+00 -0.00000000000E+00 -0.45593999997E+02  0.45594000000E+02  0.51100000000E-03 0.  1.
    9900012    2    1    2    0    0 -0.31238113668E+02 -0.11396041086E+02  0.30387896780E+02  0.46142314650E+02  0.99999716266E+01 0.  0.
        -12    1    1    2    0    0  0.31238113668E+02  0.11396041086E+02 -0.30387896780E+02  0.45045685350E+02  0.00000000000E+00 0.  1.
         11    1    3    3    0    0  0.12053465148E+00  0.73789312214E+00  0.14588097681E+01  0.16392501525E+01  0.51100000000E-03 0.  1.
        -11    1    3    3    0    0 -0.15044312214E+02 -0.40827071172E+01  0.14379528223E+02  0.21207797141E+02  0.51100000000E-03 0. -1.
        -12    1    3    3    0    0 -0.16314336106E+02 -0.80512270912E+01  0.14549558789E+02  0.23295267356E+02  0.00000000000E+00 0.  1.
</event>
<event>
 7    1  0.2659270E-008  0.4614232E+02  0.7816164E-02  0.1320468E+00
        -11   -1    0    0    0    0  0.00000000000E+00  0.00000000000E+00  0.45593999997E+02  0.45594000000E+02  0.51100000000E-03 0. -1.
         11   -1    0    0    0    0 -0.00000000000E+00 -0.00000000000E+00 -0.45593999997E+02  0.45594000000E+02  0.51100000000E-03 0.  1.
    9900012    2    1    2    0    0 -0.21266796914E+02  0.37876614464E+02 -0.11924719990E+02  0.46142317398E+02  0.99999966894E+01 0.  0.
        -12    1    1    2    0    0  0.21266796914E+02 -0.37876614464E+02  0.11924719990E+02  0.45045682602E+02  0.00000000000E+00 0.  1.
         11    1    3    3    0    0 -0.22003312807E+02  0.35902245158E+02 -0.10291657899E+02  0.43347839674E+02  0.51100000000E-03 0. -1.
        -11    1    3    3    0    0  0.18428380733E+00  0.14681221964E+01 -0.13188204763E+01  0.19820774493E+01  0.51100000000E-03 0.  1.
         12    1    3    3    0    0  0.55223208618E+00  0.50624711021E+00 -0.31424161540E+00  0.81240027477E+00  0.00000000000E+00 0. -1.
</event>
<event>
 7    1  0.1549900E-008  0.4614232E+02  0.7816164E-02  0.1320468E+00
        -11   -1    0    0    0    0  0.00000000000E+00  0.00000000000E+00  0.45593999997E+02  0.45594000000E+02  0.51100000000E-03 0.  1.
         11   -1    0    0    0    0 -0.00000000000E+00 -0.00000000000E+00 -0.45593999997E+02  0.45594000000E+02  0.51100000000E-03 0. -1.
    9900012    2    1    2    0    0 -0.65299032791E+01 -0.15171275548E+01 -0.44544047378E+02  0.46142317969E+02  0.10000001896E+02 0.  0.
        -12    1    1    2    0    0  0.65299032791E+01  0.15171275548E+01  0.44544047378E+02  0.45045682031E+02  0.00000000000E+00 0.  1.
         11    1    3    3    0    0 -0.14242965721E+01 -0.17283823233E+01 -0.20700675381E+02  0.20821476597E+02  0.51100000000E-03 0. -1.
        -11    1    3    3    0    0 -0.29117315175E+01  0.32862569293E+01 -0.91382519026E+01  0.10138309185E+02  0.51100000000E-03 0.  1.
        -12    1    3    3    0    0 -0.21938751896E+01 -0.30750021608E+01 -0.14705120094E+02  0.15182532187E+02  0.00000000000E+00 0.  1.
</event>
<event>
 7    1  0.1549900E-008  0.4614232E+02  0.7816164E-02  0.1320468E+00
        -11   -1    0    0    0    0  0.00000000000E+00  0.00000000000E+00  0.45593999997E+02  0.45594000000E+02  0.51100000000E-03 0.  1.
         11   -1    0    0    0    0 -0.00000000000E+00 -0.00000000000E+00 -0.45593999997E+02  0.45594000000E+02  0.51100000000E-03 0. -1.
    9900012    2    1    2    0    0  0.13043005448E+02  0.38532511110E+02 -0.19345254180E+02  0.46142320264E+02  0.10000022824E+02 0.  0.
        -12    1    1    2    0    0 -0.13043005448E+02 -0.38532511110E+02  0.19345254180E+02  0.45045679736E+02  0.00000000000E+00 0.  1.
         11    1    3    3    0    0  0.50543293378E+00  0.12417732733E+02 -0.31173643642E+01  0.12813021093E+02  0.51100000000E-03 0. -1.
        -11    1    3    3    0    0  0.56140820852E+01  0.11340786675E+02 -0.87276090124E+01  0.15372134510E+02  0.51100000000E-03 0.  1.
         12    1    3    3    0    0  0.69234904286E+01  0.14773991702E+02 -0.75002808038E+01  0.17957164661E+02  0.00000000000E+00 0. -1.
</event>
<event>
 7    1  0.1549900E-008  0.4614232E+02  0.7816164E-02  0.1320468E+00
        -11   -1    0    0    0    0  0.00000000000E+00  0.00000000000E+00  0.45593999997E+02  0.45594000000E+02  0.51100000000E-03 0.  1.
         11   -1    0    0    0    0 -0.00000000000E+00 -0.00000000000E+00 -0.45593999997E+02  0.45594000000E+02  0.51100000000E-03 0. -1.
    9900012    2    1    2    0    0 -0.20709877110E+01 -0.11767208628E+02 -0.43432214712E+02  0.46142318034E+02  0.10000002487E+02 0.  0.
        -12    1    1    2    0    0  0.20709877110E+01  0.11767208628E+02  0.43432214712E+02  0.45045681966E+02  0.00000000000E+00 0.  1.
         11    1    3    3    0    0  0.33505276599E+01 -0.37058213169E+01 -0.94890709963E+01  0.10723880635E+02  0.51100000000E-03 0. -1.
        -11    1    3    3    0    0 -0.22764217609E+01 -0.16046878485E+01 -0.12427359323E+02  0.12735634225E+02  0.51100000000E-03 0.  1.
         12    1    3    3    0    0 -0.31450936101E+01 -0.64566994624E+01 -0.21515784393E+02  0.22682803174E+02  0.00000000000E+00 0. -1.
</event>
<event>
 7    1  0.1549900E-008  0.4614232E+02  0.7816164E-02  0.1320468E+00
        -11   -1    0    0    0    0  0.00000000000E+00  0.00000000000E+00  0.45593999997E+02  0.45594000000E+02  0.51100000000E-03 0. -1.
         11   -1    0    0    0    0 -0.00000000000E+00 -0.00000000000E+00 -0.45593999997E+02  0.45594000000E+02  0.51100000000E-03 0.  1.
    9900012    2    1    2    0    0  0.10030695844E+02 -0.43145174242E+02  0.81849016557E+01  0.46142317248E+02  0.99999953176E+01 0.  0.
        -12    1    1    2    0    0 -0.10030695844E+02  0.43145174242E+02 -0.81849016557E+01  0.45045682752E+02  0.00000000000E+00 0.  1.
         11    1    3    3    0    0  0.66455915723E+01 -0.36907937396E+02  0.40481377472E+01  0.37719320641E+02  0.51100000000E-03 0.  1.
        -11    1    3    3    0    0  0.33893031561E+01 -0.51653513680E+01  0.39556811862E+01  0.73359147041E+01  0.51100000000E-03 0. -1.
        -12    1    3    3    0    0 -0.41988845502E-02 -0.10718854786E+01  0.18108272238E+00  0.10870819022E+01  0.00000000000E+00 0.  1.
</event>
<event>
 7    1  0.1549900E-008  0.4614232E+02  0.7816164E-02  0.1320468E+00
        -11   -1    0    0    0    0  0.00000000000E+00  0.00000000000E+00  0.45593999997E+02  0.45594000000E+02  0.51100000000E-03 0.  1.
         11   -1    0    0    0    0 -0.00000000000E+00 -0.00000000000E+00 -0.45593999997E+02  0.45594000000E+02  0.51100000000E-03 0. -1.
    9900012    2    1    2    0    0  0.31959431798E+02 -0.30191273990E+02  0.98079142277E+01  0.46142317771E+02  0.10000000092E+02 0.  0.
        -12    1    1    2    0    0 -0.31959431798E+02  0.30191273990E+02 -0.98079142277E+01  0.45045682229E+02  0.00000000000E+00 0.  1.
         11    1    3    3    0    0  0.12333102050E+02 -0.15398264840E+02  0.12925115723E+01  0.19770749927E+02  0.51100000000E-03 0. -1.
        -11    1    3    3    0    0  0.68882858965E+01 -0.39452066002E+01  0.46496847553E+01  0.91996035945E+01  0.51100000000E-03 0.  1.
        -12    1    3    3    0    0  0.12738043851E+02 -0.10847802550E+02  0.38657179001E+01  0.17171964250E+02  0.00000000000E+00 0.  1.
</event>
<event>
 7    1  0.1549900E-008  0.4614232E+02  0.7816164E-02  0.1320468E+00
        -11   -1    0    0    0    0  0.00000000000E+00  0.00000000000E+00  0.45593999997E+02  0.45594000000E+02  0.51100000000E-03 0.  1.
         11   -1    0    0    0    0 -0.00000000000E+00 -0.00000000000E+00 -0.45593999997E+02  0.45594000000E+02  0.51100000000E-03 0. -1.
    9900012    2    1    2    0    0 -0.18308605019E+02 -0.17539131568E+02 -0.37232880147E+02  0.46142317433E+02  0.99999970102E+01 0.  0.
        -12    1    1    2    0    0  0.18308605019E+02  0.17539131568E+02  0.37232880147E+02  0.45045682567E+02  0.00000000000E+00 0.  1.
         11    1    3    3    0    0  0.41970870968E+00  0.49183356968E+00 -0.13267077063E+01  0.14758757605E+01  0.51100000000E-03 0.  1.
        -11    1    3    3    0    0 -0.72475202767E+01 -0.10772735519E+02 -0.17752053087E+02  0.21993493805E+02  0.51100000000E-03 0. -1.
         12    1    3    3    0    0 -0.11480793452E+02 -0.72582296184E+01 -0.18154119354E+02  0.22672947867E+02  0.00000000000E+00 0. -1.
</event>
<event>
 7    1  0.1549900E-008  0.4614232E+02  0.7816164E-02  0.1320468E+00
        -11   -1    0    0    0    0  0.00000000000E+00  0.00000000000E+00  0.45593999997E+02  0.45594000000E+02  0.51100000000E-03 0.  1.
         11   -1    0    0    0    0 -0.00000000000E+00 -0.00000000000E+00 -0.45593999997E+02  0.45594000000E+02  0.51100000000E-03 0. -1.
    9900012    2    1    2    0    0  0.25976570590E+02 -0.13323306260E+02 -0.34304819777E+02  0.46142319083E+02  0.10000012055E+02 0.  0.
        -12    1    1    2    0    0 -0.25976570590E+02  0.13323306260E+02  0.34304819777E+02  0.45045680917E+02  0.00000000000E+00 0.  1.
         11    1    3    3    0    0  0.19625360326E+01 -0.37235802403E+01 -0.31220510071E+01  0.52405915923E+01  0.51100000000E-03 0. -1.
        -11    1    3    3    0    0  0.86173299143E+01 -0.14600506169E+01 -0.13501780765E+02  0.16083787077E+02  0.51100000000E-03 0.  1.
        -12    1    3    3    0    0  0.15396704643E+02 -0.81396754031E+01 -0.17680988005E+02  0.24817940413E+02  0.00000000000E+00 0.  1.
</event>
<event>
 7    1  0.1549900E-008  0.4614232E+02  0.7816164E-02  0.1320468E+00
        -11   -1    0    0    0    0  0.00000000000E+00  0.00000000000E+00  0.45593999997E+02  0.45594000000E+02  0.51100000000E-03 0. -1.
         11   -1    0    0    0    0 -0.00000000000E+00 -0.00000000000E+00 -0.45593999997E+02  0.45594000000E+02  0.51100000000E-03 0.  1.
    9900012    2    1    2    0    0  0.35627072591E+01 -0.33649304962E+02  0.29734574304E+02  0.46142317449E+02  0.99999971549E+01 0.  0.
        -12    1    1    2    0    0 -0.35627072591E+01  0.33649304962E+02 -0.29734574304E+02  0.45045682551E+02  0.00000000000E+00 0.  1.
         11    1    3    3    0    0 -0.30110718947E+00 -0.56011712435E+01  0.94876242575E+00  0.56889309400E+01  0.51100000000E-03 0. -1.
        -11    1    3    3    0    0 -0.32898514431E+00 -0.26773749249E+01  0.30620595267E+01  0.40807813614E+01  0.51100000000E-03 0.  1.
         12    1    3    3    0    0  0.41927995929E+01 -0.25370758794E+02  0.25723752351E+02  0.36372605148E+02  0.00000000000E+00 0. -1.
</event>
<event>
 7    1  0.1549900E-008  0.4614232E+02  0.7816164E-02  0.1320468E+00
        -11   -1    0    0    0    0  0.00000000000E+00  0.00000000000E+00  0.45593999997E+02  0.45594000000E+02  0.51100000000E-03 0.  1.
         11   -1    0    0    0    0 -0.00000000000E+00 -0.00000000000E+00 -0.45593999997E+02  0.45594000000E+02  0.51100000000E-03 0. -1.
    9900012    2    1    2    0    0  0.10705528637E+02  0.43708573789E+02  0.20163581859E+01  0.46142318005E+02  0.10000002221E+02 0.  0.
        -12    1    1    2    0    0 -0.10705528637E+02 -0.43708573789E+02 -0.20163581859E+01  0.45045681995E+02  0.00000000000E+00 0.  1.
         11    1    3    3    0    0  0.88641578797E+00  0.16265812856E+02  0.22053535781E+01  0.16438551806E+02  0.51100000000E-03 0. -1.
        -11    1    3    3    0    0  0.69787277418E+01  0.22219334757E+02 -0.22804541852E+01  0.23400896340E+02  0.51100000000E-03 0.  1.
         12    1    3    3    0    0  0.28403851074E+01  0.52234261758E+01  0.20914587931E+01  0.63028698587E+01  0.00000000000E+00 0. -1.
</event>
<event>
 7    1  0.1549900E-008  0.4614232E+02  0.7816164E-02  0.1320468E+00
        -11   -1    0    0    0    0  0.00000000000E+00  0.00000000000E+00  0.45593999997E+02  0.45594000000E+02  0.51100000000E-03 0.  1.
         11   -1    0    0    0    0 -0.00000000000E+00 -0.00000000000E+00 -0.45593999997E+02  0.45594000000E+02  0.51100000000E-03 0. -1.
    9900012    2    1    2    0    0 -0.26351056533E+02  0.27065837416E+02 -0.24539270741E+02  0.46142317144E+02  0.99999943735E+01 0.  0.
        -12    1    1    2    0    0  0.26351056533E+02 -0.27065837416E+02  0.24539270741E+02  0.45045682856E+02  0.00000000000E+00 0.  1.
         11    1    3    3    0    0 -0.12979739954E+02  0.16558362198E+02 -0.14158137258E+02  0.25359531913E+02  0.51100000000E-03 0. -1.
        -11    1    3    3    0    0 -0.12281829734E+02  0.10462516071E+02 -0.11001789904E+02  0.19528107064E+02  0.51100000000E-03 0.  1.
        -12    1    3    3    0    0 -0.10894868445E+01  0.44959146632E-01  0.62065642090E+00  0.12546781667E+01  0.00000000000E+00 0.  1.
</event>
<event>
 7    1  0.1549900E-008  0.4614232E+02  0.7816164E-02  0.1320468E+00
        -11   -1    0    0    0    0  0.00000000000E+00  0.00000000000E+00  0.45593999997E+02  0.45594000000E+02  0.51100000000E-03 0.  1.
         11   -1    0    0    0    0 -0.00000000000E+00 -0.00000000000E+00 -0.45593999997E+02  0.45594000000E+02  0.51100000000E-03 0. -1.
    9900012    2    1    2    0    0  0.37476985654E+02 -0.22999113692E+02 -0.97790533725E+01  0.46142316864E+02  0.99999918230E+01 0.  0.
        -12    1    1    2    0    0 -0.37476985654E+02  0.22999113692E+02  0.97790533725E+01  0.45045683136E+02  0.00000000000E+00 0.  1.
         11    1    3    3    0    0  0.15418259113E+02 -0.10630131041E+02 -0.28009826170E+01  0.18935889308E+02  0.51100000000E-03 0. -1.
        -11    1    3    3    0    0  0.36795041920E+01  0.67010734100E+00 -0.13826313269E+01  0.39874132711E+01  0.51100000000E-03 0.  1.
        -12    1    3    3    0    0  0.18379222349E+02 -0.13039089992E+02 -0.55954394286E+01  0.23219014285E+02  0.00000000000E+00 0.  1.
</event>
<event>
 7    1  0.1549900E-008  0.4614232E+02  0.7816164E-02  0.1320468E+00
        -11   -1    0    0    0    0  0.00000000000E+00  0.00000000000E+00  0.45593999997E+02  0.45594000000E+02  0.51100000000E-03 0. -1.
         11   -1    0    0    0    0 -0.00000000000E+00 -0.00000000000E+00 -0.45593999997E+02  0.45594000000E+02  0.51100000000E-03 0.  1.
    9900012    2    1    2    0    0  0.27099558042E+02  0.67569223545E+01  0.35342204396E+02  0.46142318105E+02  0.10000003139E+02 0.  0.
        -12    1    1    2    0    0 -0.27099558042E+02 -0.67569223545E+01 -0.35342204396E+02  0.45045681895E+02  0.00000000000E+00 0.  1.
         11    1    3    3    0    0  0.14636311340E+02  0.17639635044E+01  0.20292264452E+02  0.25082048834E+02  0.51100000000E-03 0. -1.
        -11    1    3    3    0    0  0.92060209598E+01  0.70144929969E+00  0.82244475088E+01  0.12364642741E+02  0.51100000000E-03 0.  1.
         12    1    3    3    0    0  0.32572257423E+01  0.42915095505E+01  0.68254924355E+01  0.86956265297E+01  0.00000000000E+00 0. -1.
</event>
<event>
 7    1  0.1549900E-008  0.4614232E+02  0.7816164E-02  0.1320468E+00
        -11   -1    0    0    0    0  0.00000000000E+00  0.00000000000E+00  0.45593999997E+02  0.45594000000E+02  0.51100000000E-03 0.  1.
         11   -1    0    0    0    0 -0.00000000000E+00 -0.00000000000E+00 -0.45593999997E+02  0.45594000000E+02  0.51100000000E-03 0. -1.
    9900012    2    1    2    0    0  0.57077531445E+01  0.10971682224E+02 -0.43314631923E+02  0.46142316573E+02  0.99999891697E+01 0.  0.
        -12    1    1    2    0    0 -0.57077531445E+01 -0.10971682224E+02  0.43314631923E+02  0.45045683427E+02  0.00000000000E+00 0.  1.
         11    1    3    3    0    0  0.22878291578E+01 -0.34971537990E+00 -0.10052892934E+02  0.10315867375E+02  0.51100000000E-03 0. -1.
        -11    1    3    3    0    0 -0.12774187729E+01  0.14173338686E+01 -0.23400984803E+01  0.30193865561E+01  0.51100000000E-03 0.  1.
         12    1    3    3    0    0  0.46973427596E+01  0.99040637353E+01 -0.30921640508E+02  0.32807062642E+02  0.00000000000E+00 0. -1.
</event>
<event>
 7    1  0.1549900E-008  0.4614232E+02  0.7816164E-02  0.1320468E+00
        -11   -1    0    0    0    0  0.00000000000E+00  0.00000000000E+00  0.45593999997E+02  0.45594000000E+02  0.51100000000E-03 0.  1.
         11   -1    0    0    0    0 -0.00000000000E+00 -0.00000000000E+00 -0.45593999997E+02  0.45594000000E+02  0.51100000000E-03 0. -1.
    9900012    2    1    2    0    0 -0.58884274943E+01  0.81707384530E+01 -0.43905340584E+02  0.46142317888E+02  0.10000001153E+02 0.  0.
        -12    1    1    2    0    0  0.58884274943E+01 -0.81707384530E+01  0.43905340584E+02  0.45045682112E+02  0.00000000000E+00 0.  1.
         11    1    3    3    0    0 -0.64855469742E+00  0.17798407059E+01 -0.61347516994E+01  0.64205634339E+01  0.51100000000E-03 0. -1.
        -11    1    3    3    0    0 -0.25831568811E+01 -0.10251239694E+01 -0.30821397607E+01  0.41500800463E+01  0.51100000000E-03 0.  1.
        -12    1    3    3    0    0 -0.26567159158E+01  0.74160217165E+01 -0.34688449123E+02  0.35571674407E+02  0.00000000000E+00 0.  1.
</event>
<event>
 7    1  0.1549900E-008  0.4614232E+02  0.7816164E-02  0.1320468E+00
        -11   -1    0    0    0    0  0.00000000000E+00  0.00000000000E+00  0.45593999997E+02  0.45594000000E+02  0.51100000000E-03 0.  1.
         11   -1    0    0    0    0 -0.00000000000E+00 -0.00000000000E+00 -0.45593999997E+02  0.45594000000E+02  0.51100000000E-03 0. -1.
    9900012    2    1    2    0    0  0.35220881957E+01 -0.71422588911E+00 -0.44902097304E+02  0.46142316898E+02  0.99999921269E+01 0.  0.
        -12    1    1    2    0    0 -0.35220881957E+01  0.71422588911E+00  0.44902097304E+02  0.45045683102E+02  0.00000000000E+00 0.  1.
         11    1    3    3    0    0  0.21093097400E+01  0.11142954124E+00 -0.34617881509E+02  0.34682262391E+02  0.51100000000E-03 0. -1.
        -11    1    3    3    0    0  0.10020304997E+00 -0.27257948746E+01 -0.50659359528E+01  0.57535819877E+01  0.51100000000E-03 0.  1.
         12    1    3    3    0    0  0.13125754058E+01  0.19001394442E+01 -0.52182798419E+01  0.57064725191E+01  0.00000000000E+00 0. -1.
</event>
<event>
 7    1  0.1549900E-008  0.4614232E+02  0.7816164E-02  0.1320468E+00
        -11   -1    0    0    0    0  0.00000000000E+00  0.00000000000E+00  0.45593999997E+02  0.45594000000E+02  0.51100000000E-03 0. -1.
         11   -1    0    0    0    0 -0.00000000000E+00 -0.00000000000E+00 -0.45593999997E+02  0.45594000000E+02  0.51100000000E-03 0.  1.
    9900012    2    1    2    0    0 -0.40232334474E+02  0.17196274872E+02  0.10712649654E+02  0.46142317972E+02  0.10000001926E+02 0.  0.
        -12    1    1    2    0    0  0.40232334474E+02 -0.17196274872E+02 -0.10712649654E+02  0.45045682028E+02  0.00000000000E+00 0.  1.
         11    1    3    3    0    0 -0.22723690359E+02  0.66678307872E+01  0.20345259026E+01  0.23769000123E+02  0.51100000000E-03 0. -1.
        -11    1    3    3    0    0 -0.12178327912E+02  0.87321238116E+01  0.59749185263E+01  0.16132616299E+02  0.51100000000E-03 0.  1.
         12    1    3    3    0    0 -0.53303162036E+01  0.17963202736E+01  0.27032052253E+01  0.62407015507E+01  0.00000000000E+00 0. -1.
</event>
<event>
 7    1  0.1549900E-008  0.4614232E+02  0.7816164E-02  0.1320468E+00
        -11   -1    0    0    0    0  0.00000000000E+00  0.00000000000E+00  0.45593999997E+02  0.45594000000E+02  0.51100000000E-03 0.  1.
         11   -1    0    0    0    0 -0.00000000000E+00 -0.00000000000E+00 -0.45593999997E+02  0.45594000000E+02  0.51100000000E-03 0. -1.
    9900012    2    1    2    0    0 -0.31201141689E+02 -0.23495433034E+02 -0.22440295541E+02  0.46142317853E+02  0.10000000839E+02 0.  0.
        -12    1    1    2    0    0  0.31201141689E+02  0.23495433034E+02  0.22440295541E+02  0.45045682147E+02  0.00000000000E+00 0.  1.
         11    1    3    3    0    0 -0.66429144670E+01 -0.32736765685E+01 -0.17204572288E+01  0.76029760113E+01  0.51100000000E-03 0. -1.
        -11    1    3    3    0    0 -0.10784468888E+02 -0.12402588466E+02 -0.12795448384E+02  0.20829125509E+02  0.51100000000E-03 0.  1.
        -12    1    3    3    0    0 -0.13773758333E+02 -0.78191680001E+01 -0.79243899274E+01  0.17710216333E+02  0.00000000000E+00 0.  1.
</event>
<event>
 7    1  0.1549900E-008  0.4614232E+02  0.7816164E-02  0.1320468E+00
        -11   -1    0    0    0    0  0.00000000000E+00  0.00000000000E+00  0.45593999997E+02  0.45594000000E+02  0.51100000000E-03 0.  1.
         11   -1    0    0    0    0 -0.00000000000E+00 -0.00000000000E+00 -0.45593999997E+02  0.45594000000E+02  0.51100000000E-03 0. -1.
    9900012    2    1    2    0    0 -0.28653705225E+02  0.32665175714E+02 -0.11877076621E+02  0.46142317891E+02  0.10000001185E+02 0.  0.
        -12    1    1    2    0    0  0.28653705225E+02 -0.32665175714E+02  0.11877076621E+02  0.45045682109E+02  0.00000000000E+00 0.  1.
         11    1    3    3    0    0 -0.19853956969E+02  0.25173433374E+02 -0.67385746986E+01  0.32761101086E+02  0.51100000000E-03 0. -1.
        -11    1    3    3    0    0 -0.29809978544E+01  0.19802580542E+00 -0.17001661029E+01  0.34374594494E+01  0.51100000000E-03 0.  1.
         12    1    3    3    0    0 -0.58187504015E+01  0.72937165352E+01 -0.34383358198E+01  0.99437573553E+01  0.00000000000E+00 0. -1.
</event>
<event>
 7    1  0.1549900E-008  0.4614232E+02  0.7816164E-02  0.1320468E+00
        -11   -1    0    0    0    0  0.00000000000E+00  0.00000000000E+00  0.45593999997E+02  0.45594000000E+02  0.51100000000E-03 0. -1.
         11   -1    0    0    0    0 -0.00000000000E+00 -0.00000000000E+00 -0.45593999997E+02  0.45594000000E+02  0.51100000000E-03 0.  1.
    9900012    2    1    2    0    0 -0.16045707101E+02  0.39510686610E+01  0.41905105305E+02  0.46142317515E+02  0.99999977560E+01 0.  0.
        -12    1    1    2    0    0  0.16045707101E+02 -0.39510686610E+01 -0.41905105305E+02  0.45045682485E+02  0.00000000000E+00 0.  1.
         11    1    3    3    0    0 -0.25836133672E+01  0.20264372517E+01  0.34931304340E+01  0.47941074723E+01  0.51100000000E-03 0.  1.
        -11    1    3    3    0    0 -0.21487267147E+01  0.27309132074E+01  0.52108788211E+01  0.62632397200E+01  0.51100000000E-03 0. -1.
         12    1    3    3    0    0 -0.11313367019E+02 -0.80628179811E+00  0.33201096049E+02  0.35084970323E+02  0.00000000000E+00 0. -1.
</event>
<event>
 7    1  0.1549900E-008  0.4614232E+02  0.7816164E-02  0.1320468E+00
        -11   -1    0    0    0    0  0.00000000000E+00  0.00000000000E+00  0.45593999997E+02  0.45594000000E+02  0.51100000000E-03 0.  1.
         11   -1    0    0    0    0 -0.00000000000E+00 -0.00000000000E+00 -0.45593999997E+02  0.45594000000E+02  0.51100000000E-03 0. -1.
    9900012    2    1    2    0    0 -0.23346430765E+02  0.30403913565E+02  0.23657129330E+02  0.46142316992E+02  0.99999929905E+01 0.  0.
        -12    1    1    2    0    0  0.23346430765E+02 -0.30403913565E+02 -0.23657129330E+02  0.45045683008E+02  0.00000000000E+00 0.  1.
         11    1    3    3    0    0 -0.12768710751E+01  0.37370136723E+01  0.45955598369E+01  0.60592773006E+01  0.51100000000E-03 0. -1.
        -11    1    3    3    0    0 -0.49925206260E+01  0.72996679915E+01  0.82356477798E+01  0.12084548382E+02  0.51100000000E-03 0.  1.
         12    1    3    3    0    0 -0.17077039064E+02  0.19367231901E+02  0.10825921713E+02  0.27998491310E+02  0.00000000000E+00 0. -1.
</event>
<event>
 7    1  0.1549900E-008  0.4614232E+02  0.7816164E-02  0.1320468E+00
        -11   -1    0    0    0    0  0.00000000000E+00  0.00000000000E+00  0.45593999997E+02  0.45594000000E+02  0.51100000000E-03 0.  1.
         11   -1    0    0    0    0 -0.00000000000E+00 -0.00000000000E+00 -0.45593999997E+02  0.45594000000E+02  0.51100000000E-03 0. -1.
    9900012    2    1    2    0    0  0.41975342011E+02 -0.54521952174E+01 -0.15409663956E+02  0.46142317489E+02  0.99999975213E+01 0.  0.
        -12    1    1    2    0    0 -0.41975342011E+02  0.54521952174E+01  0.15409663956E+02  0.45045682511E+02  0.00000000000E+00 0.  1.
         11    1    3    3    0    0  0.26688583125E+02 -0.36226978837E+01 -0.10265274070E+02  0.28823259031E+02  0.51100000000E-03 0. -1.
        -11    1    3    3    0    0 -0.12168256735E+00 -0.11050154206E+01 -0.32331937097E+00  0.11577570573E+01  0.51100000000E-03 0.  1.
        -12    1    3    3    0    0  0.15408441453E+02 -0.72448191305E+00 -0.48210705145E+01  0.16161301401E+02  0.00000000000E+00 0.  1.
</event>
<event>
 7    1  0.1549900E-008  0.4614232E+02  0.7816164E-02  0.1320468E+00
        -11   -1    0    0    0    0  0.00000000000E+00  0.00000000000E+00  0.45593999997E+02  0.45594000000E+02  0.51100000000E-03 0. -1.
         11   -1    0    0    0    0 -0.00000000000E+00 -0.00000000000E+00 -0.45593999997E+02  0.45594000000E+02  0.51100000000E-03 0.  1.
    9900012    2    1    2    0    0  0.29864572173E+02  0.15280810247E+02  0.30061898320E+02  0.46142316928E+02  0.99999923986E+01 0.  0.
        -12    1    1    2    0    0 -0.29864572173E+02 -0.15280810247E+02 -0.30061898320E+02  0.45045683072E+02  0.00000000000E+00 0.  1.
         11    1    3    3    0    0  0.13777130304E+02  0.35430077275E+01  0.11311549373E+02  0.18174525376E+02  0.51100000000E-03 0. -1.
        -11    1    3    3    0    0  0.81143037376E+01  0.66303570735E+01  0.59636423561E+01  0.12056889752E+02  0.51100000000E-03 0.  1.
        -12    1    3    3    0    0  0.79731381313E+01  0.51074454457E+01  0.12786706591E+02  0.15910901800E+02  0.00000000000E+00 0.  1.
</event>
<event>
 7    1  0.1549900E-008  0.4614232E+02  0.7816164E-02  0.1320468E+00
        -11   -1    0    0    0    0  0.00000000000E+00  0.00000000000E+00  0.45593999997E+02  0.45594000000E+02  0.51100000000E-03 0. -1.
         11   -1    0    0    0    0 -0.00000000000E+00 -0.00000000000E+00 -0.45593999997E+02  0.45594000000E+02  0.51100000000E-03 0.  1.
    9900012    2    1    2    0    0  0.10045149334E+02 -0.34988508122E+02  0.26533239191E+02  0.46142317546E+02  0.99999980409E+01 0.  0.
        -12    1    1    2    0    0 -0.10045149334E+02  0.34988508122E+02 -0.26533239191E+02  0.45045682454E+02  0.00000000000E+00 0.  1.
         11    1    3    3    0    0  0.75658844923E+01 -0.19918056249E+02  0.11333481457E+02  0.24133366427E+02  0.51100000000E-03 0. -1.
        -11    1    3    3    0    0  0.79629326809E+00 -0.29899000284E+01  0.59311672210E+01  0.66897182313E+01  0.51100000000E-03 0.  1.
         12    1    3    3    0    0  0.16829715738E+01 -0.12080551845E+02  0.92685905124E+01  0.15319232888E+02  0.00000000000E+00 0. -1.
</event>
<event>
 7    1  0.1549900E-008  0.4614232E+02  0.7816164E-02  0.1320468E+00
        -11   -1    0    0    0    0  0.00000000000E+00  0.00000000000E+00  0.45593999997E+02  0.45594000000E+02  0.51100000000E-03 0.  1.
         11   -1    0    0    0    0 -0.00000000000E+00 -0.00000000000E+00 -0.45593999997E+02  0.45594000000E+02  0.51100000000E-03 0. -1.
    9900012    2    1    2    0    0 -0.17839425106E+01  0.26669513305E+02 -0.36258352088E+02  0.46142317777E+02  0.10000000144E+02 0.  0.
        -12    1    1    2    0    0  0.17839425106E+01 -0.26669513305E+02  0.36258352088E+02  0.45045682223E+02  0.00000000000E+00 0.  1.
         11    1    3    3    0    0 -0.21385281744E+01  0.10283058589E+02 -0.77954193364E+01  0.13079876131E+02  0.51100000000E-03 0.  1.
        -11    1    3    3    0    0 -0.94465882921E+00  0.11692866758E+02 -0.17520023919E+02  0.21084751640E+02  0.51100000000E-03 0. -1.
        -12    1    3    3    0    0  0.12992444930E+01  0.46935879575E+01 -0.10942908833E+02  0.11977690007E+02  0.00000000000E+00 0.  1.
</event>
<event>
 7    1  0.1549900E-008  0.4614232E+02  0.7816164E-02  0.1320468E+00
        -11   -1    0    0    0    0  0.00000000000E+00  0.00000000000E+00  0.45593999997E+02  0.45594000000E+02  0.51100000000E-03 0.  1.
         11   -1    0    0    0    0 -0.00000000000E+00 -0.00000000000E+00 -0.45593999997E+02  0.45594000000E+02  0.51100000000E-03 0. -1.
    9900012    2    1    2    0    0  0.15095972534E+02 -0.18190482523E+02 -0.38344901751E+02  0.46142317282E+02  0.99999956351E+01 0.  0.
        -12    1    1    2    0    0 -0.15095972534E+02  0.18190482523E+02  0.38344901751E+02  0.45045682718E+02  0.00000000000E+00 0.  1.
         11    1    3    3    0    0  0.95778248675E+01 -0.59675235148E+01 -0.13509786960E+02  0.17602852328E+02  0.51100000000E-03 0. -1.
        -11    1    3    3    0    0  0.18920101645E+01 -0.48845909903E+01 -0.14086919554E+02  0.15029312506E+02  0.51100000000E-03 0.  1.
         12    1    3    3    0    0  0.36261375024E+01 -0.73383680179E+01 -0.10748195237E+02  0.13510152449E+02  0.00000000000E+00 0. -1.
</event>
<event>
 7    1  0.1549900E-008  0.4614232E+02  0.7816164E-02  0.1320468E+00
        -11   -1    0    0    0    0  0.00000000000E+00  0.00000000000E+00  0.45593999997E+02  0.45594000000E+02  0.51100000000E-03 0.  1.
         11   -1    0    0    0    0 -0.00000000000E+00 -0.00000000000E+00 -0.45593999997E+02  0.45594000000E+02  0.51100000000E-03 0. -1.
    9900012    2    1    2    0    0  0.14685980623E+01  0.19992902117E+02 -0.40339070494E+02  0.46142317370E+02  0.99999964314E+01 0.  0.
        -12    1    1    2    0    0 -0.14685980623E+01 -0.19992902117E+02  0.40339070494E+02  0.45045682630E+02  0.00000000000E+00 0.  1.
         11    1    3    3    0    0 -0.79635035456E+00  0.11146339568E+02 -0.13760204358E+02  0.17726203313E+02  0.51100000000E-03 0. -1.
        -11    1    3    3    0    0  0.90361988586E+00  0.55828337068E+01 -0.21472720476E+02  0.22205005877E+02  0.51100000000E-03 0.  1.
         12    1    3    3    0    0  0.13613285310E+01  0.32637288426E+01 -0.51061456592E+01  0.62111081797E+01  0.00000000000E+00 0. -1.
</event>
<event>
 7    1  0.1549900E-008  0.4614232E+02  0.7816164E-02  0.1320468E+00
        -11   -1    0    0    0    0  0.00000000000E+00  0.00000000000E+00  0.45593999997E+02  0.45594000000E+02  0.51100000000E-03 0.  1.
         11   -1    0    0    0    0 -0.00000000000E+00 -0.00000000000E+00 -0.45593999997E+02  0.45594000000E+02  0.51100000000E-03 0. -1.
    9900012    2    1    2    0    0 -0.34257691229E+02 -0.13075289725E+02 -0.26164114257E+02  0.46142317803E+02  0.10000000386E+02 0.  0.
        -12    1    1    2    0    0  0.34257691229E+02  0.13075289725E+02  0.26164114257E+02  0.45045682197E+02  0.00000000000E+00 0.  1.
         11    1    3    3    0    0 -0.13314928185E+02 -0.85706517891E+01 -0.12597094979E+02  0.20234381306E+02  0.51100000000E-03 0. -1.
        -11    1    3    3    0    0 -0.72988709077E+01  0.75829767440E+00 -0.57732327979E+01  0.93369560934E+01  0.51100000000E-03 0.  1.
         12    1    3    3    0    0 -0.13643892136E+02 -0.52629356107E+01 -0.77937864792E+01  0.16570980404E+02  0.00000000000E+00 0. -1.
</event>
<event>
 7    1  0.1549900E-008  0.4614232E+02  0.7816164E-02  0.1320468E+00
        -11   -1    0    0    0    0  0.00000000000E+00  0.00000000000E+00  0.45593999997E+02  0.45594000000E+02  0.51100000000E-03 0. -1.
         11   -1    0    0    0    0 -0.00000000000E+00 -0.00000000000E+00 -0.45593999997E+02  0.45594000000E+02  0.51100000000E-03 0.  1.
    9900012    2    1    2    0    0  0.28031165553E+02 -0.29758042653E+02  0.18916293483E+02  0.46142317588E+02  0.99999984229E+01 0.  0.
        -12    1    1    2    0    0 -0.28031165553E+02  0.29758042653E+02 -0.18916293483E+02  0.45045682412E+02  0.00000000000E+00 0.  1.
         11    1    3    3    0    0  0.21981777520E+02 -0.19983349695E+02  0.13503837422E+02  0.32632597711E+02  0.51100000000E-03 0. -1.
        -11    1    3    3    0    0 -0.12866418283E+00 -0.31700255806E+01  0.23974622122E+01  0.39766118711E+01  0.51100000000E-03 0.  1.
         12    1    3    3    0    0  0.61780522158E+01 -0.66046673775E+01  0.30149938489E+01  0.95331080062E+01  0.00000000000E+00 0. -1.
</event>
<event>
 7    1  0.1549900E-008  0.4614232E+02  0.7816164E-02  0.1320468E+00
        -11   -1    0    0    0    0  0.00000000000E+00  0.00000000000E+00  0.45593999997E+02  0.45594000000E+02  0.51100000000E-03 0.  1.
         11   -1    0    0    0    0 -0.00000000000E+00 -0.00000000000E+00 -0.45593999997E+02  0.45594000000E+02  0.51100000000E-03 0. -1.
    9900012    2    1    2    0    0  0.15839065938E+02 -0.21471618793E+02 -0.36293347123E+02  0.46142317979E+02  0.10000001984E+02 0.  0.
        -12    1    1    2    0    0 -0.15839065938E+02  0.21471618793E+02  0.36293347123E+02  0.45045682021E+02  0.00000000000E+00 0.  1.
         11    1    3    3    0    0  0.22824103259E+01 -0.76453370381E+01 -0.11374035795E+02  0.13893497251E+02  0.51100000000E-03 0. -1.
        -11    1    3    3    0    0  0.67197622184E+00  0.46698630724E-01 -0.39072201399E+01  0.39648584196E+01  0.51100000000E-03 0.  1.
         12    1    3    3    0    0  0.12884679391E+02 -0.13872980386E+02 -0.21012091188E+02  0.28283962308E+02  0.00000000000E+00 0. -1.
</event>
<event>
 7    1  0.1549900E-008  0.4614232E+02  0.7816164E-02  0.1320468E+00
        -11   -1    0    0    0    0  0.00000000000E+00  0.00000000000E+00  0.45593999997E+02  0.45594000000E+02  0.51100000000E-03 0.  1.
         11   -1    0    0    0    0 -0.00000000000E+00 -0.00000000000E+00 -0.45593999997E+02  0.45594000000E+02  0.51100000000E-03 0. -1.
    9900012    2    1    2    0    0 -0.39359840716E+02 -0.31609273391E+01 -0.21677751876E+02  0.46142318195E+02  0.10000003961E+02 0.  0.
        -12    1    1    2    0    0  0.39359840716E+02  0.31609273391E+01  0.21677751876E+02  0.45045681805E+02  0.00000000000E+00 0.  1.
         11    1    3    3    0    0 -0.95964452653E+01  0.14536524225E+01 -0.63762156096E+01  0.11612966583E+02  0.51100000000E-03 0.  1.
        -11    1    3    3    0    0 -0.12303393161E+02 -0.17179566222E+01 -0.10300545307E+02  0.16137722643E+02  0.51100000000E-03 0. -1.
        -12    1    3    3    0    0 -0.17460002290E+02 -0.28966231395E+01 -0.50009909601E+01  0.18391628970E+02  0.00000000000E+00 0.  1.
</event>
<event>
 7    1  0.1549900E-008  0.4614232E+02  0.7816164E-02  0.1320468E+00
        -11   -1    0    0    0    0  0.00000000000E+00  0.00000000000E+00  0.45593999997E+02  0.45594000000E+02  0.51100000000E-03 0.  1.
         11   -1    0    0    0    0 -0.00000000000E+00 -0.00000000000E+00 -0.45593999997E+02  0.45594000000E+02  0.51100000000E-03 0. -1.
    9900012    2    1    2    0    0 -0.49640394556E+01  0.27570335801E+02 -0.35275321111E+02  0.46142318926E+02  0.10000010624E+02 0.  0.
        -12    1    1    2    0    0  0.49640394556E+01 -0.27570335801E+02  0.35275321111E+02  0.45045681074E+02  0.00000000000E+00 0.  1.
         11    1    3    3    0    0 -0.84922660964E+00  0.18370347446E+02 -0.22502351249E+02  0.29061085030E+02  0.51100000000E-03 0. -1.
        -11    1    3    3    0    0 -0.50687733756E+01  0.53365111046E+01 -0.84213903342E+01  0.11184392238E+02  0.51100000000E-03 0.  1.
         12    1    3    3    0    0  0.95396052964E+00  0.38634772506E+01 -0.43515795284E+01  0.58968416589E+01  0.00000000000E+00 0. -1.
</event>
<event>
 7    1  0.1549900E-008  0.4614232E+02  0.7816164E-02  0.1320468E+00
        -11   -1    0    0    0    0  0.00000000000E+00  0.00000000000E+00  0.45593999997E+02  0.45594000000E+02  0.51100000000E-03 0.  1.
         11   -1    0    0    0    0 -0.00000000000E+00 -0.00000000000E+00 -0.45593999997E+02  0.45594000000E+02  0.51100000000E-03 0. -1.
    9900012    2    1    2    0    0 -0.93532876013E+01  0.41270703048E+00 -0.44061992673E+02  0.46142317473E+02  0.99999973705E+01 0.  0.
        -12    1    1    2    0    0  0.93532876013E+01 -0.41270703048E+00  0.44061992673E+02  0.45045682527E+02  0.00000000000E+00 0.  1.
         11    1    3    3    0    0 -0.15960897980E+01  0.10450337625E+01 -0.22886878025E+02  0.22966253160E+02  0.51100000000E-03 0. -1.
        -11    1    3    3    0    0 -0.60526344637E+01 -0.13765767188E+01 -0.94627354385E+01  0.11316921386E+02  0.51100000000E-03 0.  1.
        -12    1    3    3    0    0 -0.17045633396E+01  0.74424998679E+00 -0.11712379209E+02  0.11859142927E+02  0.00000000000E+00 0.  1.
</event>
<event>
 7    1  0.1549900E-008  0.4614232E+02  0.7816164E-02  0.1320468E+00
        -11   -1    0    0    0    0  0.00000000000E+00  0.00000000000E+00  0.45593999997E+02  0.45594000000E+02  0.51100000000E-03 0. -1.
         11   -1    0    0    0    0 -0.00000000000E+00 -0.00000000000E+00 -0.45593999997E+02  0.45594000000E+02  0.51100000000E-03 0.  1.
    9900012    2    1    2    0    0 -0.28647125903E+02 -0.32054633060E+02  0.13451994357E+02  0.46142317906E+02  0.10000001325E+02 0.  0.
        -12    1    1    2    0    0  0.28647125903E+02  0.32054633060E+02 -0.13451994357E+02  0.45045682094E+02  0.00000000000E+00 0.  1.
         11    1    3    3    0    0 -0.19043224713E+02 -0.26311896833E+02  0.11476627932E+02  0.34448124933E+02  0.51100000000E-03 0. -1.
        -11    1    3    3    0    0 -0.46801668891E+01 -0.12380587702E+01  0.57279712484E+00  0.48749203517E+01  0.51100000000E-03 0.  1.
         12    1    3    3    0    0 -0.49237343009E+01 -0.45046774566E+01  0.14025693003E+01  0.68192726222E+01  0.00000000000E+00 0. -1.
</event>
<event>
 7    1  0.1549900E-008  0.4614232E+02  0.7816164E-02  0.1320468E+00
        -11   -1    0    0    0    0  0.00000000000E+00  0.00000000000E+00  0.45593999997E+02  0.45594000000E+02  0.51100000000E-03 0.  1.
         11   -1    0    0    0    0 -0.00000000000E+00 -0.00000000000E+00 -0.45593999997E+02  0.45594000000E+02  0.51100000000E-03 0. -1.
    9900012    2    1    2    0    0 -0.26346648253E+02  0.18597283619E+02 -0.31450100236E+02  0.46142316111E+02  0.99999849560E+01 0.  0.
        -12    1    1    2    0    0  0.26346648253E+02 -0.18597283619E+02  0.31450100236E+02  0.45045683889E+02  0.00000000000E+00 0.  1.
         11    1    3    3    0    0 -0.18054022784E+02  0.14715264286E+02 -0.17829385524E+02  0.29332127951E+02  0.51100000000E-03 0. -1.
        -11    1    3    3    0    0 -0.35784719761E+01 -0.21424060366E+00 -0.55127959811E+01  0.65758862908E+01  0.51100000000E-03 0.  1.
        -12    1    3    3    0    0 -0.47141534928E+01  0.40962599368E+01 -0.81079187304E+01  0.10234301870E+02  0.00000000000E+00 0.  1.
</event>
<event>
 7    1  0.1549900E-008  0.4614232E+02  0.7816164E-02  0.1320468E+00
        -11   -1    0    0    0    0  0.00000000000E+00  0.00000000000E+00  0.45593999997E+02  0.45594000000E+02  0.51100000000E-03 0.  1.
         11   -1    0    0    0    0 -0.00000000000E+00 -0.00000000000E+00 -0.45593999997E+02  0.45594000000E+02  0.51100000000E-03 0. -1.
    9900012    2    1    2    0    0 -0.19366910623E+01  0.13999044839E+02 -0.42771362550E+02  0.46142317820E+02  0.10000000537E+02 0.  0.
        -12    1    1    2    0    0  0.19366910623E+01 -0.13999044839E+02  0.42771362550E+02  0.45045682180E+02  0.00000000000E+00 0.  1.
         11    1    3    3    0    0 -0.18889145693E+01  0.61093694947E+01 -0.88037860243E+01  0.10881132409E+02  0.51100000000E-03 0. -1.
        -11    1    3    3    0    0  0.94639473114E+00  0.71337614256E+01 -0.20321022243E+02  0.21557600988E+02  0.51100000000E-03 0.  1.
        -12    1    3    3    0    0 -0.99417122411E+00  0.75591391870E+00 -0.13646554282E+02  0.13703584424E+02  0.00000000000E+00 0.  1.
</event>
<event>
 7    1  0.1549900E-008  0.4614232E+02  0.7816164E-02  0.1320468E+00
        -11   -1    0    0    0    0  0.00000000000E+00  0.00000000000E+00  0.45593999997E+02  0.45594000000E+02  0.51100000000E-03 0.  1.
         11   -1    0    0    0    0 -0.00000000000E+00 -0.00000000000E+00 -0.45593999997E+02  0.45594000000E+02  0.51100000000E-03 0. -1.
    9900012    2    1    2    0    0 -0.16738330424E+02  0.54098315491E+00 -0.41816852322E+02  0.46142317562E+02  0.99999981861E+01 0.  0.
        -12    1    1    2    0    0  0.16738330424E+02 -0.54098315491E+00  0.41816852322E+02  0.45045682438E+02  0.00000000000E+00 0.  1.
         11    1    3    3    0    0 -0.14132589562E+02 -0.50230029518E+00 -0.36468424468E+02  0.39114298878E+02  0.51100000000E-03 0. -1.
        -11    1    3    3    0    0 -0.72304360744E-01  0.18682669983E+01 -0.18468298094E+01  0.26280087716E+01  0.51100000000E-03 0.  1.
        -12    1    3    3    0    0 -0.25334365012E+01 -0.82498354822E+00 -0.35015980453E+01  0.44000099127E+01  0.00000000000E+00 0.  1.
</event>
<event>
 7    1  0.1549900E-008  0.4614232E+02  0.7816164E-02  0.1320468E+00
        -11   -1    0    0    0    0  0.00000000000E+00  0.00000000000E+00  0.45593999997E+02  0.45594000000E+02  0.51100000000E-03 0. -1.
         11   -1    0    0    0    0 -0.00000000000E+00 -0.00000000000E+00 -0.45593999997E+02  0.45594000000E+02  0.51100000000E-03 0.  1.
    9900012    2    1    2    0    0 -0.14393854161E+02  0.62204967495E+01  0.42228377157E+02  0.46142318135E+02  0.10000003408E+02 0.  0.
        -12    1    1    2    0    0  0.14393854161E+02 -0.62204967495E+01 -0.42228377157E+02  0.45045681865E+02  0.00000000000E+00 0.  1.
         11    1    3    3    0    0 -0.34173132476E+01 -0.17323258677E+01  0.12582967743E+02  0.13153328865E+02  0.51100000000E-03 0. -1.
        -11    1    3    3    0    0 -0.79343845109E+01  0.81011193640E+01  0.21793348006E+02  0.24566900701E+02  0.51100000000E-03 0.  1.
        -12    1    3    3    0    0 -0.30421564026E+01 -0.14829674684E+00  0.78520614076E+01  0.84220885682E+01  0.00000000000E+00 0.  1.
</event>
<event>
 7    1  0.1549900E-008  0.4614232E+02  0.7816164E-02  0.1320468E+00
        -11   -1    0    0    0    0  0.00000000000E+00  0.00000000000E+00  0.45593999997E+02  0.45594000000E+02  0.51100000000E-03 0.  1.
         11   -1    0    0    0    0 -0.00000000000E+00 -0.00000000000E+00 -0.45593999997E+02  0.45594000000E+02  0.51100000000E-03 0. -1.
    9900012    2    1    2    0    0 -0.41916713344E+00  0.39135900130E+02 -0.22300649983E+02  0.46142319078E+02  0.10000012005E+02 0.  0.
        -12    1    1    2    0    0  0.41916713344E+00 -0.39135900130E+02  0.22300649983E+02  0.45045680922E+02  0.00000000000E+00 0.  1.
         11    1    3    3    0    0 -0.43599762892E+01  0.16318191676E+02 -0.69211118482E+01  0.18253617787E+02  0.51100000000E-03 0. -1.
        -11    1    3    3    0    0  0.28750356897E+01  0.18219831868E+02 -0.13248354346E+02  0.22710063775E+02  0.51100000000E-03 0.  1.
        -12    1    3    3    0    0  0.10657734660E+01  0.45978765864E+01 -0.21311837887E+01  0.51786375163E+01  0.00000000000E+00 0.  1.
</event>
<event>
 7    1  0.1549900E-008  0.4614232E+02  0.7816164E-02  0.1320468E+00
        -11   -1    0    0    0    0  0.00000000000E+00  0.00000000000E+00  0.45593999997E+02  0.45594000000E+02  0.51100000000E-03 0.  1.
         11   -1    0    0    0    0 -0.00000000000E+00 -0.00000000000E+00 -0.45593999997E+02  0.45594000000E+02  0.51100000000E-03 0. -1.
    9900012    2    1    2    0    0 -0.35093027836E+02 -0.27880375727E+02 -0.45030591480E+01  0.46142317687E+02  0.99999993243E+01 0.  0.
        -12    1    1    2    0    0  0.35093027836E+02  0.27880375727E+02  0.45030591480E+01  0.45045682313E+02  0.00000000000E+00 0.  1.
         11    1    3    3    0    0 -0.22740981495E+02 -0.18349217949E+02 -0.53202651536E+01  0.29701031300E+02  0.51100000000E-03 0. -1.
        -11    1    3    3    0    0 -0.41794328485E+01 -0.49297190649E+01  0.24680135969E+01  0.69181558503E+01  0.51100000000E-03 0.  1.
         12    1    3    3    0    0 -0.81726134921E+01 -0.46014387131E+01 -0.16508075912E+01  0.95231305370E+01  0.00000000000E+00 0. -1.
</event>
<event>
 7    1  0.1549900E-008  0.4614232E+02  0.7816164E-02  0.1320468E+00
        -11   -1    0    0    0    0  0.00000000000E+00  0.00000000000E+00  0.45593999997E+02  0.45594000000E+02  0.51100000000E-03 0.  1.
         11   -1    0    0    0    0 -0.00000000000E+00 -0.00000000000E+00 -0.45593999997E+02  0.45594000000E+02  0.51100000000E-03 0. -1.
    9900012    2    1    2    0    0 -0.29416500918E+02 -0.10724905180E+00 -0.34114096564E+02  0.46142316378E+02  0.99999873833E+01 0.  0.
        -12    1    1    2    0    0  0.29416500918E+02  0.10724905180E+00  0.34114096564E+02  0.45045683622E+02  0.00000000000E+00 0.  1.
         11    1    3    3    0    0 -0.11784909947E+02  0.39825226565E+01 -0.11743708215E+02  0.17107287104E+02  0.51100000000E-03 0. -1.
        -11    1    3    3    0    0 -0.14924299644E+02 -0.19881883259E+01 -0.18801259536E+02  0.24086821565E+02  0.51100000000E-03 0.  1.
        -12    1    3    3    0    0 -0.27072913276E+01 -0.21015833824E+01 -0.35691288134E+01  0.49482077091E+01  0.00000000000E+00 0.  1.
</event>
<event>
 7    1  0.1549900E-008  0.4614231E+02  0.7816164E-02  0.1320468E+00
        -11   -1    0    0    0    0  0.00000000000E+00  0.00000000000E+00  0.45593999997E+02  0.45594000000E+02  0.51100000000E-03 0.  1.
         11   -1    0    0    0    0 -0.00000000000E+00 -0.00000000000E+00 -0.45593999997E+02  0.45594000000E+02  0.51100000000E-03 0. -1.
    9900012    2    1    2    0    0 -0.46713127329E+01 -0.31009163116E+02 -0.32337662125E+02  0.46142314840E+02  0.99999733656E+01 0.  0.
        -12    1    1    2    0    0  0.46713127329E+01  0.31009163116E+02  0.32337662125E+02  0.45045685160E+02  0.00000000000E+00 0.  1.
         11    1    3    3    0    0 -0.10450612549E+01 -0.59125211177E+01 -0.10795434130E+02  0.12352791479E+02  0.51100000000E-03 0. -1.
        -11    1    3    3    0    0  0.14599653656E+01 -0.93586505438E+01 -0.84970168184E+01  0.12724587771E+02  0.51100000000E-03 0.  1.
        -12    1    3    3    0    0 -0.50862168436E+01 -0.15737991455E+02 -0.13045211176E+02  0.21064935591E+02  0.00000000000E+00 0.  1.
</event>
<event>
 7    1  0.1549900E-008  0.4614232E+02  0.7816164E-02  0.1320468E+00
        -11   -1    0    0    0    0  0.00000000000E+00  0.00000000000E+00  0.45593999997E+02  0.45594000000E+02  0.51100000000E-03 0. -1.
         11   -1    0    0    0    0 -0.00000000000E+00 -0.00000000000E+00 -0.45593999997E+02  0.45594000000E+02  0.51100000000E-03 0.  1.
    9900012    2    1    2    0    0 -0.14706828196E+01  0.44829580159E+02  0.41544270292E+01  0.46142318419E+02  0.10000006000E+02 0.  0.
        -12    1    1    2    0    0  0.14706828196E+01 -0.44829580159E+02 -0.41544270292E+01  0.45045681581E+02  0.00000000000E+00 0.  1.
         11    1    3    3    0    0 -0.56253108012E+00  0.32943857034E+01  0.87367165509E+00  0.34543770496E+01  0.51100000000E-03 0. -1.
        -11    1    3    3    0    0  0.71098637121E+00  0.13466067169E+02  0.53245319624E+01  0.14497969082E+02  0.51100000000E-03 0.  1.
        -12    1    3    3    0    0 -0.16191381107E+01  0.28069127287E+02 -0.20437765883E+01  0.28189972288E+02  0.00000000000E+00 0.  1.
</event>
<event>
 7    1  0.1549900E-008  0.4614232E+02  0.7816164E-02  0.1320468E+00
        -11   -1    0    0    0    0  0.00000000000E+00  0.00000000000E+00  0.45593999997E+02  0.45594000000E+02  0.51100000000E-03 0. -1.
         11   -1    0    0    0    0 -0.00000000000E+00 -0.00000000000E+00 -0.45593999997E+02  0.45594000000E+02  0.51100000000E-03 0.  1.
    9900012    2    1    2    0    0  0.62680481959E+01  0.78965388634E+00  0.44600465731E+02  0.46142317356E+02  0.99999963082E+01 0.  0.
        -12    1    1    2    0    0 -0.62680481959E+01 -0.78965388634E+00 -0.44600465731E+02  0.45045682644E+02  0.00000000000E+00 0.  1.
         11    1    3    3    0    0  0.30093835748E+00  0.20220976030E+01  0.27497275729E+01  0.34264332180E+01  0.51100000000E-03 0. -1.
        -11    1    3    3    0    0  0.21794823280E+01 -0.11267377576E+01  0.32962513388E+02  0.33053698284E+02  0.51100000000E-03 0.  1.
         12    1    3    3    0    0  0.37876275104E+01 -0.10570595911E+00  0.88882247702E+01  0.96621858537E+01  0.00000000000E+00 0. -1.
</event>
<event>
 7    1  0.1549900E-008  0.4614232E+02  0.7816164E-02  0.1320468E+00
        -11   -1    0    0    0    0  0.00000000000E+00  0.00000000000E+00  0.45593999997E+02  0.45594000000E+02  0.51100000000E-03 0.  1.
         11   -1    0    0    0    0 -0.00000000000E+00 -0.00000000000E+00 -0.45593999997E+02  0.45594000000E+02  0.51100000000E-03 0. -1.
    9900012    2    1    2    0    0  0.23365781620E+02  0.92114130060E+01 -0.37393898327E+02  0.46142317494E+02  0.99999975661E+01 0.  0.
        -12    1    1    2    0    0 -0.23365781620E+02 -0.92114130060E+01  0.37393898327E+02  0.45045682506E+02  0.00000000000E+00 0.  1.
         11    1    3    3    0    0  0.97170932331E+01  0.17035432458E+01 -0.15809419202E+02  0.18634958982E+02  0.51100000000E-03 0. -1.
        -11    1    3    3    0    0  0.11007081907E-01 -0.13052320488E-01 -0.40700417423E+01  0.40700775870E+01  0.51100000000E-03 0.  1.
        -12    1    3    3    0    0  0.13637681305E+02  0.75209220808E+01 -0.17514437384E+02  0.23437280926E+02  0.00000000000E+00 0.  1.
</event>
<event>
 7    1  0.1549900E-008  0.4614232E+02  0.7816164E-02  0.1320468E+00
        -11   -1    0    0    0    0  0.00000000000E+00  0.00000000000E+00  0.45593999997E+02  0.45594000000E+02  0.51100000000E-03 0. -1.
         11   -1    0    0    0    0 -0.00000000000E+00 -0.00000000000E+00 -0.45593999997E+02  0.45594000000E+02  0.51100000000E-03 0.  1.
    9900012    2    1    2    0    0 -0.35961491428E+02 -0.17849902760E+02  0.20427077149E+02  0.46142319018E+02  0.10000011458E+02 0.  0.
        -12    1    1    2    0    0  0.35961491428E+02  0.17849902760E+02 -0.20427077149E+02  0.45045680982E+02  0.00000000000E+00 0.  1.
         11    1    3    3    0    0 -0.15899905654E+02 -0.68073208423E+01  0.12892981230E+02  0.21572565497E+02  0.51100000000E-03 0. -1.
        -11    1    3    3    0    0 -0.14708607762E+02 -0.77273328633E+01  0.31852837370E+01  0.16917471685E+02  0.51100000000E-03 0.  1.
        -12    1    3    3    0    0 -0.53529780127E+01 -0.33152490544E+01  0.43488121823E+01  0.76522818358E+01  0.00000000000E+00 0.  1.
</event>
<event>
 7    1  0.1549900E-008  0.4614232E+02  0.7816164E-02  0.1320468E+00
        -11   -1    0    0    0    0  0.00000000000E+00  0.00000000000E+00  0.45593999997E+02  0.45594000000E+02  0.51100000000E-03 0. -1.
         11   -1    0    0    0    0 -0.00000000000E+00 -0.00000000000E+00 -0.45593999997E+02  0.45594000000E+02  0.51100000000E-03 0.  1.
    9900012    2    1    2    0    0  0.35192683423E+02  0.76371653625E+01  0.27060347078E+02  0.46142316020E+02  0.99999841205E+01 0.  0.
        -12    1    1    2    0    0 -0.35192683423E+02 -0.76371653625E+01 -0.27060347078E+02  0.45045683980E+02  0.00000000000E+00 0.  1.
         11    1    3    3    0    0  0.96210096933E+01  0.27479141890E+01  0.54688999708E+01  0.11402794704E+02  0.51100000000E-03 0. -1.
        -11    1    3    3    0    0  0.31744869896E+01  0.11792666905E+01 -0.32780672003E-01  0.33866078025E+01  0.51100000000E-03 0.  1.
        -12    1    3    3    0    0  0.22397186740E+02  0.37099844830E+01  0.21624227779E+02  0.31352913513E+02  0.00000000000E+00 0.  1.
</event>
<event>
 7    1  0.1549900E-008  0.4614232E+02  0.7816164E-02  0.1320468E+00
        -11   -1    0    0    0    0  0.00000000000E+00  0.00000000000E+00  0.45593999997E+02  0.45594000000E+02  0.51100000000E-03 0.  1.
         11   -1    0    0    0    0 -0.00000000000E+00 -0.00000000000E+00 -0.45593999997E+02  0.45594000000E+02  0.51100000000E-03 0. -1.
    9900012    2    1    2    0    0 -0.41977763440E+02 -0.39802428626E+01 -0.15847350692E+02  0.46142317847E+02  0.10000000787E+02 0.  0.
        -12    1    1    2    0    0  0.41977763440E+02  0.39802428626E+01  0.15847350692E+02  0.45045682153E+02  0.00000000000E+00 0.  1.
         11    1    3    3    0    0 -0.15217335780E+02 -0.15927309557E+01 -0.64879707973E+01  0.16619201709E+02  0.51100000000E-03 0. -1.
        -11    1    3    3    0    0 -0.15915303566E+01 -0.12869274821E+01 -0.28393234674E+01  0.35001298882E+01  0.51100000000E-03 0.  1.
        -12    1    3    3    0    0 -0.25168897304E+02 -0.11005844249E+01 -0.65200564271E+01  0.26022986250E+02  0.00000000000E+00 0.  1.
</event>
<event>
 7    1  0.1549900E-008  0.4614232E+02  0.7816164E-02  0.1320468E+00
        -11   -1    0    0    0    0  0.00000000000E+00  0.00000000000E+00  0.45593999997E+02  0.45594000000E+02  0.51100000000E-03 0. -1.
         11   -1    0    0    0    0 -0.00000000000E+00 -0.00000000000E+00 -0.45593999997E+02  0.45594000000E+02  0.51100000000E-03 0.  1.
    9900012    2    1    2    0    0 -0.35748833489E+02 -0.25353713739E+02  0.10407863572E+02  0.46142317407E+02  0.99999967699E+01 0.  0.
        -12    1    1    2    0    0  0.35748833489E+02  0.25353713739E+02 -0.10407863572E+02  0.45045682593E+02  0.00000000000E+00 0.  1.
         11    1    3    3    0    0 -0.53367146355E+01 -0.71756581737E+01  0.29928960081E+00  0.89476347630E+01  0.51100000000E-03 0.  1.
        -11    1    3    3    0    0 -0.19417227020E+02 -0.14025845843E+02  0.55422510071E+01  0.24585963541E+02  0.51100000000E-03 0. -1.
         12    1    3    3    0    0 -0.10994891833E+02 -0.41522097219E+01  0.45663229640E+01  0.12608719103E+02  0.00000000000E+00 0. -1.
</event>
<event>
 7    1  0.1549900E-008  0.4614232E+02  0.7816164E-02  0.1320468E+00
        -11   -1    0    0    0    0  0.00000000000E+00  0.00000000000E+00  0.45593999997E+02  0.45594000000E+02  0.51100000000E-03 0.  1.
         11   -1    0    0    0    0 -0.00000000000E+00 -0.00000000000E+00 -0.45593999997E+02  0.45594000000E+02  0.51100000000E-03 0. -1.
    9900012    2    1    2    0    0  0.17782231446E+02 -0.41235568939E+02 -0.35402869904E+01  0.46142317267E+02  0.99999954964E+01 0.  0.
        -12    1    1    2    0    0 -0.17782231446E+02  0.41235568939E+02  0.35402869904E+01  0.45045682733E+02  0.00000000000E+00 0.  1.
         11    1    3    3    0    0  0.89478246697E+01 -0.13910452061E+02 -0.42253081534E+01  0.17070954048E+02  0.51100000000E-03 0. -1.
        -11    1    3    3    0    0  0.91905402588E+00 -0.95810176480E+01 -0.10941130384E+00  0.96256184512E+01  0.51100000000E-03 0.  1.
        -12    1    3    3    0    0  0.79153527500E+01 -0.17744099230E+02  0.79443246682E+00  0.19445744768E+02  0.00000000000E+00 0.  1.
</event>
<event>
 7    1  0.1549900E-008  0.4614232E+02  0.7816164E-02  0.1320468E+00
        -11   -1    0    0    0    0  0.00000000000E+00  0.00000000000E+00  0.45593999997E+02  0.45594000000E+02  0.51100000000E-03 0.  1.
         11   -1    0    0    0    0 -0.00000000000E+00 -0.00000000000E+00 -0.45593999997E+02  0.45594000000E+02  0.51100000000E-03 0. -1.
    9900012    2    1    2    0    0 -0.35683921179E+02  0.18418967614E+02 -0.20408647933E+02  0.46142317530E+02  0.99999978953E+01 0.  0.
        -12    1    1    2    0    0  0.35683921179E+02 -0.18418967614E+02  0.20408647933E+02  0.45045682470E+02  0.00000000000E+00 0.  1.
         11    1    3    3    0    0 -0.15911241245E+02  0.55971570687E+01 -0.85755313215E+01  0.18921826099E+02  0.51100000000E-03 0.  1.
        -11    1    3    3    0    0 -0.14243303363E+02  0.92250165128E+01 -0.49274464227E+01  0.17670663509E+02  0.51100000000E-03 0. -1.
        -12    1    3    3    0    0 -0.55293765712E+01  0.35967940328E+01 -0.69056701892E+01  0.95498279221E+01  0.00000000000E+00 0.  1.
</event>
<event>
 7    1  0.1549900E-008  0.4614232E+02  0.7816164E-02  0.1320468E+00
        -11   -1    0    0    0    0  0.00000000000E+00  0.00000000000E+00  0.45593999997E+02  0.45594000000E+02  0.51100000000E-03 0. -1.
         11   -1    0    0    0    0 -0.00000000000E+00 -0.00000000000E+00 -0.45593999997E+02  0.45594000000E+02  0.51100000000E-03 0.  1.
    9900012    2    1    2    0    0  0.43716061777E+02 -0.20908578818E+01  0.10660576509E+02  0.46142316128E+02  0.99999851072E+01 0.  0.
        -12    1    1    2    0    0 -0.43716061777E+02  0.20908578818E+01 -0.10660576509E+02  0.45045683872E+02  0.00000000000E+00 0.  1.
         11    1    3    3    0    0  0.65880177094E+01  0.20935776440E+01  0.31044140999E+01  0.75777590259E+01  0.51100000000E-03 0. -1.
        -11    1    3    3    0    0  0.21399711070E+01 -0.55447530264E+00  0.19439702658E+01  0.29437968435E+01  0.51100000000E-03 0.  1.
         12    1    3    3    0    0  0.34988072961E+02 -0.36299602231E+01  0.56121921432E+01  0.35620760259E+02  0.00000000000E+00 0. -1.
</event>
<event>
 7    1  0.1549900E-008  0.4614232E+02  0.7816164E-02  0.1320468E+00
        -11   -1    0    0    0    0  0.00000000000E+00  0.00000000000E+00  0.45593999997E+02  0.45594000000E+02  0.51100000000E-03 0.  1.
         11   -1    0    0    0    0 -0.00000000000E+00 -0.00000000000E+00 -0.45593999997E+02  0.45594000000E+02  0.51100000000E-03 0. -1.
    9900012    2    1    2    0    0  0.73584122337E+01  0.14391360085E+02 -0.42045879524E+02  0.46142318069E+02  0.10000002808E+02 0.  0.
        -12    1    1    2    0    0 -0.73584122337E+01 -0.14391360085E+02  0.42045879524E+02  0.45045681931E+02  0.00000000000E+00 0.  1.
         11    1    3    3    0    0 -0.75047396899E-01  0.10686202323E+01 -0.13846168439E+02  0.13887547012E+02  0.51100000000E-03 0. -1.
        -11    1    3    3    0    0  0.13770946413E+01  0.22132834632E+01 -0.25132001247E+01  0.36209375123E+01  0.51100000000E-03 0.  1.
         12    1    3    3    0    0  0.60563649893E+01  0.11109456390E+02 -0.25686510960E+02  0.28633833544E+02  0.00000000000E+00 0. -1.
</event>
<event>
 7    1  0.1549900E-008  0.4614232E+02  0.7816164E-02  0.1320468E+00
        -11   -1    0    0    0    0  0.00000000000E+00  0.00000000000E+00  0.45593999997E+02  0.45594000000E+02  0.51100000000E-03 0.  1.
         11   -1    0    0    0    0 -0.00000000000E+00 -0.00000000000E+00 -0.45593999997E+02  0.45594000000E+02  0.51100000000E-03 0. -1.
    9900012    2    1    2    0    0  0.26992070758E+02 -0.13105977348E+02 -0.33597246944E+02  0.46142317318E+02  0.99999959588E+01 0.  0.
        -12    1    1    2    0    0 -0.26992070758E+02  0.13105977348E+02  0.33597246944E+02  0.45045682682E+02  0.00000000000E+00 0.  1.
         11    1    3    3    0    0  0.80548531325E+01 -0.42024380523E+01 -0.91747684025E+01  0.12911913881E+02  0.51100000000E-03 0. -1.
        -11    1    3    3    0    0  0.14751014786E+02 -0.66103431160E+01 -0.23247194070E+02  0.28314680039E+02  0.51100000000E-03 0.  1.
        -12    1    3    3    0    0  0.41862028397E+01 -0.22931961801E+01 -0.11752844716E+01  0.49157233979E+01  0.00000000000E+00 0.  1.
</event>
<event>
 7    1  0.1549900E-008  0.4614232E+02  0.7816164E-02  0.1320468E+00
        -11   -1    0    0    0    0  0.00000000000E+00  0.00000000000E+00  0.45593999997E+02  0.45594000000E+02  0.51100000000E-03 0.  1.
         11   -1    0    0    0    0 -0.00000000000E+00 -0.00000000000E+00 -0.45593999997E+02  0.45594000000E+02  0.51100000000E-03 0. -1.
    9900012    2    1    2    0    0  0.33371356484E+02  0.27980982709E+02  0.11512195624E+02  0.46142317909E+02  0.10000001351E+02 0.  0.
        -12    1    1    2    0    0 -0.33371356484E+02 -0.27980982709E+02 -0.11512195624E+02  0.45045682091E+02  0.00000000000E+00 0.  1.
         11    1    3    3    0    0  0.10226518922E+02  0.88578494324E+01  0.82948950857E+01  0.15869734420E+02  0.51100000000E-03 0. -1.
        -11    1    3    3    0    0  0.14250507405E+02  0.11376778873E+02  0.93261391358E+00  0.18258637074E+02  0.51100000000E-03 0.  1.
         12    1    3    3    0    0  0.88943301568E+01  0.77463544043E+01  0.22846866245E+01  0.12013946415E+02  0.00000000000E+00 0. -1.
</event>
<event>
 7    1  0.1549900E-008  0.4614232E+02  0.7816164E-02  0.1320468E+00
        -11   -1    0    0    0    0  0.00000000000E+00  0.00000000000E+00  0.45593999997E+02  0.45594000000E+02  0.51100000000E-03 0.  1.
         11   -1    0    0    0    0 -0.00000000000E+00 -0.00000000000E+00 -0.45593999997E+02  0.45594000000E+02  0.51100000000E-03 0. -1.
    9900012    2    1    2    0    0  0.27837040099E+02 -0.15358092271E+02 -0.31911461841E+02  0.46142321000E+02  0.10000029538E+02 0.  0.
        -12    1    1    2    0    0 -0.27837040099E+02  0.15358092271E+02  0.31911461841E+02  0.45045679000E+02  0.00000000000E+00 0.  1.
         11    1    3    3    0    0  0.48359386621E+01 -0.24315254044E+00 -0.26050448184E+01  0.54983347178E+01  0.51100000000E-03 0. -1.
        -11    1    3    3    0    0  0.61093908439E+01 -0.71943795598E+01 -0.11187277306E+02  0.14636902935E+02  0.51100000000E-03 0.  1.
         12    1    3    3    0    0  0.16891710593E+02 -0.79205601707E+01 -0.18119139717E+02  0.26007083348E+02  0.00000000000E+00 0. -1.
</event>
<event>
 7    1  0.1549900E-008  0.4614232E+02  0.7816164E-02  0.1320468E+00
        -11   -1    0    0    0    0  0.00000000000E+00  0.00000000000E+00  0.45593999997E+02  0.45594000000E+02  0.51100000000E-03 0.  1.
         11   -1    0    0    0    0 -0.00000000000E+00 -0.00000000000E+00 -0.45593999997E+02  0.45594000000E+02  0.51100000000E-03 0. -1.
    9900012    2    1    2    0    0 -0.27235827004E+02  0.24513748867E+02 -0.26199225220E+02  0.46142316985E+02  0.99999929248E+01 0.  0.
        -12    1    1    2    0    0  0.27235827004E+02 -0.24513748867E+02  0.26199225220E+02  0.45045683015E+02  0.00000000000E+00 0.  1.
         11    1    3    3    0    0 -0.97063026744E+01  0.65505568228E+01 -0.10834813432E+02  0.15953535303E+02  0.51100000000E-03 0. -1.
        -11    1    3    3    0    0 -0.17469830174E+01  0.91802679290E-01  0.12921846335E+00  0.17541593621E+01  0.51100000000E-03 0.  1.
         12    1    3    3    0    0 -0.15782541312E+02  0.17871389365E+02 -0.15493630251E+02  0.28434622320E+02  0.00000000000E+00 0. -1.
</event>
<event>
 7    1  0.1549900E-008  0.4614232E+02  0.7816164E-02  0.1320468E+00
        -11   -1    0    0    0    0  0.00000000000E+00  0.00000000000E+00  0.45593999997E+02  0.45594000000E+02  0.51100000000E-03 0.  1.
         11   -1    0    0    0    0 -0.00000000000E+00 -0.00000000000E+00 -0.45593999997E+02  0.45594000000E+02  0.51100000000E-03 0. -1.
    9900012    2    1    2    0    0  0.10661689616E+02 -0.27118178307E+01 -0.43681664047E+02  0.46142319238E+02  0.10000013467E+02 0.  0.
        -12    1    1    2    0    0 -0.10661689616E+02  0.27118178307E+01  0.43681664047E+02  0.45045680762E+02  0.00000000000E+00 0.  1.
         11    1    3    3    0    0  0.11012959036E+02 -0.20915801894E+01 -0.38962222739E+02  0.40542752440E+02  0.51100000000E-03 0. -1.
        -11    1    3    3    0    0  0.89790744201E+00 -0.61544440857E+00 -0.49783088666E+00  0.11970152243E+01  0.51100000000E-03 0.  1.
         12    1    3    3    0    0 -0.12491768619E+01 -0.47932327009E-02 -0.42216104217E+01  0.44025515738E+01  0.00000000000E+00 0. -1.
</event>
<event>
 7    1  0.1549900E-008  0.4614232E+02  0.7816164E-02  0.1320468E+00
        -11   -1    0    0    0    0  0.00000000000E+00  0.00000000000E+00  0.45593999997E+02  0.45594000000E+02  0.51100000000E-03 0. -1.
         11   -1    0    0    0    0 -0.00000000000E+00 -0.00000000000E+00 -0.45593999997E+02  0.45594000000E+02  0.51100000000E-03 0.  1.
    9900012    2    1    2    0    0 -0.26424703001E+02 -0.33566987618E+02 -0.14286565438E+02  0.46142317206E+02  0.99999949338E+01 0.  0.
        -12    1    1    2    0    0  0.26424703001E+02  0.33566987618E+02  0.14286565438E+02  0.45045682794E+02  0.00000000000E+00 0.  1.
         11    1    3    3    0    0 -0.17828656018E+02 -0.20482368616E+02 -0.13351884738E+02  0.30259894677E+02  0.51100000000E-03 0. -1.
        -11    1    3    3    0    0 -0.68256178649E+01 -0.85856721866E+01 -0.12393870716E+01  0.11038066258E+02  0.51100000000E-03 0.  1.
         12    1    3    3    0    0 -0.17704291179E+01 -0.44989468153E+01  0.30470637215E+00  0.48443562711E+01  0.00000000000E+00 0. -1.
</event>
<event>
 7    1  0.1549900E-008  0.4614232E+02  0.7816164E-02  0.1320468E+00
        -11   -1    0    0    0    0  0.00000000000E+00  0.00000000000E+00  0.45593999997E+02  0.45594000000E+02  0.51100000000E-03 0.  1.
         11   -1    0    0    0    0 -0.00000000000E+00 -0.00000000000E+00 -0.45593999997E+02  0.45594000000E+02  0.51100000000E-03 0. -1.
    9900012    2    1    2    0    0 -0.40492078302E+02  0.10984560223E+02 -0.16396477664E+02  0.46142318206E+02  0.10000004057E+02 0.  0.
        -12    1    1    2    0    0  0.40492078302E+02 -0.10984560223E+02  0.16396477664E+02  0.45045681794E+02  0.00000000000E+00 0.  1.
         11    1    3    3    0    0 -0.12464708060E+02  0.30446256746E+01 -0.27432515864E+01  0.13121132651E+02  0.51100000000E-03 0. -1.
        -11    1    3    3    0    0 -0.21602996113E+02  0.78537607485E+01 -0.13365892728E+02  0.26589811726E+02  0.51100000000E-03 0.  1.
        -12    1    3    3    0    0 -0.64243741287E+01  0.86173800327E-01 -0.28733334928E+00  0.64313738286E+01  0.00000000000E+00 0.  1.
</event>
<event>
 7    1  0.1549900E-008  0.4614232E+02  0.7816164E-02  0.1320468E+00
        -11   -1    0    0    0    0  0.00000000000E+00  0.00000000000E+00  0.45593999997E+02  0.45594000000E+02  0.51100000000E-03 0.  1.
         11   -1    0    0    0    0 -0.00000000000E+00 -0.00000000000E+00 -0.45593999997E+02  0.45594000000E+02  0.51100000000E-03 0. -1.
    9900012    2    1    2    0    0 -0.72794659320E+00  0.38017375176E+02 -0.24150832896E+02  0.46142318176E+02  0.10000003779E+02 0.  0.
        -12    1    1    2    0    0  0.72794659320E+00 -0.38017375176E+02  0.24150832896E+02  0.45045681824E+02  0.00000000000E+00 0.  1.
         11    1    3    3    0    0 -0.23538369787E+01  0.84373749473E+01 -0.17853536823E+01  0.89396494649E+01  0.51100000000E-03 0. -1.
        -11    1    3    3    0    0 -0.25283734901E+00  0.37359322695E+01 -0.37292494676E+01  0.52847344778E+01  0.51100000000E-03 0.  1.
         12    1    3    3    0    0  0.18787277345E+01  0.25844067959E+02 -0.18636229746E+02  0.31917934233E+02  0.00000000000E+00 0. -1.
</event>
<event>
 7    1  0.1549900E-008  0.4614232E+02  0.7816164E-02  0.1320468E+00
        -11   -1    0    0    0    0  0.00000000000E+00  0.00000000000E+00  0.45593999997E+02  0.45594000000E+02  0.51100000000E-03 0. -1.
         11   -1    0    0    0    0 -0.00000000000E+00 -0.00000000000E+00 -0.45593999997E+02  0.45594000000E+02  0.51100000000E-03 0.  1.
    9900012    2    1    2    0    0 -0.23676242456E+02 -0.36898099941E+02 -0.10347911911E+02  0.46142317443E+02  0.99999970988E+01 0.  0.
        -12    1    1    2    0    0  0.23676242456E+02  0.36898099941E+02  0.10347911911E+02  0.45045682557E+02  0.00000000000E+00 0.  1.
         11    1    3    3    0    0 -0.11414238872E+02 -0.22660672821E+02 -0.81367410538E+01  0.26645778220E+02  0.51100000000E-03 0. -1.
        -11    1    3    3    0    0 -0.92859678167E+01 -0.10327501754E+02  0.47514949958E+00  0.13896483659E+02  0.51100000000E-03 0.  1.
         12    1    3    3    0    0 -0.29760357673E+01 -0.39099253665E+01 -0.26863203571E+01  0.56000555641E+01  0.00000000000E+00 0. -1.
</event>
<event>
 7    1  0.1549900E-008  0.4614232E+02  0.7816164E-02  0.1320468E+00
        -11   -1    0    0    0    0  0.00000000000E+00  0.00000000000E+00  0.45593999997E+02  0.45594000000E+02  0.51100000000E-03 0. -1.
         11   -1    0    0    0    0 -0.00000000000E+00 -0.00000000000E+00 -0.45593999997E+02  0.45594000000E+02  0.51100000000E-03 0.  1.
    9900012    2    1    2    0    0 -0.37625051350E+02  0.13231373575E+02  0.20938001637E+02  0.46142315986E+02  0.99999838112E+01 0.  0.
        -12    1    1    2    0    0  0.37625051350E+02 -0.13231373575E+02 -0.20938001637E+02  0.45045684014E+02  0.00000000000E+00 0.  1.
         11    1    3    3    0    0 -0.17448557790E+02  0.96268458469E+01  0.13623456144E+02  0.24139736691E+02  0.51100000000E-03 0. -1.
        -11    1    3    3    0    0 -0.73625533139E+01  0.27482838748E+01  0.20410062481E+01  0.81194804219E+01  0.51100000000E-03 0.  1.
         12    1    3    3    0    0 -0.12813940246E+02  0.85624385338E+00  0.52735392445E+01  0.13883098873E+02  0.00000000000E+00 0. -1.
</event>
<event>
 7    1  0.1549900E-008  0.4614232E+02  0.7816164E-02  0.1320468E+00
        -11   -1    0    0    0    0  0.00000000000E+00  0.00000000000E+00  0.45593999997E+02  0.45594000000E+02  0.51100000000E-03 0.  1.
         11   -1    0    0    0    0 -0.00000000000E+00 -0.00000000000E+00 -0.45593999997E+02  0.45594000000E+02  0.51100000000E-03 0. -1.
    9900012    2    1    2    0    0 -0.35498215008E+02  0.75858515759E+01 -0.26672924982E+02  0.46142319408E+02  0.10000015019E+02 0.  0.
        -12    1    1    2    0    0  0.35498215008E+02 -0.75858515759E+01  0.26672924982E+02  0.45045680592E+02  0.00000000000E+00 0.  1.
         11    1    3    3    0    0 -0.20057339567E+02  0.88075675487E+01 -0.15167984476E+02  0.26644659314E+02  0.51100000000E-03 0. -1.
        -11    1    3    3    0    0 -0.13272109779E+02 -0.20187942091E+01 -0.10005150745E+02  0.16742982701E+02  0.51100000000E-03 0.  1.
        -12    1    3    3    0    0 -0.21687656623E+01  0.79707823641E+00 -0.14997897608E+01  0.27546773930E+01  0.00000000000E+00 0.  1.
</event>
<event>
 7    1  0.1549900E-008  0.4614232E+02  0.7816164E-02  0.1320468E+00
        -11   -1    0    0    0    0  0.00000000000E+00  0.00000000000E+00  0.45593999997E+02  0.45594000000E+02  0.51100000000E-03 0.  1.
         11   -1    0    0    0    0 -0.00000000000E+00 -0.00000000000E+00 -0.45593999997E+02  0.45594000000E+02  0.51100000000E-03 0. -1.
    9900012    2    1    2    0    0 -0.17086359339E+02  0.29570394794E+01 -0.41574340283E+02  0.46142317322E+02  0.99999959969E+01 0.  0.
        -12    1    1    2    0    0  0.17086359339E+02 -0.29570394794E+01  0.41574340283E+02  0.45045682678E+02  0.00000000000E+00 0.  1.
         11    1    3    3    0    0 -0.71661464366E+01  0.13953521275E+01 -0.14021210177E+02  0.15808067478E+02  0.51100000000E-03 0. -1.
        -11    1    3    3    0    0 -0.27500325695E+00 -0.21352577844E+01 -0.29617988009E+01  0.36615850386E+01  0.51100000000E-03 0.  1.
        -12    1    3    3    0    0 -0.96452096455E+01  0.36969451363E+01 -0.24591331306E+02  0.26672664806E+02  0.00000000000E+00 0.  1.
</event>
<event>
 7    1  0.1549900E-008  0.4614232E+02  0.7816164E-02  0.1320468E+00
        -11   -1    0    0    0    0  0.00000000000E+00  0.00000000000E+00  0.45593999997E+02  0.45594000000E+02  0.51100000000E-03 0. -1.
         11   -1    0    0    0    0 -0.00000000000E+00 -0.00000000000E+00 -0.45593999997E+02  0.45594000000E+02  0.51100000000E-03 0.  1.
    9900012    2    1    2    0    0 -0.34273578746E+02  0.23766720692E+02 -0.17016999510E+02  0.46142317800E+02  0.10000000356E+02 0.  0.
        -12    1    1    2    0    0  0.34273578746E+02 -0.23766720692E+02  0.17016999510E+02  0.45045682200E+02  0.00000000000E+00 0.  1.
         11    1    3    3    0    0 -0.47285869990E+01  0.30227216330E+01 -0.20445392497E+01  0.59729826789E+01  0.51100000000E-03 0. -1.
        -11    1    3    3    0    0 -0.15331957966E+02  0.51536339152E+01 -0.67522939260E+01  0.17527759444E+02  0.51100000000E-03 0.  1.
        -12    1    3    3    0    0 -0.14213033781E+02  0.15590365143E+02 -0.82201663346E+01  0.22641575677E+02  0.00000000000E+00 0.  1.
</event>
<event>
 7    1  0.1549900E-008  0.4614232E+02  0.7816164E-02  0.1320468E+00
        -11   -1    0    0    0    0  0.00000000000E+00  0.00000000000E+00  0.45593999997E+02  0.45594000000E+02  0.51100000000E-03 0. -1.
         11   -1    0    0    0    0 -0.00000000000E+00 -0.00000000000E+00 -0.45593999997E+02  0.45594000000E+02  0.51100000000E-03 0.  1.
    9900012    2    1    2    0    0 -0.30250102144E+02 -0.25456916533E+02 -0.21586805216E+02  0.46142318314E+02  0.10000005046E+02 0.  0.
        -12    1    1    2    0    0  0.30250102144E+02  0.25456916533E+02  0.21586805216E+02  0.45045681686E+02  0.00000000000E+00 0.  1.
         11    1    3    3    0    0 -0.25814484807E+02 -0.19394848402E+02 -0.17648702404E+02  0.36797071449E+02  0.51100000000E-03 0. -1.
        -11    1    3    3    0    0 -0.18754639197E+00  0.10458777163E+00  0.56697881842E+00  0.60628169424E+00  0.51100000000E-03 0.  1.
         12    1    3    3    0    0 -0.42480709450E+01 -0.61666559028E+01 -0.45050816302E+01  0.87389651717E+01  0.00000000000E+00 0. -1.
</event>
<event>
 7    1  0.1549900E-008  0.4614232E+02  0.7816164E-02  0.1320468E+00
        -11   -1    0    0    0    0  0.00000000000E+00  0.00000000000E+00  0.45593999997E+02  0.45594000000E+02  0.51100000000E-03 0. -1.
         11   -1    0    0    0    0 -0.00000000000E+00 -0.00000000000E+00 -0.45593999997E+02  0.45594000000E+02  0.51100000000E-03 0.  1.
    9900012    2    1    2    0    0 -0.38364521976E+02 -0.21392431559E+02  0.99820242829E+01  0.46142317818E+02  0.10000000518E+02 0.  0.
        -12    1    1    2    0    0  0.38364521976E+02  0.21392431559E+02 -0.99820242829E+01  0.45045682182E+02  0.00000000000E+00 0.  1.
         11    1    3    3    0    0 -0.77839406841E+01 -0.75182803819E+01  0.46171886315E+01  0.11765742798E+02  0.51100000000E-03 0. -1.
        -11    1    3    3    0    0 -0.19278360021E+02 -0.11340148260E+02  0.32225066187E+01  0.22597315699E+02  0.51100000000E-03 0.  1.
        -12    1    3    3    0    0 -0.11302221272E+02 -0.25340029170E+01  0.21423290326E+01  0.11779259321E+02  0.00000000000E+00 0.  1.
</event>
<event>
 7    1  0.1549900E-008  0.4614232E+02  0.7816164E-02  0.1320468E+00
        -11   -1    0    0    0    0  0.00000000000E+00  0.00000000000E+00  0.45593999997E+02  0.45594000000E+02  0.51100000000E-03 0.  1.
         11   -1    0    0    0    0 -0.00000000000E+00 -0.00000000000E+00 -0.45593999997E+02  0.45594000000E+02  0.51100000000E-03 0. -1.
    9900012    2    1    2    0    0  0.41376933215E+02  0.21564178140E+01 -0.17675201985E+02  0.46142317574E+02  0.99999982911E+01 0.  0.
        -12    1    1    2    0    0 -0.41376933215E+02 -0.21564178140E+01  0.17675201985E+02  0.45045682426E+02  0.00000000000E+00 0.  1.
         11    1    3    3    0    0  0.83680363784E+01 -0.25137125664E+01 -0.58638952347E+01  0.10522739723E+02  0.51100000000E-03 0. -1.
        -11    1    3    3    0    0  0.49886274499E+01  0.20852439790E+01 -0.26886686667E+01  0.60385085697E+01  0.51100000000E-03 0.  1.
         12    1    3    3    0    0  0.28020269386E+02  0.25848864014E+01 -0.91226380833E+01  0.29581069281E+02  0.00000000000E+00 0. -1.
</event>
<event>
 7    1  0.1549900E-008  0.4614232E+02  0.7816164E-02  0.1320468E+00
        -11   -1    0    0    0    0  0.00000000000E+00  0.00000000000E+00  0.45593999997E+02  0.45594000000E+02  0.51100000000E-03 0.  1.
         11   -1    0    0    0    0 -0.00000000000E+00 -0.00000000000E+00 -0.45593999997E+02  0.45594000000E+02  0.51100000000E-03 0. -1.
    9900012    2    1    2    0    0 -0.22139882189E+02  0.27628084002E+02 -0.27850100047E+02  0.46142317836E+02  0.10000000685E+02 0.  0.
        -12    1    1    2    0    0  0.22139882189E+02 -0.27628084002E+02  0.27850100047E+02  0.45045682164E+02  0.00000000000E+00 0.  1.
         11    1    3    3    0    0 -0.19088903123E+02  0.25990524313E+02 -0.23933043376E+02  0.40158238781E+02  0.51100000000E-03 0. -1.
        -11    1    3    3    0    0 -0.42585975967E+00  0.12752997752E+01 -0.28042510536E+01  0.31099148355E+01  0.51100000000E-03 0.  1.
         12    1    3    3    0    0 -0.26251193065E+01  0.36225991367E+00 -0.11128056172E+01  0.28741642194E+01  0.00000000000E+00 0. -1.
</event>
<event>
 7    1  0.1549900E-008  0.4614232E+02  0.7816164E-02  0.1320468E+00
        -11   -1    0    0    0    0  0.00000000000E+00  0.00000000000E+00  0.45593999997E+02  0.45594000000E+02  0.51100000000E-03 0.  1.
         11   -1    0    0    0    0 -0.00000000000E+00 -0.00000000000E+00 -0.45593999997E+02  0.45594000000E+02  0.51100000000E-03 0. -1.
    9900012    2    1    2    0    0 -0.19105241871E+02  0.39708123627E+02  0.93470840995E+01  0.46142319518E+02  0.10000016017E+02 0.  0.
        -12    1    1    2    0    0  0.19105241871E+02 -0.39708123627E+02 -0.93470840995E+01  0.45045680482E+02  0.00000000000E+00 0.  1.
         11    1    3    3    0    0 -0.16918133625E+02  0.32776372524E+02  0.10183806610E+02  0.38265176839E+02  0.51100000000E-03 0. -1.
        -11    1    3    3    0    0 -0.58335821959E+00  0.53272528660E+00 -0.10046697205E+01  0.12780706364E+01  0.51100000000E-03 0.  1.
        -12    1    3    3    0    0 -0.16037500266E+01  0.63990258167E+01  0.16794720977E+00  0.65990720421E+01  0.00000000000E+00 0.  1.
</event>
<event>
 7    1  0.1549900E-008  0.4614232E+02  0.7816164E-02  0.1320468E+00
        -11   -1    0    0    0    0  0.00000000000E+00  0.00000000000E+00  0.45593999997E+02  0.45594000000E+02  0.51100000000E-03 0.  1.
         11   -1    0    0    0    0 -0.00000000000E+00 -0.00000000000E+00 -0.45593999997E+02  0.45594000000E+02  0.51100000000E-03 0. -1.
    9900012    2    1    2    0    0 -0.20394359986E+02  0.28322208715E+02 -0.28478694816E+02  0.46142317807E+02  0.10000000422E+02 0.  0.
        -12    1    1    2    0    0  0.20394359986E+02 -0.28322208715E+02  0.28478694816E+02  0.45045682193E+02  0.00000000000E+00 0.  1.
         11    1    3    3    0    0 -0.67717565337E+01  0.14369724819E+02 -0.15277868637E+02  0.22039939843E+02  0.51100000000E-03 0. -1.
        -11    1    3    3    0    0 -0.10530362697E+02  0.87329136023E+01 -0.67783570213E+01  0.15267561779E+02  0.51100000000E-03 0.  1.
        -12    1    3    3    0    0 -0.30922407556E+01  0.52195702936E+01 -0.64224691581E+01  0.88348161852E+01  0.00000000000E+00 0.  1.
</event>
<event>
 7    1  0.1549900E-008  0.4614232E+02  0.7816164E-02  0.1320468E+00
        -11   -1    0    0    0    0  0.00000000000E+00  0.00000000000E+00  0.45593999997E+02  0.45594000000E+02  0.51100000000E-03 0.  1.
         11   -1    0    0    0    0 -0.00000000000E+00 -0.00000000000E+00 -0.45593999997E+02  0.45594000000E+02  0.51100000000E-03 0. -1.
    9900012    2    1    2    0    0 -0.31024452567E+01 -0.20457381059E+02 -0.40012296618E+02  0.46142317776E+02  0.10000000136E+02 0.  0.
        -12    1    1    2    0    0  0.31024452567E+01  0.20457381059E+02  0.40012296618E+02  0.45045682224E+02  0.00000000000E+00 0.  1.
         11    1    3    3    0    0  0.16122870690E+01 -0.70575100834E+01 -0.19797163801E+02  0.21079269745E+02  0.51100000000E-03 0. -1.
        -11    1    3    3    0    0 -0.43691406311E+01 -0.13668174778E+02 -0.19312268270E+02  0.24059760964E+02  0.51100000000E-03 0.  1.
         12    1    3    3    0    0 -0.34559169454E+00  0.26830380217E+00 -0.90286454644E+00  0.10032870670E+01  0.00000000000E+00 0. -1.
</event>
<event>
 7    1  0.1549900E-008  0.4614232E+02  0.7816164E-02  0.1320468E+00
        -11   -1    0    0    0    0  0.00000000000E+00  0.00000000000E+00  0.45593999997E+02  0.45594000000E+02  0.51100000000E-03 0.  1.
         11   -1    0    0    0    0 -0.00000000000E+00 -0.00000000000E+00 -0.45593999997E+02  0.45594000000E+02  0.51100000000E-03 0. -1.
    9900012    2    1    2    0    0 -0.25527800681E+02  0.15097786652E+02 -0.33904294769E+02  0.46142323480E+02  0.10000052145E+02 0.  0.
        -12    1    1    2    0    0  0.25527800681E+02 -0.15097786652E+02  0.33904294769E+02  0.45045676520E+02  0.00000000000E+00 0.  1.
         11    1    3    3    0    0 -0.92169992656E+01  0.97461928094E+01 -0.11995217899E+02  0.17995182757E+02  0.51100000000E-03 0. -1.
        -11    1    3    3    0    0 -0.63769119746E+01  0.12420641558E+01 -0.11353758556E+02  0.13081114758E+02  0.51100000000E-03 0.  1.
        -12    1    3    3    0    0 -0.99338894405E+01  0.41095296865E+01 -0.10555318314E+02  0.15066025965E+02  0.00000000000E+00 0.  1.
</event>
<event>
 7    1  0.1549900E-008  0.4614232E+02  0.7816164E-02  0.1320468E+00
        -11   -1    0    0    0    0  0.00000000000E+00  0.00000000000E+00  0.45593999997E+02  0.45594000000E+02  0.51100000000E-03 0.  1.
         11   -1    0    0    0    0 -0.00000000000E+00 -0.00000000000E+00 -0.45593999997E+02  0.45594000000E+02  0.51100000000E-03 0. -1.
    9900012    2    1    2    0    0  0.19797116025E+01 -0.12169941553E+02 -0.43325357902E+02  0.46142319044E+02  0.10000011698E+02 0.  0.
        -12    1    1    2    0    0 -0.19797116025E+01  0.12169941553E+02  0.43325357902E+02  0.45045680956E+02  0.00000000000E+00 0.  1.
         11    1    3    3    0    0  0.34506267389E+01 -0.48980793436E+01 -0.10727278368E+02  0.12287087026E+02  0.51100000000E-03 0. -1.
        -11    1    3    3    0    0 -0.17000019825E+01 -0.22823044760E+01 -0.21467559565E+02  0.21655369644E+02  0.51100000000E-03 0.  1.
        -12    1    3    3    0    0  0.22908684609E+00 -0.49895577333E+01 -0.11130519969E+02  0.12199862374E+02  0.00000000000E+00 0.  1.
</event>
<event>
 7    1  0.1549900E-008  0.4614232E+02  0.7816164E-02  0.1320468E+00
        -11   -1    0    0    0    0  0.00000000000E+00  0.00000000000E+00  0.45593999997E+02  0.45594000000E+02  0.51100000000E-03 0.  1.
         11   -1    0    0    0    0 -0.00000000000E+00 -0.00000000000E+00 -0.45593999997E+02  0.45594000000E+02  0.51100000000E-03 0. -1.
    9900012    2    1    2    0    0  0.24062179904E+02  0.18863204330E+02 -0.33080274451E+02  0.46142317220E+02  0.99999950700E+01 0.  0.
        -12    1    1    2    0    0 -0.24062179904E+02 -0.18863204330E+02  0.33080274451E+02  0.45045682780E+02  0.00000000000E+00 0.  1.
         11    1    3    3    0    0  0.12116726348E+02  0.11441209820E+02 -0.16287019905E+02  0.23302003287E+02  0.51100000000E-03 0. -1.
        -11    1    3    3    0    0  0.30955321647E+01 -0.79683256338E+00 -0.21193590293E+01  0.38352241751E+01  0.51100000000E-03 0.  1.
        -12    1    3    3    0    0  0.88499213912E+01  0.82188270736E+01 -0.14673895517E+02  0.19005089759E+02  0.00000000000E+00 0.  1.
</event>
<event>
 7    1  0.1549900E-008  0.4614232E+02  0.7816164E-02  0.1320468E+00
        -11   -1    0    0    0    0  0.00000000000E+00  0.00000000000E+00  0.45593999997E+02  0.45594000000E+02  0.51100000000E-03 0. -1.
         11   -1    0    0    0    0 -0.00000000000E+00 -0.00000000000E+00 -0.45593999997E+02  0.45594000000E+02  0.51100000000E-03 0.  1.
    9900012    2    1    2    0    0 -0.10934789766E+02  0.43188302032E+02 -0.66569074336E+01  0.46142317896E+02  0.10000001233E+02 0.  0.
        -12    1    1    2    0    0  0.10934789766E+02 -0.43188302032E+02  0.66569074336E+01  0.45045682104E+02  0.00000000000E+00 0.  1.
         11    1    3    3    0    0  0.70888883077E+00  0.12492046331E+01 -0.83637286162E+00  0.16620936841E+01  0.51100000000E-03 0. -1.
        -11    1    3    3    0    0 -0.44262242881E+00 -0.19823847617E+00 -0.17488207744E+00  0.51555514744E+00  0.51100000000E-03 0.  1.
         12    1    3    3    0    0 -0.11201056168E+02  0.42137335875E+02 -0.56456524946E+01  0.43964669065E+02  0.00000000000E+00 0. -1.
</event>
<event>
 7    1  0.1549900E-008  0.4614232E+02  0.7816164E-02  0.1320468E+00
        -11   -1    0    0    0    0  0.00000000000E+00  0.00000000000E+00  0.45593999997E+02  0.45594000000E+02  0.51100000000E-03 0. -1.
         11   -1    0    0    0    0 -0.00000000000E+00 -0.00000000000E+00 -0.45593999997E+02  0.45594000000E+02  0.51100000000E-03 0.  1.
    9900012    2    1    2    0    0  0.91896924492E+01 -0.29687169842E+02  0.32608813266E+02  0.46142320927E+02  0.10000028873E+02 0.  0.
        -12    1    1    2    0    0 -0.91896924492E+01  0.29687169842E+02 -0.32608813266E+02  0.45045679073E+02  0.00000000000E+00 0.  1.
         11    1    3    3    0    0  0.10307853973E+02 -0.28000254428E+02  0.28925253136E+02  0.41556423942E+02  0.51100000000E-03 0. -1.
        -11    1    3    3    0    0 -0.13940813785E+01 -0.10529751377E+01  0.34303333341E+01  0.38495982355E+01  0.51100000000E-03 0.  1.
        -12    1    3    3    0    0  0.27591985494E+00 -0.63394027597E+00  0.25322679518E+00  0.73629875026E+00  0.00000000000E+00 0.  1.
</event>
<event>
 7    1  0.1549900E-008  0.4614232E+02  0.7816164E-02  0.1320468E+00
        -11   -1    0    0    0    0  0.00000000000E+00  0.00000000000E+00  0.45593999997E+02  0.45594000000E+02  0.51100000000E-03 0. -1.
         11   -1    0    0    0    0 -0.00000000000E+00 -0.00000000000E+00 -0.45593999997E+02  0.45594000000E+02  0.51100000000E-03 0.  1.
    9900012    2    1    2    0    0 -0.16911088526E+02  0.14497158517E+02  0.39153044701E+02  0.46142318413E+02  0.10000005949E+02 0.  0.
        -12    1    1    2    0    0  0.16911088526E+02 -0.14497158517E+02 -0.39153044701E+02  0.45045681587E+02  0.00000000000E+00 0.  1.
         11    1    3    3    0    0 -0.42785707430E+01  0.55009671518E+01  0.16151049778E+02  0.17590429682E+02  0.51100000000E-03 0. -1.
        -11    1    3    3    0    0 -0.12115269455E+02  0.66919760070E+01  0.21988923024E+02  0.25982206081E+02  0.51100000000E-03 0.  1.
         12    1    3    3    0    0 -0.51724832811E+00  0.23042153579E+01  0.10130719001E+01  0.25696826503E+01  0.00000000000E+00 0. -1.
</event>
<event>
 7    1  0.1549900E-008  0.4614232E+02  0.7816164E-02  0.1320468E+00
        -11   -1    0    0    0    0  0.00000000000E+00  0.00000000000E+00  0.45593999997E+02  0.45594000000E+02  0.51100000000E-03 0. -1.
         11   -1    0    0    0    0 -0.00000000000E+00 -0.00000000000E+00 -0.45593999997E+02  0.45594000000E+02  0.51100000000E-03 0.  1.
    9900012    2    1    2    0    0  0.10899978481E+02 -0.13841983434E+02  0.41457248294E+02  0.46142317939E+02  0.10000001623E+02 0.  0.
        -12    1    1    2    0    0 -0.10899978481E+02  0.13841983434E+02 -0.41457248294E+02  0.45045682061E+02  0.00000000000E+00 0.  1.
         11    1    3    3    0    0  0.45350146531E+01 -0.33312764606E+01  0.56886108574E+01  0.80015032656E+01  0.51100000000E-03 0. -1.
        -11    1    3    3    0    0  0.32275919482E+01 -0.31047093058E+01  0.73593849827E+01  0.86149357074E+01  0.51100000000E-03 0.  1.
         12    1    3    3    0    0  0.31373718793E+01 -0.74059976675E+01  0.28409252453E+02  0.29525878966E+02  0.00000000000E+00 0. -1.
</event>
<event>
 7    1  0.1549900E-008  0.4614232E+02  0.7816164E-02  0.1320468E+00
        -11   -1    0    0    0    0  0.00000000000E+00  0.00000000000E+00  0.45593999997E+02  0.45594000000E+02  0.51100000000E-03 0.  1.
         11   -1    0    0    0    0 -0.00000000000E+00 -0.00000000000E+00 -0.45593999997E+02  0.45594000000E+02  0.51100000000E-03 0. -1.
    9900012    2    1    2    0    0  0.44102768178E+02 -0.57865871952E+01  0.71115898607E+01  0.46142318047E+02  0.10000002604E+02 0.  0.
        -12    1    1    2    0    0 -0.44102768178E+02  0.57865871952E+01 -0.71115898607E+01  0.45045681953E+02  0.00000000000E+00 0.  1.
         11    1    3    3    0    0  0.31773960583E+02 -0.32341739971E+01  0.16925186706E+01  0.31982949712E+02  0.51100000000E-03 0. -1.
        -11    1    3    3    0    0  0.94238979854E+01 -0.10643889679E+01  0.53627374034E+01  0.10895032347E+02  0.51100000000E-03 0.  1.
        -12    1    3    3    0    0  0.29049096097E+01 -0.14880242302E+01  0.56333786736E-01  0.32643359885E+01  0.00000000000E+00 0.  1.
</event>
<event>
 7    1  0.1549900E-008  0.4614232E+02  0.7816164E-02  0.1320468E+00
        -11   -1    0    0    0    0  0.00000000000E+00  0.00000000000E+00  0.45593999997E+02  0.45594000000E+02  0.51100000000E-03 0.  1.
         11   -1    0    0    0    0 -0.00000000000E+00 -0.00000000000E+00 -0.45593999997E+02  0.45594000000E+02  0.51100000000E-03 0. -1.
    9900012    2    1    2    0    0  0.27787131439E+00 -0.44540729958E+02 -0.67200945894E+01  0.46142317533E+02  0.99999979177E+01 0.  0.
        -12    1    1    2    0    0 -0.27787131439E+00  0.44540729958E+02  0.67200945894E+01  0.45045682467E+02  0.00000000000E+00 0.  1.
         11    1    3    3    0    0 -0.21321617638E+01 -0.73471430582E+01 -0.39985921107E+01  0.86322282195E+01  0.51100000000E-03 0. -1.
        -11    1    3    3    0    0  0.12670881097E+01 -0.19217084654E+02  0.21202007217E+00  0.19259979430E+02  0.51100000000E-03 0.  1.
         12    1    3    3    0    0  0.11429449685E+01 -0.17976502246E+02 -0.29335225509E+01  0.18250109883E+02  0.00000000000E+00 0. -1.
</event>
<event>
 7    1  0.1549900E-008  0.4614232E+02  0.7816164E-02  0.1320468E+00
        -11   -1    0    0    0    0  0.00000000000E+00  0.00000000000E+00  0.45593999997E+02  0.45594000000E+02  0.51100000000E-03 0.  1.
         11   -1    0    0    0    0 -0.00000000000E+00 -0.00000000000E+00 -0.45593999997E+02  0.45594000000E+02  0.51100000000E-03 0. -1.
    9900012    2    1    2    0    0 -0.42349102741E+02 -0.14131613366E+02 -0.59970451110E+01  0.46142317084E+02  0.99999938279E+01 0.  0.
        -12    1    1    2    0    0  0.42349102741E+02  0.14131613366E+02  0.59970451110E+01  0.45045682916E+02  0.00000000000E+00 0.  1.
         11    1    3    3    0    0 -0.33725345548E+02 -0.97257359074E+01 -0.69897971135E+01  0.35788910786E+02  0.51100000000E-03 0. -1.
        -11    1    3    3    0    0 -0.75523593687E+00  0.28922865271E+00  0.87266183898E+00  0.11897787526E+01  0.51100000000E-03 0.  1.
        -12    1    3    3    0    0 -0.78685212554E+01 -0.46951061116E+01  0.12009016347E+00  0.91636275455E+01  0.00000000000E+00 0.  1.
</event>
<event>
 7    1  0.1549900E-008  0.4614232E+02  0.7816164E-02  0.1320468E+00
        -11   -1    0    0    0    0  0.00000000000E+00  0.00000000000E+00  0.45593999997E+02  0.45594000000E+02  0.51100000000E-03 0.  1.
         11   -1    0    0    0    0 -0.00000000000E+00 -0.00000000000E+00 -0.45593999997E+02  0.45594000000E+02  0.51100000000E-03 0. -1.
    9900012    2    1    2    0    0  0.43092017116E+02 -0.13077748495E+02  0.10788750315E+01  0.46142318562E+02  0.10000007305E+02 0.  0.
        -12    1    1    2    0    0 -0.43092017116E+02  0.13077748495E+02 -0.10788750315E+01  0.45045681438E+02  0.00000000000E+00 0.  1.
         11    1    3    3    0    0  0.27392843013E+02 -0.43243567149E+01 -0.77479714720E+00  0.27742894950E+02  0.51100000000E-03 0. -1.
        -11    1    3    3    0    0  0.95082402361E+01 -0.51110691179E+01  0.28060951441E+01  0.11153646495E+02  0.51100000000E-03 0.  1.
        -12    1    3    3    0    0  0.61909338671E+01 -0.36423226624E+01 -0.95242296537E+00  0.72457771170E+01  0.00000000000E+00 0.  1.
</event>
<event>
 7    1  0.1549900E-008  0.4614232E+02  0.7816164E-02  0.1320468E+00
        -11   -1    0    0    0    0  0.00000000000E+00  0.00000000000E+00  0.45593999997E+02  0.45594000000E+02  0.51100000000E-03 0.  1.
         11   -1    0    0    0    0 -0.00000000000E+00 -0.00000000000E+00 -0.45593999997E+02  0.45594000000E+02  0.51100000000E-03 0. -1.
    9900012    2    1    2    0    0  0.44985198324E+02  0.20927910269E+01 -0.10323003435E+01  0.46142317782E+02  0.10000000188E+02 0.  0.
        -12    1    1    2    0    0 -0.44985198324E+02 -0.20927910269E+01  0.10323003435E+01  0.45045682218E+02  0.00000000000E+00 0.  1.
         11    1    3    3    0    0  0.19963560579E+02  0.77436373959E+00  0.12164096504E+01  0.20015570012E+02  0.51100000000E-03 0. -1.
        -11    1    3    3    0    0  0.10036347463E+02  0.40043539419E+01 -0.93313667395E+00  0.10845914678E+02  0.51100000000E-03 0.  1.
        -12    1    3    3    0    0  0.14985290282E+02 -0.26859266546E+01 -0.13155733199E+01  0.15280833092E+02  0.00000000000E+00 0.  1.
</event>
<event>
 7    1  0.1692001E-008  0.4614232E+02  0.7816164E-02  0.1320468E+00
        -11   -1    0    0    0    0  0.00000000000E+00  0.00000000000E+00  0.45593999997E+02  0.45594000000E+02  0.51100000000E-03 0.  1.
         11   -1    0    0    0    0 -0.00000000000E+00 -0.00000000000E+00 -0.45593999997E+02  0.45594000000E+02  0.51100000000E-03 0. -1.
    9900012    2    1    2    0    0  0.30697914236E+02 -0.32718787822E+02  0.40289655274E+01  0.46142316764E+02  0.99999909078E+01 0.  0.
        -12    1    1    2    0    0 -0.30697914236E+02  0.32718787822E+02 -0.40289655274E+01  0.45045683236E+02  0.00000000000E+00 0.  1.
         11    1    3    3    0    0  0.26502081410E+02 -0.28756073616E+02  0.59182211578E+01  0.39551200118E+02  0.51100000000E-03 0. -1.
        -11    1    3    3    0    0 -0.17400282308E+00 -0.35661714994E-01 -0.53252144754E+00  0.56136271124E+00  0.51100000000E-03 0.  1.
         12    1    3    3    0    0  0.43698356490E+01 -0.39270524909E+01 -0.13567341829E+01  0.60297539343E+01  0.00000000000E+00 0. -1.
</event>
<event>
 7    1  0.1549900E-008  0.4614232E+02  0.7816164E-02  0.1320468E+00
        -11   -1    0    0    0    0  0.00000000000E+00  0.00000000000E+00  0.45593999997E+02  0.45594000000E+02  0.51100000000E-03 0. -1.
         11   -1    0    0    0    0 -0.00000000000E+00 -0.00000000000E+00 -0.45593999997E+02  0.45594000000E+02  0.51100000000E-03 0.  1.
    9900012    2    1    2    0    0  0.20191109762E+02 -0.24131625144E+02 -0.32235032772E+02  0.46142316707E+02  0.99999903894E+01 0.  0.
        -12    1    1    2    0    0 -0.20191109762E+02  0.24131625144E+02  0.32235032772E+02  0.45045683293E+02  0.00000000000E+00 0.  1.
         11    1    3    3    0    0  0.44507049640E+01 -0.63798013345E+01 -0.12885513309E+02  0.15051481430E+02  0.51100000000E-03 0. -1.
        -11    1    3    3    0    0  0.19365369093E+01 -0.22703284406E+01 -0.42705613909E+00  0.30144557778E+01  0.51100000000E-03 0.  1.
         12    1    3    3    0    0  0.13803867889E+02 -0.15481495369E+02 -0.18922463324E+02  0.28076379499E+02  0.00000000000E+00 0. -1.
</event>
<event>
 7    1  0.1549900E-008  0.4614232E+02  0.7816164E-02  0.1320468E+00
        -11   -1    0    0    0    0  0.00000000000E+00  0.00000000000E+00  0.45593999997E+02  0.45594000000E+02  0.51100000000E-03 0.  1.
         11   -1    0    0    0    0 -0.00000000000E+00 -0.00000000000E+00 -0.45593999997E+02  0.45594000000E+02  0.51100000000E-03 0. -1.
    9900012    2    1    2    0    0  0.32110121195E+02  0.27730414104E+02 -0.15135315739E+02  0.46142317276E+02  0.99999955801E+01 0.  0.
        -12    1    1    2    0    0 -0.32110121195E+02 -0.27730414104E+02  0.15135315739E+02  0.45045682724E+02  0.00000000000E+00 0.  1.
         11    1    3    3    0    0  0.21142940036E+02  0.14243566868E+02 -0.12211592032E+02  0.28267049558E+02  0.51100000000E-03 0. -1.
        -11    1    3    3    0    0  0.81410159803E+01  0.79799545958E+01 -0.12832650840E+01  0.11471817035E+02  0.51100000000E-03 0.  1.
         12    1    3    3    0    0  0.28261651780E+01  0.55068926400E+01 -0.16404586236E+01  0.64034506836E+01  0.00000000000E+00 0. -1.
</event>
<event>
 7    1  0.1549900E-008  0.4614232E+02  0.7816164E-02  0.1320468E+00
        -11   -1    0    0    0    0  0.00000000000E+00  0.00000000000E+00  0.45593999997E+02  0.45594000000E+02  0.51100000000E-03 0. -1.
         11   -1    0    0    0    0 -0.00000000000E+00 -0.00000000000E+00 -0.45593999997E+02  0.45594000000E+02  0.51100000000E-03 0.  1.
    9900012    2    1    2    0    0  0.43356931762E+02  0.11063982973E+02  0.51843852311E+01  0.46142322058E+02  0.10000039178E+02 0.  0.
        -12    1    1    2    0    0 -0.43356931762E+02 -0.11063982973E+02 -0.51843852311E+01  0.45045677942E+02  0.00000000000E+00 0.  1.
         11    1    3    3    0    0  0.19393371869E+02  0.67741335763E+01  0.43109463468E+01  0.20989902735E+02  0.51100000000E-03 0. -1.
        -11    1    3    3    0    0  0.69620354031E+01  0.23686279319E-01 -0.23136104200E+01  0.73364358806E+01  0.51100000000E-03 0.  1.
        -12    1    3    3    0    0  0.17001524490E+02  0.42661631176E+01  0.31870493043E+01  0.17815983442E+02  0.00000000000E+00 0.  1.
</event>
<event>
 7    1  0.1549900E-008  0.4614232E+02  0.7816164E-02  0.1320468E+00
        -11   -1    0    0    0    0  0.00000000000E+00  0.00000000000E+00  0.45593999997E+02  0.45594000000E+02  0.51100000000E-03 0. -1.
         11   -1    0    0    0    0 -0.00000000000E+00 -0.00000000000E+00 -0.45593999997E+02  0.45594000000E+02  0.51100000000E-03 0.  1.
    9900012    2    1    2    0    0  0.44028968430E+02 -0.91050190130E+01  0.27680305814E+01  0.46142318459E+02  0.10000006360E+02 0.  0.
        -12    1    1    2    0    0 -0.44028968430E+02  0.91050190130E+01 -0.27680305814E+01  0.45045681541E+02  0.00000000000E+00 0.  1.
         11    1    3    3    0    0  0.21815207542E+02 -0.11221912113E+01  0.37868160890E+01  0.22169857229E+02  0.51100000000E-03 0. -1.
        -11    1    3    3    0    0  0.19072799310E+02 -0.81305127302E+01 -0.15166021722E+01  0.20788867049E+02  0.51100000000E-03 0.  1.
        -12    1    3    3    0    0  0.31409615775E+01  0.14768492854E+00  0.49781666461E+00  0.31835941797E+01  0.00000000000E+00 0.  1.
</event>
<event>
 7    1  0.1729488E-008  0.4614232E+02  0.7816164E-02  0.1320468E+00
        -11   -1    0    0    0    0  0.00000000000E+00  0.00000000000E+00  0.45593999997E+02  0.45594000000E+02  0.51100000000E-03 0. -1.
         11   -1    0    0    0    0 -0.00000000000E+00 -0.00000000000E+00 -0.45593999997E+02  0.45594000000E+02  0.51100000000E-03 0.  1.
    9900012    2    1    2    0    0 -0.80605505105E+00 -0.10194560923E+02  0.43869517777E+02  0.46142318885E+02  0.10000010249E+02 0.  0.
        -12    1    1    2    0    0  0.80605505105E+00  0.10194560923E+02 -0.43869517777E+02  0.45045681115E+02  0.00000000000E+00 0.  1.
         11    1    3    3    0    0  0.12574497309E+01 -0.90022155219E+01  0.24368235584E+02  0.26008305786E+02  0.51100000000E-03 0. -1.
        -11    1    3    3    0    0 -0.24166854741E+01 -0.19519048422E+01  0.76998549208E+01  0.83028951129E+01  0.51100000000E-03 0.  1.
         12    1    3    3    0    0  0.35318069215E+00  0.75955944076E+00  0.11801427272E+02  0.11831117986E+02  0.00000000000E+00 0. -1.
</event>
<event>
 7    1  0.1549900E-008  0.4614232E+02  0.7816164E-02  0.1320468E+00
        -11   -1    0    0    0    0  0.00000000000E+00  0.00000000000E+00  0.45593999997E+02  0.45594000000E+02  0.51100000000E-03 0. -1.
         11   -1    0    0    0    0 -0.00000000000E+00 -0.00000000000E+00 -0.45593999997E+02  0.45594000000E+02  0.51100000000E-03 0.  1.
    9900012    2    1    2    0    0 -0.17003472578E+02 -0.26157488022E+02 -0.32492787941E+02  0.46142317326E+02  0.99999960366E+01 0.  0.
        -12    1    1    2    0    0  0.17003472578E+02  0.26157488022E+02  0.32492787941E+02  0.45045682674E+02  0.00000000000E+00 0.  1.
         11    1    3    3    0    0 -0.13305468716E+02 -0.18578444831E+02 -0.22966859202E+02  0.32398622377E+02  0.51100000000E-03 0. -1.
        -11    1    3    3    0    0 -0.31345749160E+00  0.51787957641E+00 -0.22923152956E+01  0.23708995192E+01  0.51100000000E-03 0.  1.
         12    1    3    3    0    0 -0.33845463703E+01 -0.80969227677E+01 -0.72336134437E+01  0.11372795430E+02  0.00000000000E+00 0. -1.
</event>
<event>
 7    1  0.1549900E-008  0.4614232E+02  0.7816164E-02  0.1320468E+00
        -11   -1    0    0    0    0  0.00000000000E+00  0.00000000000E+00  0.45593999997E+02  0.45594000000E+02  0.51100000000E-03 0.  1.
         11   -1    0    0    0    0 -0.00000000000E+00 -0.00000000000E+00 -0.45593999997E+02  0.45594000000E+02  0.51100000000E-03 0. -1.
    9900012    2    1    2    0    0 -0.56886623048E+01 -0.19777481038E+02 -0.40069986776E+02  0.46142317907E+02  0.10000001328E+02 0.  0.
        -12    1    1    2    0    0  0.56886623048E+01  0.19777481038E+02  0.40069986776E+02  0.45045682093E+02  0.00000000000E+00 0.  1.
         11    1    3    3    0    0 -0.22666314292E+01 -0.12450287811E+02 -0.18492604497E+02  0.22408116966E+02  0.51100000000E-03 0. -1.
        -11    1    3    3    0    0  0.15262389004E+01 -0.25036996849E+01 -0.74823845748E+01  0.80364168931E+01  0.51100000000E-03 0.  1.
        -12    1    3    3    0    0 -0.49482697759E+01 -0.48234935415E+01 -0.14094997704E+02  0.15697784048E+02  0.00000000000E+00 0.  1.
</event>
<event>
 7    1  0.1549900E-008  0.4614232E+02  0.7816164E-02  0.1320468E+00
        -11   -1    0    0    0    0  0.00000000000E+00  0.00000000000E+00  0.45593999997E+02  0.45594000000E+02  0.51100000000E-03 0.  1.
         11   -1    0    0    0    0 -0.00000000000E+00 -0.00000000000E+00 -0.45593999997E+02  0.45594000000E+02  0.51100000000E-03 0. -1.
    9900012    2    1    2    0    0  0.12646427401E+01 -0.22714602237E+01 -0.44970598271E+02  0.46142316947E+02  0.99999925803E+01 0.  0.
        -12    1    1    2    0    0 -0.12646427401E+01  0.22714602237E+01  0.44970598271E+02  0.45045683053E+02  0.00000000000E+00 0.  1.
         11    1    3    3    0    0  0.15275678536E+01 -0.29492853426E+01 -0.30052313872E+02  0.30235299186E+02  0.51100000000E-03 0. -1.
        -11    1    3    3    0    0 -0.19991110792E+01  0.23670782217E+01 -0.83813025612E+01  0.89356442017E+01  0.51100000000E-03 0.  1.
        -12    1    3    3    0    0  0.17361859657E+01 -0.16892531028E+01 -0.65369818381E+01  0.69713735594E+01  0.00000000000E+00 0.  1.
</event>
<event>
 7    1  0.1549900E-008  0.4614232E+02  0.7816164E-02  0.1320468E+00
        -11   -1    0    0    0    0  0.00000000000E+00  0.00000000000E+00  0.45593999997E+02  0.45594000000E+02  0.51100000000E-03 0. -1.
         11   -1    0    0    0    0 -0.00000000000E+00 -0.00000000000E+00 -0.45593999997E+02  0.45594000000E+02  0.51100000000E-03 0.  1.
    9900012    2    1    2    0    0  0.31272327233E+02 -0.75519735007E+01  0.31529702726E+02  0.46142324199E+02  0.10000058710E+02 0.  0.
        -12    1    1    2    0    0 -0.31272327233E+02  0.75519735007E+01 -0.31529702726E+02  0.45045675801E+02  0.00000000000E+00 0.  1.
         11    1    3    3    0    0  0.16817289801E+02 -0.41870759814E+01  0.11985825352E+02  0.21071612448E+02  0.51100000000E-03 0. -1.
        -11    1    3    3    0    0  0.62796818837E+01 -0.38746888660E+01  0.10894629668E+02  0.13158289184E+02  0.51100000000E-03 0.  1.
         12    1    3    3    0    0  0.81753555486E+01  0.50979134662E+00  0.86492477060E+01  0.11912422568E+02  0.00000000000E+00 0. -1.
</event>
<event>
 7    1  0.1549900E-008  0.4614232E+02  0.7816164E-02  0.1320468E+00
        -11   -1    0    0    0    0  0.00000000000E+00  0.00000000000E+00  0.45593999997E+02  0.45594000000E+02  0.51100000000E-03 0. -1.
         11   -1    0    0    0    0 -0.00000000000E+00 -0.00000000000E+00 -0.45593999997E+02  0.45594000000E+02  0.51100000000E-03 0.  1.
    9900012    2    1    2    0    0 -0.41988219036E+02  0.53237352152E+01  0.15419493883E+02  0.46142317786E+02  0.10000000231E+02 0.  0.
        -12    1    1    2    0    0  0.41988219036E+02 -0.53237352152E+01 -0.15419493883E+02  0.45045682214E+02  0.00000000000E+00 0.  1.
         11    1    3    3    0    0 -0.84061828619E+01 -0.10824804207E+01  0.53331706924E+01  0.10013909529E+02  0.51100000000E-03 0. -1.
        -11    1    3    3    0    0 -0.53528518675E+01  0.33095320327E+01  0.18079495247E+01  0.65478780636E+01  0.51100000000E-03 0.  1.
         12    1    3    3    0    0 -0.28229184307E+02  0.30966836032E+01  0.82783736664E+01  0.29580530193E+02  0.00000000000E+00 0. -1.
</event>
<event>
 7    1  0.1549900E-008  0.4614232E+02  0.7816164E-02  0.1320468E+00
        -11   -1    0    0    0    0  0.00000000000E+00  0.00000000000E+00  0.45593999997E+02  0.45594000000E+02  0.51100000000E-03 0. -1.
         11   -1    0    0    0    0 -0.00000000000E+00 -0.00000000000E+00 -0.45593999997E+02  0.45594000000E+02  0.51100000000E-03 0.  1.
    9900012    2    1    2    0    0 -0.15310258660E+02  0.36303259327E+02  0.21835357923E+02  0.46142317481E+02  0.99999974454E+01 0.  0.
        -12    1    1    2    0    0  0.15310258660E+02 -0.36303259327E+02 -0.21835357923E+02  0.45045682519E+02  0.00000000000E+00 0.  1.
         11    1    3    3    0    0  0.16013558429E+00  0.52305811364E+01  0.54131606081E+01  0.75290723505E+01  0.51100000000E-03 0.  1.
        -11    1    3    3    0    0 -0.85311511919E+01  0.17851590540E+02  0.11534729405E+02  0.22902179114E+02  0.51100000000E-03 0. -1.
         12    1    3    3    0    0 -0.69392430521E+01  0.13221087651E+02  0.48874679100E+01  0.15711066017E+02  0.00000000000E+00 0. -1.
</event>
<event>
 7    1  0.1549900E-008  0.4614232E+02  0.7816164E-02  0.1320468E+00
        -11   -1    0    0    0    0  0.00000000000E+00  0.00000000000E+00  0.45593999997E+02  0.45594000000E+02  0.51100000000E-03 0.  1.
         11   -1    0    0    0    0 -0.00000000000E+00 -0.00000000000E+00 -0.45593999997E+02  0.45594000000E+02  0.51100000000E-03 0. -1.
    9900012    2    1    2    0    0 -0.23493596270E+02  0.66784427265E+01 -0.37849211676E+02  0.46142317771E+02  0.10000000094E+02 0.  0.
        -12    1    1    2    0    0  0.23493596270E+02 -0.66784427265E+01  0.37849211676E+02  0.45045682229E+02  0.00000000000E+00 0.  1.
         11    1    3    3    0    0 -0.38005244210E+01  0.34239591644E+00 -0.11087177500E+02  0.11725473382E+02  0.51100000000E-03 0. -1.
        -11    1    3    3    0    0 -0.61774089891E+01  0.47681204995E+01 -0.12245392471E+02  0.14520502469E+02  0.51100000000E-03 0.  1.
         12    1    3    3    0    0 -0.13515662859E+02  0.15679263106E+01 -0.14516641705E+02  0.19896341921E+02  0.00000000000E+00 0. -1.
</event>
<event>
 7    1  0.1549900E-008  0.4614232E+02  0.7816164E-02  0.1320468E+00
        -11   -1    0    0    0    0  0.00000000000E+00  0.00000000000E+00  0.45593999997E+02  0.45594000000E+02  0.51100000000E-03 0.  1.
         11   -1    0    0    0    0 -0.00000000000E+00 -0.00000000000E+00 -0.45593999997E+02  0.45594000000E+02  0.51100000000E-03 0. -1.
    9900012    2    1    2    0    0 -0.28230371739E+02  0.12130491963E+02 -0.32939499819E+02  0.46142319052E+02  0.10000011768E+02 0.  0.
        -12    1    1    2    0    0  0.28230371739E+02 -0.12130491963E+02  0.32939499819E+02  0.45045680948E+02  0.00000000000E+00 0.  1.
         11    1    3    3    0    0 -0.18192735543E+02  0.88327253316E+01 -0.16644631383E+02  0.26192296911E+02  0.51100000000E-03 0. -1.
        -11    1    3    3    0    0  0.45099108602E+00  0.40532049146E+00 -0.11772682591E+01  0.13242501559E+01  0.51100000000E-03 0.  1.
         12    1    3    3    0    0 -0.10488627282E+02  0.28924461404E+01 -0.15117600177E+02  0.18625771985E+02  0.00000000000E+00 0. -1.
</event>
<event>
 7    1  0.1549900E-008  0.4614232E+02  0.7816164E-02  0.1320468E+00
        -11   -1    0    0    0    0  0.00000000000E+00  0.00000000000E+00  0.45593999997E+02  0.45594000000E+02  0.51100000000E-03 0.  1.
         11   -1    0    0    0    0 -0.00000000000E+00 -0.00000000000E+00 -0.45593999997E+02  0.45594000000E+02  0.51100000000E-03 0. -1.
    9900012    2    1    2    0    0  0.11951565355E+02  0.40891512280E+02 -0.14634132983E+02  0.46142317198E+02  0.99999948610E+01 0.  0.
        -12    1    1    2    0    0 -0.11951565355E+02 -0.40891512280E+02  0.14634132983E+02  0.45045682802E+02  0.00000000000E+00 0.  1.
         11    1    3    3    0    0  0.65933753690E+01  0.14580208701E+02 -0.85724013316E+01  0.18153268283E+02  0.51100000000E-03 0. -1.
        -11    1    3    3    0    0  0.88074893625E+00  0.13098943532E+02 -0.48126389321E+01  0.13982829975E+02  0.51100000000E-03 0.  1.
        -12    1    3    3    0    0  0.44774410494E+01  0.13212360047E+02 -0.12490927196E+01  0.14006218940E+02  0.00000000000E+00 0.  1.
</event>
<event>
 7    1  0.1549900E-008  0.4614232E+02  0.7816164E-02  0.1320468E+00
        -11   -1    0    0    0    0  0.00000000000E+00  0.00000000000E+00  0.45593999997E+02  0.45594000000E+02  0.51100000000E-03 0. -1.
         11   -1    0    0    0    0 -0.00000000000E+00 -0.00000000000E+00 -0.45593999997E+02  0.45594000000E+02  0.51100000000E-03 0.  1.
    9900012    2    1    2    0    0  0.33766232693E+01 -0.58053819446E+01  0.44542220441E+02  0.46142318231E+02  0.10000004286E+02 0.  0.
        -12    1    1    2    0    0 -0.33766232693E+01  0.58053819446E+01 -0.44542220441E+02  0.45045681769E+02  0.00000000000E+00 0.  1.
         11    1    3    3    0    0  0.38553126693E+01 -0.73684959496E+01  0.40301024870E+02  0.41150100537E+02  0.51100000000E-03 0. -1.
        -11    1    3    3    0    0 -0.16282929876E+00  0.19481061872E+00 -0.20702066797E+00  0.32760093984E+00  0.51100000000E-03 0.  1.
         12    1    3    3    0    0 -0.31586010125E+00  0.13683033863E+01  0.44482162384E+01  0.46646167543E+01  0.00000000000E+00 0. -1.
</event>
<event>
 7    1  0.1549900E-008  0.4614232E+02  0.7816164E-02  0.1320468E+00
        -11   -1    0    0    0    0  0.00000000000E+00  0.00000000000E+00  0.45593999997E+02  0.45594000000E+02  0.51100000000E-03 0.  1.
         11   -1    0    0    0    0 -0.00000000000E+00 -0.00000000000E+00 -0.45593999997E+02  0.45594000000E+02  0.51100000000E-03 0. -1.
    9900012    2    1    2    0    0  0.21362717400E+01  0.32309968018E+02 -0.31314784640E+02  0.46142318439E+02  0.10000006178E+02 0.  0.
        -12    1    1    2    0    0 -0.21362717400E+01 -0.32309968018E+02  0.31314784640E+02  0.45045681561E+02  0.00000000000E+00 0.  1.
         11    1    3    3    0    0  0.10276287684E+01  0.17747875128E+02 -0.20400969374E+02  0.27059982338E+02  0.51100000000E-03 0. -1.
        -11    1    3    3    0    0 -0.11709053292E+01  0.93945784786E+01 -0.43375765341E+01  0.10413630228E+02  0.51100000000E-03 0.  1.
        -12    1    3    3    0    0  0.22795483008E+01  0.51675144110E+01 -0.65762387321E+01  0.86687058726E+01  0.00000000000E+00 0.  1.
</event>
<event>
 7    1  0.2270522E-008  0.4614232E+02  0.7816164E-02  0.1320468E+00
        -11   -1    0    0    0    0  0.00000000000E+00  0.00000000000E+00  0.45593999997E+02  0.45594000000E+02  0.51100000000E-03 0. -1.
         11   -1    0    0    0    0 -0.00000000000E+00 -0.00000000000E+00 -0.45593999997E+02  0.45594000000E+02  0.51100000000E-03 0.  1.
    9900012    2    1    2    0    0  0.16811576005E+02  0.23483239966E+02  0.34569088781E+02  0.46142317119E+02  0.99999941431E+01 0.  0.
        -12    1    1    2    0    0 -0.16811576005E+02 -0.23483239966E+02 -0.34569088781E+02  0.45045682881E+02  0.00000000000E+00 0.  1.
         11    1    3    3    0    0  0.15820773765E+02  0.19687664841E+02  0.29704661187E+02  0.38990613305E+02  0.51100000000E-03 0. -1.
        -11    1    3    3    0    0  0.39712407181E+00  0.19960817590E+01  0.11526005586E+00  0.20384638968E+01  0.51100000000E-03 0.  1.
         12    1    3    3    0    0  0.59367816862E+00  0.17994933659E+01  0.47491675385E+01  0.51132399172E+01  0.00000000000E+00 0. -1.
</event>
<event>
 7    1  0.3440858E-008  0.4614232E+02  0.7816164E-02  0.1320468E+00
        -11   -1    0    0    0    0  0.00000000000E+00  0.00000000000E+00  0.45593999997E+02  0.45594000000E+02  0.51100000000E-03 0. -1.
         11   -1    0    0    0    0 -0.00000000000E+00 -0.00000000000E+00 -0.45593999997E+02  0.45594000000E+02  0.51100000000E-03 0.  1.
    9900012    2    1    2    0    0  0.66463527461E+00 -0.25077118018E+02  0.37414027055E+02  0.46142323087E+02  0.10000048563E+02 0.  0.
        -12    1    1    2    0    0 -0.66463527461E+00  0.25077118018E+02 -0.37414027055E+02  0.45045676913E+02  0.00000000000E+00 0.  1.
         11    1    3    3    0    0  0.20198743428E+01 -0.13377631149E+02  0.27727996875E+02  0.30852596625E+02  0.51100000000E-03 0. -1.
        -11    1    3    3    0    0 -0.32582436199E+00 -0.74793823531E+01  0.61234441425E+01  0.96718090514E+01  0.51100000000E-03 0.  1.
         12    1    3    3    0    0 -0.10294147062E+01 -0.42201045156E+01  0.35625860369E+01  0.56179174105E+01  0.00000000000E+00 0. -1.
</event>
<event>
 7    1  0.1549900E-008  0.4614231E+02  0.7816164E-02  0.1320468E+00
        -11   -1    0    0    0    0  0.00000000000E+00  0.00000000000E+00  0.45593999997E+02  0.45594000000E+02  0.51100000000E-03 0.  1.
         11   -1    0    0    0    0 -0.00000000000E+00 -0.00000000000E+00 -0.45593999997E+02  0.45594000000E+02  0.51100000000E-03 0. -1.
    9900012    2    1    2    0    0  0.33670907130E+02  0.47133127772E+01 -0.29549429636E+02  0.46142311015E+02  0.99999384867E+01 0.  0.
        -12    1    1    2    0    0 -0.33670907130E+02 -0.47133127772E+01  0.29549429636E+02  0.45045688985E+02  0.00000000000E+00 0.  1.
         11    1    3    3    0    0  0.12698735652E+02  0.13017117914E+00 -0.82686960355E+01  0.15154080839E+02  0.51100000000E-03 0. -1.
        -11    1    3    3    0    0  0.53179717763E+01  0.10273748527E+01 -0.99849101366E+01  0.11359346530E+02  0.51100000000E-03 0.  1.
        -12    1    3    3    0    0  0.15654199702E+02  0.35557667454E+01 -0.11295823464E+02  0.19628883646E+02  0.00000000000E+00 0.  1.
</event>
<event>
 7    1  0.1549900E-008  0.4614232E+02  0.7816164E-02  0.1320468E+00
        -11   -1    0    0    0    0  0.00000000000E+00  0.00000000000E+00  0.45593999997E+02  0.45594000000E+02  0.51100000000E-03 0.  1.
         11   -1    0    0    0    0 -0.00000000000E+00 -0.00000000000E+00 -0.45593999997E+02  0.45594000000E+02  0.51100000000E-03 0. -1.
    9900012    2    1    2    0    0  0.22099961661E+02  0.21152451472E+02 -0.33064766642E+02  0.46142319833E+02  0.10000018889E+02 0.  0.
        -12    1    1    2    0    0 -0.22099961661E+02 -0.21152451472E+02  0.33064766642E+02  0.45045680167E+02  0.00000000000E+00 0.  1.
         11    1    3    3    0    0 -0.16772015642E+00  0.88921535705E+00 -0.32739741994E+01  0.33967250878E+01  0.51100000000E-03 0. -1.
        -11    1    3    3    0    0  0.15023258128E+02  0.13688565091E+02 -0.16151170092E+02  0.25960265689E+02  0.51100000000E-03 0.  1.
        -12    1    3    3    0    0  0.72444236896E+01  0.65746710236E+01 -0.13639622350E+02  0.16785329056E+02  0.00000000000E+00 0.  1.
</event>
<event>
 7    1  0.1549900E-008  0.4614232E+02  0.7816164E-02  0.1320468E+00
        -11   -1    0    0    0    0  0.00000000000E+00  0.00000000000E+00  0.45593999997E+02  0.45594000000E+02  0.51100000000E-03 0. -1.
         11   -1    0    0    0    0 -0.00000000000E+00 -0.00000000000E+00 -0.45593999997E+02  0.45594000000E+02  0.51100000000E-03 0.  1.
    9900012    2    1    2    0    0  0.13027253954E+02 -0.11807929059E+02  0.41472605899E+02  0.46142316807E+02  0.99999913028E+01 0.  0.
        -12    1    1    2    0    0 -0.13027253954E+02  0.11807929059E+02 -0.41472605899E+02  0.45045683193E+02  0.00000000000E+00 0.  1.
         11    1    3    3    0    0  0.56618448133E+01 -0.62155176239E+01  0.16797357726E+02  0.18784045700E+02  0.51100000000E-03 0. -1.
        -11    1    3    3    0    0  0.81669210235E-01 -0.10290311236E+01  0.11995733080E+02  0.12040065918E+02  0.51100000000E-03 0.  1.
        -12    1    3    3    0    0  0.72837399304E+01 -0.45633803110E+01  0.12679515093E+02  0.15318205189E+02  0.00000000000E+00 0.  1.
</event>
<event>
 7    1  0.1549900E-008  0.4614232E+02  0.7816164E-02  0.1320468E+00
        -11   -1    0    0    0    0  0.00000000000E+00  0.00000000000E+00  0.45593999997E+02  0.45594000000E+02  0.51100000000E-03 0. -1.
         11   -1    0    0    0    0 -0.00000000000E+00 -0.00000000000E+00 -0.45593999997E+02  0.45594000000E+02  0.51100000000E-03 0.  1.
    9900012    2    1    2    0    0 -0.44034288241E+02  0.67185809714E+01 -0.67049116643E+01  0.46142315283E+02  0.99999774028E+01 0.  0.
        -12    1    1    2    0    0  0.44034288241E+02 -0.67185809714E+01  0.67049116643E+01  0.45045684717E+02  0.00000000000E+00 0.  1.
         11    1    3    3    0    0 -0.48280160414E+01  0.38091160223E+00 -0.16946534078E+01  0.51309534180E+01  0.51100000000E-03 0. -1.
        -11    1    3    3    0    0 -0.14634961125E+02  0.36712978187E+01  0.22412410680E+01  0.15253972485E+02  0.51100000000E-03 0.  1.
        -12    1    3    3    0    0 -0.24571311075E+02  0.26663715504E+01 -0.72514993245E+01  0.25757389380E+02  0.00000000000E+00 0.  1.
</event>
<event>
 7    1  0.1549900E-008  0.4614232E+02  0.7816164E-02  0.1320468E+00
        -11   -1    0    0    0    0  0.00000000000E+00  0.00000000000E+00  0.45593999997E+02  0.45594000000E+02  0.51100000000E-03 0.  1.
         11   -1    0    0    0    0 -0.00000000000E+00 -0.00000000000E+00 -0.45593999997E+02  0.45594000000E+02  0.51100000000E-03 0. -1.
    9900012    2    1    2    0    0  0.38064534239E+02  0.12971629525E+02  0.20296343291E+02  0.46142317739E+02  0.99999997943E+01 0.  0.
        -12    1    1    2    0    0 -0.38064534239E+02 -0.12971629525E+02 -0.20296343291E+02  0.45045682261E+02  0.00000000000E+00 0.  1.
         11    1    3    3    0    0 -0.37541988179E+00  0.96856761964E+00  0.53148650651E+00  0.11668510998E+01  0.51100000000E-03 0.  1.
        -11    1    3    3    0    0  0.76810840119E+01  0.32272643987E+01  0.52685801113E+01  0.98575972603E+01  0.51100000000E-03 0. -1.
         12    1    3    3    0    0  0.30758870109E+02  0.87757975068E+01  0.14496276673E+02  0.35117869378E+02  0.00000000000E+00 0. -1.
</event>
<event>
 7    1  0.1549900E-008  0.4614232E+02  0.7816164E-02  0.1320468E+00
        -11   -1    0    0    0    0  0.00000000000E+00  0.00000000000E+00  0.45593999997E+02  0.45594000000E+02  0.51100000000E-03 0.  1.
         11   -1    0    0    0    0 -0.00000000000E+00 -0.00000000000E+00 -0.45593999997E+02  0.45594000000E+02  0.51100000000E-03 0. -1.
    9900012    2    1    2    0    0  0.19537871548E+01  0.24995614721E+02 -0.37423462159E+02  0.46142316971E+02  0.99999927986E+01 0.  0.
        -12    1    1    2    0    0 -0.19537871548E+01 -0.24995614721E+02  0.37423462159E+02  0.45045683029E+02  0.00000000000E+00 0.  1.
         11    1    3    3    0    0 -0.10351562065E+01  0.47428979455E+00 -0.45403581592E+00  0.12258254216E+01  0.51100000000E-03 0. -1.
        -11    1    3    3    0    0 -0.85508345402E+00  0.39063800980E+01 -0.30138372506E+01  0.50074133460E+01  0.51100000000E-03 0.  1.
         12    1    3    3    0    0  0.38440268153E+01  0.20614944829E+02 -0.33955589093E+02  0.39909078204E+02  0.00000000000E+00 0. -1.
</event>
<event>
 7    1  0.1549900E-008  0.4614232E+02  0.7816164E-02  0.1320468E+00
        -11   -1    0    0    0    0  0.00000000000E+00  0.00000000000E+00  0.45593999997E+02  0.45594000000E+02  0.51100000000E-03 0. -1.
         11   -1    0    0    0    0 -0.00000000000E+00 -0.00000000000E+00 -0.45593999997E+02  0.45594000000E+02  0.51100000000E-03 0.  1.
    9900012    2    1    2    0    0  0.30599305862E+02  0.22527468360E+02  0.24193162433E+02  0.46142318093E+02  0.10000003026E+02 0.  0.
        -12    1    1    2    0    0 -0.30599305862E+02 -0.22527468360E+02 -0.24193162433E+02  0.45045681907E+02  0.00000000000E+00 0.  1.
         11    1    3    3    0    0 -0.40674357697E-01  0.13403162893E+01  0.16958909898E+01  0.21619779530E+01  0.51100000000E-03 0.  1.
        -11    1    3    3    0    0  0.13162952867E+02  0.69694172209E+01  0.60043667223E+01  0.16058907951E+02  0.51100000000E-03 0. -1.
         12    1    3    3    0    0  0.17477027353E+02  0.14217734850E+02  0.16492904721E+02  0.27921432189E+02  0.00000000000E+00 0. -1.
</event>
<event>
 7    1  0.1549900E-008  0.4614232E+02  0.7816164E-02  0.1320468E+00
        -11   -1    0    0    0    0  0.00000000000E+00  0.00000000000E+00  0.45593999997E+02  0.45594000000E+02  0.51100000000E-03 0.  1.
         11   -1    0    0    0    0 -0.00000000000E+00 -0.00000000000E+00 -0.45593999997E+02  0.45594000000E+02  0.51100000000E-03 0. -1.
    9900012    2    1    2    0    0  0.17934120713E+02  0.94440524418E+01 -0.40227983869E+02  0.46142317649E+02  0.99999989820E+01 0.  0.
        -12    1    1    2    0    0 -0.17934120713E+02 -0.94440524418E+01  0.40227983869E+02  0.45045682351E+02  0.00000000000E+00 0.  1.
         11    1    3    3    0    0  0.13769987870E+02  0.51799097291E+01 -0.29700018247E+02  0.33144156572E+02  0.51100000000E-03 0. -1.
        -11    1    3    3    0    0  0.50403994483E+00  0.28682487196E+01 -0.75047066319E+01  0.80499396815E+01  0.51100000000E-03 0.  1.
         12    1    3    3    0    0  0.36600928984E+01  0.13958939930E+01 -0.30232589905E+01  0.49482213965E+01  0.00000000000E+00 0. -1.
</event>
<event>
 7    1  0.1549900E-008  0.4614232E+02  0.7816164E-02  0.1320468E+00
        -11   -1    0    0    0    0  0.00000000000E+00  0.00000000000E+00  0.45593999997E+02  0.45594000000E+02  0.51100000000E-03 0.  1.
         11   -1    0    0    0    0 -0.00000000000E+00 -0.00000000000E+00 -0.45593999997E+02  0.45594000000E+02  0.51100000000E-03 0. -1.
    9900012    2    1    2    0    0 -0.39040864687E+02 -0.49464656138E+01 -0.21919327009E+02  0.46142317254E+02  0.99999953716E+01 0.  0.
        -12    1    1    2    0    0  0.39040864687E+02  0.49464656138E+01  0.21919327009E+02  0.45045682746E+02  0.00000000000E+00 0.  1.
         11    1    3    3    0    0 -0.13920906543E+02 -0.23348176077E+01 -0.93850791231E+01  0.16950596528E+02  0.51100000000E-03 0. -1.
        -11    1    3    3    0    0 -0.68494064172E+01 -0.38781259737E+01 -0.53573491572E+01  0.95213139634E+01  0.51100000000E-03 0.  1.
        -12    1    3    3    0    0 -0.18270551726E+02  0.12664779676E+01 -0.71768987291E+01  0.19670406762E+02  0.00000000000E+00 0.  1.
</event>
<event>
 7    1  0.1549900E-008  0.4614232E+02  0.7816164E-02  0.1320468E+00
        -11   -1    0    0    0    0  0.00000000000E+00  0.00000000000E+00  0.45593999997E+02  0.45594000000E+02  0.51100000000E-03 0.  1.
         11   -1    0    0    0    0 -0.00000000000E+00 -0.00000000000E+00 -0.45593999997E+02  0.45594000000E+02  0.51100000000E-03 0. -1.
    9900012    2    1    2    0    0 -0.22576172447E+02  0.25382256141E+02 -0.29583287092E+02  0.46142319138E+02  0.10000012553E+02 0.  0.
        -12    1    1    2    0    0  0.22576172447E+02 -0.25382256141E+02  0.29583287092E+02  0.45045680862E+02  0.00000000000E+00 0.  1.
         11    1    3    3    0    0 -0.13742227512E+02  0.13750472311E+02 -0.14673670560E+02  0.24356537392E+02  0.51100000000E-03 0. -1.
        -11    1    3    3    0    0  0.51552943474E+00  0.15163115743E+01 -0.36817613980E+01  0.40150141520E+01  0.51100000000E-03 0.  1.
        -12    1    3    3    0    0 -0.93494743699E+01  0.10115472255E+02 -0.11227855134E+02  0.17770767593E+02  0.00000000000E+00 0.  1.
</event>
<event>
 7    1  0.1549900E-008  0.4614232E+02  0.7816164E-02  0.1320468E+00
        -11   -1    0    0    0    0  0.00000000000E+00  0.00000000000E+00  0.45593999997E+02  0.45594000000E+02  0.51100000000E-03 0.  1.
         11   -1    0    0    0    0 -0.00000000000E+00 -0.00000000000E+00 -0.45593999997E+02  0.45594000000E+02  0.51100000000E-03 0. -1.
    9900012    2    1    2    0    0 -0.18893639693E+02 -0.37056887557E+02 -0.17289614403E+02  0.46142319825E+02  0.10000018821E+02 0.  0.
        -12    1    1    2    0    0  0.18893639693E+02  0.37056887557E+02  0.17289614403E+02  0.45045680175E+02  0.00000000000E+00 0.  1.
         11    1    3    3    0    0 -0.13258027942E+02 -0.25729932168E+02 -0.15287801004E+02  0.32734104144E+02  0.51100000000E-03 0. -1.
        -11    1    3    3    0    0 -0.19996041949E+01 -0.16955006046E+01  0.79607477870E+00  0.27398676156E+01  0.51100000000E-03 0.  1.
        -12    1    3    3    0    0 -0.36360075560E+01 -0.96314547837E+01 -0.27978881774E+01  0.10668348066E+02  0.00000000000E+00 0.  1.
</event>
<event>
 7    1  0.1549900E-008  0.4614232E+02  0.7816164E-02  0.1320468E+00
        -11   -1    0    0    0    0  0.00000000000E+00  0.00000000000E+00  0.45593999997E+02  0.45594000000E+02  0.51100000000E-03 0.  1.
         11   -1    0    0    0    0 -0.00000000000E+00 -0.00000000000E+00 -0.45593999997E+02  0.45594000000E+02  0.51100000000E-03 0. -1.
    9900012    2    1    2    0    0  0.43849572792E+02 -0.10298708382E+02  0.51480536047E+00  0.46142318154E+02  0.10000003584E+02 0.  0.
        -12    1    1    2    0    0 -0.43849572792E+02  0.10298708382E+02 -0.51480536047E+00  0.45045681846E+02  0.00000000000E+00 0.  1.
         11    1    3    3    0    0  0.34312714072E+02 -0.56879717979E+01 -0.21142203264E+01  0.34845161759E+02  0.51100000000E-03 0. -1.
        -11    1    3    3    0    0  0.85914993791E+01 -0.44060139706E+01  0.32025129879E+01  0.10172655031E+02  0.51100000000E-03 0.  1.
        -12    1    3    3    0    0  0.94535934071E+00 -0.20472261340E+00 -0.57348730099E+00  0.11245013632E+01  0.00000000000E+00 0.  1.
</event>
<event>
 7    1  0.1549900E-008  0.4614232E+02  0.7816164E-02  0.1320468E+00
        -11   -1    0    0    0    0  0.00000000000E+00  0.00000000000E+00  0.45593999997E+02  0.45594000000E+02  0.51100000000E-03 0.  1.
         11   -1    0    0    0    0 -0.00000000000E+00 -0.00000000000E+00 -0.45593999997E+02  0.45594000000E+02  0.51100000000E-03 0. -1.
    9900012    2    1    2    0    0 -0.81223436784E+01  0.35641797391E+01 -0.44163758637E+02  0.46142318509E+02  0.10000006819E+02 0.  0.
        -12    1    1    2    0    0  0.81223436784E+01 -0.35641797391E+01  0.44163758637E+02  0.45045681491E+02  0.00000000000E+00 0.  1.
         11    1    3    3    0    0 -0.12421613802E+01  0.29410694209E+01 -0.24205285218E+02  0.24414927544E+02  0.51100000000E-03 0. -1.
        -11    1    3    3    0    0 -0.60616952281E+00 -0.17288425586E+01 -0.53665439889E+01  0.56706377709E+01  0.51100000000E-03 0.  1.
         12    1    3    3    0    0 -0.62740127754E+01  0.23519528768E+01 -0.14591929430E+02  0.16056753194E+02  0.00000000000E+00 0. -1.
</event>
<event>
 7    1  0.1549900E-008  0.4614232E+02  0.7816164E-02  0.1320468E+00
        -11   -1    0    0    0    0  0.00000000000E+00  0.00000000000E+00  0.45593999997E+02  0.45594000000E+02  0.51100000000E-03 0.  1.
         11   -1    0    0    0    0 -0.00000000000E+00 -0.00000000000E+00 -0.45593999997E+02  0.45594000000E+02  0.51100000000E-03 0. -1.
    9900012    2    1    2    0    0 -0.10158917332E+02  0.43743731085E+02 -0.35207829407E+01  0.46142317376E+02  0.99999964868E+01 0.  0.
        -12    1    1    2    0    0  0.10158917332E+02 -0.43743731085E+02  0.35207829407E+01  0.45045682624E+02  0.00000000000E+00 0.  1.
         11    1    3    3    0    0 -0.10422005336E+01  0.86346551670E+01  0.12593227444E+01  0.87880228631E+01  0.51100000000E-03 0. -1.
        -11    1    3    3    0    0 -0.27775470587E+01  0.38655606868E+01 -0.25407387256E+01  0.53956167969E+01  0.51100000000E-03 0.  1.
         12    1    3    3    0    0 -0.63391697393E+01  0.31243515231E+02 -0.22393669595E+01  0.31958677716E+02  0.00000000000E+00 0. -1.
</event>
<event>
 7    1  0.1549900E-008  0.4614231E+02  0.7816164E-02  0.1320468E+00
        -11   -1    0    0    0    0  0.00000000000E+00  0.00000000000E+00  0.45593999997E+02  0.45594000000E+02  0.51100000000E-03 0. -1.
         11   -1    0    0    0    0 -0.00000000000E+00 -0.00000000000E+00 -0.45593999997E+02  0.45594000000E+02  0.51100000000E-03 0.  1.
    9900012    2    1    2    0    0 -0.37771986538E+02 -0.24504500573E+02  0.13857629291E+01  0.46142313700E+02  0.99999629641E+01 0.  0.
        -12    1    1    2    0    0  0.37771986538E+02  0.24504500573E+02 -0.13857629291E+01  0.45045686300E+02  0.00000000000E+00 0.  1.
         11    1    3    3    0    0 -0.95941498005E+01 -0.53277803532E+01  0.24245803951E+01  0.11238840876E+02  0.51100000000E-03 0. -1.
        -11    1    3    3    0    0 -0.21730878687E+02 -0.17926400931E+02 -0.21100726642E+01  0.28249590187E+02  0.51100000000E-03 0.  1.
        -12    1    3    3    0    0 -0.64469580512E+01 -0.12503192885E+01  0.10712551983E+01  0.66538826362E+01  0.00000000000E+00 0.  1.
</event>
<event>
 7    1  0.1549900E-008  0.4614232E+02  0.7816164E-02  0.1320468E+00
        -11   -1    0    0    0    0  0.00000000000E+00  0.00000000000E+00  0.45593999997E+02  0.45594000000E+02  0.51100000000E-03 0.  1.
         11   -1    0    0    0    0 -0.00000000000E+00 -0.00000000000E+00 -0.45593999997E+02  0.45594000000E+02  0.51100000000E-03 0. -1.
    9900012    2    1    2    0    0 -0.19872424081E+02  0.27400570208E+02 -0.29722195918E+02  0.46142318556E+02  0.10000007248E+02 0.  0.
        -12    1    1    2    0    0  0.19872424081E+02 -0.27400570208E+02  0.29722195918E+02  0.45045681444E+02  0.00000000000E+00 0.  1.
         11    1    3    3    0    0 -0.23357311833E+01  0.95919173835E+01 -0.75280405808E+01  0.12414987495E+02  0.51100000000E-03 0.  1.
        -11    1    3    3    0    0 -0.11089022370E+02  0.11890723390E+02 -0.11532925563E+02  0.19933993382E+02  0.51100000000E-03 0. -1.
        -12    1    3    3    0    0 -0.64476705274E+01  0.59179294346E+01 -0.10661229774E+02  0.13793337679E+02  0.00000000000E+00 0.  1.
</event>
<event>
 7    1  0.1549900E-008  0.4614232E+02  0.7816164E-02  0.1320468E+00
        -11   -1    0    0    0    0  0.00000000000E+00  0.00000000000E+00  0.45593999997E+02  0.45594000000E+02  0.51100000000E-03 0.  1.
         11   -1    0    0    0    0 -0.00000000000E+00 -0.00000000000E+00 -0.45593999997E+02  0.45594000000E+02  0.51100000000E-03 0. -1.
    9900012    2    1    2    0    0  0.16897589084E+01 -0.44915732172E+02 -0.29724054788E+01  0.46142317898E+02  0.10000001247E+02 0.  0.
        -12    1    1    2    0    0 -0.16897589084E+01  0.44915732172E+02  0.29724054788E+01  0.45045682102E+02  0.00000000000E+00 0.  1.
         11    1    3    3    0    0 -0.52090692912E+00 -0.22301337704E+02 -0.26200442697E+01  0.22460757771E+02  0.51100000000E-03 0. -1.
        -11    1    3    3    0    0  0.42171988388E+01 -0.17623297906E+02 -0.14942762105E+01  0.18182361144E+02  0.51100000000E-03 0.  1.
        -12    1    3    3    0    0 -0.20065330013E+01 -0.49910965620E+01  0.11419150014E+01  0.54991989823E+01  0.00000000000E+00 0.  1.
</event>
<event>
 7    1  0.1549900E-008  0.4614232E+02  0.7816164E-02  0.1320468E+00
        -11   -1    0    0    0    0  0.00000000000E+00  0.00000000000E+00  0.45593999997E+02  0.45594000000E+02  0.51100000000E-03 0.  1.
         11   -1    0    0    0    0 -0.00000000000E+00 -0.00000000000E+00 -0.45593999997E+02  0.45594000000E+02  0.51100000000E-03 0. -1.
    9900012    2    1    2    0    0 -0.37369742849E+02  0.12112915688E+02 -0.22042982522E+02  0.46142317793E+02  0.10000000287E+02 0.  0.
        -12    1    1    2    0    0  0.37369742849E+02 -0.12112915688E+02  0.22042982522E+02  0.45045682207E+02  0.00000000000E+00 0.  1.
         11    1    3    3    0    0 -0.27850528484E+02  0.97578595711E+01 -0.15318142556E+02  0.33249259418E+02  0.51100000000E-03 0. -1.
        -11    1    3    3    0    0 -0.49809653878E+01 -0.13027833522E+01 -0.35704831114E+01  0.62654297991E+01  0.51100000000E-03 0.  1.
         12    1    3    3    0    0 -0.45382489775E+01  0.36578394694E+01 -0.31543568541E+01  0.66276285750E+01  0.00000000000E+00 0. -1.
</event>
<event>
 7    1  0.1549900E-008  0.4614232E+02  0.7816164E-02  0.1320468E+00
        -11   -1    0    0    0    0  0.00000000000E+00  0.00000000000E+00  0.45593999997E+02  0.45594000000E+02  0.51100000000E-03 0.  1.
         11   -1    0    0    0    0 -0.00000000000E+00 -0.00000000000E+00 -0.45593999997E+02  0.45594000000E+02  0.51100000000E-03 0. -1.
    9900012    2    1    2    0    0  0.26996074503E+01 -0.42690288996E+02 -0.14119664578E+02  0.46142316714E+02  0.99999904481E+01 0.  0.
        -12    1    1    2    0    0 -0.26996074503E+01  0.42690288996E+02  0.14119664578E+02  0.45045683286E+02  0.00000000000E+00 0.  1.
         11    1    3    3    0    0 -0.91963379886E+00 -0.99376480803E+01 -0.31025171823E+01  0.10451229058E+02  0.51100000000E-03 0. -1.
        -11    1    3    3    0    0  0.34192920789E+01 -0.13348197461E+02 -0.83275151088E+01  0.16100106892E+02  0.51100000000E-03 0.  1.
        -12    1    3    3    0    0  0.19994917025E+00 -0.19404443455E+02 -0.26896322867E+01  0.19590980764E+02  0.00000000000E+00 0.  1.
</event>
<event>
 7    1  0.1549900E-008  0.4614232E+02  0.7816164E-02  0.1320468E+00
        -11   -1    0    0    0    0  0.00000000000E+00  0.00000000000E+00  0.45593999997E+02  0.45594000000E+02  0.51100000000E-03 0.  1.
         11   -1    0    0    0    0 -0.00000000000E+00 -0.00000000000E+00 -0.45593999997E+02  0.45594000000E+02  0.51100000000E-03 0. -1.
    9900012    2    1    2    0    0  0.35380447563E+02 -0.25673925964E+02 -0.10871380914E+02  0.46142317997E+02  0.10000002148E+02 0.  0.
        -12    1    1    2    0    0 -0.35380447563E+02  0.25673925964E+02  0.10871380914E+02  0.45045682003E+02  0.00000000000E+00 0.  1.
         11    1    3    3    0    0  0.76423252810E+01 -0.86489768970E+01 -0.21449675692E+01  0.11739285464E+02  0.51100000000E-03 0. -1.
        -11    1    3    3    0    0  0.10459116904E+02 -0.99124377547E+01 -0.20228341964E+01  0.14551336952E+02  0.51100000000E-03 0.  1.
         12    1    3    3    0    0  0.17279005378E+02 -0.71125113124E+01 -0.67035791480E+01  0.19851695581E+02  0.00000000000E+00 0. -1.
</event>
<event>
 7    1  0.1549900E-008  0.4614232E+02  0.7816164E-02  0.1320468E+00
        -11   -1    0    0    0    0  0.00000000000E+00  0.00000000000E+00  0.45593999997E+02  0.45594000000E+02  0.51100000000E-03 0. -1.
         11   -1    0    0    0    0 -0.00000000000E+00 -0.00000000000E+00 -0.45593999997E+02  0.45594000000E+02  0.51100000000E-03 0.  1.
    9900012    2    1    2    0    0 -0.17381310949E+02  0.40048109666E+02  0.11097408334E+02  0.46142317301E+02  0.99999958013E+01 0.  0.
        -12    1    1    2    0    0  0.17381310949E+02 -0.40048109666E+02 -0.11097408334E+02  0.45045682699E+02  0.00000000000E+00 0.  1.
         11    1    3    3    0    0 -0.72995035777E+01  0.14299239156E+02  0.54659167178E+00  0.16063927155E+02  0.51100000000E-03 0. -1.
        -11    1    3    3    0    0 -0.22831256058E+00  0.71737533749E+00  0.15298951601E+01  0.17050904557E+01  0.51100000000E-03 0.  1.
        -12    1    3    3    0    0 -0.98534948105E+01  0.25031495172E+02  0.90209215024E+01  0.28373299690E+02  0.00000000000E+00 0.  1.
</event>
<event>
 7    1  0.1549900E-008  0.4614232E+02  0.7816164E-02  0.1320468E+00
        -11   -1    0    0    0    0  0.00000000000E+00  0.00000000000E+00  0.45593999997E+02  0.45594000000E+02  0.51100000000E-03 0. -1.
         11   -1    0    0    0    0 -0.00000000000E+00 -0.00000000000E+00 -0.45593999997E+02  0.45594000000E+02  0.51100000000E-03 0.  1.
    9900012    2    1    2    0    0 -0.43814280488E+02 -0.15702338041E+01  0.10341986858E+02  0.46142317620E+02  0.99999987127E+01 0.  0.
        -12    1    1    2    0    0  0.43814280488E+02  0.15702338041E+01 -0.10341986858E+02  0.45045682380E+02  0.00000000000E+00 0.  1.
         11    1    3    3    0    0 -0.24868199034E+02  0.26111718073E+01  0.61760943787E+01  0.25756352293E+02  0.51100000000E-03 0. -1.
        -11    1    3    3    0    0 -0.17591576956E+02 -0.24841380421E+01  0.34378510559E+01  0.18095671907E+02  0.51100000000E-03 0.  1.
        -12    1    3    3    0    0 -0.13545044989E+01 -0.16972675693E+01  0.72804142301E+00  0.22902934207E+01  0.00000000000E+00 0.  1.
</event>
<event>
 7    1  0.1549900E-008  0.4614232E+02  0.7816164E-02  0.1320468E+00
        -11   -1    0    0    0    0  0.00000000000E+00  0.00000000000E+00  0.45593999997E+02  0.45594000000E+02  0.51100000000E-03 0.  1.
         11   -1    0    0    0    0 -0.00000000000E+00 -0.00000000000E+00 -0.45593999997E+02  0.45594000000E+02  0.51100000000E-03 0. -1.
    9900012    2    1    2    0    0  0.21662710457E+02  0.11760366637E+02 -0.37703239166E+02  0.46142317728E+02  0.99999996949E+01 0.  0.
        -12    1    1    2    0    0 -0.21662710457E+02 -0.11760366637E+02  0.37703239166E+02  0.45045682272E+02  0.00000000000E+00 0.  1.
         11    1    3    3    0    0  0.14593854023E+02  0.29725115179E+01 -0.22647540337E+02  0.27105856997E+02  0.51100000000E-03 0. -1.
        -11    1    3    3    0    0  0.17374056870E+00  0.16492455479E+01 -0.15016702552E+01  0.22372327726E+01  0.51100000000E-03 0.  1.
         12    1    3    3    0    0  0.68951158652E+01  0.71386095713E+01 -0.13554028574E+02  0.16799227958E+02  0.00000000000E+00 0. -1.
</event>
<event>
 7    1  0.1549900E-008  0.4614232E+02  0.7816164E-02  0.1320468E+00
        -11   -1    0    0    0    0  0.00000000000E+00  0.00000000000E+00  0.45593999997E+02  0.45594000000E+02  0.51100000000E-03 0.  1.
         11   -1    0    0    0    0 -0.00000000000E+00 -0.00000000000E+00 -0.45593999997E+02  0.45594000000E+02  0.51100000000E-03 0. -1.
    9900012    2    1    2    0    0  0.29257584371E+02  0.21293495682E+01 -0.34184398707E+02  0.46142317767E+02  0.10000000057E+02 0.  0.
        -12    1    1    2    0    0 -0.29257584371E+02 -0.21293495682E+01  0.34184398707E+02  0.45045682233E+02  0.00000000000E+00 0.  1.
         11    1    3    3    0    0  0.16989492629E+02 -0.33296006771E+00 -0.13452127581E+02  0.21672873804E+02  0.51100000000E-03 0. -1.
        -11    1    3    3    0    0  0.92556084607E+00  0.12989656785E+01 -0.25841884579E+01  0.30367754215E+01  0.51100000000E-03 0.  1.
         12    1    3    3    0    0  0.11342530896E+02  0.11633439574E+01 -0.18148082668E+02  0.21432668542E+02  0.00000000000E+00 0. -1.
</event>
<event>
 7    1  0.1549900E-008  0.4614232E+02  0.7816164E-02  0.1320468E+00
        -11   -1    0    0    0    0  0.00000000000E+00  0.00000000000E+00  0.45593999997E+02  0.45594000000E+02  0.51100000000E-03 0.  1.
         11   -1    0    0    0    0 -0.00000000000E+00 -0.00000000000E+00 -0.45593999997E+02  0.45594000000E+02  0.51100000000E-03 0. -1.
    9900012    2    1    2    0    0  0.11466291574E+02  0.28945946924E+02 -0.32554106256E+02  0.46142317412E+02  0.99999968125E+01 0.  0.
        -12    1    1    2    0    0 -0.11466291574E+02 -0.28945946924E+02  0.32554106256E+02  0.45045682588E+02  0.00000000000E+00 0.  1.
         11    1    3    3    0    0  0.54148510147E+01  0.87518114066E+01 -0.14723802819E+02  0.17963996886E+02  0.51100000000E-03 0. -1.
        -11    1    3    3    0    0 -0.32300777237E+00  0.80567946012E+01 -0.57207205945E+01  0.98865017902E+01  0.51100000000E-03 0.  1.
         12    1    3    3    0    0  0.63744483312E+01  0.12137340916E+02 -0.12109582842E+02  0.18291818735E+02  0.00000000000E+00 0. -1.
</event>
<event>
 7    1  0.1549900E-008  0.4614232E+02  0.7816164E-02  0.1320468E+00
        -11   -1    0    0    0    0  0.00000000000E+00  0.00000000000E+00  0.45593999997E+02  0.45594000000E+02  0.51100000000E-03 0.  1.
         11   -1    0    0    0    0 -0.00000000000E+00 -0.00000000000E+00 -0.45593999997E+02  0.45594000000E+02  0.51100000000E-03 0. -1.
    9900012    2    1    2    0    0  0.24338538657E+02  0.27489554950E+02 -0.26097383629E+02  0.46142317326E+02  0.99999960298E+01 0.  0.
        -12    1    1    2    0    0 -0.24338538657E+02 -0.27489554950E+02  0.26097383629E+02  0.45045682674E+02  0.00000000000E+00 0.  1.
         11    1    3    3    0    0  0.11482145017E+02  0.14708707480E+02 -0.12307135402E+02  0.22352881514E+02  0.51100000000E-03 0. -1.
        -11    1    3    3    0    0  0.41391909613E+01  0.89148892683E+01 -0.75359599800E+01  0.12385428760E+02  0.51100000000E-03 0.  1.
         12    1    3    3    0    0  0.87172026789E+01  0.38659582015E+01 -0.62542882477E+01  0.11404007052E+02  0.00000000000E+00 0. -1.
</event>
<event>
 7    1  0.1549900E-008  0.4614232E+02  0.7816164E-02  0.1320468E+00
        -11   -1    0    0    0    0  0.00000000000E+00  0.00000000000E+00  0.45593999997E+02  0.45594000000E+02  0.51100000000E-03 0. -1.
         11   -1    0    0    0    0 -0.00000000000E+00 -0.00000000000E+00 -0.45593999997E+02  0.45594000000E+02  0.51100000000E-03 0.  1.
    9900012    2    1    2    0    0  0.43060573564E+02 -0.84845869459E+01  0.10144567516E+02  0.46142318060E+02  0.10000002730E+02 0.  0.
        -12    1    1    2    0    0 -0.43060573564E+02  0.84845869459E+01 -0.10144567516E+02  0.45045681940E+02  0.00000000000E+00 0.  1.
         11    1    3    3    0    0  0.22555009412E+02 -0.65952776339E+01  0.29318728685E+01  0.23681681009E+02  0.51100000000E-03 0. -1.
        -11    1    3    3    0    0  0.73819326701E+01 -0.30405414716E+01  0.16078826684E+01  0.81439001297E+01  0.51100000000E-03 0.  1.
        -12    1    3    3    0    0  0.13123631482E+02  0.11512321596E+01  0.56048119790E+01  0.14316736922E+02  0.00000000000E+00 0.  1.
</event>
<event>
 7    1  0.1549900E-008  0.4614232E+02  0.7816164E-02  0.1320468E+00
        -11   -1    0    0    0    0  0.00000000000E+00  0.00000000000E+00  0.45593999997E+02  0.45594000000E+02  0.51100000000E-03 0.  1.
         11   -1    0    0    0    0 -0.00000000000E+00 -0.00000000000E+00 -0.45593999997E+02  0.45594000000E+02  0.51100000000E-03 0. -1.
    9900012    2    1    2    0    0 -0.25634778375E+02  0.28905523886E+02 -0.23161227551E+02  0.46142316132E+02  0.99999851437E+01 0.  0.
        -12    1    1    2    0    0  0.25634778375E+02 -0.28905523886E+02  0.23161227551E+02  0.45045683868E+02  0.00000000000E+00 0.  1.
         11    1    3    3    0    0 -0.25521381350E+01  0.22477470508E+01 -0.31287319328E+01  0.46211188724E+01  0.51100000000E-03 0. -1.
        -11    1    3    3    0    0 -0.94932623593E+01  0.62264287184E+01 -0.33057757201E+01  0.11824491455E+02  0.51100000000E-03 0.  1.
        -12    1    3    3    0    0 -0.13589377881E+02  0.20431348117E+02 -0.16726719898E+02  0.29696705804E+02  0.00000000000E+00 0.  1.
</event>
<event>
 7    1  0.1549900E-008  0.4614232E+02  0.7816164E-02  0.1320468E+00
        -11   -1    0    0    0    0  0.00000000000E+00  0.00000000000E+00  0.45593999997E+02  0.45594000000E+02  0.51100000000E-03 0.  1.
         11   -1    0    0    0    0 -0.00000000000E+00 -0.00000000000E+00 -0.45593999997E+02  0.45594000000E+02  0.51100000000E-03 0. -1.
    9900012    2    1    2    0    0  0.37541647456E+02  0.62723153497E+01 -0.24091413075E+02  0.46142318548E+02  0.10000007177E+02 0.  0.
        -12    1    1    2    0    0 -0.37541647456E+02 -0.62723153497E+01  0.24091413075E+02  0.45045681452E+02  0.00000000000E+00 0.  1.
         11    1    3    3    0    0  0.24525530346E+01 -0.83972675353E+00  0.35640888698E-01  0.25925716850E+01  0.51100000000E-03 0. -1.
        -11    1    3    3    0    0  0.12188894272E+02  0.31776596636E+00 -0.61648444797E+01  0.13662921594E+02  0.51100000000E-03 0.  1.
         12    1    3    3    0    0  0.22900200149E+02  0.67942761368E+01 -0.17962209484E+02  0.29886825269E+02  0.00000000000E+00 0. -1.
</event>
<event>
 7    1  0.1549900E-008  0.4614232E+02  0.7816164E-02  0.1320468E+00
        -11   -1    0    0    0    0  0.00000000000E+00  0.00000000000E+00  0.45593999997E+02  0.45594000000E+02  0.51100000000E-03 0.  1.
         11   -1    0    0    0    0 -0.00000000000E+00 -0.00000000000E+00 -0.45593999997E+02  0.45594000000E+02  0.51100000000E-03 0. -1.
    9900012    2    1    2    0    0 -0.44011713444E+02 -0.15631047388E+01 -0.94677949102E+01  0.46142319217E+02  0.10000013277E+02 0.  0.
        -12    1    1    2    0    0  0.44011713444E+02  0.15631047388E+01  0.94677949102E+01  0.45045680783E+02  0.00000000000E+00 0.  1.
         11    1    3    3    0    0 -0.28972192803E+02  0.12261387356E+01 -0.30389498649E+01  0.29156930369E+02  0.51100000000E-03 0. -1.
        -11    1    3    3    0    0 -0.14783899311E+02 -0.24698310255E+01 -0.67756113646E+01  0.16449092794E+02  0.51100000000E-03 0.  1.
        -12    1    3    3    0    0 -0.25562133050E+00 -0.31941244885E+00  0.34676631928E+00  0.53629605375E+00  0.00000000000E+00 0.  1.
</event>
<event>
 7    1  0.1549900E-008  0.4614232E+02  0.7816164E-02  0.1320468E+00
        -11   -1    0    0    0    0  0.00000000000E+00  0.00000000000E+00  0.45593999997E+02  0.45594000000E+02  0.51100000000E-03 0.  1.
         11   -1    0    0    0    0 -0.00000000000E+00 -0.00000000000E+00 -0.45593999997E+02  0.45594000000E+02  0.51100000000E-03 0. -1.
    9900012    2    1    2    0    0 -0.26723479160E+02 -0.12867191454E+02 -0.33902869277E+02  0.46142317637E+02  0.99999988662E+01 0.  0.
        -12    1    1    2    0    0  0.26723479160E+02  0.12867191454E+02  0.33902869277E+02  0.45045682363E+02  0.00000000000E+00 0.  1.
         11    1    3    3    0    0 -0.18586801289E+02 -0.10039893163E+02 -0.21380569241E+02  0.30056569634E+02  0.51100000000E-03 0. -1.
        -11    1    3    3    0    0 -0.34025701783E+01 -0.38995175521E+01 -0.55318509251E+01  0.75752951015E+01  0.51100000000E-03 0.  1.
         12    1    3    3    0    0 -0.47341076930E+01  0.10722192614E+01 -0.69904491117E+01  0.85104529008E+01  0.00000000000E+00 0. -1.
</event>
<event>
 7    1  0.1549900E-008  0.4614232E+02  0.7816164E-02  0.1320468E+00
        -11   -1    0    0    0    0  0.00000000000E+00  0.00000000000E+00  0.45593999997E+02  0.45594000000E+02  0.51100000000E-03 0. -1.
         11   -1    0    0    0    0 -0.00000000000E+00 -0.00000000000E+00 -0.45593999997E+02  0.45594000000E+02  0.51100000000E-03 0.  1.
    9900012    2    1    2    0    0 -0.12163360779E+02 -0.39070854428E+02  0.18831740997E+02  0.46142317852E+02  0.10000000830E+02 0.  0.
        -12    1    1    2    0    0  0.12163360779E+02  0.39070854428E+02 -0.18831740997E+02  0.45045682148E+02  0.00000000000E+00 0.  1.
         11    1    3    3    0    0 -0.58664339393E+01 -0.14411918385E+02  0.46040540305E+01  0.16227006886E+02  0.51100000000E-03 0.  1.
        -11    1    3    3    0    0 -0.96603808046E+00 -0.16718374882E+02  0.87726492781E+01  0.18904937553E+02  0.51100000000E-03 0. -1.
        -12    1    3    3    0    0 -0.53308887589E+01 -0.79405611618E+01  0.54550376881E+01  0.11010373413E+02  0.00000000000E+00 0.  1.
</event>
<event>
 7    1  0.1549900E-008  0.4614232E+02  0.7816164E-02  0.1320468E+00
        -11   -1    0    0    0    0  0.00000000000E+00  0.00000000000E+00  0.45593999997E+02  0.45594000000E+02  0.51100000000E-03 0.  1.
         11   -1    0    0    0    0 -0.00000000000E+00 -0.00000000000E+00 -0.45593999997E+02  0.45594000000E+02  0.51100000000E-03 0. -1.
    9900012    2    1    2    0    0 -0.24623757514E+02 -0.34351964720E+02 -0.15579683748E+02  0.46142318077E+02  0.10000002883E+02 0.  0.
        -12    1    1    2    0    0  0.24623757514E+02  0.34351964720E+02  0.15579683748E+02  0.45045681923E+02  0.00000000000E+00 0.  1.
         11    1    3    3    0    0 -0.58630371516E+01 -0.12403177818E+02 -0.75084552593E+01  0.15639402970E+02  0.51100000000E-03 0. -1.
        -11    1    3    3    0    0 -0.10638214802E+02 -0.10809683501E+02 -0.15290139698E+01  0.15243318390E+02  0.51100000000E-03 0.  1.
         12    1    3    3    0    0 -0.81225055603E+01 -0.11139103401E+02 -0.65422145193E+01  0.15259596717E+02  0.00000000000E+00 0. -1.
</event>
<event>
 7    1  0.1549900E-008  0.4614232E+02  0.7816164E-02  0.1320468E+00
        -11   -1    0    0    0    0  0.00000000000E+00  0.00000000000E+00  0.45593999997E+02  0.45594000000E+02  0.51100000000E-03 0.  1.
         11   -1    0    0    0    0 -0.00000000000E+00 -0.00000000000E+00 -0.45593999997E+02  0.45594000000E+02  0.51100000000E-03 0. -1.
    9900012    2    1    2    0    0 -0.30312605568E+02 -0.28521176497E+02  0.17227935989E+02  0.46142319369E+02  0.10000014660E+02 0.  0.
        -12    1    1    2    0    0  0.30312605568E+02  0.28521176497E+02 -0.17227935989E+02  0.45045680631E+02  0.00000000000E+00 0.  1.
         11    1    3    3    0    0 -0.37924952053E+01 -0.43886672080E+01  0.61181426500E+01  0.84306043373E+01  0.51100000000E-03 0. -1.
        -11    1    3    3    0    0 -0.10263894165E+02 -0.73354296226E+01  0.29790834410E+01  0.12962676791E+02  0.51100000000E-03 0.  1.
         12    1    3    3    0    0 -0.16256216198E+02 -0.16797079666E+02  0.81307098976E+01  0.24749038241E+02  0.00000000000E+00 0. -1.
</event>
<event>
 7    1  0.1549900E-008  0.4614232E+02  0.7816164E-02  0.1320468E+00
        -11   -1    0    0    0    0  0.00000000000E+00  0.00000000000E+00  0.45593999997E+02  0.45594000000E+02  0.51100000000E-03 0.  1.
         11   -1    0    0    0    0 -0.00000000000E+00 -0.00000000000E+00 -0.45593999997E+02  0.45594000000E+02  0.51100000000E-03 0. -1.
    9900012    2    1    2    0    0 -0.38106909628E+02  0.23944207341E+02 -0.19109724364E+01  0.46142318273E+02  0.10000004670E+02 0.  0.
        -12    1    1    2    0    0  0.38106909628E+02 -0.23944207341E+02  0.19109724364E+01  0.45045681727E+02  0.00000000000E+00 0.  1.
         11    1    3    3    0    0 -0.10236379240E+02  0.10306137754E+02  0.16843715799E+01  0.14623168029E+02  0.51100000000E-03 0. -1.
        -11    1    3    3    0    0 -0.14667220744E+01  0.18476837219E+01 -0.68430151139E+00  0.24563138235E+01  0.51100000000E-03 0.  1.
         12    1    3    3    0    0 -0.26403808314E+02  0.11790385866E+02 -0.29110425049E+01  0.29062836420E+02  0.00000000000E+00 0. -1.
</event>
<event>
 7    1  0.1549900E-008  0.4614231E+02  0.7816164E-02  0.1320468E+00
        -11   -1    0    0    0    0  0.00000000000E+00  0.00000000000E+00  0.45593999997E+02  0.45594000000E+02  0.51100000000E-03 0.  1.
         11   -1    0    0    0    0 -0.00000000000E+00 -0.00000000000E+00 -0.45593999997E+02  0.45594000000E+02  0.51100000000E-03 0. -1.
    9900012    2    1    2    0    0  0.47395783960E+01  0.15360283175E+02 -0.42079827660E+02  0.46142314319E+02  0.99999686143E+01 0.  0.
        -12    1    1    2    0    0 -0.47395783960E+01 -0.15360283175E+02  0.42079827660E+02  0.45045685681E+02  0.00000000000E+00 0.  1.
         11    1    3    3    0    0 -0.58241521435E+00  0.11358716153E+02 -0.25131777175E+02  0.27585609733E+02  0.51100000000E-03 0. -1.
        -11    1    3    3    0    0  0.94964650772E+00 -0.56838808783E-01 -0.53128792398E+00  0.10896450152E+01  0.51100000000E-03 0.  1.
         12    1    3    3    0    0  0.43723471026E+01  0.40584058306E+01 -0.16416762561E+02  0.17467059571E+02  0.00000000000E+00 0. -1.
</event>
<event>
 7    1  0.1549900E-008  0.4614231E+02  0.7816164E-02  0.1320468E+00
        -11   -1    0    0    0    0  0.00000000000E+00  0.00000000000E+00  0.45593999997E+02  0.45594000000E+02  0.51100000000E-03 0. -1.
         11   -1    0    0    0    0 -0.00000000000E+00 -0.00000000000E+00 -0.45593999997E+02  0.45594000000E+02  0.51100000000E-03 0.  1.
    9900012    2    1    2    0    0  0.21730958221E+02  0.34100291853E+01  0.39309680242E+02  0.46142314247E+02  0.99999679557E+01 0.  0.
        -12    1    1    2    0    0 -0.21730958221E+02 -0.34100291853E+01 -0.39309680242E+02  0.45045685753E+02  0.00000000000E+00 0.  1.
         11    1    3    3    0    0  0.18311434768E+02  0.22593514727E+01  0.25092114136E+02  0.31145264558E+02  0.51100000000E-03 0. -1.
        -11    1    3    3    0    0  0.37008408604E+01  0.16960505808E+01  0.13149451309E+02  0.13765205434E+02  0.51100000000E-03 0.  1.
         12    1    3    3    0    0 -0.28131740725E+00 -0.54537286818E+00  0.10681147969E+01  0.12318442549E+01  0.00000000000E+00 0. -1.
</event>
<event>
 7    1  0.1549900E-008  0.4614232E+02  0.7816164E-02  0.1320468E+00
        -11   -1    0    0    0    0  0.00000000000E+00  0.00000000000E+00  0.45593999997E+02  0.45594000000E+02  0.51100000000E-03 0.  1.
         11   -1    0    0    0    0 -0.00000000000E+00 -0.00000000000E+00 -0.45593999997E+02  0.45594000000E+02  0.51100000000E-03 0. -1.
    9900012    2    1    2    0    0  0.42507091426E+02  0.12328727777E+02 -0.83823047158E+01  0.46142318937E+02  0.10000010721E+02 0.  0.
        -12    1    1    2    0    0 -0.42507091426E+02 -0.12328727777E+02  0.83823047158E+01  0.45045681063E+02  0.00000000000E+00 0.  1.
         11    1    3    3    0    0  0.21667212797E+02  0.87506764159E+01 -0.10348118516E+01  0.23390452838E+02  0.51100000000E-03 0. -1.
        -11    1    3    3    0    0  0.13594076450E+02  0.41558791052E+01 -0.55811495181E+01  0.15271525001E+02  0.51100000000E-03 0.  1.
         12    1    3    3    0    0  0.72458021793E+01 -0.57782774399E+00 -0.17663433462E+01  0.74803410979E+01  0.00000000000E+00 0. -1.
</event>
<event>
 7    1  0.1549900E-008  0.4614232E+02  0.7816164E-02  0.1320468E+00
        -11   -1    0    0    0    0  0.00000000000E+00  0.00000000000E+00  0.45593999997E+02  0.45594000000E+02  0.51100000000E-03 0. -1.
         11   -1    0    0    0    0 -0.00000000000E+00 -0.00000000000E+00 -0.45593999997E+02  0.45594000000E+02  0.51100000000E-03 0.  1.
    9900012    2    1    2    0    0  0.12318078789E+02  0.31426369817E+02 -0.29828875864E+02  0.46142316297E+02  0.99999866484E+01 0.  0.
        -12    1    1    2    0    0 -0.12318078789E+02 -0.31426369817E+02  0.29828875864E+02  0.45045683703E+02  0.00000000000E+00 0.  1.
         11    1    3    3    0    0  0.75852811108E+00  0.91856325300E+00  0.27132896556E+00  0.12217786271E+01  0.51100000000E-03 0.  1.
        -11    1    3    3    0    0  0.72954912702E+01  0.22948452949E+02 -0.18164708234E+02  0.30163095184E+02  0.51100000000E-03 0. -1.
        -12    1    3    3    0    0  0.42640594073E+01  0.75593536157E+01 -0.11935496596E+02  0.14757442486E+02  0.00000000000E+00 0.  1.
</event>
<event>
 7    1  0.1549900E-008  0.4614232E+02  0.7816164E-02  0.1320468E+00
        -11   -1    0    0    0    0  0.00000000000E+00  0.00000000000E+00  0.45593999997E+02  0.45594000000E+02  0.51100000000E-03 0. -1.
         11   -1    0    0    0    0 -0.00000000000E+00 -0.00000000000E+00 -0.45593999997E+02  0.45594000000E+02  0.51100000000E-03 0.  1.
    9900012    2    1    2    0    0  0.20272377384E+01 -0.43228714632E+02 -0.12501282831E+02  0.46142317254E+02  0.99999953790E+01 0.  0.
        -12    1    1    2    0    0 -0.20272377384E+01  0.43228714632E+02  0.12501282831E+02  0.45045682746E+02  0.00000000000E+00 0.  1.
         11    1    3    3    0    0  0.55540483428E+01 -0.30957131530E+02 -0.10527046261E+02  0.33166400902E+02  0.51100000000E-03 0. -1.
        -11    1    3    3    0    0 -0.23964711555E+01 -0.77780264001E+01 -0.69188377845E+00  0.81681988286E+01  0.51100000000E-03 0.  1.
         12    1    3    3    0    0 -0.11303394488E+01 -0.44935567021E+01 -0.12823527916E+01  0.48077175236E+01  0.00000000000E+00 0. -1.
</event>
<event>
 7    1  0.1549900E-008  0.4614232E+02  0.7816164E-02  0.1320468E+00
        -11   -1    0    0    0    0  0.00000000000E+00  0.00000000000E+00  0.45593999997E+02  0.45594000000E+02  0.51100000000E-03 0.  1.
         11   -1    0    0    0    0 -0.00000000000E+00 -0.00000000000E+00 -0.45593999997E+02  0.45594000000E+02  0.51100000000E-03 0. -1.
    9900012    2    1    2    0    0 -0.38973481098E+02  0.94689280730E+00 -0.22567336022E+02  0.46142317742E+02  0.99999998286E+01 0.  0.
        -12    1    1    2    0    0  0.38973481098E+02 -0.94689280730E+00  0.22567336022E+02  0.45045682258E+02  0.00000000000E+00 0.  1.
         11    1    3    3    0    0 -0.22735691772E+02 -0.67811032620E+00 -0.11292215842E+02  0.25394598891E+02  0.51100000000E-03 0. -1.
        -11    1    3    3    0    0  0.43116561314E+00 -0.13967240819E+00 -0.97152911578E+00  0.10720453589E+01  0.51100000000E-03 0.  1.
         12    1    3    3    0    0 -0.16668954940E+02  0.17646755417E+01 -0.10303591065E+02  0.19675673492E+02  0.00000000000E+00 0. -1.
</event>
<event>
 7    1  0.1549900E-008  0.4614232E+02  0.7816164E-02  0.1320468E+00
        -11   -1    0    0    0    0  0.00000000000E+00  0.00000000000E+00  0.45593999997E+02  0.45594000000E+02  0.51100000000E-03 0.  1.
         11   -1    0    0    0    0 -0.00000000000E+00 -0.00000000000E+00 -0.45593999997E+02  0.45594000000E+02  0.51100000000E-03 0. -1.
    9900012    2    1    2    0    0  0.15802643406E+02  0.19259564733E+02 -0.37529443819E+02  0.46142317346E+02  0.99999962186E+01 0.  0.
        -12    1    1    2    0    0 -0.15802643406E+02 -0.19259564733E+02  0.37529443819E+02  0.45045682654E+02  0.00000000000E+00 0.  1.
         11    1    3    3    0    0  0.40547754309E+01  0.90242099981E+01 -0.19774728341E+02  0.22111477814E+02  0.51100000000E-03 0. -1.
        -11    1    3    3    0    0  0.10063005207E+02  0.10166770389E+02 -0.14518827224E+02  0.20381943925E+02  0.51100000000E-03 0.  1.
        -12    1    3    3    0    0  0.16848627681E+01  0.68584346009E-01 -0.32358882539E+01  0.36488956071E+01  0.00000000000E+00 0.  1.
</event>
<event>
 7    1  0.1549900E-008  0.4614231E+02  0.7816164E-02  0.1320468E+00
        -11   -1    0    0    0    0  0.00000000000E+00  0.00000000000E+00  0.45593999997E+02  0.45594000000E+02  0.51100000000E-03 0.  1.
         11   -1    0    0    0    0 -0.00000000000E+00 -0.00000000000E+00 -0.45593999997E+02  0.45594000000E+02  0.51100000000E-03 0. -1.
    9900012    2    1    2    0    0 -0.31247752112E+02 -0.27063506179E+02 -0.17895774835E+02  0.46142310576E+02  0.99999344827E+01 0.  0.
        -12    1    1    2    0    0  0.31247752112E+02  0.27063506179E+02  0.17895774835E+02  0.45045689424E+02  0.00000000000E+00 0.  1.
         11    1    3    3    0    0 -0.58084353584E+01 -0.17367720042E+01 -0.11629583469E+01  0.61730681743E+01  0.51100000000E-03 0. -1.
        -11    1    3    3    0    0 -0.10197243219E+02 -0.12491824073E+02 -0.98082730113E+01  0.18874100182E+02  0.51100000000E-03 0.  1.
         12    1    3    3    0    0 -0.15242073534E+02 -0.12834910101E+02 -0.69245434773E+01  0.21095142220E+02  0.00000000000E+00 0. -1.
</event>
<event>
 7    1  0.1549900E-008  0.4614232E+02  0.7816164E-02  0.1320468E+00
        -11   -1    0    0    0    0  0.00000000000E+00  0.00000000000E+00  0.45593999997E+02  0.45594000000E+02  0.51100000000E-03 0.  1.
         11   -1    0    0    0    0 -0.00000000000E+00 -0.00000000000E+00 -0.45593999997E+02  0.45594000000E+02  0.51100000000E-03 0. -1.
    9900012    2    1    2    0    0 -0.37401859564E+02  0.24244721146E+02 -0.65121361448E+01  0.46142317416E+02  0.99999968545E+01 0.  0.
        -12    1    1    2    0    0  0.37401859564E+02 -0.24244721146E+02  0.65121361448E+01  0.45045682584E+02  0.00000000000E+00 0.  1.
         11    1    3    3    0    0 -0.30973119205E+02  0.18502646627E+02 -0.35453293269E+01  0.36252605504E+02  0.51100000000E-03 0. -1.
        -11    1    3    3    0    0 -0.66924571733E+00  0.83429082669E-01 -0.15524432003E+01  0.16926105262E+01  0.51100000000E-03 0.  1.
         12    1    3    3    0    0 -0.57594946410E+01  0.56586454359E+01 -0.14143636176E+01  0.81971013859E+01  0.00000000000E+00 0. -1.
</event>
<event>
 7    1  0.1549900E-008  0.4614232E+02  0.7816164E-02  0.1320468E+00
        -11   -1    0    0    0    0  0.00000000000E+00  0.00000000000E+00  0.45593999997E+02  0.45594000000E+02  0.51100000000E-03 0.  1.
         11   -1    0    0    0    0 -0.00000000000E+00 -0.00000000000E+00 -0.45593999997E+02  0.45594000000E+02  0.51100000000E-03 0. -1.
    9900012    2    1    2    0    0  0.24753791558E+02  0.48995151475E+01 -0.37314313632E+02  0.46142318221E+02  0.10000004191E+02 0.  0.
        -12    1    1    2    0    0 -0.24753791558E+02 -0.48995151475E+01  0.37314313632E+02  0.45045681779E+02  0.00000000000E+00 0.  1.
         11    1    3    3    0    0  0.49788235362E+01  0.13449105868E+01 -0.10991326702E+02  0.12141117379E+02  0.51100000000E-03 0. -1.
        -11    1    3    3    0    0  0.15889021470E+02  0.55265705164E+01 -0.18205308966E+02  0.24787845000E+02  0.51100000000E-03 0.  1.
        -12    1    3    3    0    0  0.38859465516E+01 -0.19719659557E+01 -0.81176779641E+01  0.92133558415E+01  0.00000000000E+00 0.  1.
</event>
<event>
 7    1  0.1549900E-008  0.4614232E+02  0.7816164E-02  0.1320468E+00
        -11   -1    0    0    0    0  0.00000000000E+00  0.00000000000E+00  0.45593999997E+02  0.45594000000E+02  0.51100000000E-03 0. -1.
         11   -1    0    0    0    0 -0.00000000000E+00 -0.00000000000E+00 -0.45593999997E+02  0.45594000000E+02  0.51100000000E-03 0.  1.
    9900012    2    1    2    0    0  0.34920202205E+02 -0.91050345229E+01  0.26959067197E+02  0.46142317856E+02  0.10000000865E+02 0.  0.
        -12    1    1    2    0    0 -0.34920202205E+02  0.91050345229E+01 -0.26959067197E+02  0.45045682144E+02  0.00000000000E+00 0.  1.
         11    1    3    3    0    0  0.11198650624E+02 -0.32444979875E+01  0.64906841971E+01  0.13344119476E+02  0.51100000000E-03 0. -1.
        -11    1    3    3    0    0  0.14904918257E+02 -0.51185692517E+01  0.17295931753E+02  0.23398837469E+02  0.51100000000E-03 0.  1.
        -12    1    3    3    0    0  0.88166333245E+01 -0.74196728376E+00  0.31724512471E+01  0.93993609115E+01  0.00000000000E+00 0.  1.
</event>
<event>
 7    1  0.1549900E-008  0.4614231E+02  0.7816164E-02  0.1320468E+00
        -11   -1    0    0    0    0  0.00000000000E+00  0.00000000000E+00  0.45593999997E+02  0.45594000000E+02  0.51100000000E-03 0.  1.
         11   -1    0    0    0    0 -0.00000000000E+00 -0.00000000000E+00 -0.45593999997E+02  0.45594000000E+02  0.51100000000E-03 0. -1.
    9900012    2    1    2    0    0 -0.11929087585E+02 -0.58772027172E+01 -0.43037997106E+02  0.46142313888E+02  0.99999646851E+01 0.  0.
        -12    1    1    2    0    0  0.11929087585E+02  0.58772027172E+01  0.43037997106E+02  0.45045686112E+02  0.00000000000E+00 0.  1.
         11    1    3    3    0    0 -0.64601256510E+01 -0.71073568606E+01 -0.25340956072E+02  0.27100033208E+02  0.51100000000E-03 0. -1.
        -11    1    3    3    0    0 -0.30405364949E+01  0.15037594706E+01 -0.15099670439E+02  0.15475987928E+02  0.51100000000E-03 0.  1.
        -12    1    3    3    0    0 -0.24284254394E+01 -0.27360532717E+00 -0.25973705952E+01  0.35662927528E+01  0.00000000000E+00 0.  1.
</event>
<event>
 7    1  0.1549900E-008  0.4614232E+02  0.7816164E-02  0.1320468E+00
        -11   -1    0    0    0    0  0.00000000000E+00  0.00000000000E+00  0.45593999997E+02  0.45594000000E+02  0.51100000000E-03 0.  1.
         11   -1    0    0    0    0 -0.00000000000E+00 -0.00000000000E+00 -0.45593999997E+02  0.45594000000E+02  0.51100000000E-03 0. -1.
    9900012    2    1    2    0    0  0.10732466586E+02  0.30590943696E+01 -0.43641372813E+02  0.46142319647E+02  0.10000017201E+02 0.  0.
        -12    1    1    2    0    0 -0.10732466586E+02 -0.30590943696E+01  0.43641372813E+02  0.45045680353E+02  0.00000000000E+00 0.  1.
         11    1    3    3    0    0  0.47385489306E-01 -0.23118680219E+01 -0.13542007806E+02  0.13738011312E+02  0.51100000000E-03 0. -1.
        -11    1    3    3    0    0  0.51291982690E+01  0.23455426004E+01 -0.12930807928E+02  0.14107304452E+02  0.51100000000E-03 0.  1.
         12    1    3    3    0    0  0.55558828278E+01  0.30254197911E+01 -0.17168557080E+02  0.18297003884E+02  0.00000000000E+00 0. -1.
</event>
<event>
 7    1  0.1549900E-008  0.4614232E+02  0.7816164E-02  0.1320468E+00
        -11   -1    0    0    0    0  0.00000000000E+00  0.00000000000E+00  0.45593999997E+02  0.45594000000E+02  0.51100000000E-03 0. -1.
         11   -1    0    0    0    0 -0.00000000000E+00 -0.00000000000E+00 -0.45593999997E+02  0.45594000000E+02  0.51100000000E-03 0.  1.
    9900012    2    1    2    0    0  0.64364037912E+01  0.39524096564E+02  0.20628425114E+02  0.46142318457E+02  0.10000006349E+02 0.  0.
        -12    1    1    2    0    0 -0.64364037912E+01 -0.39524096564E+02 -0.20628425114E+02  0.45045681543E+02  0.00000000000E+00 0.  1.
         11    1    3    3    0    0  0.11626735842E+01  0.37752653454E+00 -0.41837723347E+00  0.12920433113E+01  0.51100000000E-03 0.  1.
        -11    1    3    3    0    0  0.22734860391E+01  0.24216996333E+02  0.11800020962E+02  0.27034647124E+02  0.51100000000E-03 0. -1.
         12    1    3    3    0    0  0.30002441679E+01  0.14929573696E+02  0.92467813854E+01  0.17815628022E+02  0.00000000000E+00 0. -1.
</event>
<event>
 7    1  0.1549900E-008  0.4614232E+02  0.7816164E-02  0.1320468E+00
        -11   -1    0    0    0    0  0.00000000000E+00  0.00000000000E+00  0.45593999997E+02  0.45594000000E+02  0.51100000000E-03 0.  1.
         11   -1    0    0    0    0 -0.00000000000E+00 -0.00000000000E+00 -0.45593999997E+02  0.45594000000E+02  0.51100000000E-03 0. -1.
    9900012    2    1    2    0    0 -0.16908851126E+02  0.23223821263E+02 -0.34696665614E+02  0.46142315132E+02  0.99999760264E+01 0.  0.
        -12    1    1    2    0    0  0.16908851126E+02 -0.23223821263E+02  0.34696665614E+02  0.45045684868E+02  0.00000000000E+00 0.  1.
         11    1    3    3    0    0 -0.29623827335E+01  0.22874412675E+01 -0.34346236678E+01  0.50798365144E+01  0.51100000000E-03 0.  1.
        -11    1    3    3    0    0 -0.93373262942E+01  0.17567099766E+02 -0.18877711134E+02  0.27425474188E+02  0.51100000000E-03 0. -1.
        -12    1    3    3    0    0 -0.46091420985E+01  0.33692802298E+01 -0.12384330812E+02  0.13637004430E+02  0.00000000000E+00 0.  1.
</event>
<event>
 7    1  0.1549900E-008  0.4614232E+02  0.7816164E-02  0.1320468E+00
        -11   -1    0    0    0    0  0.00000000000E+00  0.00000000000E+00  0.45593999997E+02  0.45594000000E+02  0.51100000000E-03 0. -1.
         11   -1    0    0    0    0 -0.00000000000E+00 -0.00000000000E+00 -0.45593999997E+02  0.45594000000E+02  0.51100000000E-03 0.  1.
    9900012    2    1    2    0    0  0.40013879749E+02 -0.31823368067E+01 -0.20442006794E+02  0.46142317833E+02  0.10000000652E+02 0.  0.
        -12    1    1    2    0    0 -0.40013879749E+02  0.31823368067E+01  0.20442006794E+02  0.45045682167E+02  0.00000000000E+00 0.  1.
         11    1    3    3    0    0  0.14057198917E+02  0.21506944059E+01 -0.91933398032E+01  0.16933629995E+02  0.51100000000E-03 0.  1.
        -11    1    3    3    0    0  0.24738362123E+02 -0.40040381011E+01 -0.98489662646E+01  0.26926214334E+02  0.51100000000E-03 0. -1.
         12    1    3    3    0    0  0.12183187098E+01 -0.13289931116E+01 -0.13997007263E+01  0.22824735032E+01  0.00000000000E+00 0. -1.
</event>
<event>
 7    1  0.1549900E-008  0.4614232E+02  0.7816164E-02  0.1320468E+00
        -11   -1    0    0    0    0  0.00000000000E+00  0.00000000000E+00  0.45593999997E+02  0.45594000000E+02  0.51100000000E-03 0.  1.
         11   -1    0    0    0    0 -0.00000000000E+00 -0.00000000000E+00 -0.45593999997E+02  0.45594000000E+02  0.51100000000E-03 0. -1.
    9900012    2    1    2    0    0 -0.22612994953E+02 -0.23723371748E+02 -0.30902548662E+02  0.46142318502E+02  0.10000006752E+02 0.  0.
        -12    1    1    2    0    0  0.22612994953E+02  0.23723371748E+02  0.30902548662E+02  0.45045681498E+02  0.00000000000E+00 0.  1.
         11    1    3    3    0    0 -0.13317551964E+02 -0.16622546716E+02 -0.18812712948E+02  0.28418029811E+02  0.51100000000E-03 0. -1.
        -11    1    3    3    0    0 -0.95767238081E+00  0.28561126991E+00  0.31920219842E+00  0.10490950820E+01  0.51100000000E-03 0.  1.
        -12    1    3    3    0    0 -0.83377706086E+01 -0.73864363025E+01 -0.12409037912E+02  0.16675193608E+02  0.00000000000E+00 0.  1.
</event>
<event>
 7    1  0.1549900E-008  0.4614232E+02  0.7816164E-02  0.1320468E+00
        -11   -1    0    0    0    0  0.00000000000E+00  0.00000000000E+00  0.45593999997E+02  0.45594000000E+02  0.51100000000E-03 0. -1.
         11   -1    0    0    0    0 -0.00000000000E+00 -0.00000000000E+00 -0.45593999997E+02  0.45594000000E+02  0.51100000000E-03 0.  1.
    9900012    2    1    2    0    0 -0.36649672465E+02  0.82535610053E+01  0.24855457403E+02  0.46142317368E+02  0.99999964164E+01 0.  0.
        -12    1    1    2    0    0  0.36649672465E+02 -0.82535610053E+01 -0.24855457403E+02  0.45045682632E+02  0.00000000000E+00 0.  1.
         11    1    3    3    0    0 -0.19093850650E+02  0.83067283936E+01  0.11604517918E+02  0.23837820907E+02  0.51100000000E-03 0.  1.
        -11    1    3    3    0    0 -0.13658625321E+02  0.40683043805E+00  0.83037101138E+01  0.15989845483E+02  0.51100000000E-03 0. -1.
        -12    1    3    3    0    0 -0.38971964943E+01 -0.45999782640E+00  0.49472293714E+01  0.63146509775E+01  0.00000000000E+00 0.  1.
</event>
<event>
 7    1  0.1549900E-008  0.4614232E+02  0.7816164E-02  0.1320468E+00
        -11   -1    0    0    0    0  0.00000000000E+00  0.00000000000E+00  0.45593999997E+02  0.45594000000E+02  0.51100000000E-03 0. -1.
         11   -1    0    0    0    0 -0.00000000000E+00 -0.00000000000E+00 -0.45593999997E+02  0.45594000000E+02  0.51100000000E-03 0.  1.
    9900012    2    1    2    0    0 -0.15176650589E+02 -0.10033967047E+02  0.41208036991E+02  0.46142317294E+02  0.99999957448E+01 0.  0.
        -12    1    1    2    0    0  0.15176650589E+02  0.10033967047E+02 -0.41208036991E+02  0.45045682706E+02  0.00000000000E+00 0.  1.
         11    1    3    3    0    0 -0.50570757706E+01 -0.17311617232E+01  0.67309838003E+01  0.85951776854E+01  0.51100000000E-03 0. -1.
        -11    1    3    3    0    0 -0.10387611635E+02 -0.73181996830E+01  0.34208155740E+02  0.36491868155E+02  0.51100000000E-03 0.  1.
        -12    1    3    3    0    0  0.26803681674E+00 -0.98460564072E+00  0.26889745066E+00  0.10552714541E+01  0.00000000000E+00 0.  1.
</event>
<event>
 7    1  0.1737089E-008  0.4614232E+02  0.7816164E-02  0.1320468E+00
        -11   -1    0    0    0    0  0.00000000000E+00  0.00000000000E+00  0.45593999997E+02  0.45594000000E+02  0.51100000000E-03 0. -1.
         11   -1    0    0    0    0 -0.00000000000E+00 -0.00000000000E+00 -0.45593999997E+02  0.45594000000E+02  0.51100000000E-03 0.  1.
    9900012    2    1    2    0    0  0.21645030811E+02  0.83731416070E+01  0.38606950814E+02  0.46142317517E+02  0.99999977754E+01 0.  0.
        -12    1    1    2    0    0 -0.21645030811E+02 -0.83731416070E+01 -0.38606950814E+02  0.45045682483E+02  0.00000000000E+00 0.  1.
         11    1    3    3    0    0  0.11567693242E+02  0.37515624697E+01  0.19932796261E+02  0.23349563485E+02  0.51100000000E-03 0. -1.
        -11    1    3    3    0    0 -0.42169115934E+00  0.14586250645E+01  0.52195161980E+01  0.54358771247E+01  0.51100000000E-03 0.  1.
        -12    1    3    3    0    0  0.10499028729E+02  0.31629540728E+01  0.13454638355E+02  0.17356876908E+02  0.00000000000E+00 0.  1.
</event>
<event>
 7    1  0.1549900E-008  0.4614232E+02  0.7816164E-02  0.1320468E+00
        -11   -1    0    0    0    0  0.00000000000E+00  0.00000000000E+00  0.45593999997E+02  0.45594000000E+02  0.51100000000E-03 0.  1.
         11   -1    0    0    0    0 -0.00000000000E+00 -0.00000000000E+00 -0.45593999997E+02  0.45594000000E+02  0.51100000000E-03 0. -1.
    9900012    2    1    2    0    0 -0.52688989072E+01  0.15748988675E+02 -0.41872684726E+02  0.46142315788E+02  0.99999820109E+01 0.  0.
        -12    1    1    2    0    0  0.52688989072E+01 -0.15748988675E+02  0.41872684726E+02  0.45045684212E+02  0.00000000000E+00 0.  1.
         11    1    3    3    0    0 -0.13755654425E+01  0.74876127029E+01 -0.17166591158E+02  0.18778934382E+02  0.51100000000E-03 0. -1.
        -11    1    3    3    0    0 -0.20371782534E+01 -0.56042113735E+00 -0.90867233868E+01  0.93291322885E+01  0.51100000000E-03 0.  1.
        -12    1    3    3    0    0 -0.18561552113E+01  0.88217971092E+01 -0.15619370181E+02  0.18034249118E+02  0.00000000000E+00 0.  1.
</event>
<event>
 7    1  0.1549900E-008  0.4614231E+02  0.7816164E-02  0.1320468E+00
        -11   -1    0    0    0    0  0.00000000000E+00  0.00000000000E+00  0.45593999997E+02  0.45594000000E+02  0.51100000000E-03 0.  1.
         11   -1    0    0    0    0 -0.00000000000E+00 -0.00000000000E+00 -0.45593999997E+02  0.45594000000E+02  0.51100000000E-03 0. -1.
    9900012    2    1    2    0    0  0.17157016786E+02 -0.25781136760E+02 -0.32712130909E+02  0.46142314899E+02  0.99999738993E+01 0.  0.
        -12    1    1    2    0    0 -0.17157016786E+02  0.25781136760E+02  0.32712130909E+02  0.45045685101E+02  0.00000000000E+00 0.  1.
         11    1    3    3    0    0  0.10402261100E+02 -0.16508676599E+02 -0.17872171819E+02  0.26460498197E+02  0.51100000000E-03 0. -1.
        -11    1    3    3    0    0  0.30512191292E+01 -0.36245090715E+01 -0.19377779418E+01  0.51187877272E+01  0.51100000000E-03 0.  1.
         12    1    3    3    0    0  0.37035365571E+01 -0.56479510895E+01 -0.12902181148E+02  0.14563028975E+02  0.00000000000E+00 0. -1.
</event>
<event>
 7    1  0.1549900E-008  0.4614232E+02  0.7816164E-02  0.1320468E+00
        -11   -1    0    0    0    0  0.00000000000E+00  0.00000000000E+00  0.45593999997E+02  0.45594000000E+02  0.51100000000E-03 0.  1.
         11   -1    0    0    0    0 -0.00000000000E+00 -0.00000000000E+00 -0.45593999997E+02  0.45594000000E+02  0.51100000000E-03 0. -1.
    9900012    2    1    2    0    0  0.35059615456E+02 -0.28278698102E+02  0.50203959541E+00  0.46142318231E+02  0.10000004283E+02 0.  0.
        -12    1    1    2    0    0 -0.35059615456E+02  0.28278698102E+02 -0.50203959541E+00  0.45045681769E+02  0.00000000000E+00 0.  1.
         11    1    3    3    0    0  0.23222387107E+02 -0.14069721466E+02  0.15413170861E+01  0.27195808201E+02  0.51100000000E-03 0. -1.
        -11    1    3    3    0    0  0.92967655852E+01 -0.13224766677E+02 -0.12509067234E+01  0.16213854319E+02  0.51100000000E-03 0.  1.
        -12    1    3    3    0    0  0.25404627640E+01 -0.98420995919E+00  0.21162923262E+00  0.27326557103E+01  0.00000000000E+00 0.  1.
</event>
<event>
 7    1  0.1549900E-008  0.4614232E+02  0.7816164E-02  0.1320468E+00
        -11   -1    0    0    0    0  0.00000000000E+00  0.00000000000E+00  0.45593999997E+02  0.45594000000E+02  0.51100000000E-03 0.  1.
         11   -1    0    0    0    0 -0.00000000000E+00 -0.00000000000E+00 -0.45593999997E+02  0.45594000000E+02  0.51100000000E-03 0. -1.
    9900012    2    1    2    0    0 -0.19030266351E+02  0.31563304766E+02 -0.25898269055E+02  0.46142316687E+02  0.99999902034E+01 0.  0.
        -12    1    1    2    0    0  0.19030266351E+02 -0.31563304766E+02  0.25898269055E+02  0.45045683313E+02  0.00000000000E+00 0.  1.
         11    1    3    3    0    0 -0.15694898822E+02  0.26184886384E+02 -0.16811947814E+02  0.34851394714E+02  0.51100000000E-03 0. -1.
        -11    1    3    3    0    0 -0.29398194050E+01  0.42470426315E+01 -0.85243864571E+01  0.99671999067E+01  0.51100000000E-03 0.  1.
        -12    1    3    3    0    0 -0.39554812486E+00  0.11313757503E+01 -0.56193478333E+00  0.13237220661E+01  0.00000000000E+00 0.  1.
</event>
<event>
 7    1  0.1549900E-008  0.4614232E+02  0.7816164E-02  0.1320468E+00
        -11   -1    0    0    0    0  0.00000000000E+00  0.00000000000E+00  0.45593999997E+02  0.45594000000E+02  0.51100000000E-03 0. -1.
         11   -1    0    0    0    0 -0.00000000000E+00 -0.00000000000E+00 -0.45593999997E+02  0.45594000000E+02  0.51100000000E-03 0.  1.
    9900012    2    1    2    0    0  0.33662516556E+02 -0.15314377414E+02  0.25718055168E+02  0.46142317209E+02  0.99999949638E+01 0.  0.
        -12    1    1    2    0    0 -0.33662516556E+02  0.15314377414E+02 -0.25718055168E+02  0.45045682791E+02  0.00000000000E+00 0.  1.
         11    1    3    3    0    0  0.14355467408E+02 -0.18000674928E+01  0.72961479693E+01  0.16203501564E+02  0.51100000000E-03 0. -1.
        -11    1    3    3    0    0  0.70799171639E+01 -0.55385557431E+01  0.75002240184E+01  0.11707014451E+02  0.51100000000E-03 0.  1.
         12    1    3    3    0    0  0.12227131984E+02 -0.79757541785E+01  0.10921683180E+02  0.18231801194E+02  0.00000000000E+00 0. -1.
</event>
<event>
 7    1  0.1549900E-008  0.4614232E+02  0.7816164E-02  0.1320468E+00
        -11   -1    0    0    0    0  0.00000000000E+00  0.00000000000E+00  0.45593999997E+02  0.45594000000E+02  0.51100000000E-03 0.  1.
         11   -1    0    0    0    0 -0.00000000000E+00 -0.00000000000E+00 -0.45593999997E+02  0.45594000000E+02  0.51100000000E-03 0. -1.
    9900012    2    1    2    0    0  0.39340278191E+02  0.67712909829E+01 -0.20871168199E+02  0.46142317280E+02  0.99999956129E+01 0.  0.
        -12    1    1    2    0    0 -0.39340278191E+02 -0.67712909829E+01  0.20871168199E+02  0.45045682720E+02  0.00000000000E+00 0.  1.
         11    1    3    3    0    0  0.21445725704E+02  0.48176950849E+01 -0.11210162100E+02  0.24673813477E+02  0.51100000000E-03 0. -1.
        -11    1    3    3    0    0  0.46765673719E+01 -0.23915641534E+01 -0.24209550773E+01  0.57836740253E+01  0.51100000000E-03 0.  1.
         12    1    3    3    0    0  0.13217985115E+02  0.43451600514E+01 -0.72400510218E+01  0.15684829778E+02  0.00000000000E+00 0. -1.
</event>
<event>
 7    1  0.1549900E-008  0.4614232E+02  0.7816164E-02  0.1320468E+00
        -11   -1    0    0    0    0  0.00000000000E+00  0.00000000000E+00  0.45593999997E+02  0.45594000000E+02  0.51100000000E-03 0.  1.
         11   -1    0    0    0    0 -0.00000000000E+00 -0.00000000000E+00 -0.45593999997E+02  0.45594000000E+02  0.51100000000E-03 0. -1.
    9900012    2    1    2    0    0 -0.30196834987E+02  0.61772595080E+01 -0.32849749824E+02  0.46142318279E+02  0.10000004722E+02 0.  0.
        -12    1    1    2    0    0  0.30196834987E+02 -0.61772595080E+01  0.32849749824E+02  0.45045681721E+02  0.00000000000E+00 0.  1.
         11    1    3    3    0    0 -0.28105945912E+02  0.66194398049E+01 -0.26254356558E+02  0.39026304174E+02  0.51100000000E-03 0. -1.
        -11    1    3    3    0    0 -0.11035501901E+01  0.34194440825E-02 -0.53623919579E+01  0.54747678020E+01  0.51100000000E-03 0.  1.
         12    1    3    3    0    0 -0.98733888429E+00 -0.44559974101E+00 -0.12330013075E+01  0.16412463027E+01  0.00000000000E+00 0. -1.
</event>
<event>
 7    1  0.1549900E-008  0.4614232E+02  0.7816164E-02  0.1320468E+00
        -11   -1    0    0    0    0  0.00000000000E+00  0.00000000000E+00  0.45593999997E+02  0.45594000000E+02  0.51100000000E-03 0.  1.
         11   -1    0    0    0    0 -0.00000000000E+00 -0.00000000000E+00 -0.45593999997E+02  0.45594000000E+02  0.51100000000E-03 0. -1.
    9900012    2    1    2    0    0  0.34617607223E+02 -0.11908117341E+02 -0.26247504945E+02  0.46142317585E+02  0.99999983934E+01 0.  0.
        -12    1    1    2    0    0 -0.34617607223E+02  0.11908117341E+02  0.26247504945E+02  0.45045682415E+02  0.00000000000E+00 0.  1.
         11    1    3    3    0    0  0.15500924632E+02 -0.72400129614E+01 -0.10142663277E+02  0.19888943430E+02  0.51100000000E-03 0. -1.
        -11    1    3    3    0    0  0.64522452968E+01  0.15210600550E+01 -0.55024316159E+01  0.86152102127E+01  0.51100000000E-03 0.  1.
        -12    1    3    3    0    0  0.12664437293E+02 -0.61891644343E+01 -0.10602410052E+02  0.17638163943E+02  0.00000000000E+00 0.  1.
</event>
<event>
 7    1  0.1549900E-008  0.4614232E+02  0.7816164E-02  0.1320468E+00
        -11   -1    0    0    0    0  0.00000000000E+00  0.00000000000E+00  0.45593999997E+02  0.45594000000E+02  0.51100000000E-03 0.  1.
         11   -1    0    0    0    0 -0.00000000000E+00 -0.00000000000E+00 -0.45593999997E+02  0.45594000000E+02  0.51100000000E-03 0. -1.
    9900012    2    1    2    0    0  0.26421247308E+02  0.16605156252E+02 -0.32485382207E+02  0.46142316737E+02  0.99999906637E+01 0.  0.
        -12    1    1    2    0    0 -0.26421247308E+02 -0.16605156252E+02  0.32485382207E+02  0.45045683263E+02  0.00000000000E+00 0.  1.
         11    1    3    3    0    0  0.23930595481E+01  0.40627066976E+01 -0.56243955925E+01  0.73393559495E+01  0.51100000000E-03 0. -1.
        -11    1    3    3    0    0  0.81653586978E+01  0.11000296742E+01 -0.10182107418E+02  0.13098032664E+02  0.51100000000E-03 0.  1.
        -12    1    3    3    0    0  0.15862829062E+02  0.11442419880E+02 -0.16678879197E+02  0.25704928123E+02  0.00000000000E+00 0.  1.
</event>
<event>
 7    1  0.1549900E-008  0.4614232E+02  0.7816164E-02  0.1320468E+00
        -11   -1    0    0    0    0  0.00000000000E+00  0.00000000000E+00  0.45593999997E+02  0.45594000000E+02  0.51100000000E-03 0.  1.
         11   -1    0    0    0    0 -0.00000000000E+00 -0.00000000000E+00 -0.45593999997E+02  0.45594000000E+02  0.51100000000E-03 0. -1.
    9900012    2    1    2    0    0  0.45327488227E+01 -0.23091116530E+02 -0.38410512582E+02  0.46142323722E+02  0.10000054360E+02 0.  0.
        -12    1    1    2    0    0 -0.45327488227E+01  0.23091116530E+02  0.38410512582E+02  0.45045676278E+02  0.00000000000E+00 0.  1.
         11    1    3    3    0    0  0.51245620974E+01 -0.70859625328E+01 -0.18220644434E+02  0.20210489493E+02  0.51100000000E-03 0. -1.
        -11    1    3    3    0    0 -0.23897895798E+00 -0.70872148906E+01 -0.66930293774E+01  0.97510188367E+01  0.51100000000E-03 0.  1.
         12    1    3    3    0    0 -0.35283431670E+00 -0.89179391070E+01 -0.13496838771E+02  0.16180815393E+02  0.00000000000E+00 0. -1.
</event>
<event>
 7    1  0.1549900E-008  0.4614232E+02  0.7816164E-02  0.1320468E+00
        -11   -1    0    0    0    0  0.00000000000E+00  0.00000000000E+00  0.45593999997E+02  0.45594000000E+02  0.51100000000E-03 0.  1.
         11   -1    0    0    0    0 -0.00000000000E+00 -0.00000000000E+00 -0.45593999997E+02  0.45594000000E+02  0.51100000000E-03 0. -1.
    9900012    2    1    2    0    0 -0.43191621075E+02  0.12177152086E+02  0.39133414393E+01  0.46142318683E+02  0.10000008410E+02 0.  0.
        -12    1    1    2    0    0  0.43191621075E+02 -0.12177152086E+02 -0.39133414393E+01  0.45045681317E+02  0.00000000000E+00 0.  1.
         11    1    3    3    0    0 -0.51228521785E+01  0.36701031680E+01  0.14245407883E+01  0.64608504413E+01  0.51100000000E-03 0. -1.
        -11    1    3    3    0    0 -0.21595260330E+01 -0.42713800214E+00  0.15008625951E+01  0.26643176144E+01  0.51100000000E-03 0.  1.
         12    1    3    3    0    0 -0.35909242864E+02  0.89341869206E+01  0.98793805596E+00  0.37017150628E+02  0.00000000000E+00 0. -1.
</event>
<event>
 7    1  0.1549900E-008  0.4614232E+02  0.7816164E-02  0.1320468E+00
        -11   -1    0    0    0    0  0.00000000000E+00  0.00000000000E+00  0.45593999997E+02  0.45594000000E+02  0.51100000000E-03 0.  1.
         11   -1    0    0    0    0 -0.00000000000E+00 -0.00000000000E+00 -0.45593999997E+02  0.45594000000E+02  0.51100000000E-03 0. -1.
    9900012    2    1    2    0    0  0.36272869848E+02  0.14259436239E+02 -0.22584529484E+02  0.46142316734E+02  0.99999906352E+01 0.  0.
        -12    1    1    2    0    0 -0.36272869848E+02 -0.14259436239E+02  0.22584529484E+02  0.45045683266E+02  0.00000000000E+00 0.  1.
         11    1    3    3    0    0  0.91210456999E+00  0.20781306673E+01  0.29291833553E-01  0.22696740052E+01  0.51100000000E-03 0. -1.
        -11    1    3    3    0    0  0.21826159870E+02  0.63922481497E+01 -0.11917646922E+02  0.25676300347E+02  0.51100000000E-03 0.  1.
         12    1    3    3    0    0  0.13534605408E+02  0.57890574216E+01 -0.10696174396E+02  0.18196342382E+02  0.00000000000E+00 0. -1.
</event>
<event>
 7    1  0.1549900E-008  0.4614232E+02  0.7816164E-02  0.1320468E+00
        -11   -1    0    0    0    0  0.00000000000E+00  0.00000000000E+00  0.45593999997E+02  0.45594000000E+02  0.51100000000E-03 0. -1.
         11   -1    0    0    0    0 -0.00000000000E+00 -0.00000000000E+00 -0.45593999997E+02  0.45594000000E+02  0.51100000000E-03 0.  1.
    9900012    2    1    2    0    0  0.77961644675E+01 -0.38013670548E+02  0.22875624150E+02  0.46142317530E+02  0.99999978894E+01 0.  0.
        -12    1    1    2    0    0 -0.77961644675E+01  0.38013670548E+02 -0.22875624150E+02  0.45045682470E+02  0.00000000000E+00 0.  1.
         11    1    3    3    0    0 -0.16577170526E+01 -0.88485791193E+01  0.59458182369E+01  0.10788796644E+02  0.51100000000E-03 0. -1.
        -11    1    3    3    0    0  0.41644119263E+01 -0.15275643562E+02  0.61161549146E+01  0.16973360425E+02  0.51100000000E-03 0.  1.
         12    1    3    3    0    0  0.52894695938E+01 -0.13889447867E+02  0.10813650998E+02  0.18380160461E+02  0.00000000000E+00 0. -1.
</event>
<event>
 7    1  0.1549900E-008  0.4614232E+02  0.7816164E-02  0.1320468E+00
        -11   -1    0    0    0    0  0.00000000000E+00  0.00000000000E+00  0.45593999997E+02  0.45594000000E+02  0.51100000000E-03 0.  1.
         11   -1    0    0    0    0 -0.00000000000E+00 -0.00000000000E+00 -0.45593999997E+02  0.45594000000E+02  0.51100000000E-03 0. -1.
    9900012    2    1    2    0    0  0.29215958739E+02  0.28240168808E+02 -0.19443097820E+02  0.46142318385E+02  0.10000005690E+02 0.  0.
        -12    1    1    2    0    0 -0.29215958739E+02 -0.28240168808E+02  0.19443097820E+02  0.45045681615E+02  0.00000000000E+00 0.  1.
         11    1    3    3    0    0  0.16306392937E+02  0.12199810957E+02 -0.85705036512E+01  0.22094962573E+02  0.51100000000E-03 0. -1.
        -11    1    3    3    0    0  0.42284582068E+01  0.67156900086E+01 -0.73799208643E+01  0.10837139075E+02  0.51100000000E-03 0.  1.
         12    1    3    3    0    0  0.86811075951E+01  0.93246678419E+01 -0.34926733043E+01  0.13210216737E+02  0.00000000000E+00 0. -1.
</event>
<event>
 7    1  0.1549900E-008  0.4614232E+02  0.7816164E-02  0.1320468E+00
        -11   -1    0    0    0    0  0.00000000000E+00  0.00000000000E+00  0.45593999997E+02  0.45594000000E+02  0.51100000000E-03 0.  1.
         11   -1    0    0    0    0 -0.00000000000E+00 -0.00000000000E+00 -0.45593999997E+02  0.45594000000E+02  0.51100000000E-03 0. -1.
    9900012    2    1    2    0    0  0.31710037008E+02 -0.23014042239E+02 -0.22224782106E+02  0.46142317334E+02  0.99999961034E+01 0.  0.
        -12    1    1    2    0    0 -0.31710037008E+02  0.23014042239E+02  0.22224782106E+02  0.45045682666E+02  0.00000000000E+00 0.  1.
         11    1    3    3    0    0  0.71009938517E+01 -0.63132578801E+01 -0.62188369728E+01  0.11355847494E+02  0.51100000000E-03 0. -1.
        -11    1    3    3    0    0  0.91617860816E+01 -0.11024768758E+02 -0.88048376951E+01  0.16822871855E+02  0.51100000000E-03 0.  1.
        -12    1    3    3    0    0  0.15447257074E+02 -0.56760156017E+01 -0.72011074376E+01  0.17963597985E+02  0.00000000000E+00 0.  1.
</event>
<event>
 7    1  0.1549900E-008  0.4614232E+02  0.7816164E-02  0.1320468E+00
        -11   -1    0    0    0    0  0.00000000000E+00  0.00000000000E+00  0.45593999997E+02  0.45594000000E+02  0.51100000000E-03 0.  1.
         11   -1    0    0    0    0 -0.00000000000E+00 -0.00000000000E+00 -0.45593999997E+02  0.45594000000E+02  0.51100000000E-03 0. -1.
    9900012    2    1    2    0    0  0.21114691338E+02 -0.76062054072E+01 -0.39056740927E+02  0.46142316935E+02  0.99999924624E+01 0.  0.
        -12    1    1    2    0    0 -0.21114691338E+02  0.76062054072E+01  0.39056740927E+02  0.45045683065E+02  0.00000000000E+00 0.  1.
         11    1    3    3    0    0  0.11324754574E+02 -0.45495487232E+01 -0.23521809527E+02  0.26499509117E+02  0.51100000000E-03 0. -1.
        -11    1    3    3    0    0  0.20973555664E+01 -0.27697115575E+01 -0.18368918169E+01  0.39299331155E+01  0.51100000000E-03 0.  1.
        -12    1    3    3    0    0  0.76925811975E+01 -0.28694512641E+00 -0.13698039583E+02  0.15712874702E+02  0.00000000000E+00 0.  1.
</event>
<event>
 7    1  0.1549900E-008  0.4614232E+02  0.7816164E-02  0.1320468E+00
        -11   -1    0    0    0    0  0.00000000000E+00  0.00000000000E+00  0.45593999997E+02  0.45594000000E+02  0.51100000000E-03 0. -1.
         11   -1    0    0    0    0 -0.00000000000E+00 -0.00000000000E+00 -0.45593999997E+02  0.45594000000E+02  0.51100000000E-03 0.  1.
    9900012    2    1    2    0    0 -0.24302762560E+02 -0.37530674554E+02  0.54715524616E+01  0.46142315558E+02  0.99999799082E+01 0.  0.
        -12    1    1    2    0    0  0.24302762560E+02  0.37530674554E+02 -0.54715524616E+01  0.45045684442E+02  0.00000000000E+00 0.  1.
         11    1    3    3    0    0 -0.66970445836E+01 -0.61382103875E+01 -0.29394864835E+00  0.90892485380E+01  0.51100000000E-03 0. -1.
        -11    1    3    3    0    0 -0.85386128209E+01 -0.15166507545E+02 -0.57364370080E+00  0.17414359804E+02  0.51100000000E-03 0.  1.
         12    1    3    3    0    0 -0.90671051552E+01 -0.16225956622E+02  0.63391448108E+01  0.19638707216E+02  0.00000000000E+00 0. -1.
</event>
<event>
 7    1  0.1549900E-008  0.4614232E+02  0.7816164E-02  0.1320468E+00
        -11   -1    0    0    0    0  0.00000000000E+00  0.00000000000E+00  0.45593999997E+02  0.45594000000E+02  0.51100000000E-03 0.  1.
         11   -1    0    0    0    0 -0.00000000000E+00 -0.00000000000E+00 -0.45593999997E+02  0.45594000000E+02  0.51100000000E-03 0. -1.
    9900012    2    1    2    0    0  0.42803601529E+02  0.10675133008E+02  0.91108070121E+01  0.46142316821E+02  0.99999914300E+01 0.  0.
        -12    1    1    2    0    0 -0.42803601529E+02 -0.10675133008E+02 -0.91108070121E+01  0.45045683179E+02  0.00000000000E+00 0.  1.
         11    1    3    3    0    0  0.18293253088E+02  0.63105386422E+01  0.12907854265E+01  0.19394126270E+02  0.51100000000E-03 0. -1.
        -11    1    3    3    0    0  0.22269727654E+02  0.24719938690E+01  0.80440279806E+01  0.23806677842E+02  0.51100000000E-03 0.  1.
        -12    1    3    3    0    0  0.22406207879E+01  0.18926004968E+01 -0.22400639502E+00  0.29415127096E+01  0.00000000000E+00 0.  1.
</event>
<event>
 7    1  0.1549900E-008  0.4614232E+02  0.7816164E-02  0.1320468E+00
        -11   -1    0    0    0    0  0.00000000000E+00  0.00000000000E+00  0.45593999997E+02  0.45594000000E+02  0.51100000000E-03 0. -1.
         11   -1    0    0    0    0 -0.00000000000E+00 -0.00000000000E+00 -0.45593999997E+02  0.45594000000E+02  0.51100000000E-03 0.  1.
    9900012    2    1    2    0    0  0.35642806761E+02  0.97672954678E+00  0.27527258572E+02  0.46142316091E+02  0.99999847664E+01 0.  0.
        -12    1    1    2    0    0 -0.35642806761E+02 -0.97672954678E+00 -0.27527258572E+02  0.45045683909E+02  0.00000000000E+00 0.  1.
         11    1    3    3    0    0  0.24785150887E+02  0.65275414437E+00  0.15043695386E+02  0.29000733846E+02  0.51100000000E-03 0. -1.
        -11    1    3    3    0    0  0.26333953843E+01 -0.12740509482E+01  0.13873717368E+01  0.32377117948E+01  0.51100000000E-03 0.  1.
        -12    1    3    3    0    0  0.82242604890E+01  0.15980263506E+01  0.11096191449E+02  0.13903870450E+02  0.00000000000E+00 0.  1.
</event>
<event>
 7    1  0.1549900E-008  0.4614232E+02  0.7816164E-02  0.1320468E+00
        -11   -1    0    0    0    0  0.00000000000E+00  0.00000000000E+00  0.45593999997E+02  0.45594000000E+02  0.51100000000E-03 0.  1.
         11   -1    0    0    0    0 -0.00000000000E+00 -0.00000000000E+00 -0.45593999997E+02  0.45594000000E+02  0.51100000000E-03 0. -1.
    9900012    2    1    2    0    0  0.41736362241E+01  0.10842753676E+02 -0.43521589645E+02  0.46142319721E+02  0.10000017869E+02 0.  0.
        -12    1    1    2    0    0 -0.41736362241E+01 -0.10842753676E+02  0.43521589645E+02  0.45045680279E+02  0.00000000000E+00 0.  1.
         11    1    3    3    0    0 -0.57750040475E-02  0.80045488445E+01 -0.36314258437E+02  0.37185994697E+02  0.51100000000E-03 0. -1.
        -11    1    3    3    0    0  0.35038715225E+01  0.15194779209E+01 -0.48700786702E+01  0.61889898460E+01  0.51100000000E-03 0.  1.
         12    1    3    3    0    0  0.67553970561E+00  0.13187269107E+01 -0.23372525378E+01  0.27673351775E+01  0.00000000000E+00 0. -1.
</event>
<event>
 7    1  0.1549900E-008  0.4614232E+02  0.7816164E-02  0.1320468E+00
        -11   -1    0    0    0    0  0.00000000000E+00  0.00000000000E+00  0.45593999997E+02  0.45594000000E+02  0.51100000000E-03 0. -1.
         11   -1    0    0    0    0 -0.00000000000E+00 -0.00000000000E+00 -0.45593999997E+02  0.45594000000E+02  0.51100000000E-03 0.  1.
    9900012    2    1    2    0    0  0.35974935049E+02  0.20968461637E+02  0.17182579882E+02  0.46142318891E+02  0.10000010301E+02 0.  0.
        -12    1    1    2    0    0 -0.35974935049E+02 -0.20968461637E+02 -0.17182579882E+02  0.45045681109E+02  0.00000000000E+00 0.  1.
         11    1    3    3    0    0  0.34670521937E+01  0.15560163040E+01  0.41776156917E+01  0.56474871209E+01  0.51100000000E-03 0. -1.
        -11    1    3    3    0    0  0.12356544113E+02  0.58432065925E+01  0.19614034329E+01  0.13808488309E+02  0.51100000000E-03 0.  1.
         12    1    3    3    0    0  0.20151338743E+02  0.13569238740E+02  0.11043560757E+02  0.26686343461E+02  0.00000000000E+00 0. -1.
</event>
<event>
 7    1  0.1549900E-008  0.4614232E+02  0.7816164E-02  0.1320468E+00
        -11   -1    0    0    0    0  0.00000000000E+00  0.00000000000E+00  0.45593999997E+02  0.45594000000E+02  0.51100000000E-03 0.  1.
         11   -1    0    0    0    0 -0.00000000000E+00 -0.00000000000E+00 -0.45593999997E+02  0.45594000000E+02  0.51100000000E-03 0. -1.
    9900012    2    1    2    0    0 -0.26239905022E+02 -0.11528605995E+02 -0.34751576613E+02  0.46142318200E+02  0.10000004005E+02 0.  0.
        -12    1    1    2    0    0  0.26239905022E+02  0.11528605995E+02  0.34751576613E+02  0.45045681800E+02  0.00000000000E+00 0.  1.
         11    1    3    3    0    0 -0.16179797544E+02 -0.74279755079E+01 -0.20544612890E+02  0.27185323022E+02  0.51100000000E-03 0. -1.
        -11    1    3    3    0    0  0.80109368402E+00 -0.92348931523E+00 -0.16446206337E+01  0.20492342218E+01  0.51100000000E-03 0.  1.
        -12    1    3    3    0    0 -0.10861201161E+02 -0.31771411721E+01 -0.12562343088E+02  0.16907760957E+02  0.00000000000E+00 0.  1.
</event>
<event>
 7    1  0.1549900E-008  0.4614232E+02  0.7816164E-02  0.1320468E+00
        -11   -1    0    0    0    0  0.00000000000E+00  0.00000000000E+00  0.45593999997E+02  0.45594000000E+02  0.51100000000E-03 0.  1.
         11   -1    0    0    0    0 -0.00000000000E+00 -0.00000000000E+00 -0.45593999997E+02  0.45594000000E+02  0.51100000000E-03 0. -1.
    9900012    2    1    2    0    0 -0.13084939032E+02  0.38229047276E+02 -0.19910746345E+02  0.46142317575E+02  0.99999983017E+01 0.  0.
        -12    1    1    2    0    0  0.13084939032E+02 -0.38229047276E+02  0.19910746345E+02  0.45045682425E+02  0.00000000000E+00 0.  1.
         11    1    3    3    0    0 -0.72621482020E+01  0.19197596550E+02 -0.53050415681E+01  0.21199763586E+02  0.51100000000E-03 0. -1.
        -11    1    3    3    0    0 -0.40719530800E+01  0.74677885998E+01 -0.56372914981E+01  0.10204299298E+02  0.51100000000E-03 0.  1.
         12    1    3    3    0    0 -0.17508377499E+01  0.11563662126E+02 -0.89684132788E+01  0.14738254691E+02  0.00000000000E+00 0. -1.
</event>
<event>
 7    1  0.1549900E-008  0.4614232E+02  0.7816164E-02  0.1320468E+00
        -11   -1    0    0    0    0  0.00000000000E+00  0.00000000000E+00  0.45593999997E+02  0.45594000000E+02  0.51100000000E-03 0. -1.
         11   -1    0    0    0    0 -0.00000000000E+00 -0.00000000000E+00 -0.45593999997E+02  0.45594000000E+02  0.51100000000E-03 0.  1.
    9900012    2    1    2    0    0  0.28757052027E+02 -0.22114334564E+02  0.26703964850E+02  0.46142316820E+02  0.99999914164E+01 0.  0.
        -12    1    1    2    0    0 -0.28757052027E+02  0.22114334564E+02 -0.26703964850E+02  0.45045683180E+02  0.00000000000E+00 0.  1.
         11    1    3    3    0    0  0.14418720068E+02 -0.73530827260E+01  0.94915461780E+01  0.18763175720E+02  0.51100000000E-03 0. -1.
        -11    1    3    3    0    0  0.13827940358E+02 -0.12904636893E+02  0.17019245375E+02  0.25443983597E+02  0.51100000000E-03 0.  1.
        -12    1    3    3    0    0  0.51039160085E+00 -0.18566149447E+01  0.19317329668E+00  0.19351575031E+01  0.00000000000E+00 0.  1.
</event>
<event>
 7    1  0.1549900E-008  0.4614232E+02  0.7816164E-02  0.1320468E+00
        -11   -1    0    0    0    0  0.00000000000E+00  0.00000000000E+00  0.45593999997E+02  0.45594000000E+02  0.51100000000E-03 0. -1.
         11   -1    0    0    0    0 -0.00000000000E+00 -0.00000000000E+00 -0.45593999997E+02  0.45594000000E+02  0.51100000000E-03 0.  1.
    9900012    2    1    2    0    0 -0.39402134824E+01 -0.44762673144E+02 -0.31450546093E+01  0.46142316991E+02  0.99999929775E+01 0.  0.
        -12    1    1    2    0    0  0.39402134824E+01  0.44762673144E+02  0.31450546093E+01  0.45045683009E+02  0.00000000000E+00 0.  1.
         11    1    3    3    0    0  0.14894284695E+00 -0.19058833421E+01  0.12054418315E+01  0.22600145034E+01  0.51100000000E-03 0. -1.
        -11    1    3    3    0    0  0.20522914333E+01 -0.88885665115E+01 -0.30994382814E+00  0.91276820822E+01  0.51100000000E-03 0.  1.
         12    1    3    3    0    0 -0.61414477627E+01 -0.33968223290E+02 -0.40405526127E+01  0.34754620405E+02  0.00000000000E+00 0. -1.
</event>
<event>
 7    1  0.1549900E-008  0.4614231E+02  0.7816164E-02  0.1320468E+00
        -11   -1    0    0    0    0  0.00000000000E+00  0.00000000000E+00  0.45593999997E+02  0.45594000000E+02  0.51100000000E-03 0.  1.
         11   -1    0    0    0    0 -0.00000000000E+00 -0.00000000000E+00 -0.45593999997E+02  0.45594000000E+02  0.51100000000E-03 0. -1.
    9900012    2    1    2    0    0 -0.30024730394E+02 -0.19228454411E+02 -0.27529910974E+02  0.46142313275E+02  0.99999590923E+01 0.  0.
        -12    1    1    2    0    0  0.30024730394E+02  0.19228454411E+02  0.27529910974E+02  0.45045686725E+02  0.00000000000E+00 0.  1.
         11    1    3    3    0    0 -0.63937650989E+01 -0.67721959120E+01 -0.81704532662E+01  0.12389478457E+02  0.51100000000E-03 0. -1.
        -11    1    3    3    0    0 -0.56782908896E+01 -0.47237075205E+00 -0.64315378542E+01  0.85924851461E+01  0.51100000000E-03 0.  1.
         12    1    3    3    0    0 -0.17952674406E+02 -0.11983887747E+02 -0.12927919853E+02  0.25160349672E+02  0.00000000000E+00 0. -1.
</event>
<event>
 7    1  0.1549900E-008  0.4614232E+02  0.7816164E-02  0.1320468E+00
        -11   -1    0    0    0    0  0.00000000000E+00  0.00000000000E+00  0.45593999997E+02  0.45594000000E+02  0.51100000000E-03 0. -1.
         11   -1    0    0    0    0 -0.00000000000E+00 -0.00000000000E+00 -0.45593999997E+02  0.45594000000E+02  0.51100000000E-03 0.  1.
    9900012    2    1    2    0    0 -0.17186608848E+02  0.10526356381E+02  0.40285599645E+02  0.46142320506E+02  0.10000025029E+02 0.  0.
        -12    1    1    2    0    0  0.17186608848E+02 -0.10526356381E+02 -0.40285599645E+02  0.45045679494E+02  0.00000000000E+00 0.  1.
         11    1    3    3    0    0 -0.11147067756E+02  0.58775986231E+01  0.31948219342E+02  0.34343733118E+02  0.51100000000E-03 0. -1.
        -11    1    3    3    0    0 -0.31916174605E+01  0.14286351473E+01  0.16935772224E+01  0.38853087995E+01  0.51100000000E-03 0.  1.
        -12    1    3    3    0    0 -0.28479236315E+01  0.32201226108E+01  0.66438030805E+01  0.79132785880E+01  0.00000000000E+00 0.  1.
</event>
<event>
 7    1  0.1549900E-008  0.4614232E+02  0.7816164E-02  0.1320468E+00
        -11   -1    0    0    0    0  0.00000000000E+00  0.00000000000E+00  0.45593999997E+02  0.45594000000E+02  0.51100000000E-03 0.  1.
         11   -1    0    0    0    0 -0.00000000000E+00 -0.00000000000E+00 -0.45593999997E+02  0.45594000000E+02  0.51100000000E-03 0. -1.
    9900012    2    1    2    0    0 -0.36648431132E+02  0.19509978109E+02 -0.17474745609E+02  0.46142317806E+02  0.10000000408E+02 0.  0.
        -12    1    1    2    0    0  0.36648431132E+02 -0.19509978109E+02  0.17474745609E+02  0.45045682194E+02  0.00000000000E+00 0.  1.
         11    1    3    3    0    0 -0.37143968465E+01  0.41947605627E+01  0.15370018455E+00  0.56050320355E+01  0.51100000000E-03 0. -1.
        -11    1    3    3    0    0 -0.21255089929E+02  0.79902120393E+01 -0.10502114795E+02  0.25018328317E+02  0.51100000000E-03 0.  1.
         12    1    3    3    0    0 -0.11678944356E+02  0.73250055067E+01 -0.71263309985E+01  0.15518957454E+02  0.00000000000E+00 0. -1.
</event>
<event>
 7    1  0.1549900E-008  0.4614232E+02  0.7816164E-02  0.1320468E+00
        -11   -1    0    0    0    0  0.00000000000E+00  0.00000000000E+00  0.45593999997E+02  0.45594000000E+02  0.51100000000E-03 0. -1.
         11   -1    0    0    0    0 -0.00000000000E+00 -0.00000000000E+00 -0.45593999997E+02  0.45594000000E+02  0.51100000000E-03 0.  1.
    9900012    2    1    2    0    0  0.18524398135E+02 -0.37013544674E+02  0.17775197818E+02  0.46142317931E+02  0.10000001546E+02 0.  0.
        -12    1    1    2    0    0 -0.18524398135E+02  0.37013544674E+02 -0.17775197818E+02  0.45045682069E+02  0.00000000000E+00 0.  1.
         11    1    3    3    0    0 -0.28233679722E+00 -0.35522417273E+01  0.23613989584E+00  0.35712599553E+01  0.51100000000E-03 0. -1.
        -11    1    3    3    0    0  0.17213516216E+01 -0.40707797590E+01  0.40571131003E+01  0.59995388340E+01  0.51100000000E-03 0.  1.
         12    1    3    3    0    0  0.17085383310E+02 -0.29390523188E+02  0.13481944822E+02  0.36571519141E+02  0.00000000000E+00 0. -1.
</event>
<event>
 7    1  0.1549900E-008  0.4614232E+02  0.7816164E-02  0.1320468E+00
        -11   -1    0    0    0    0  0.00000000000E+00  0.00000000000E+00  0.45593999997E+02  0.45594000000E+02  0.51100000000E-03 0.  1.
         11   -1    0    0    0    0 -0.00000000000E+00 -0.00000000000E+00 -0.45593999997E+02  0.45594000000E+02  0.51100000000E-03 0. -1.
    9900012    2    1    2    0    0  0.13932887414E+00  0.39343371891E+02  0.21936114732E+02  0.46142318145E+02  0.10000003499E+02 0.  0.
        -12    1    1    2    0    0 -0.13932887414E+00 -0.39343371891E+02 -0.21936114732E+02  0.45045681855E+02  0.00000000000E+00 0.  1.
         11    1    3    3    0    0 -0.29983158136E+01  0.83003381508E+01  0.46076207697E+01  0.99556858405E+01  0.51100000000E-03 0. -1.
        -11    1    3    3    0    0 -0.15779533345E+01  0.38917632207E+01  0.26127566712E+01  0.49459332159E+01  0.51100000000E-03 0.  1.
         12    1    3    3    0    0  0.47155980222E+01  0.27151270520E+02  0.14715737291E+02  0.31240699088E+02  0.00000000000E+00 0. -1.
</event>
<event>
 7    1  0.1549900E-008  0.4614232E+02  0.7816164E-02  0.1320468E+00
        -11   -1    0    0    0    0  0.00000000000E+00  0.00000000000E+00  0.45593999997E+02  0.45594000000E+02  0.51100000000E-03 0. -1.
         11   -1    0    0    0    0 -0.00000000000E+00 -0.00000000000E+00 -0.45593999997E+02  0.45594000000E+02  0.51100000000E-03 0.  1.
    9900012    2    1    2    0    0 -0.37480052150E+02 -0.19190011405E+02  0.16003206659E+02  0.46142317962E+02  0.10000001831E+02 0.  0.
        -12    1    1    2    0    0  0.37480052150E+02  0.19190011405E+02 -0.16003206659E+02  0.45045682038E+02  0.00000000000E+00 0.  1.
         11    1    3    3    0    0 -0.17699416779E+02 -0.90267931342E+01  0.63948644496E+01  0.20872149870E+02  0.51100000000E-03 0. -1.
        -11    1    3    3    0    0 -0.19095578976E+01 -0.24562036111E+01 -0.78229366414E+00  0.32080104709E+01  0.51100000000E-03 0.  1.
        -12    1    3    3    0    0 -0.17871077474E+02 -0.77070146594E+01  0.10390635874E+02  0.22062157621E+02  0.00000000000E+00 0.  1.
</event>
<event>
 7    1  0.1549900E-008  0.4614232E+02  0.7816164E-02  0.1320468E+00
        -11   -1    0    0    0    0  0.00000000000E+00  0.00000000000E+00  0.45593999997E+02  0.45594000000E+02  0.51100000000E-03 0. -1.
         11   -1    0    0    0    0 -0.00000000000E+00 -0.00000000000E+00 -0.45593999997E+02  0.45594000000E+02  0.51100000000E-03 0.  1.
    9900012    2    1    2    0    0  0.79518830639E+01  0.37820753328E+02  0.23140259279E+02  0.46142318452E+02  0.10000006303E+02 0.  0.
        -12    1    1    2    0    0 -0.79518830639E+01 -0.37820753328E+02 -0.23140259279E+02  0.45045681548E+02  0.00000000000E+00 0.  1.
         11    1    3    3    0    0  0.76740716290E+00  0.62021439010E+01  0.32977043673E+01  0.70661415977E+01  0.51100000000E-03 0. -1.
        -11    1    3    3    0    0  0.87058310827E+01  0.18479391561E+02  0.11603415190E+02  0.23492948977E+02  0.51100000000E-03 0.  1.
        -12    1    3    3    0    0 -0.15213551817E+01  0.13139217867E+02  0.82391397224E+01  0.15583227878E+02  0.00000000000E+00 0.  1.
</event>
<event>
 7    1  0.1549900E-008  0.4614232E+02  0.7816164E-02  0.1320468E+00
        -11   -1    0    0    0    0  0.00000000000E+00  0.00000000000E+00  0.45593999997E+02  0.45594000000E+02  0.51100000000E-03 0.  1.
         11   -1    0    0    0    0 -0.00000000000E+00 -0.00000000000E+00 -0.45593999997E+02  0.45594000000E+02  0.51100000000E-03 0. -1.
    9900012    2    1    2    0    0  0.48582638336E+01  0.48594394174E+01 -0.44518497038E+02  0.46142318105E+02  0.10000003132E+02 0.  0.
        -12    1    1    2    0    0 -0.48582638336E+01 -0.48594394174E+01  0.44518497038E+02  0.45045681895E+02  0.00000000000E+00 0.  1.
         11    1    3    3    0    0  0.52271776602E+01  0.68551455298E+01 -0.41946916371E+02  0.42823593962E+02  0.51100000000E-03 0. -1.
        -11    1    3    3    0    0 -0.75557857329E-01 -0.15998609361E+01 -0.20455730634E+01  0.25980056627E+01  0.51100000000E-03 0.  1.
         12    1    3    3    0    0 -0.29335596934E+00 -0.39584517630E+00 -0.52600760320E+00  0.72071847969E+00  0.00000000000E+00 0. -1.
</event>
<event>
 7    1  0.1549900E-008  0.4614232E+02  0.7816164E-02  0.1320468E+00
        -11   -1    0    0    0    0  0.00000000000E+00  0.00000000000E+00  0.45593999997E+02  0.45594000000E+02  0.51100000000E-03 0.  1.
         11   -1    0    0    0    0 -0.00000000000E+00 -0.00000000000E+00 -0.45593999997E+02  0.45594000000E+02  0.51100000000E-03 0. -1.
    9900012    2    1    2    0    0 -0.33873928198E+01 -0.22120158570E+02 -0.39093959146E+02  0.46142317776E+02  0.10000000138E+02 0.  0.
        -12    1    1    2    0    0  0.33873928198E+01  0.22120158570E+02  0.39093959146E+02  0.45045682224E+02  0.00000000000E+00 0.  1.
         11    1    3    3    0    0  0.47202650966E+00 -0.16888865260E+02 -0.29256730692E+02  0.33784802350E+02  0.51100000000E-03 0. -1.
        -11    1    3    3    0    0 -0.12724526556E+01 -0.47677568505E+00 -0.30031204906E+00  0.13916315614E+01  0.51100000000E-03 0.  1.
         12    1    3    3    0    0 -0.25869666738E+01 -0.47545176253E+01 -0.95369164048E+01  0.10965883865E+02  0.00000000000E+00 0. -1.
</event>
<event>
 7    1  0.1549900E-008  0.4614232E+02  0.7816164E-02  0.1320468E+00
        -11   -1    0    0    0    0  0.00000000000E+00  0.00000000000E+00  0.45593999997E+02  0.45594000000E+02  0.51100000000E-03 0.  1.
         11   -1    0    0    0    0 -0.00000000000E+00 -0.00000000000E+00 -0.45593999997E+02  0.45594000000E+02  0.51100000000E-03 0. -1.
    9900012    2    1    2    0    0 -0.31298051582E+02  0.30087464316E+02 -0.12012074510E+02  0.46142317900E+02  0.10000001265E+02 0.  0.
        -12    1    1    2    0    0  0.31298051582E+02 -0.30087464316E+02  0.12012074510E+02  0.45045682100E+02  0.00000000000E+00 0.  1.
         11    1    3    3    0    0 -0.21410077335E+02  0.15504905533E+02 -0.10002744594E+02  0.28263906431E+02  0.51100000000E-03 0. -1.
        -11    1    3    3    0    0 -0.54138002106E+01  0.95390530191E+01 -0.56128161496E+00  0.10982613648E+02  0.51100000000E-03 0.  1.
         12    1    3    3    0    0 -0.44741740368E+01  0.50435057644E+01 -0.14480483008E+01  0.68957978210E+01  0.00000000000E+00 0. -1.
</event>
<event>
 7    1  0.1549900E-008  0.4614232E+02  0.7816164E-02  0.1320468E+00
        -11   -1    0    0    0    0  0.00000000000E+00  0.00000000000E+00  0.45593999997E+02  0.45594000000E+02  0.51100000000E-03 0.  1.
         11   -1    0    0    0    0 -0.00000000000E+00 -0.00000000000E+00 -0.45593999997E+02  0.45594000000E+02  0.51100000000E-03 0. -1.
    9900012    2    1    2    0    0 -0.32670161901E+02  0.14095592838E+02 -0.27624047113E+02  0.46142321017E+02  0.10000029694E+02 0.  0.
        -12    1    1    2    0    0  0.32670161901E+02 -0.14095592838E+02  0.27624047113E+02  0.45045678983E+02  0.00000000000E+00 0.  1.
         11    1    3    3    0    0 -0.17907147643E+02  0.71695944788E+01 -0.14839301653E+02  0.24336677988E+02  0.51100000000E-03 0. -1.
        -11    1    3    3    0    0 -0.38716201626E+01  0.30266824170E+01 -0.77777596481E+01  0.92002062227E+01  0.51100000000E-03 0.  1.
        -12    1    3    3    0    0 -0.10891394095E+02  0.38993159427E+01 -0.50069858123E+01  0.12605436806E+02  0.00000000000E+00 0.  1.
</event>
<event>
 7    1  0.1549900E-008  0.4614232E+02  0.7816164E-02  0.1320468E+00
        -11   -1    0    0    0    0  0.00000000000E+00  0.00000000000E+00  0.45593999997E+02  0.45594000000E+02  0.51100000000E-03 0.  1.
         11   -1    0    0    0    0 -0.00000000000E+00 -0.00000000000E+00 -0.45593999997E+02  0.45594000000E+02  0.51100000000E-03 0. -1.
    9900012    2    1    2    0    0  0.32792931567E+02 -0.19245049541E+02 -0.24152948892E+02  0.46142320598E+02  0.10000025869E+02 0.  0.
        -12    1    1    2    0    0 -0.32792931567E+02  0.19245049541E+02  0.24152948892E+02  0.45045679402E+02  0.00000000000E+00 0.  1.
         11    1    3    3    0    0  0.15976472520E+02 -0.11248265288E+02 -0.69850640757E+01  0.20749994375E+02  0.51100000000E-03 0. -1.
        -11    1    3    3    0    0  0.86121170187E+01 -0.50965666066E+01 -0.91316811125E+01  0.13547366937E+02  0.51100000000E-03 0.  1.
         12    1    3    3    0    0  0.82043420286E+01 -0.29002176468E+01 -0.80362037035E+01  0.11844959286E+02  0.00000000000E+00 0. -1.
</event>
<event>
 7    1  0.1549900E-008  0.4614232E+02  0.7816164E-02  0.1320468E+00
        -11   -1    0    0    0    0  0.00000000000E+00  0.00000000000E+00  0.45593999997E+02  0.45594000000E+02  0.51100000000E-03 0.  1.
         11   -1    0    0    0    0 -0.00000000000E+00 -0.00000000000E+00 -0.45593999997E+02  0.45594000000E+02  0.51100000000E-03 0. -1.
    9900012    2    1    2    0    0  0.15516101442E+02  0.17303742625E+02 -0.38586846330E+02  0.46142316273E+02  0.99999864262E+01 0.  0.
        -12    1    1    2    0    0 -0.15516101442E+02 -0.17303742625E+02  0.38586846330E+02  0.45045683727E+02  0.00000000000E+00 0.  1.
         11    1    3    3    0    0  0.18465686229E+01  0.54352938577E+01 -0.80557966193E+01  0.98918195713E+01  0.51100000000E-03 0. -1.
        -11    1    3    3    0    0 -0.32841346743E+00  0.25603731483E+01 -0.26907957644E+01  0.37287730114E+01  0.51100000000E-03 0.  1.
        -12    1    3    3    0    0  0.13997946287E+02  0.93080756189E+01 -0.27840253946E+02  0.32521723690E+02  0.00000000000E+00 0.  1.
</event>
<event>
 7    1  0.1549900E-008  0.4614232E+02  0.7816164E-02  0.1320468E+00
        -11   -1    0    0    0    0  0.00000000000E+00  0.00000000000E+00  0.45593999997E+02  0.45594000000E+02  0.51100000000E-03 0.  1.
         11   -1    0    0    0    0 -0.00000000000E+00 -0.00000000000E+00 -0.45593999997E+02  0.45594000000E+02  0.51100000000E-03 0. -1.
    9900012    2    1    2    0    0 -0.25606648248E+02 -0.12154382380E+02 -0.35009771389E+02  0.46142317207E+02  0.99999949489E+01 0.  0.
        -12    1    1    2    0    0  0.25606648248E+02  0.12154382380E+02  0.35009771389E+02  0.45045682793E+02  0.00000000000E+00 0.  1.
         11    1    3    3    0    0 -0.66270702284E+01 -0.30127981213E+01 -0.53123866832E+01  0.90120178021E+01  0.51100000000E-03 0. -1.
        -11    1    3    3    0    0 -0.11372194779E+01  0.72819910769E+00 -0.35049549460E+00  0.13951306155E+01  0.51100000000E-03 0.  1.
         12    1    3    3    0    0 -0.17842358542E+02 -0.98697833666E+01 -0.29346889211E+02  0.35735168790E+02  0.00000000000E+00 0. -1.
</event>
<event>
 7    1  0.1549900E-008  0.4614233E+02  0.7816164E-02  0.1320468E+00
        -11   -1    0    0    0    0  0.00000000000E+00  0.00000000000E+00  0.45593999997E+02  0.45594000000E+02  0.51100000000E-03 0.  1.
         11   -1    0    0    0    0 -0.00000000000E+00 -0.00000000000E+00 -0.45593999997E+02  0.45594000000E+02  0.51100000000E-03 0. -1.
    9900012    2    1    2    0    0 -0.14333886405E+02 -0.40066675982E+02 -0.14775452187E+02  0.46142325280E+02  0.10000068562E+02 0.  0.
        -12    1    1    2    0    0  0.14333886405E+02  0.40066675982E+02  0.14775452187E+02  0.45045674720E+02  0.00000000000E+00 0.  1.
         11    1    3    3    0    0 -0.54895791020E+01 -0.23600330462E+02 -0.10452385930E+02  0.26388699257E+02  0.51100000000E-03 0.  1.
        -11    1    3    3    0    0 -0.69860891342E+01 -0.80953549198E+01 -0.21341266038E+01  0.10903885055E+02  0.51100000000E-03 0. -1.
         12    1    3    3    0    0 -0.18582181686E+01 -0.83709906000E+01 -0.21889396533E+01  0.88497409676E+01  0.00000000000E+00 0. -1.
</event>
<event>
 7    1  0.1549900E-008  0.4614232E+02  0.7816164E-02  0.1320468E+00
        -11   -1    0    0    0    0  0.00000000000E+00  0.00000000000E+00  0.45593999997E+02  0.45594000000E+02  0.51100000000E-03 0.  1.
         11   -1    0    0    0    0 -0.00000000000E+00 -0.00000000000E+00 -0.45593999997E+02  0.45594000000E+02  0.51100000000E-03 0. -1.
    9900012    2    1    2    0    0  0.11736246658E+01 -0.20018037047E+02 -0.40336265067E+02  0.46142317836E+02  0.10000000682E+02 0.  0.
        -12    1    1    2    0    0 -0.11736246658E+01  0.20018037047E+02  0.40336265067E+02  0.45045682164E+02  0.00000000000E+00 0.  1.
         11    1    3    3    0    0  0.60868980167E+00 -0.98264110870E+01 -0.21261126170E+02  0.23429988144E+02  0.51100000000E-03 0. -1.
        -11    1    3    3    0    0 -0.59627316325E-01 -0.10907709084E+00  0.59071352628E+00  0.60365218450E+00  0.51100000000E-03 0.  1.
        -12    1    3    3    0    0  0.62456218049E+00 -0.10082548869E+02 -0.19665852423E+02  0.22108677508E+02  0.00000000000E+00 0.  1.
</event>
<event>
 7    1  0.1549900E-008  0.4614232E+02  0.7816164E-02  0.1320468E+00
        -11   -1    0    0    0    0  0.00000000000E+00  0.00000000000E+00  0.45593999997E+02  0.45594000000E+02  0.51100000000E-03 0.  1.
         11   -1    0    0    0    0 -0.00000000000E+00 -0.00000000000E+00 -0.45593999997E+02  0.45594000000E+02  0.51100000000E-03 0. -1.
    9900012    2    1    2    0    0  0.22710407764E+02 -0.55328644017E+01 -0.38506343207E+02  0.46142315674E+02  0.99999809636E+01 0.  0.
        -12    1    1    2    0    0 -0.22710407764E+02  0.55328644017E+01  0.38506343207E+02  0.45045684326E+02  0.00000000000E+00 0.  1.
         11    1    3    3    0    0  0.15870946163E+02 -0.48830575966E+01 -0.25175759849E+02  0.30158747783E+02  0.51100000000E-03 0. -1.
        -11    1    3    3    0    0  0.34875345650E+01  0.24048893959E+01 -0.72674938426E+01  0.84120661767E+01  0.51100000000E-03 0.  1.
        -12    1    3    3    0    0  0.33519270360E+01 -0.30546962011E+01 -0.60630895155E+01  0.75715017142E+01  0.00000000000E+00 0.  1.
</event>
<event>
 7    1  0.1549900E-008  0.4614232E+02  0.7816164E-02  0.1320468E+00
        -11   -1    0    0    0    0  0.00000000000E+00  0.00000000000E+00  0.45593999997E+02  0.45594000000E+02  0.51100000000E-03 0. -1.
         11   -1    0    0    0    0 -0.00000000000E+00 -0.00000000000E+00 -0.45593999997E+02  0.45594000000E+02  0.51100000000E-03 0.  1.
    9900012    2    1    2    0    0  0.29714073692E+02 -0.32871106618E+02 -0.81041617558E+01  0.46142320258E+02  0.10000022765E+02 0.  0.
        -12    1    1    2    0    0 -0.29714073692E+02  0.32871106618E+02  0.81041617558E+01  0.45045679742E+02  0.00000000000E+00 0.  1.
         11    1    3    3    0    0  0.25439031568E+02 -0.28627292952E+02 -0.41187132224E+01  0.38517918269E+02  0.51100000000E-03 0. -1.
        -11    1    3    3    0    0  0.42675119444E+01 -0.30897138297E+01 -0.27859280092E+01  0.59598141648E+01  0.51100000000E-03 0.  1.
         12    1    3    3    0    0  0.75301797561E-02 -0.11540998366E+01 -0.11995205242E+01  0.16645878242E+01  0.00000000000E+00 0. -1.
</event>
<event>
 7    1  0.1549900E-008  0.4614232E+02  0.7816164E-02  0.1320468E+00
        -11   -1    0    0    0    0  0.00000000000E+00  0.00000000000E+00  0.45593999997E+02  0.45594000000E+02  0.51100000000E-03 0.  1.
         11   -1    0    0    0    0 -0.00000000000E+00 -0.00000000000E+00 -0.45593999997E+02  0.45594000000E+02  0.51100000000E-03 0. -1.
    9900012    2    1    2    0    0 -0.27370371304E+02  0.34103484075E+02  0.10813355486E+02  0.46142317540E+02  0.99999979863E+01 0.  0.
        -12    1    1    2    0    0  0.27370371304E+02 -0.34103484075E+02 -0.10813355486E+02  0.45045682460E+02  0.00000000000E+00 0.  1.
         11    1    3    3    0    0 -0.25790898439E+02  0.27771371315E+02  0.75124279291E+01  0.38637495786E+02  0.51100000000E-03 0. -1.
        -11    1    3    3    0    0 -0.56417130222E+00  0.22099089310E+01  0.28789193133E+00  0.22988842439E+01  0.51100000000E-03 0.  1.
         12    1    3    3    0    0 -0.10153015627E+01  0.41222038299E+01  0.30130356257E+01  0.52059375101E+01  0.00000000000E+00 0. -1.
</event>
<event>
 7    1  0.1549900E-008  0.4614232E+02  0.7816164E-02  0.1320468E+00
        -11   -1    0    0    0    0  0.00000000000E+00  0.00000000000E+00  0.45593999997E+02  0.45594000000E+02  0.51100000000E-03 0.  1.
         11   -1    0    0    0    0 -0.00000000000E+00 -0.00000000000E+00 -0.45593999997E+02  0.45594000000E+02  0.51100000000E-03 0. -1.
    9900012    2    1    2    0    0  0.35358995911E+02  0.15076073296E+02 -0.23485462441E+02  0.46142317366E+02  0.99999964006E+01 0.  0.
        -12    1    1    2    0    0 -0.35358995911E+02 -0.15076073296E+02  0.23485462441E+02  0.45045682634E+02  0.00000000000E+00 0.  1.
         11    1    3    3    0    0  0.22013643001E+02  0.12421027050E+02 -0.18414626825E+02  0.31272685726E+02  0.51100000000E-03 0. -1.
        -11    1    3    3    0    0  0.12031639802E+02  0.13575871231E+01 -0.46885219773E+01  0.12984053208E+02  0.51100000000E-03 0.  1.
         12    1    3    3    0    0  0.13137131086E+01  0.12974591225E+01 -0.38231363818E+00  0.18855784322E+01  0.00000000000E+00 0. -1.
</event>
<event>
 7    1  0.1549900E-008  0.4614232E+02  0.7816164E-02  0.1320468E+00
        -11   -1    0    0    0    0  0.00000000000E+00  0.00000000000E+00  0.45593999997E+02  0.45594000000E+02  0.51100000000E-03 0.  1.
         11   -1    0    0    0    0 -0.00000000000E+00 -0.00000000000E+00 -0.45593999997E+02  0.45594000000E+02  0.51100000000E-03 0. -1.
    9900012    2    1    2    0    0 -0.41954703788E+00 -0.18318827477E+00 -0.45043355599E+02  0.46142318062E+02  0.10000002741E+02 0.  0.
        -12    1    1    2    0    0  0.41954703788E+00  0.18318827477E+00  0.45043355599E+02  0.45045681938E+02  0.00000000000E+00 0.  1.
         11    1    3    3    0    0  0.15111121942E+01 -0.10249759839E+01 -0.13145125154E+02  0.13271335705E+02  0.51100000000E-03 0. -1.
        -11    1    3    3    0    0 -0.38042571145E+01  0.31413970367E+01 -0.18334364398E+02  0.18986565400E+02  0.51100000000E-03 0.  1.
        -12    1    3    3    0    0  0.18735978824E+01 -0.22996093275E+01 -0.13563866047E+02  0.13884416957E+02  0.00000000000E+00 0.  1.
</event>
<event>
 7    1  0.1549900E-008  0.4614233E+02  0.7816164E-02  0.1320468E+00
        -11   -1    0    0    0    0  0.00000000000E+00  0.00000000000E+00  0.45593999997E+02  0.45594000000E+02  0.51100000000E-03 0.  1.
         11   -1    0    0    0    0 -0.00000000000E+00 -0.00000000000E+00 -0.45593999997E+02  0.45594000000E+02  0.51100000000E-03 0. -1.
    9900012    2    1    2    0    0 -0.21534541114E+02  0.28187127402E+01 -0.39464300691E+02  0.46142327272E+02  0.10000086727E+02 0.  0.
        -12    1    1    2    0    0  0.21534541114E+02 -0.28187127402E+01  0.39464300691E+02  0.45045672728E+02  0.00000000000E+00 0.  1.
         11    1    3    3    0    0 -0.42027043826E+01  0.13085563467E+00 -0.44275398800E+01  0.61059771515E+01  0.51100000000E-03 0. -1.
        -11    1    3    3    0    0 -0.17133389164E+02  0.10572439563E+01 -0.28274655965E+02  0.33077589985E+02  0.51100000000E-03 0.  1.
        -12    1    3    3    0    0 -0.19844756817E+00  0.16306131492E+01 -0.67621048460E+01  0.69587601358E+01  0.00000000000E+00 0.  1.
</event>
<event>
 7    1  0.1549900E-008  0.4614232E+02  0.7816164E-02  0.1320468E+00
        -11   -1    0    0    0    0  0.00000000000E+00  0.00000000000E+00  0.45593999997E+02  0.45594000000E+02  0.51100000000E-03 0.  1.
         11   -1    0    0    0    0 -0.00000000000E+00 -0.00000000000E+00 -0.45593999997E+02  0.45594000000E+02  0.51100000000E-03 0. -1.
    9900012    2    1    2    0    0  0.34688179959E+02 -0.26068625692E+02 -0.12094234084E+02  0.46142316828E+02  0.99999914945E+01 0.  0.
        -12    1    1    2    0    0 -0.34688179959E+02  0.26068625692E+02  0.12094234084E+02  0.45045683172E+02  0.00000000000E+00 0.  1.
         11    1    3    3    0    0  0.20796150658E+02 -0.18439571578E+02 -0.39517229155E+01  0.28073364537E+02  0.51100000000E-03 0. -1.
        -11    1    3    3    0    0  0.73283988179E+01 -0.37076651705E+01 -0.58617355510E+01  0.10090200899E+02  0.51100000000E-03 0.  1.
        -12    1    3    3    0    0  0.65636304828E+01 -0.39213889430E+01 -0.22807756175E+01  0.79787513920E+01  0.00000000000E+00 0.  1.
</event>
<event>
 7    1  0.1549900E-008  0.4614232E+02  0.7816164E-02  0.1320468E+00
        -11   -1    0    0    0    0  0.00000000000E+00  0.00000000000E+00  0.45593999997E+02  0.45594000000E+02  0.51100000000E-03 0.  1.
         11   -1    0    0    0    0 -0.00000000000E+00 -0.00000000000E+00 -0.45593999997E+02  0.45594000000E+02  0.51100000000E-03 0. -1.
    9900012    2    1    2    0    0  0.13176322663E+02 -0.26064435052E+02 -0.34294943453E+02  0.46142318743E+02  0.10000008953E+02 0.  0.
        -12    1    1    2    0    0 -0.13176322663E+02  0.26064435052E+02  0.34294943453E+02  0.45045681257E+02  0.00000000000E+00 0.  1.
         11    1    3    3    0    0  0.38056006839E+01 -0.10308654271E+02 -0.19658982006E+02  0.22521690061E+02  0.51100000000E-03 0. -1.
        -11    1    3    3    0    0  0.56243167376E+01 -0.78783455756E+01 -0.91235596127E+01  0.13301902422E+02  0.51100000000E-03 0.  1.
         12    1    3    3    0    0  0.37464052415E+01 -0.78774352054E+01 -0.55124018343E+01  0.10318726260E+02  0.00000000000E+00 0. -1.
</event>
<event>
 7    1  0.1549900E-008  0.4614232E+02  0.7816164E-02  0.1320468E+00
        -11   -1    0    0    0    0  0.00000000000E+00  0.00000000000E+00  0.45593999997E+02  0.45594000000E+02  0.51100000000E-03 0.  1.
         11   -1    0    0    0    0 -0.00000000000E+00 -0.00000000000E+00 -0.45593999997E+02  0.45594000000E+02  0.51100000000E-03 0. -1.
    9900012    2    1    2    0    0 -0.33124441471E+02  0.26290800111E+02  0.15513822328E+02  0.46142317893E+02  0.10000001207E+02 0.  0.
        -12    1    1    2    0    0  0.33124441471E+02 -0.26290800111E+02 -0.15513822328E+02  0.45045682107E+02  0.00000000000E+00 0.  1.
         11    1    3    3    0    0 -0.23742347396E+00 -0.13559392931E+00  0.78037345967E+00  0.82688488759E+00  0.51100000000E-03 0. -1.
        -11    1    3    3    0    0  0.12222493761E+00  0.79458093484E+00 -0.36029973763E+00  0.88097330235E+00  0.51100000000E-03 0.  1.
         12    1    3    3    0    0 -0.33009242934E+02  0.25631813105E+02  0.15093748606E+02  0.44434459704E+02  0.00000000000E+00 0. -1.
</event>
<event>
 7    1  0.1549900E-008  0.4614232E+02  0.7816164E-02  0.1320468E+00
        -11   -1    0    0    0    0  0.00000000000E+00  0.00000000000E+00  0.45593999997E+02  0.45594000000E+02  0.51100000000E-03 0. -1.
         11   -1    0    0    0    0 -0.00000000000E+00 -0.00000000000E+00 -0.45593999997E+02  0.45594000000E+02  0.51100000000E-03 0.  1.
    9900012    2    1    2    0    0  0.31027956068E+02  0.27740630629E+02  0.17228954088E+02  0.46142317583E+02  0.99999983784E+01 0.  0.
        -12    1    1    2    0    0 -0.31027956068E+02 -0.27740630629E+02 -0.17228954088E+02  0.45045682417E+02  0.00000000000E+00 0.  1.
         11    1    3    3    0    0  0.17703638901E+02  0.17007481836E+02  0.14797379905E+02  0.28664188826E+02  0.51100000000E-03 0. -1.
        -11    1    3    3    0    0  0.91678590978E+01  0.82707946551E+01  0.77756980860E+00  0.12371754109E+02  0.51100000000E-03 0.  1.
         12    1    3    3    0    0  0.41564580691E+01  0.24623541381E+01  0.16540043738E+01  0.51063746484E+01  0.00000000000E+00 0. -1.
</event>
<event>
 7    1  0.1549900E-008  0.4614232E+02  0.7816164E-02  0.1320468E+00
        -11   -1    0    0    0    0  0.00000000000E+00  0.00000000000E+00  0.45593999997E+02  0.45594000000E+02  0.51100000000E-03 0. -1.
         11   -1    0    0    0    0 -0.00000000000E+00 -0.00000000000E+00 -0.45593999997E+02  0.45594000000E+02  0.51100000000E-03 0.  1.
    9900012    2    1    2    0    0 -0.33527637483E+02  0.23698594062E+02  0.18530720146E+02  0.46142318466E+02  0.10000006427E+02 0.  0.
        -12    1    1    2    0    0  0.33527637483E+02 -0.23698594062E+02 -0.18530720146E+02  0.45045681534E+02  0.00000000000E+00 0.  1.
         11    1    3    3    0    0 -0.14314164376E+02  0.57088831559E+01  0.38349177731E+01  0.15880593290E+02  0.51100000000E-03 0. -1.
        -11    1    3    3    0    0 -0.36773216794E+01  0.48904357538E+01  0.38141658341E+01  0.72101954112E+01  0.51100000000E-03 0.  1.
         12    1    3    3    0    0 -0.15536151428E+02  0.13099275153E+02  0.10881636538E+02  0.23051529765E+02  0.00000000000E+00 0. -1.
</event>
<event>
 7    1  0.1549900E-008  0.4614232E+02  0.7816164E-02  0.1320468E+00
        -11   -1    0    0    0    0  0.00000000000E+00  0.00000000000E+00  0.45593999997E+02  0.45594000000E+02  0.51100000000E-03 0. -1.
         11   -1    0    0    0    0 -0.00000000000E+00 -0.00000000000E+00 -0.45593999997E+02  0.45594000000E+02  0.51100000000E-03 0.  1.
    9900012    2    1    2    0    0  0.12533009819E+02 -0.19145981687E+02  0.38800368291E+02  0.46142317305E+02  0.99999958446E+01 0.  0.
        -12    1    1    2    0    0 -0.12533009819E+02  0.19145981687E+02 -0.38800368291E+02  0.45045682695E+02  0.00000000000E+00 0.  1.
         11    1    3    3    0    0  0.10722286293E+02 -0.14402743380E+02  0.30215593451E+02  0.35148094231E+02  0.51100000000E-03 0. -1.
        -11    1    3    3    0    0 -0.42086547581E+00 -0.32964069524E+00 -0.44709915236E+00  0.69691366025E+00  0.51100000000E-03 0.  1.
         12    1    3    3    0    0  0.22315890025E+01 -0.44135976121E+01  0.90318739928E+01  0.10297309415E+02  0.00000000000E+00 0. -1.
</event>
<event>
 7    1  0.1549900E-008  0.4614231E+02  0.7816164E-02  0.1320468E+00
        -11   -1    0    0    0    0  0.00000000000E+00  0.00000000000E+00  0.45593999997E+02  0.45594000000E+02  0.51100000000E-03 0. -1.
         11   -1    0    0    0    0 -0.00000000000E+00 -0.00000000000E+00 -0.45593999997E+02  0.45594000000E+02  0.51100000000E-03 0.  1.
    9900012    2    1    2    0    0 -0.29852696177E+02  0.22475064924E+02  0.25155552414E+02  0.46142313973E+02  0.99999654614E+01 0.  0.
        -12    1    1    2    0    0  0.29852696177E+02 -0.22475064924E+02 -0.25155552414E+02  0.45045686027E+02  0.00000000000E+00 0.  1.
         11    1    3    3    0    0 -0.60957882694E+01  0.49547805127E+01  0.42602493317E+01  0.89363420471E+01  0.51100000000E-03 0. -1.
        -11    1    3    3    0    0 -0.79964655078E+01  0.63510148042E+01  0.12507054086E+02  0.16146369617E+02  0.51100000000E-03 0.  1.
        -12    1    3    3    0    0 -0.15760442400E+02  0.11169269607E+02  0.83882489967E+01  0.21059602309E+02  0.00000000000E+00 0.  1.
</event>
<event>
 7    1  0.1549900E-008  0.4614232E+02  0.7816164E-02  0.1320468E+00
        -11   -1    0    0    0    0  0.00000000000E+00  0.00000000000E+00  0.45593999997E+02  0.45594000000E+02  0.51100000000E-03 0.  1.
         11   -1    0    0    0    0 -0.00000000000E+00 -0.00000000000E+00 -0.45593999997E+02  0.45594000000E+02  0.51100000000E-03 0. -1.
    9900012    2    1    2    0    0 -0.39225508903E+02 -0.57457698611E+01 -0.21388295294E+02  0.46142316571E+02  0.99999891477E+01 0.  0.
        -12    1    1    2    0    0  0.39225508903E+02  0.57457698611E+01  0.21388295294E+02  0.45045683429E+02  0.00000000000E+00 0.  1.
         11    1    3    3    0    0 -0.15081465356E+02 -0.35781838911E+01 -0.97693554250E+01  0.18321962311E+02  0.51100000000E-03 0. -1.
        -11    1    3    3    0    0 -0.22172050640E+02 -0.37185562307E+00 -0.11850830898E+02  0.25143195887E+02  0.51100000000E-03 0.  1.
        -12    1    3    3    0    0 -0.19719929072E+01 -0.17957303470E+01  0.23189102887E+00  0.26771583731E+01  0.00000000000E+00 0.  1.
</event>
<event>
 7    1  0.1549900E-008  0.4614232E+02  0.7816164E-02  0.1320468E+00
        -11   -1    0    0    0    0  0.00000000000E+00  0.00000000000E+00  0.45593999997E+02  0.45594000000E+02  0.51100000000E-03 0. -1.
         11   -1    0    0    0    0 -0.00000000000E+00 -0.00000000000E+00 -0.45593999997E+02  0.45594000000E+02  0.51100000000E-03 0.  1.
    9900012    2    1    2    0    0  0.14965568288E+02 -0.20526062812E+02  0.37199811283E+02  0.46142318206E+02  0.10000004060E+02 0.  0.
        -12    1    1    2    0    0 -0.14965568288E+02  0.20526062812E+02 -0.37199811283E+02  0.45045681794E+02  0.00000000000E+00 0.  1.
         11    1    3    3    0    0  0.29862846055E+01 -0.41994379118E+01  0.39083433673E+01  0.64674819411E+01  0.51100000000E-03 0. -1.
        -11    1    3    3    0    0  0.56925195520E+01 -0.23519771040E+01  0.78930735328E+01  0.10011852236E+02  0.51100000000E-03 0.  1.
        -12    1    3    3    0    0  0.62867641308E+01 -0.13974647796E+02  0.25398394383E+02  0.29662984029E+02  0.00000000000E+00 0.  1.
</event>
<event>
 7    1  0.1549900E-008  0.4614232E+02  0.7816164E-02  0.1320468E+00
        -11   -1    0    0    0    0  0.00000000000E+00  0.00000000000E+00  0.45593999997E+02  0.45594000000E+02  0.51100000000E-03 0.  1.
         11   -1    0    0    0    0 -0.00000000000E+00 -0.00000000000E+00 -0.45593999997E+02  0.45594000000E+02  0.51100000000E-03 0. -1.
    9900012    2    1    2    0    0  0.65651933599E+01  0.39861444420E+02 -0.19926790853E+02  0.46142317534E+02  0.99999979320E+01 0.  0.
        -12    1    1    2    0    0 -0.65651933599E+01 -0.39861444420E+02  0.19926790853E+02  0.45045682466E+02  0.00000000000E+00 0.  1.
         11    1    3    3    0    0  0.17973882935E+01  0.57711893385E+01 -0.35263971313E+01  0.69980503032E+01  0.51100000000E-03 0. -1.
        -11    1    3    3    0    0  0.17463660618E+01  0.11266075540E+02 -0.99852317224E+00  0.11444269364E+02  0.51100000000E-03 0.  1.
        -12    1    3    3    0    0  0.30214390046E+01  0.22824179542E+02 -0.15401870549E+02  0.27699997867E+02  0.00000000000E+00 0.  1.
</event>
<event>
 7    1  0.1549900E-008  0.4614232E+02  0.7816164E-02  0.1320468E+00
        -11   -1    0    0    0    0  0.00000000000E+00  0.00000000000E+00  0.45593999997E+02  0.45594000000E+02  0.51100000000E-03 0.  1.
         11   -1    0    0    0    0 -0.00000000000E+00 -0.00000000000E+00 -0.45593999997E+02  0.45594000000E+02  0.51100000000E-03 0. -1.
    9900012    2    1    2    0    0 -0.27617271855E+02  0.17057696903E+02 -0.31231950490E+02  0.46142318078E+02  0.10000002893E+02 0.  0.
        -12    1    1    2    0    0  0.27617271855E+02 -0.17057696903E+02  0.31231950490E+02  0.45045681922E+02  0.00000000000E+00 0.  1.
         11    1    3    3    0    0 -0.25502373317E+02  0.16941220360E+02 -0.30376450075E+02  0.43128931259E+02  0.51100000000E-03 0. -1.
        -11    1    3    3    0    0 -0.18159467740E+01 -0.61909175444E+00 -0.10598066255E+00  0.19215018731E+01  0.51100000000E-03 0.  1.
         12    1    3    3    0    0 -0.29895176455E+00  0.73556829694E+00 -0.74951975284E+00  0.10918849467E+01  0.00000000000E+00 0. -1.
</event>
<event>
 7    1  0.1549900E-008  0.4614232E+02  0.7816164E-02  0.1320468E+00
        -11   -1    0    0    0    0  0.00000000000E+00  0.00000000000E+00  0.45593999997E+02  0.45594000000E+02  0.51100000000E-03 0.  1.
         11   -1    0    0    0    0 -0.00000000000E+00 -0.00000000000E+00 -0.45593999997E+02  0.45594000000E+02  0.51100000000E-03 0. -1.
    9900012    2    1    2    0    0  0.41462812024E+01 -0.27088942414E+02 -0.35750680895E+02  0.46142316152E+02  0.99999853235E+01 0.  0.
        -12    1    1    2    0    0 -0.41462812024E+01  0.27088942414E+02  0.35750680895E+02  0.45045683848E+02  0.00000000000E+00 0.  1.
         11    1    3    3    0    0  0.78232942083E+00 -0.10573204294E+02 -0.17675366220E+02  0.20611241098E+02  0.51100000000E-03 0. -1.
        -11    1    3    3    0    0  0.20709737866E+01 -0.26077820273E+01 -0.68314751553E+01  0.75999021431E+01  0.51100000000E-03 0.  1.
         12    1    3    3    0    0  0.12929779950E+01 -0.13907956093E+02 -0.11243839520E+02  0.17931172910E+02  0.00000000000E+00 0. -1.
</event>
<event>
 7    1  0.1549900E-008  0.4614232E+02  0.7816164E-02  0.1320468E+00
        -11   -1    0    0    0    0  0.00000000000E+00  0.00000000000E+00  0.45593999997E+02  0.45594000000E+02  0.51100000000E-03 0. -1.
         11   -1    0    0    0    0 -0.00000000000E+00 -0.00000000000E+00 -0.45593999997E+02  0.45594000000E+02  0.51100000000E-03 0.  1.
    9900012    2    1    2    0    0 -0.51582017265E+01  0.43700500030E+02 -0.96318637313E+01  0.46142317112E+02  0.99999940820E+01 0.  0.
        -12    1    1    2    0    0  0.51582017265E+01 -0.43700500030E+02  0.96318637313E+01  0.45045682888E+02  0.00000000000E+00 0.  1.
         11    1    3    3    0    0 -0.53308605473E+01  0.41850323326E+02 -0.75284983864E+01  0.42854940496E+02  0.51100000000E-03 0. -1.
        -11    1    3    3    0    0  0.43231039284E+00  0.14946384729E+01 -0.23225734650E+01  0.27955650953E+01  0.51100000000E-03 0.  1.
         12    1    3    3    0    0 -0.25965157202E+00  0.35553823044E+00  0.21920812014E+00  0.49181152090E+00  0.00000000000E+00 0. -1.
</event>
<event>
 7    1  0.1549900E-008  0.4614232E+02  0.7816164E-02  0.1320468E+00
        -11   -1    0    0    0    0  0.00000000000E+00  0.00000000000E+00  0.45593999997E+02  0.45594000000E+02  0.51100000000E-03 0.  1.
         11   -1    0    0    0    0 -0.00000000000E+00 -0.00000000000E+00 -0.45593999997E+02  0.45594000000E+02  0.51100000000E-03 0. -1.
    9900012    2    1    2    0    0 -0.33285088346E+02  0.15860288059E+02 -0.25877939672E+02  0.46142316465E+02  0.99999881789E+01 0.  0.
        -12    1    1    2    0    0  0.33285088346E+02 -0.15860288059E+02  0.25877939672E+02  0.45045683535E+02  0.00000000000E+00 0.  1.
         11    1    3    3    0    0 -0.21658704721E+02  0.93869499797E+01 -0.15965230589E+02  0.28497419324E+02  0.51100000000E-03 0. -1.
        -11    1    3    3    0    0 -0.11182102853E+01  0.30111942325E+01 -0.79710048708E+00  0.33095399070E+01  0.51100000000E-03 0.  1.
         12    1    3    3    0    0 -0.10508173340E+02  0.34621438466E+01 -0.91156085955E+01  0.14335357234E+02  0.00000000000E+00 0. -1.
</event>
<event>
 7    1  0.1549900E-008  0.4614232E+02  0.7816164E-02  0.1320468E+00
        -11   -1    0    0    0    0  0.00000000000E+00  0.00000000000E+00  0.45593999997E+02  0.45594000000E+02  0.51100000000E-03 0.  1.
         11   -1    0    0    0    0 -0.00000000000E+00 -0.00000000000E+00 -0.45593999997E+02  0.45594000000E+02  0.51100000000E-03 0. -1.
    9900012    2    1    2    0    0 -0.14556654172E+01  0.35013705555E+02 -0.28302559985E+02  0.46142318295E+02  0.10000004871E+02 0.  0.
        -12    1    1    2    0    0  0.14556654172E+01 -0.35013705555E+02  0.28302559985E+02  0.45045681705E+02  0.00000000000E+00 0.  1.
         11    1    3    3    0    0  0.11769846067E+01  0.11194627135E+02 -0.12003060348E+02  0.16455346469E+02  0.51100000000E-03 0. -1.
        -11    1    3    3    0    0 -0.11196972575E+01  0.10439220328E+02 -0.33891275244E+01  0.11032553134E+02  0.51100000000E-03 0.  1.
        -12    1    3    3    0    0 -0.15129527665E+01  0.13379858092E+02 -0.12910372113E+02  0.18654418692E+02  0.00000000000E+00 0.  1.
</event>
<event>
 7    1  0.1549900E-008  0.4614232E+02  0.7816164E-02  0.1320468E+00
        -11   -1    0    0    0    0  0.00000000000E+00  0.00000000000E+00  0.45593999997E+02  0.45594000000E+02  0.51100000000E-03 0. -1.
         11   -1    0    0    0    0 -0.00000000000E+00 -0.00000000000E+00 -0.45593999997E+02  0.45594000000E+02  0.51100000000E-03 0.  1.
    9900012    2    1    2    0    0 -0.15575660208E+02  0.16860634922E+02  0.38758627321E+02  0.46142318824E+02  0.10000009688E+02 0.  0.
        -12    1    1    2    0    0  0.15575660208E+02 -0.16860634922E+02 -0.38758627321E+02  0.45045681176E+02  0.00000000000E+00 0.  1.
         11    1    3    3    0    0 -0.46027446330E+01  0.93540618949E+01  0.23294518265E+02  0.25520938728E+02  0.51100000000E-03 0. -1.
        -11    1    3    3    0    0 -0.90065166535E+01  0.73981493849E+01  0.13578418565E+02  0.17894787161E+02  0.51100000000E-03 0.  1.
         12    1    3    3    0    0 -0.19663989216E+01  0.10842364174E+00  0.18856904904E+01  0.27265929345E+01  0.00000000000E+00 0. -1.
</event>
<event>
 7    1  0.1549900E-008  0.4614232E+02  0.7816164E-02  0.1320468E+00
        -11   -1    0    0    0    0  0.00000000000E+00  0.00000000000E+00  0.45593999997E+02  0.45594000000E+02  0.51100000000E-03 0. -1.
         11   -1    0    0    0    0 -0.00000000000E+00 -0.00000000000E+00 -0.45593999997E+02  0.45594000000E+02  0.51100000000E-03 0.  1.
    9900012    2    1    2    0    0  0.16424365512E+02 -0.38701925930E+02  0.16171415480E+02  0.46142317279E+02  0.99999956050E+01 0.  0.
        -12    1    1    2    0    0 -0.16424365512E+02  0.38701925930E+02 -0.16171415480E+02  0.45045682721E+02  0.00000000000E+00 0.  1.
         11    1    3    3    0    0  0.16839622097E+02 -0.35611382898E+02  0.13924649648E+02  0.41780848870E+02  0.51100000000E-03 0. -1.
        -11    1    3    3    0    0 -0.30532819129E+00 -0.23108631316E+01  0.26056883476E+01  0.34961301096E+01  0.51100000000E-03 0.  1.
         12    1    3    3    0    0 -0.10992839316E+00 -0.77967990078E+00 -0.35892251620E+00  0.86533829912E+00  0.00000000000E+00 0. -1.
</event>
<event>
 7    1  0.1549900E-008  0.4614232E+02  0.7816164E-02  0.1320468E+00
        -11   -1    0    0    0    0  0.00000000000E+00  0.00000000000E+00  0.45593999997E+02  0.45594000000E+02  0.51100000000E-03 0. -1.
         11   -1    0    0    0    0 -0.00000000000E+00 -0.00000000000E+00 -0.45593999997E+02  0.45594000000E+02  0.51100000000E-03 0.  1.
    9900012    2    1    2    0    0  0.36901226406E+02 -0.24052502842E+02  0.94281547541E+01  0.46142317573E+02  0.99999982857E+01 0.  0.
        -12    1    1    2    0    0 -0.36901226406E+02  0.24052502842E+02 -0.94281547541E+01  0.45045682427E+02  0.00000000000E+00 0.  1.
         11    1    3    3    0    0  0.16977364258E+02 -0.11239865727E+02  0.28589166042E+01  0.20560614853E+02  0.51100000000E-03 0. -1.
        -11    1    3    3    0    0  0.81568273796E+00  0.30302066246E+00  0.16848184442E+01  0.18962524362E+01  0.51100000000E-03 0.  1.
        -12    1    3    3    0    0  0.19108179410E+02 -0.13115657777E+02  0.48844197058E+01  0.23685450284E+02  0.00000000000E+00 0.  1.
</event>
<event>
 7    1  0.1549900E-008  0.4614231E+02  0.7816164E-02  0.1320468E+00
        -11   -1    0    0    0    0  0.00000000000E+00  0.00000000000E+00  0.45593999997E+02  0.45594000000E+02  0.51100000000E-03 0. -1.
         11   -1    0    0    0    0 -0.00000000000E+00 -0.00000000000E+00 -0.45593999997E+02  0.45594000000E+02  0.51100000000E-03 0.  1.
    9900012    2    1    2    0    0  0.32161054844E+02  0.31431780492E+02  0.26121995204E+01  0.46142313637E+02  0.99999623911E+01 0.  0.
        -12    1    1    2    0    0 -0.32161054844E+02 -0.31431780492E+02 -0.26121995204E+01  0.45045686363E+02  0.00000000000E+00 0.  1.
         11    1    3    3    0    0  0.15920497830E+02  0.17783051261E+02 -0.29578483755E+00  0.23870204278E+02  0.51100000000E-03 0. -1.
        -11    1    3    3    0    0  0.98727498143E+01  0.62500186157E+01 -0.10643883770E+01  0.11733151515E+02  0.51100000000E-03 0.  1.
         12    1    3    3    0    0  0.63678071998E+01  0.73987106150E+01  0.39723727350E+01  0.10538957844E+02  0.00000000000E+00 0. -1.
</event>
<event>
 7    1  0.1549900E-008  0.4614231E+02  0.7816164E-02  0.1320468E+00
        -11   -1    0    0    0    0  0.00000000000E+00  0.00000000000E+00  0.45593999997E+02  0.45594000000E+02  0.51100000000E-03 0.  1.
         11   -1    0    0    0    0 -0.00000000000E+00 -0.00000000000E+00 -0.45593999997E+02  0.45594000000E+02  0.51100000000E-03 0. -1.
    9900012    2    1    2    0    0  0.29804691488E+02  0.81878401670E+01 -0.32768176853E+02  0.46142314574E+02  0.99999709339E+01 0.  0.
        -12    1    1    2    0    0 -0.29804691488E+02 -0.81878401670E+01  0.32768176853E+02  0.45045685426E+02  0.00000000000E+00 0.  1.
         11    1    3    3    0    0  0.10409153794E+02 -0.16430737254E+01 -0.12042493679E+02  0.16002244475E+02  0.51100000000E-03 0. -1.
        -11    1    3    3    0    0  0.12434661724E+02  0.52137867677E+01 -0.11831000999E+02  0.17938142868E+02  0.51100000000E-03 0.  1.
         12    1    3    3    0    0  0.69608759706E+01  0.46171271247E+01 -0.88946821753E+01  0.12201927231E+02  0.00000000000E+00 0. -1.
</event>
<event>
 7    1  0.1549900E-008  0.4614232E+02  0.7816164E-02  0.1320468E+00
        -11   -1    0    0    0    0  0.00000000000E+00  0.00000000000E+00  0.45593999997E+02  0.45594000000E+02  0.51100000000E-03 0.  1.
         11   -1    0    0    0    0 -0.00000000000E+00 -0.00000000000E+00 -0.45593999997E+02  0.45594000000E+02  0.51100000000E-03 0. -1.
    9900012    2    1    2    0    0  0.15582876986E+02  0.28439470742E+02 -0.31264739025E+02  0.46142318104E+02  0.10000003123E+02 0.  0.
        -12    1    1    2    0    0 -0.15582876986E+02 -0.28439470742E+02  0.31264739025E+02  0.45045681896E+02  0.00000000000E+00 0.  1.
         11    1    3    3    0    0  0.10953640747E+02  0.13845705163E+02 -0.13070154014E+02  0.21966217774E+02  0.51100000000E-03 0.  1.
        -11    1    3    3    0    0  0.40059050853E+00  0.11310698483E+01 -0.39381694971E+01  0.41169128005E+01  0.51100000000E-03 0. -1.
        -12    1    3    3    0    0  0.42286457301E+01  0.13462695731E+02 -0.14256415514E+02  0.20059187529E+02  0.00000000000E+00 0.  1.
</event>
<event>
 7    1  0.1549900E-008  0.4614232E+02  0.7816164E-02  0.1320468E+00
        -11   -1    0    0    0    0  0.00000000000E+00  0.00000000000E+00  0.45593999997E+02  0.45594000000E+02  0.51100000000E-03 0.  1.
         11   -1    0    0    0    0 -0.00000000000E+00 -0.00000000000E+00 -0.45593999997E+02  0.45594000000E+02  0.51100000000E-03 0. -1.
    9900012    2    1    2    0    0 -0.17340329004E+02 -0.73149295548E+01 -0.40925765543E+02  0.46142317747E+02  0.99999998673E+01 0.  0.
        -12    1    1    2    0    0  0.17340329004E+02  0.73149295548E+01  0.40925765543E+02  0.45045682253E+02  0.00000000000E+00 0.  1.
         11    1    3    3    0    0 -0.49848204883E+01  0.12210228892E+01 -0.95515265899E+01  0.10843015847E+02  0.51100000000E-03 0. -1.
        -11    1    3    3    0    0  0.40500837518E+00 -0.15125060016E+01 -0.39045124250E+01  0.42067711760E+01  0.51100000000E-03 0.  1.
         12    1    3    3    0    0 -0.12760516891E+02 -0.70234464424E+01 -0.27469726528E+02  0.31092530724E+02  0.00000000000E+00 0. -1.
</event>
<event>
 7    1  0.1549900E-008  0.4614232E+02  0.7816164E-02  0.1320468E+00
        -11   -1    0    0    0    0  0.00000000000E+00  0.00000000000E+00  0.45593999997E+02  0.45594000000E+02  0.51100000000E-03 0.  1.
         11   -1    0    0    0    0 -0.00000000000E+00 -0.00000000000E+00 -0.45593999997E+02  0.45594000000E+02  0.51100000000E-03 0. -1.
    9900012    2    1    2    0    0 -0.54339795916E+01  0.44548409408E+02 -0.38761315303E+01  0.46142319734E+02  0.10000017995E+02 0.  0.
        -12    1    1    2    0    0  0.54339795916E+01 -0.44548409408E+02  0.38761315303E+01  0.45045680266E+02  0.00000000000E+00 0.  1.
         11    1    3    3    0    0 -0.19675287204E+01  0.81660614662E+01 -0.34372823342E+01  0.90758271932E+01  0.51100000000E-03 0.  1.
        -11    1    3    3    0    0 -0.19425888703E+01  0.30937943130E+02 -0.23769733105E+01  0.31089869395E+02  0.51100000000E-03 0. -1.
         12    1    3    3    0    0 -0.15238620009E+01  0.54444048116E+01  0.19381241143E+01  0.59766231463E+01  0.00000000000E+00 0. -1.
</event>
<event>
 7    1  0.1563585E-008  0.4614231E+02  0.7816164E-02  0.1320468E+00
        -11   -1    0    0    0    0  0.00000000000E+00  0.00000000000E+00  0.45593999997E+02  0.45594000000E+02  0.51100000000E-03 0. -1.
         11   -1    0    0    0    0 -0.00000000000E+00 -0.00000000000E+00 -0.45593999997E+02  0.45594000000E+02  0.51100000000E-03 0.  1.
    9900012    2    1    2    0    0  0.19334802575E+02  0.21326448925E+02  0.34647684422E+02  0.46142311525E+02  0.99999431328E+01 0.  0.
        -12    1    1    2    0    0 -0.19334802575E+02 -0.21326448925E+02 -0.34647684422E+02  0.45045688475E+02  0.00000000000E+00 0.  1.
         11    1    3    3    0    0  0.54867478216E+01  0.12317678443E+02  0.13138126065E+02  0.18826575913E+02  0.51100000000E-03 0. -1.
        -11    1    3    3    0    0  0.72595414885E-01 -0.23319556186E+00  0.39264170055E+00  0.46240461770E+00  0.51100000000E-03 0.  1.
         12    1    3    3    0    0  0.13775459339E+02  0.92419660440E+01  0.21116916657E+02  0.26853330994E+02  0.00000000000E+00 0. -1.
</event>
<event>
 7    1  0.1549900E-008  0.4614232E+02  0.7816164E-02  0.1320468E+00
        -11   -1    0    0    0    0  0.00000000000E+00  0.00000000000E+00  0.45593999997E+02  0.45594000000E+02  0.51100000000E-03 0.  1.
         11   -1    0    0    0    0 -0.00000000000E+00 -0.00000000000E+00 -0.45593999997E+02  0.45594000000E+02  0.51100000000E-03 0. -1.
    9900012    2    1    2    0    0  0.20592871888E+02  0.31631767928E+02 -0.24586144857E+02  0.46142316147E+02  0.99999852797E+01 0.  0.
        -12    1    1    2    0    0 -0.20592871888E+02 -0.31631767928E+02  0.24586144857E+02  0.45045683853E+02  0.00000000000E+00 0.  1.
         11    1    3    3    0    0  0.16193485738E+02  0.28868977432E+02 -0.18628833459E+02  0.37982631223E+02  0.51100000000E-03 0. -1.
        -11    1    3    3    0    0  0.40606095832E+01  0.16098460479E+01 -0.45105815337E+01  0.62789728872E+01  0.51100000000E-03 0.  1.
         12    1    3    3    0    0  0.33877656628E+00  0.11529444486E+01 -0.14467298649E+01  0.18807120368E+01  0.00000000000E+00 0. -1.
</event>
<event>
 7    1  0.1549900E-008  0.4614232E+02  0.7816164E-02  0.1320468E+00
        -11   -1    0    0    0    0  0.00000000000E+00  0.00000000000E+00  0.45593999997E+02  0.45594000000E+02  0.51100000000E-03 0.  1.
         11   -1    0    0    0    0 -0.00000000000E+00 -0.00000000000E+00 -0.45593999997E+02  0.45594000000E+02  0.51100000000E-03 0. -1.
    9900012    2    1    2    0    0  0.73598593163E+01 -0.18698984704E+02 -0.40314934043E+02  0.46142318021E+02  0.10000002368E+02 0.  0.
        -12    1    1    2    0    0 -0.73598593163E+01  0.18698984704E+02  0.40314934043E+02  0.45045681979E+02  0.00000000000E+00 0.  1.
         11    1    3    3    0    0  0.30956822571E+01 -0.22545422219E+01 -0.84512489542E+01  0.92784599161E+01  0.51100000000E-03 0.  1.
        -11    1    3    3    0    0  0.58301006698E+01 -0.13284666962E+02 -0.21675071876E+02  0.26082200658E+02  0.51100000000E-03 0. -1.
         12    1    3    3    0    0 -0.15659236106E+01 -0.31597755202E+01 -0.10188613213E+02  0.10781657446E+02  0.00000000000E+00 0. -1.
</event>
<event>
 7    1  0.1549900E-008  0.4614232E+02  0.7816164E-02  0.1320468E+00
        -11   -1    0    0    0    0  0.00000000000E+00  0.00000000000E+00  0.45593999997E+02  0.45594000000E+02  0.51100000000E-03 0.  1.
         11   -1    0    0    0    0 -0.00000000000E+00 -0.00000000000E+00 -0.45593999997E+02  0.45594000000E+02  0.51100000000E-03 0. -1.
    9900012    2    1    2    0    0 -0.86808911984E+01  0.19583899073E+02 -0.39626084416E+02  0.46142317176E+02  0.99999946626E+01 0.  0.
        -12    1    1    2    0    0  0.86808911984E+01 -0.19583899073E+02  0.39626084416E+02  0.45045682824E+02  0.00000000000E+00 0.  1.
         11    1    3    3    0    0 -0.46319541680E+01  0.14192499633E+02 -0.29750128338E+02  0.33285915665E+02  0.51100000000E-03 0. -1.
        -11    1    3    3    0    0 -0.25830421896E+01  0.32673099950E+01 -0.21022767965E+01  0.46655106416E+01  0.51100000000E-03 0.  1.
        -12    1    3    3    0    0 -0.14658948409E+01  0.21240894451E+01 -0.77736792820E+01  0.81908908694E+01  0.00000000000E+00 0.  1.
</event>
<event>
 7    1  0.1549900E-008  0.4614232E+02  0.7816164E-02  0.1320468E+00
        -11   -1    0    0    0    0  0.00000000000E+00  0.00000000000E+00  0.45593999997E+02  0.45594000000E+02  0.51100000000E-03 0.  1.
         11   -1    0    0    0    0 -0.00000000000E+00 -0.00000000000E+00 -0.45593999997E+02  0.45594000000E+02  0.51100000000E-03 0. -1.
    9900012    2    1    2    0    0  0.17435080687E+02 -0.41225021809E+02  0.50625099474E+01  0.46142317979E+02  0.10000001989E+02 0.  0.
        -12    1    1    2    0    0 -0.17435080687E+02  0.41225021809E+02 -0.50625099474E+01  0.45045682021E+02  0.00000000000E+00 0.  1.
         11    1    3    3    0    0  0.64970395182E+01 -0.99886452113E+01  0.13831171953E+01  0.11995731286E+02  0.51100000000E-03 0.  1.
        -11    1    3    3    0    0  0.10420232736E+02 -0.25533596897E+02  0.55334840546E+01  0.28127660173E+02  0.51100000000E-03 0. -1.
        -12    1    3    3    0    0  0.51780843284E+00 -0.57027797010E+01 -0.18540913026E+01  0.60189265197E+01  0.00000000000E+00 0.  1.
</event>
<event>
 7    1  0.1549900E-008  0.4614232E+02  0.7816164E-02  0.1320468E+00
        -11   -1    0    0    0    0  0.00000000000E+00  0.00000000000E+00  0.45593999997E+02  0.45594000000E+02  0.51100000000E-03 0. -1.
         11   -1    0    0    0    0 -0.00000000000E+00 -0.00000000000E+00 -0.45593999997E+02  0.45594000000E+02  0.51100000000E-03 0.  1.
    9900012    2    1    2    0    0  0.30296695817E+02 -0.22874188207E+02  0.24248612446E+02  0.46142317975E+02  0.10000001949E+02 0.  0.
        -12    1    1    2    0    0 -0.30296695817E+02  0.22874188207E+02 -0.24248612446E+02  0.45045682025E+02  0.00000000000E+00 0.  1.
         11    1    3    3    0    0  0.10691791106E+02 -0.29113052979E+01  0.69998782662E+01  0.13106807071E+02  0.51100000000E-03 0. -1.
        -11    1    3    3    0    0  0.18188701522E+02 -0.18629762167E+02  0.14946060258E+02  0.30021352717E+02  0.51100000000E-03 0.  1.
        -12    1    3    3    0    0  0.14162031887E+01 -0.13331207427E+01  0.23026739218E+01  0.30141581870E+01  0.00000000000E+00 0.  1.
</event>
<event>
 7    1  0.1549900E-008  0.4614232E+02  0.7816164E-02  0.1320468E+00
        -11   -1    0    0    0    0  0.00000000000E+00  0.00000000000E+00  0.45593999997E+02  0.45594000000E+02  0.51100000000E-03 0. -1.
         11   -1    0    0    0    0 -0.00000000000E+00 -0.00000000000E+00 -0.45593999997E+02  0.45594000000E+02  0.51100000000E-03 0.  1.
    9900012    2    1    2    0    0  0.40921540417E+02  0.17327055934E+02 -0.73698114759E+01  0.46142318091E+02  0.10000003011E+02 0.  0.
        -12    1    1    2    0    0 -0.40921540417E+02 -0.17327055934E+02  0.73698114759E+01  0.45045681909E+02  0.00000000000E+00 0.  1.
         11    1    3    3    0    0  0.17064514452E+02  0.60244506884E+01 -0.45036445272E+01  0.18648712391E+02  0.51100000000E-03 0. -1.
        -11    1    3    3    0    0  0.13124983689E+02  0.55408516525E+01  0.19810206141E+01  0.14383694825E+02  0.51100000000E-03 0.  1.
         12    1    3    3    0    0  0.10732042276E+02  0.57617535933E+01 -0.48471875629E+01  0.13109910875E+02  0.00000000000E+00 0. -1.
</event>
<event>
 7    1  0.1549900E-008  0.4614232E+02  0.7816164E-02  0.1320468E+00
        -11   -1    0    0    0    0  0.00000000000E+00  0.00000000000E+00  0.45593999997E+02  0.45594000000E+02  0.51100000000E-03 0.  1.
         11   -1    0    0    0    0 -0.00000000000E+00 -0.00000000000E+00 -0.45593999997E+02  0.45594000000E+02  0.51100000000E-03 0. -1.
    9900012    2    1    2    0    0 -0.67092002800E+00  0.32096634418E+02 -0.31598567626E+02  0.46142317069E+02  0.99999936920E+01 0.  0.
        -12    1    1    2    0    0  0.67092002800E+00 -0.32096634418E+02  0.31598567626E+02  0.45045682931E+02  0.00000000000E+00 0.  1.
         11    1    3    3    0    0  0.51813012383E-01  0.20377782556E+01 -0.43199849460E+01  0.47767661657E+01  0.51100000000E-03 0. -1.
        -11    1    3    3    0    0  0.29066530133E+01  0.22416979723E+02 -0.20670310521E+02  0.30630562335E+02  0.51100000000E-03 0.  1.
        -12    1    3    3    0    0 -0.36293860537E+01  0.76418764395E+01 -0.66082721586E+01  0.10734988568E+02  0.00000000000E+00 0.  1.
</event>
<event>
 7    1  0.1549900E-008  0.4614232E+02  0.7816164E-02  0.1320468E+00
        -11   -1    0    0    0    0  0.00000000000E+00  0.00000000000E+00  0.45593999997E+02  0.45594000000E+02  0.51100000000E-03 0.  1.
         11   -1    0    0    0    0 -0.00000000000E+00 -0.00000000000E+00 -0.45593999997E+02  0.45594000000E+02  0.51100000000E-03 0. -1.
    9900012    2    1    2    0    0 -0.28259712650E+02 -0.25815022174E+02 -0.23750512533E+02  0.46142316805E+02  0.99999912821E+01 0.  0.
        -12    1    1    2    0    0  0.28259712650E+02  0.25815022174E+02  0.23750512533E+02  0.45045683195E+02  0.00000000000E+00 0.  1.
         11    1    3    3    0    0 -0.14903867431E+02 -0.16957509185E+02 -0.13187951731E+02  0.26145830515E+02  0.51100000000E-03 0. -1.
        -11    1    3    3    0    0 -0.85694475437E+01 -0.25566777903E+01 -0.68022498840E+01  0.11235774841E+02  0.51100000000E-03 0.  1.
        -12    1    3    3    0    0 -0.47863976750E+01 -0.63008351984E+01 -0.37603109176E+01  0.87607114493E+01  0.00000000000E+00 0.  1.
</event>
<event>
 7    1  0.1549900E-008  0.4614232E+02  0.7816164E-02  0.1320468E+00
        -11   -1    0    0    0    0  0.00000000000E+00  0.00000000000E+00  0.45593999997E+02  0.45594000000E+02  0.51100000000E-03 0.  1.
         11   -1    0    0    0    0 -0.00000000000E+00 -0.00000000000E+00 -0.45593999997E+02  0.45594000000E+02  0.51100000000E-03 0. -1.
    9900012    2    1    2    0    0  0.14119544046E+01  0.29071782455E+02 -0.34379518541E+02  0.46142318237E+02  0.10000004343E+02 0.  0.
        -12    1    1    2    0    0 -0.14119544046E+01 -0.29071782455E+02  0.34379518541E+02  0.45045681763E+02  0.00000000000E+00 0.  1.
         11    1    3    3    0    0  0.84235868523E+00  0.60810418758E+01 -0.59297258436E+01  0.85352379751E+01  0.51100000000E-03 0. -1.
        -11    1    3    3    0    0 -0.67233923630E+00  0.36900341614E+01 -0.10766002711E+02  0.11400666945E+02  0.51100000000E-03 0.  1.
        -12    1    3    3    0    0  0.12419349556E+01  0.19300706418E+02 -0.17683789986E+02  0.26206413317E+02  0.00000000000E+00 0.  1.
</event>
<event>
 7    1  0.1549900E-008  0.4614232E+02  0.7816164E-02  0.1320468E+00
        -11   -1    0    0    0    0  0.00000000000E+00  0.00000000000E+00  0.45593999997E+02  0.45594000000E+02  0.51100000000E-03 0.  1.
         11   -1    0    0    0    0 -0.00000000000E+00 -0.00000000000E+00 -0.45593999997E+02  0.45594000000E+02  0.51100000000E-03 0. -1.
    9900012    2    1    2    0    0  0.91841902906E+01 -0.12457686962E+02 -0.42303312535E+02  0.46142316887E+02  0.99999920269E+01 0.  0.
        -12    1    1    2    0    0 -0.91841902906E+01  0.12457686962E+02  0.42303312535E+02  0.45045683113E+02  0.00000000000E+00 0.  1.
         11    1    3    3    0    0  0.43259954718E+01 -0.42536502555E+01 -0.91826715649E+01  0.11005872735E+02  0.51100000000E-03 0. -1.
        -11    1    3    3    0    0 -0.82098342902E+00 -0.48750469276E+01 -0.11061017072E+02  0.12115535286E+02  0.51100000000E-03 0.  1.
        -12    1    3    3    0    0  0.56791782477E+01 -0.33289897784E+01 -0.22059623897E+02  0.23020908866E+02  0.00000000000E+00 0.  1.
</event>
<event>
 7    1  0.1549900E-008  0.4614232E+02  0.7816164E-02  0.1320468E+00
        -11   -1    0    0    0    0  0.00000000000E+00  0.00000000000E+00  0.45593999997E+02  0.45594000000E+02  0.51100000000E-03 0.  1.
         11   -1    0    0    0    0 -0.00000000000E+00 -0.00000000000E+00 -0.45593999997E+02  0.45594000000E+02  0.51100000000E-03 0. -1.
    9900012    2    1    2    0    0  0.44506236736E+02  0.12571367951E+01 -0.68357824793E+01  0.46142318482E+02  0.10000006577E+02 0.  0.
        -12    1    1    2    0    0 -0.44506236736E+02 -0.12571367951E+01  0.68357824793E+01  0.45045681518E+02  0.00000000000E+00 0.  1.
         11    1    3    3    0    0  0.31355156517E+02 -0.67545220373E+00 -0.42672478339E+01  0.31651405660E+02  0.51100000000E-03 0. -1.
        -11    1    3    3    0    0 -0.25107075558E+00  0.65193210538E+00 -0.52415572933E+00  0.87337934716E+00  0.51100000000E-03 0.  1.
        -12    1    3    3    0    0  0.13402150974E+02  0.12806568935E+01 -0.20443789161E+01  0.13617533475E+02  0.00000000000E+00 0.  1.
</event>
<event>
 7    1  0.1549900E-008  0.4614232E+02  0.7816164E-02  0.1320468E+00
        -11   -1    0    0    0    0  0.00000000000E+00  0.00000000000E+00  0.45593999997E+02  0.45594000000E+02  0.51100000000E-03 0.  1.
         11   -1    0    0    0    0 -0.00000000000E+00 -0.00000000000E+00 -0.45593999997E+02  0.45594000000E+02  0.51100000000E-03 0. -1.
    9900012    2    1    2    0    0  0.11434693602E+02 -0.31844574880E+02 -0.29736918052E+02  0.46142318051E+02  0.10000002639E+02 0.  0.
        -12    1    1    2    0    0 -0.11434693602E+02  0.31844574880E+02  0.29736918052E+02  0.45045681949E+02  0.00000000000E+00 0.  1.
         11    1    3    3    0    0  0.45096203654E+01 -0.16506801405E+02 -0.12185678476E+02  0.21007187548E+02  0.51100000000E-03 0. -1.
        -11    1    3    3    0    0  0.38275259853E+01 -0.10303336787E+02 -0.69705918441E+01  0.13015293121E+02  0.51100000000E-03 0.  1.
        -12    1    3    3    0    0  0.30975472516E+01 -0.50344366875E+01 -0.10580647731E+02  0.12119837381E+02  0.00000000000E+00 0.  1.
</event>
<event>
 7    1  0.1549900E-008  0.4614232E+02  0.7816164E-02  0.1320468E+00
        -11   -1    0    0    0    0  0.00000000000E+00  0.00000000000E+00  0.45593999997E+02  0.45594000000E+02  0.51100000000E-03 0.  1.
         11   -1    0    0    0    0 -0.00000000000E+00 -0.00000000000E+00 -0.45593999997E+02  0.45594000000E+02  0.51100000000E-03 0. -1.
    9900012    2    1    2    0    0 -0.39070287486E+02  0.13435699616E+02 -0.17947369997E+02  0.46142317874E+02  0.10000001027E+02 0.  0.
        -12    1    1    2    0    0  0.39070287486E+02 -0.13435699616E+02  0.17947369997E+02  0.45045682126E+02  0.00000000000E+00 0.  1.
         11    1    3    3    0    0 -0.11625261204E+02  0.66732694194E+01 -0.65686319134E+01  0.14927362402E+02  0.51100000000E-03 0. -1.
        -11    1    3    3    0    0 -0.88539903564E+00  0.35233246050E+00 -0.21910923785E+01  0.23893421035E+01  0.51100000000E-03 0.  1.
         12    1    3    3    0    0 -0.26559627246E+02  0.64100977359E+01 -0.91876457049E+01  0.28825613368E+02  0.00000000000E+00 0. -1.
</event>
<event>
 7    1  0.2120808E-008  0.4614232E+02  0.7816164E-02  0.1320468E+00
        -11   -1    0    0    0    0  0.00000000000E+00  0.00000000000E+00  0.45593999997E+02  0.45594000000E+02  0.51100000000E-03 0.  1.
         11   -1    0    0    0    0 -0.00000000000E+00 -0.00000000000E+00 -0.45593999997E+02  0.45594000000E+02  0.51100000000E-03 0. -1.
    9900012    2    1    2    0    0  0.40739298665E+02 -0.18597759218E+02  0.48524753269E+01  0.46142316295E+02  0.99999866338E+01 0.  0.
        -12    1    1    2    0    0 -0.40739298665E+02  0.18597759218E+02 -0.48524753269E+01  0.45045683705E+02  0.00000000000E+00 0.  1.
         11    1    3    3    0    0  0.39653245306E+02 -0.16558658237E+02  0.40751517276E+01  0.43164521169E+02  0.51100000000E-03 0. -1.
        -11    1    3    3    0    0  0.11787457927E+01 -0.21190435498E+01  0.25141096134E+00  0.24378258639E+01  0.51100000000E-03 0.  1.
         12    1    3    3    0    0 -0.92692433998E-01  0.79942568404E-01  0.52591263793E+00  0.53996926236E+00  0.00000000000E+00 0. -1.
</event>
<event>
 7    1  0.1549900E-008  0.4614232E+02  0.7816164E-02  0.1320468E+00
        -11   -1    0    0    0    0  0.00000000000E+00  0.00000000000E+00  0.45593999997E+02  0.45594000000E+02  0.51100000000E-03 0.  1.
         11   -1    0    0    0    0 -0.00000000000E+00 -0.00000000000E+00 -0.45593999997E+02  0.45594000000E+02  0.51100000000E-03 0. -1.
    9900012    2    1    2    0    0 -0.14356750117E+02  0.17007454788E+02 -0.39163041844E+02  0.46142316092E+02  0.99999847801E+01 0.  0.
        -12    1    1    2    0    0  0.14356750117E+02 -0.17007454788E+02  0.39163041844E+02  0.45045683908E+02  0.00000000000E+00 0.  1.
         11    1    3    3    0    0 -0.10852960920E+02  0.59214559999E+01 -0.23766016523E+02  0.26789437163E+02  0.51100000000E-03 0. -1.
        -11    1    3    3    0    0 -0.26124205861E+01  0.73557310595E+01 -0.11371234911E+02  0.13792625000E+02  0.51100000000E-03 0.  1.
         12    1    3    3    0    0 -0.89136861133E+00  0.37302677286E+01 -0.40257904098E+01  0.55602539288E+01  0.00000000000E+00 0. -1.
</event>
<event>
 7    1  0.1886144E-008  0.4614232E+02  0.7816164E-02  0.1320468E+00
        -11   -1    0    0    0    0  0.00000000000E+00  0.00000000000E+00  0.45593999997E+02  0.45594000000E+02  0.51100000000E-03 0.  1.
         11   -1    0    0    0    0 -0.00000000000E+00 -0.00000000000E+00 -0.45593999997E+02  0.45594000000E+02  0.51100000000E-03 0. -1.
    9900012    2    1    2    0    0  0.81548548998E+00 -0.28335280176E+02 -0.35008004689E+02  0.46142317504E+02  0.99999976553E+01 0.  0.
        -12    1    1    2    0    0 -0.81548548998E+00  0.28335280176E+02  0.35008004689E+02  0.45045682496E+02  0.00000000000E+00 0.  1.
         11    1    3    3    0    0  0.90886586836E-01 -0.28172647240E+02 -0.35259179172E+02  0.45132206117E+02  0.51100000000E-03 0. -1.
        -11    1    3    3    0    0  0.31194912249E+00  0.17557381569E+00 -0.99636435171E-01  0.37157246953E+00  0.51100000000E-03 0.  1.
         12    1    3    3    0    0  0.41264978066E+00 -0.33820675192E+00  0.35081091819E+00  0.63853891725E+00  0.00000000000E+00 0. -1.
</event>
<event>
 7    1  0.1549900E-008  0.4614232E+02  0.7816164E-02  0.1320468E+00
        -11   -1    0    0    0    0  0.00000000000E+00  0.00000000000E+00  0.45593999997E+02  0.45594000000E+02  0.51100000000E-03 0. -1.
         11   -1    0    0    0    0 -0.00000000000E+00 -0.00000000000E+00 -0.45593999997E+02  0.45594000000E+02  0.51100000000E-03 0.  1.
    9900012    2    1    2    0    0  0.68961147218E+01  0.25856732591E+02  0.36235157633E+02  0.46142315776E+02  0.99999818990E+01 0.  0.
        -12    1    1    2    0    0 -0.68961147218E+01 -0.25856732591E+02 -0.36235157633E+02  0.45045684224E+02  0.00000000000E+00 0.  1.
         11    1    3    3    0    0  0.66684271132E+01  0.18851305065E+02  0.23755339086E+02  0.31050857608E+02  0.51100000000E-03 0. -1.
        -11    1    3    3    0    0 -0.41025310502E+00  0.52405694029E+01  0.12077981066E+02  0.13172300564E+02  0.51100000000E-03 0.  1.
         12    1    3    3    0    0  0.63794071369E+00  0.17648581229E+01  0.40183748122E+00  0.19191576041E+01  0.00000000000E+00 0. -1.
</event>
<event>
 7    1  0.1549900E-008  0.4614232E+02  0.7816164E-02  0.1320468E+00
        -11   -1    0    0    0    0  0.00000000000E+00  0.00000000000E+00  0.45593999997E+02  0.45594000000E+02  0.51100000000E-03 0.  1.
         11   -1    0    0    0    0 -0.00000000000E+00 -0.00000000000E+00 -0.45593999997E+02  0.45594000000E+02  0.51100000000E-03 0. -1.
    9900012    2    1    2    0    0  0.44800185050E+02 -0.39594505658E+01 -0.25257907963E+01  0.46142318205E+02  0.10000004045E+02 0.  0.
        -12    1    1    2    0    0 -0.44800185050E+02  0.39594505658E+01  0.25257907963E+01  0.45045681795E+02  0.00000000000E+00 0.  1.
         11    1    3    3    0    0  0.24591155583E+02  0.66725273894E+00 -0.45910283334E+01  0.25024941569E+02  0.51100000000E-03 0. -1.
        -11    1    3    3    0    0  0.16653349095E+02 -0.36565229868E+01  0.30072723891E+01  0.17313228581E+02  0.51100000000E-03 0.  1.
         12    1    3    3    0    0  0.35556803719E+01 -0.97018031795E+00 -0.94203485202E+00  0.38041480543E+01  0.00000000000E+00 0. -1.
</event>
<event>
 7    1  0.1549900E-008  0.4614232E+02  0.7816164E-02  0.1320468E+00
        -11   -1    0    0    0    0  0.00000000000E+00  0.00000000000E+00  0.45593999997E+02  0.45594000000E+02  0.51100000000E-03 0.  1.
         11   -1    0    0    0    0 -0.00000000000E+00 -0.00000000000E+00 -0.45593999997E+02  0.45594000000E+02  0.51100000000E-03 0. -1.
    9900012    2    1    2    0    0  0.30169086414E+02 -0.12408981828E+02 -0.31063757860E+02  0.46142315884E+02  0.99999828844E+01 0.  0.
        -12    1    1    2    0    0 -0.30169086414E+02  0.12408981828E+02  0.31063757860E+02  0.45045684116E+02  0.00000000000E+00 0.  1.
         11    1    3    3    0    0  0.15199706260E+02 -0.88418983415E+01 -0.18985581808E+02  0.25877839043E+02  0.51100000000E-03 0. -1.
        -11    1    3    3    0    0  0.36285340837E+01 -0.31920953017E+01 -0.46200626565E+01  0.66858590490E+01  0.51100000000E-03 0.  1.
        -12    1    3    3    0    0  0.11340846070E+02 -0.37498818430E+00 -0.74581133962E+01  0.13578617793E+02  0.00000000000E+00 0.  1.
</event>
<event>
 7    1  0.1549900E-008  0.4614232E+02  0.7816164E-02  0.1320468E+00
        -11   -1    0    0    0    0  0.00000000000E+00  0.00000000000E+00  0.45593999997E+02  0.45594000000E+02  0.51100000000E-03 0.  1.
         11   -1    0    0    0    0 -0.00000000000E+00 -0.00000000000E+00 -0.45593999997E+02  0.45594000000E+02  0.51100000000E-03 0. -1.
    9900012    2    1    2    0    0  0.12188942663E+02  0.17794114377E+02 -0.39546337070E+02  0.46142316462E+02  0.99999881530E+01 0.  0.
        -12    1    1    2    0    0 -0.12188942663E+02 -0.17794114377E+02  0.39546337070E+02  0.45045683538E+02  0.00000000000E+00 0.  1.
         11    1    3    3    0    0  0.39003720091E+01  0.14646591387E+01 -0.14472497626E+02  0.15060256173E+02  0.51100000000E-03 0. -1.
        -11    1    3    3    0    0  0.25482834962E+01  0.55094189069E+01 -0.72553092641E+01  0.94597546611E+01  0.51100000000E-03 0.  1.
         12    1    3    3    0    0  0.57402871578E+01  0.10820036332E+02 -0.17818530181E+02  0.21622305628E+02  0.00000000000E+00 0. -1.
</event>
<event>
 7    1  0.1549900E-008  0.4614232E+02  0.7816164E-02  0.1320468E+00
        -11   -1    0    0    0    0  0.00000000000E+00  0.00000000000E+00  0.45593999997E+02  0.45594000000E+02  0.51100000000E-03 0. -1.
         11   -1    0    0    0    0 -0.00000000000E+00 -0.00000000000E+00 -0.45593999997E+02  0.45594000000E+02  0.51100000000E-03 0.  1.
    9900012    2    1    2    0    0  0.18083851654E+02  0.39997998362E+02 -0.10111769962E+02  0.46142318127E+02  0.10000003335E+02 0.  0.
        -12    1    1    2    0    0 -0.18083851654E+02 -0.39997998362E+02  0.10111769962E+02  0.45045681873E+02  0.00000000000E+00 0.  1.
         11    1    3    3    0    0  0.51813646140E+01  0.51526502282E+01 -0.40614675326E+00  0.73185585387E+01  0.51100000000E-03 0. -1.
        -11    1    3    3    0    0  0.76382720726E+01  0.27411397171E+02 -0.67271681899E+01  0.29240086991E+02  0.51100000000E-03 0.  1.
        -12    1    3    3    0    0  0.52642149679E+01  0.74339509630E+01 -0.29784550192E+01  0.95836725972E+01  0.00000000000E+00 0.  1.
</event>
<event>
 7    1  0.1549900E-008  0.4614232E+02  0.7816164E-02  0.1320468E+00
        -11   -1    0    0    0    0  0.00000000000E+00  0.00000000000E+00  0.45593999997E+02  0.45594000000E+02  0.51100000000E-03 0. -1.
         11   -1    0    0    0    0 -0.00000000000E+00 -0.00000000000E+00 -0.45593999997E+02  0.45594000000E+02  0.51100000000E-03 0.  1.
    9900012    2    1    2    0    0 -0.33374108549E+02  0.71879750394E+01  0.29387332441E+02  0.46142318580E+02  0.10000007467E+02 0.  0.
        -12    1    1    2    0    0  0.33374108549E+02 -0.71879750394E+01 -0.29387332441E+02  0.45045681420E+02  0.00000000000E+00 0.  1.
         11    1    3    3    0    0 -0.22872644616E+01  0.70205697463E+00  0.47224388429E+01  0.52939485829E+01  0.51100000000E-03 0.  1.
        -11    1    3    3    0    0 -0.28747054926E+02  0.59646705516E+01  0.24821981008E+02  0.38446081765E+02  0.51100000000E-03 0. -1.
        -12    1    3    3    0    0 -0.23397891622E+01  0.52124751310E+00 -0.15708741037E+00  0.24022882317E+01  0.00000000000E+00 0.  1.
</event>
<event>
 7    1  0.1549900E-008  0.4614233E+02  0.7816164E-02  0.1320468E+00
        -11   -1    0    0    0    0  0.00000000000E+00  0.00000000000E+00  0.45593999997E+02  0.45594000000E+02  0.51100000000E-03 0.  1.
         11   -1    0    0    0    0 -0.00000000000E+00 -0.00000000000E+00 -0.45593999997E+02  0.45594000000E+02  0.51100000000E-03 0. -1.
    9900012    2    1    2    0    0 -0.80154795137E+01  0.84573527078E+01 -0.43512497584E+02  0.46142332365E+02  0.10000133169E+02 0.  0.
        -12    1    1    2    0    0  0.80154795137E+01 -0.84573527078E+01  0.43512497584E+02  0.45045667635E+02  0.00000000000E+00 0.  1.
         11    1    3    3    0    0 -0.19687115376E+01  0.93826937882E+00 -0.39287369750E+01  0.44934562449E+01  0.51100000000E-03 0. -1.
        -11    1    3    3    0    0  0.59509351326E+00  0.45666742595E+01 -0.24201775559E+02  0.24636042510E+02  0.51100000000E-03 0.  1.
        -12    1    3    3    0    0 -0.66418614893E+01  0.29524090695E+01 -0.15381985050E+02  0.17012833610E+02  0.00000000000E+00 0.  1.
</event>
<event>
 7    1  0.1549900E-008  0.4614232E+02  0.7816164E-02  0.1320468E+00
        -11   -1    0    0    0    0  0.00000000000E+00  0.00000000000E+00  0.45593999997E+02  0.45594000000E+02  0.51100000000E-03 0. -1.
         11   -1    0    0    0    0 -0.00000000000E+00 -0.00000000000E+00 -0.45593999997E+02  0.45594000000E+02  0.51100000000E-03 0.  1.
    9900012    2    1    2    0    0  0.20681710769E+02 -0.39952793737E+02 -0.22702914416E+01  0.46142321951E+02  0.10000038204E+02 0.  0.
        -12    1    1    2    0    0 -0.20681710769E+02  0.39952793737E+02  0.22702914416E+01  0.45045678049E+02  0.00000000000E+00 0.  1.
         11    1    3    3    0    0  0.19275548020E+02 -0.30101269684E+02 -0.56919849966E-01  0.35744040457E+02  0.51100000000E-03 0. -1.
        -11    1    3    3    0    0  0.39158055163E+00 -0.18547089961E+01 -0.12714572504E+01  0.22825171608E+01  0.51100000000E-03 0.  1.
         12    1    3    3    0    0  0.10145821974E+01 -0.79968150562E+01 -0.94191434132E+00  0.81157643327E+01  0.00000000000E+00 0. -1.
</event>
<event>
 7    1  0.1549900E-008  0.4614232E+02  0.7816164E-02  0.1320468E+00
        -11   -1    0    0    0    0  0.00000000000E+00  0.00000000000E+00  0.45593999997E+02  0.45594000000E+02  0.51100000000E-03 0.  1.
         11   -1    0    0    0    0 -0.00000000000E+00 -0.00000000000E+00 -0.45593999997E+02  0.45594000000E+02  0.51100000000E-03 0. -1.
    9900012    2    1    2    0    0  0.27817392904E+02 -0.30971108063E+02 -0.17207458231E+02  0.46142317617E+02  0.99999986840E+01 0.  0.
        -12    1    1    2    0    0 -0.27817392904E+02  0.30971108063E+02  0.17207458231E+02  0.45045682383E+02  0.00000000000E+00 0.  1.
         11    1    3    3    0    0  0.15246383998E+02 -0.19373294416E+02 -0.11648873891E+02  0.27266701758E+02  0.51100000000E-03 0. -1.
        -11    1    3    3    0    0 -0.55900994392E+00 -0.10502893043E+01 -0.23827572654E+00  0.12134147366E+01  0.51100000000E-03 0.  1.
        -12    1    3    3    0    0  0.13130018850E+02 -0.10547524342E+02 -0.53203086128E+01  0.17662201123E+02  0.00000000000E+00 0.  1.
</event>
<event>
 7    1  0.1549900E-008  0.4614232E+02  0.7816164E-02  0.1320468E+00
        -11   -1    0    0    0    0  0.00000000000E+00  0.00000000000E+00  0.45593999997E+02  0.45594000000E+02  0.51100000000E-03 0. -1.
         11   -1    0    0    0    0 -0.00000000000E+00 -0.00000000000E+00 -0.45593999997E+02  0.45594000000E+02  0.51100000000E-03 0.  1.
    9900012    2    1    2    0    0 -0.21694657430E+01 -0.47454326078E+01  0.44742460810E+02  0.46142317504E+02  0.99999976533E+01 0.  0.
        -12    1    1    2    0    0  0.21694657430E+01  0.47454326078E+01 -0.44742460810E+02  0.45045682496E+02  0.00000000000E+00 0.  1.
         11    1    3    3    0    0 -0.28588959362E+01 -0.51516288944E+00  0.10070592035E+02  0.10481197593E+02  0.51100000000E-03 0. -1.
        -11    1    3    3    0    0  0.32269500455E+01 -0.47356152247E+01  0.25085903577E+02  0.25732116444E+02  0.51100000000E-03 0.  1.
        -12    1    3    3    0    0 -0.25375198523E+01  0.50534550636E+00  0.95859651975E+01  0.99290034671E+01  0.00000000000E+00 0.  1.
</event>
<event>
 7    1  0.1549900E-008  0.4614232E+02  0.7816164E-02  0.1320468E+00
        -11   -1    0    0    0    0  0.00000000000E+00  0.00000000000E+00  0.45593999997E+02  0.45594000000E+02  0.51100000000E-03 0.  1.
         11   -1    0    0    0    0 -0.00000000000E+00 -0.00000000000E+00 -0.45593999997E+02  0.45594000000E+02  0.51100000000E-03 0. -1.
    9900012    2    1    2    0    0 -0.68396118829E+01  0.16965124830E+02 -0.41164522471E+02  0.46142315840E+02  0.99999824827E+01 0.  0.
        -12    1    1    2    0    0  0.68396118829E+01 -0.16965124830E+02  0.41164522471E+02  0.45045684160E+02  0.00000000000E+00 0.  1.
         11    1    3    3    0    0 -0.21579457580E+01  0.64275683805E+01 -0.24297976492E+02  0.25226217058E+02  0.51100000000E-03 0.  1.
        -11    1    3    3    0    0 -0.55080638994E+01  0.86561755739E+01 -0.13268746681E+02  0.16772828689E+02  0.51100000000E-03 0. -1.
         12    1    3    3    0    0  0.82639777454E+00  0.18813808751E+01 -0.35977992976E+01  0.41432700932E+01  0.00000000000E+00 0. -1.
</event>
<event>
 7    1  0.1549900E-008  0.4614232E+02  0.7816164E-02  0.1320468E+00
        -11   -1    0    0    0    0  0.00000000000E+00  0.00000000000E+00  0.45593999997E+02  0.45594000000E+02  0.51100000000E-03 0.  1.
         11   -1    0    0    0    0 -0.00000000000E+00 -0.00000000000E+00 -0.45593999997E+02  0.45594000000E+02  0.51100000000E-03 0. -1.
    9900012    2    1    2    0    0  0.10010710784E+02  0.23389374598E+02 -0.37173060215E+02  0.46142316741E+02  0.99999907021E+01 0.  0.
        -12    1    1    2    0    0 -0.10010710784E+02 -0.23389374598E+02  0.37173060215E+02  0.45045683259E+02  0.00000000000E+00 0.  1.
         11    1    3    3    0    0  0.69005936201E+01  0.18154826887E+02 -0.30150663864E+02  0.35864724498E+02  0.51100000000E-03 0. -1.
        -11    1    3    3    0    0  0.21283245563E+00  0.24782055913E+01 -0.36850493089E+00  0.25144774313E+01  0.51100000000E-03 0.  1.
         12    1    3    3    0    0  0.28972847078E+01  0.27563421198E+01 -0.66538914202E+01  0.77631148124E+01  0.00000000000E+00 0. -1.
</event>
<event>
 7    1  0.1549900E-008  0.4614232E+02  0.7816164E-02  0.1320468E+00
        -11   -1    0    0    0    0  0.00000000000E+00  0.00000000000E+00  0.45593999997E+02  0.45594000000E+02  0.51100000000E-03 0.  1.
         11   -1    0    0    0    0 -0.00000000000E+00 -0.00000000000E+00 -0.45593999997E+02  0.45594000000E+02  0.51100000000E-03 0. -1.
    9900012    2    1    2    0    0 -0.19475205383E+02 -0.27465333886E+02 -0.29924659922E+02  0.46142318058E+02  0.10000002706E+02 0.  0.
        -12    1    1    2    0    0  0.19475205383E+02  0.27465333886E+02  0.29924659922E+02  0.45045681942E+02  0.00000000000E+00 0.  1.
         11    1    3    3    0    0 -0.14045626088E+02 -0.12327177678E+02 -0.16484063951E+02  0.24919134943E+02  0.51100000000E-03 0. -1.
        -11    1    3    3    0    0 -0.32809188437E+01 -0.12513815792E+02 -0.11536506423E+02  0.17333522286E+02  0.51100000000E-03 0.  1.
        -12    1    3    3    0    0 -0.21486604518E+01 -0.26243404164E+01 -0.19040895479E+01  0.38896608290E+01  0.00000000000E+00 0.  1.
</event>
<event>
 7    1  0.1549900E-008  0.4614232E+02  0.7816164E-02  0.1320468E+00
        -11   -1    0    0    0    0  0.00000000000E+00  0.00000000000E+00  0.45593999997E+02  0.45594000000E+02  0.51100000000E-03 0. -1.
         11   -1    0    0    0    0 -0.00000000000E+00 -0.00000000000E+00 -0.45593999997E+02  0.45594000000E+02  0.51100000000E-03 0.  1.
    9900012    2    1    2    0    0 -0.37174730664E+02 -0.24747999736E+02  0.58897701895E+01  0.46142317812E+02  0.10000000467E+02 0.  0.
        -12    1    1    2    0    0  0.37174730664E+02  0.24747999736E+02 -0.58897701895E+01  0.45045682188E+02  0.00000000000E+00 0.  1.
         11    1    3    3    0    0 -0.24508146252E+02 -0.18044443806E+02  0.63602840834E+01  0.31091870302E+02  0.51100000000E-03 0. -1.
        -11    1    3    3    0    0 -0.12514023066E+02 -0.63361395100E+01  0.46445747128E+00  0.14034356352E+02  0.51100000000E-03 0.  1.
        -12    1    3    3    0    0 -0.15256134543E+00 -0.36741642008E+00 -0.93497136514E+00  0.10160911590E+01  0.00000000000E+00 0.  1.
</event>
<event>
 7    1  0.1549900E-008  0.4614232E+02  0.7816164E-02  0.1320468E+00
        -11   -1    0    0    0    0  0.00000000000E+00  0.00000000000E+00  0.45593999997E+02  0.45594000000E+02  0.51100000000E-03 0.  1.
         11   -1    0    0    0    0 -0.00000000000E+00 -0.00000000000E+00 -0.45593999997E+02  0.45594000000E+02  0.51100000000E-03 0. -1.
    9900012    2    1    2    0    0 -0.41864142362E+02 -0.98863789009E+01 -0.13370357771E+02  0.46142319071E+02  0.10000011941E+02 0.  0.
        -12    1    1    2    0    0  0.41864142362E+02  0.98863789009E+01  0.13370357771E+02  0.45045680929E+02  0.00000000000E+00 0.  1.
         11    1    3    3    0    0 -0.81622863579E+01  0.63190046386E-01 -0.52206099646E+01  0.96892559174E+01  0.51100000000E-03 0. -1.
        -11    1    3    3    0    0 -0.24949243148E+00 -0.70964351658E+00 -0.53341371559E+00  0.92215554387E+00  0.51100000000E-03 0.  1.
         12    1    3    3    0    0 -0.33452363573E+02 -0.92399254307E+01 -0.76163340905E+01  0.35530907609E+02  0.00000000000E+00 0. -1.
</event>
<event>
 7    1  0.1549900E-008  0.4614232E+02  0.7816164E-02  0.1320468E+00
        -11   -1    0    0    0    0  0.00000000000E+00  0.00000000000E+00  0.45593999997E+02  0.45594000000E+02  0.51100000000E-03 0. -1.
         11   -1    0    0    0    0 -0.00000000000E+00 -0.00000000000E+00 -0.45593999997E+02  0.45594000000E+02  0.51100000000E-03 0.  1.
    9900012    2    1    2    0    0  0.35811823265E+02  0.12416328218E+02  0.24340534766E+02  0.46142317359E+02  0.99999963296E+01 0.  0.
        -12    1    1    2    0    0 -0.35811823265E+02 -0.12416328218E+02 -0.24340534766E+02  0.45045682641E+02  0.00000000000E+00 0.  1.
         11    1    3    3    0    0  0.37106474365E+01  0.11523885265E+01  0.39915439264E+01  0.55703973729E+01  0.51100000000E-03 0. -1.
        -11    1    3    3    0    0  0.25505941274E+02  0.49910852416E+01  0.14684514203E+02  0.29851280204E+02  0.51100000000E-03 0.  1.
        -12    1    3    3    0    0  0.65952345539E+01  0.62728544498E+01  0.56644766358E+01  0.10720639782E+02  0.00000000000E+00 0.  1.
</event>
<event>
 7    1  0.1549900E-008  0.4614232E+02  0.7816164E-02  0.1320468E+00
        -11   -1    0    0    0    0  0.00000000000E+00  0.00000000000E+00  0.45593999997E+02  0.45594000000E+02  0.51100000000E-03 0.  1.
         11   -1    0    0    0    0 -0.00000000000E+00 -0.00000000000E+00 -0.45593999997E+02  0.45594000000E+02  0.51100000000E-03 0. -1.
    9900012    2    1    2    0    0  0.28992351776E+02  0.10761924091E+02 -0.32752679578E+02  0.46142317730E+02  0.99999997134E+01 0.  0.
        -12    1    1    2    0    0 -0.28992351776E+02 -0.10761924091E+02  0.32752679578E+02  0.45045682270E+02  0.00000000000E+00 0.  1.
         11    1    3    3    0    0  0.20586912116E+02  0.75846802249E+01 -0.21031276241E+02  0.30391822998E+02  0.51100000000E-03 0. -1.
        -11    1    3    3    0    0  0.59028299943E+01  0.25871976395E+01 -0.11483303341E+02  0.13168266759E+02  0.51100000000E-03 0.  1.
        -12    1    3    3    0    0  0.25026096663E+01  0.59004622696E+00 -0.23809999617E+00  0.25822279721E+01  0.00000000000E+00 0.  1.
</event>
<event>
 7    1  0.1549900E-008  0.4614231E+02  0.7816164E-02  0.1320468E+00
        -11   -1    0    0    0    0  0.00000000000E+00  0.00000000000E+00  0.45593999997E+02  0.45594000000E+02  0.51100000000E-03 0. -1.
         11   -1    0    0    0    0 -0.00000000000E+00 -0.00000000000E+00 -0.45593999997E+02  0.45594000000E+02  0.51100000000E-03 0.  1.
    9900012    2    1    2    0    0 -0.31109434884E+02 -0.18961870558E+02  0.26490837124E+02  0.46142312910E+02  0.99999557634E+01 0.  0.
        -12    1    1    2    0    0  0.31109434884E+02  0.18961870558E+02 -0.26490837124E+02  0.45045687090E+02  0.00000000000E+00 0.  1.
         11    1    3    3    0    0 -0.88362514726E+01 -0.42976528636E+01  0.92623969077E+01  0.13503375762E+02  0.51100000000E-03 0. -1.
        -11    1    3    3    0    0 -0.21335766765E+02 -0.15396796706E+02  0.15489503375E+02  0.30531966974E+02  0.51100000000E-03 0.  1.
        -12    1    3    3    0    0 -0.93741664659E+00  0.73257901095E+00  0.17389368414E+01  0.21069701742E+01  0.00000000000E+00 0.  1.
</event>
<event>
 7    1  0.1549900E-008  0.4614232E+02  0.7816164E-02  0.1320468E+00
        -11   -1    0    0    0    0  0.00000000000E+00  0.00000000000E+00  0.45593999997E+02  0.45594000000E+02  0.51100000000E-03 0.  1.
         11   -1    0    0    0    0 -0.00000000000E+00 -0.00000000000E+00 -0.45593999997E+02  0.45594000000E+02  0.51100000000E-03 0. -1.
    9900012    2    1    2    0    0 -0.31472056321E+02 -0.86702199227E+00 -0.32216010761E+02  0.46142318680E+02  0.10000008379E+02 0.  0.
        -12    1    1    2    0    0  0.31472056321E+02  0.86702199227E+00  0.32216010761E+02  0.45045681320E+02  0.00000000000E+00 0.  1.
         11    1    3    3    0    0 -0.11952647239E+02 -0.23540583011E+01 -0.17350981806E+02  0.21200564530E+02  0.51100000000E-03 0. -1.
        -11    1    3    3    0    0 -0.47530177200E+01  0.21824704414E+01 -0.43161819165E+01  0.67811342172E+01  0.51100000000E-03 0.  1.
        -12    1    3    3    0    0 -0.14766391362E+02 -0.69543413260E+00 -0.10548847039E+02  0.18160619932E+02  0.00000000000E+00 0.  1.
</event>
<event>
 7    1  0.1549900E-008  0.4614232E+02  0.7816164E-02  0.1320468E+00
        -11   -1    0    0    0    0  0.00000000000E+00  0.00000000000E+00  0.45593999997E+02  0.45594000000E+02  0.51100000000E-03 0. -1.
         11   -1    0    0    0    0 -0.00000000000E+00 -0.00000000000E+00 -0.45593999997E+02  0.45594000000E+02  0.51100000000E-03 0.  1.
    9900012    2    1    2    0    0  0.19953468415E+02  0.28450786159E+02  0.28662263724E+02  0.46142317669E+02  0.99999991628E+01 0.  0.
        -12    1    1    2    0    0 -0.19953468415E+02 -0.28450786159E+02 -0.28662263724E+02  0.45045682331E+02  0.00000000000E+00 0.  1.
         11    1    3    3    0    0  0.56674109348E+01  0.40459454602E+01  0.91952347621E+01  0.11534364480E+02  0.51100000000E-03 0. -1.
        -11    1    3    3    0    0  0.78665653679E+01  0.17178933483E+02  0.11863709944E+02  0.22310226808E+02  0.51100000000E-03 0.  1.
         12    1    3    3    0    0  0.64194921122E+01  0.72259072162E+01  0.76033190173E+01  0.12297726382E+02  0.00000000000E+00 0. -1.
</event>
<event>
 7    1  0.1549900E-008  0.4614232E+02  0.7816164E-02  0.1320468E+00
        -11   -1    0    0    0    0  0.00000000000E+00  0.00000000000E+00  0.45593999997E+02  0.45594000000E+02  0.51100000000E-03 0. -1.
         11   -1    0    0    0    0 -0.00000000000E+00 -0.00000000000E+00 -0.45593999997E+02  0.45594000000E+02  0.51100000000E-03 0.  1.
    9900012    2    1    2    0    0 -0.28814650758E+02 -0.21019469671E+02  0.27513838634E+02  0.46142317411E+02  0.99999968073E+01 0.  0.
        -12    1    1    2    0    0  0.28814650758E+02  0.21019469671E+02 -0.27513838634E+02  0.45045682589E+02  0.00000000000E+00 0.  1.
         11    1    3    3    0    0 -0.87343986722E+01 -0.56536471982E+01  0.10113474546E+02  0.14509852324E+02  0.51100000000E-03 0. -1.
        -11    1    3    3    0    0 -0.24477376592E+01  0.69185908396E+00  0.12877820770E+01  0.28510474530E+01  0.51100000000E-03 0.  1.
        -12    1    3    3    0    0 -0.17632514427E+02 -0.16057681556E+02  0.16112582011E+02  0.28781417634E+02  0.00000000000E+00 0.  1.
</event>
<event>
 7    1  0.1549900E-008  0.4614232E+02  0.7816164E-02  0.1320468E+00
        -11   -1    0    0    0    0  0.00000000000E+00  0.00000000000E+00  0.45593999997E+02  0.45594000000E+02  0.51100000000E-03 0.  1.
         11   -1    0    0    0    0 -0.00000000000E+00 -0.00000000000E+00 -0.45593999997E+02  0.45594000000E+02  0.51100000000E-03 0. -1.
    9900012    2    1    2    0    0  0.38891702891E+02  0.21399526496E+02 -0.76556628829E+01  0.46142318052E+02  0.10000002652E+02 0.  0.
        -12    1    1    2    0    0 -0.38891702891E+02 -0.21399526496E+02  0.76556628829E+01  0.45045681948E+02  0.00000000000E+00 0.  1.
         11    1    3    3    0    0  0.62646867082E+01  0.44070167621E+01 -0.20163031012E+01  0.79204529385E+01  0.51100000000E-03 0. -1.
        -11    1    3    3    0    0  0.55336225822E+01  0.69647481937E+01 -0.18369803544E+01  0.90831268497E+01  0.51100000000E-03 0.  1.
        -12    1    3    3    0    0  0.27093393601E+02  0.10027761540E+02 -0.38023794273E+01  0.29138738264E+02  0.00000000000E+00 0.  1.
</event>
<event>
 7    1  0.1549900E-008  0.4614232E+02  0.7816164E-02  0.1320468E+00
        -11   -1    0    0    0    0  0.00000000000E+00  0.00000000000E+00  0.45593999997E+02  0.45594000000E+02  0.51100000000E-03 0.  1.
         11   -1    0    0    0    0 -0.00000000000E+00 -0.00000000000E+00 -0.45593999997E+02  0.45594000000E+02  0.51100000000E-03 0. -1.
    9900012    2    1    2    0    0 -0.16040407013E+02 -0.41682372845E+02 -0.58650348692E+01  0.46142317663E+02  0.99999991095E+01 0.  0.
        -12    1    1    2    0    0  0.16040407013E+02  0.41682372845E+02  0.58650348692E+01  0.45045682337E+02  0.00000000000E+00 0.  1.
         11    1    3    3    0    0 -0.16301973202E+01 -0.43433576344E+01 -0.22638144415E+01  0.51620882335E+01  0.51100000000E-03 0. -1.
        -11    1    3    3    0    0 -0.77878554447E+01 -0.29718140468E+02 -0.29533794598E+01  0.30863263207E+02  0.51100000000E-03 0.  1.
        -12    1    3    3    0    0 -0.66223542485E+01 -0.76208747430E+01 -0.64784096794E+00  0.10116966223E+02  0.00000000000E+00 0.  1.
</event>
<event>
 7    1  0.1549900E-008  0.4614232E+02  0.7816164E-02  0.1320468E+00
        -11   -1    0    0    0    0  0.00000000000E+00  0.00000000000E+00  0.45593999997E+02  0.45594000000E+02  0.51100000000E-03 0.  1.
         11   -1    0    0    0    0 -0.00000000000E+00 -0.00000000000E+00 -0.45593999997E+02  0.45594000000E+02  0.51100000000E-03 0. -1.
    9900012    2    1    2    0    0 -0.38238818066E+02  0.23645022686E+02  0.27962832862E+01  0.46142317575E+02  0.99999983039E+01 0.  0.
        -12    1    1    2    0    0  0.38238818066E+02 -0.23645022686E+02 -0.27962832862E+01  0.45045682425E+02  0.00000000000E+00 0.  1.
         11    1    3    3    0    0 -0.32828149746E+02  0.19335377348E+02 -0.49070678238E+00  0.38102296864E+02  0.51100000000E-03 0. -1.
        -11    1    3    3    0    0 -0.49622490632E+01  0.43255832062E+01  0.23300432319E+01  0.69831001398E+01  0.51100000000E-03 0.  1.
         12    1    3    3    0    0 -0.44841925740E+00 -0.15937868233E-01  0.95694683663E+00  0.10569205714E+01  0.00000000000E+00 0. -1.
</event>
<event>
 7    1  0.1549900E-008  0.4614232E+02  0.7816164E-02  0.1320468E+00
        -11   -1    0    0    0    0  0.00000000000E+00  0.00000000000E+00  0.45593999997E+02  0.45594000000E+02  0.51100000000E-03 0.  1.
         11   -1    0    0    0    0 -0.00000000000E+00 -0.00000000000E+00 -0.45593999997E+02  0.45594000000E+02  0.51100000000E-03 0. -1.
    9900012    2    1    2    0    0 -0.28316929961E+02 -0.35021503345E+02  0.87135548629E+00  0.46142317861E+02  0.10000000909E+02 0.  0.
        -12    1    1    2    0    0  0.28316929961E+02  0.35021503345E+02 -0.87135548629E+00  0.45045682139E+02  0.00000000000E+00 0.  1.
         11    1    3    3    0    0 -0.14881863261E+02 -0.16663754346E+02 -0.27966223545E+01  0.22516031175E+02  0.51100000000E-03 0. -1.
        -11    1    3    3    0    0 -0.16458839005E+01 -0.11911402753E+01  0.18059122061E+01  0.27182840408E+01  0.51100000000E-03 0.  1.
        -12    1    3    3    0    0 -0.11789182800E+02 -0.17166608724E+02  0.18620656347E+01  0.20908002645E+02  0.00000000000E+00 0.  1.
</event>
<event>
 7    1  0.1549900E-008  0.4614232E+02  0.7816164E-02  0.1320468E+00
        -11   -1    0    0    0    0  0.00000000000E+00  0.00000000000E+00  0.45593999997E+02  0.45594000000E+02  0.51100000000E-03 0. -1.
         11   -1    0    0    0    0 -0.00000000000E+00 -0.00000000000E+00 -0.45593999997E+02  0.45594000000E+02  0.51100000000E-03 0.  1.
    9900012    2    1    2    0    0 -0.30375135759E+02 -0.13920388952E+02  0.30210718028E+02  0.46142316692E+02  0.99999902472E+01 0.  0.
        -12    1    1    2    0    0  0.30375135759E+02  0.13920388952E+02 -0.30210718028E+02  0.45045683308E+02  0.00000000000E+00 0.  1.
         11    1    3    3    0    0 -0.64549599339E+01 -0.25305032609E+01  0.38584932978E+01  0.79346030331E+01  0.51100000000E-03 0. -1.
        -11    1    3    3    0    0 -0.82292800282E+01 -0.16388772041E+00  0.61653635242E+01  0.10283949466E+02  0.51100000000E-03 0.  1.
        -12    1    3    3    0    0 -0.15690895797E+02 -0.11225997970E+02  0.20186861206E+02  0.27923764193E+02  0.00000000000E+00 0.  1.
</event>
<event>
 7    1  0.1549900E-008  0.4614232E+02  0.7816164E-02  0.1320468E+00
        -11   -1    0    0    0    0  0.00000000000E+00  0.00000000000E+00  0.45593999997E+02  0.45594000000E+02  0.51100000000E-03 0. -1.
         11   -1    0    0    0    0 -0.00000000000E+00 -0.00000000000E+00 -0.45593999997E+02  0.45594000000E+02  0.51100000000E-03 0.  1.
    9900012    2    1    2    0    0 -0.27860227873E+02 -0.31068724928E+02  0.16960410924E+02  0.46142317582E+02  0.99999983693E+01 0.  0.
        -12    1    1    2    0    0  0.27860227873E+02  0.31068724928E+02 -0.16960410924E+02  0.45045682418E+02  0.00000000000E+00 0.  1.
         11    1    3    3    0    0 -0.17797138336E+02 -0.19136114521E+02  0.15181675706E+02  0.30222711483E+02  0.51100000000E-03 0. -1.
        -11    1    3    3    0    0 -0.89584798586E+01 -0.11414798595E+02  0.20910628247E+01  0.14660304647E+02  0.51100000000E-03 0.  1.
         12    1    3    3    0    0 -0.11046096782E+01 -0.51781181243E+00 -0.31232760649E+00  0.12593014524E+01  0.00000000000E+00 0. -1.
</event>
<event>
 7    1  0.2526550E-008  0.4614232E+02  0.7816164E-02  0.1320468E+00
        -11   -1    0    0    0    0  0.00000000000E+00  0.00000000000E+00  0.45593999997E+02  0.45594000000E+02  0.51100000000E-03 0.  1.
         11   -1    0    0    0    0 -0.00000000000E+00 -0.00000000000E+00 -0.45593999997E+02  0.45594000000E+02  0.51100000000E-03 0. -1.
    9900012    2    1    2    0    0  0.44169757916E+02 -0.54696142171E+01 -0.69447363852E+01  0.46142316993E+02  0.99999929988E+01 0.  0.
        -12    1    1    2    0    0 -0.44169757916E+02  0.54696142171E+01  0.69447363852E+01  0.45045683007E+02  0.00000000000E+00 0.  1.
         11    1    3    3    0    0  0.30916971336E+02 -0.67223164277E+01 -0.71219389557E+01  0.32431014006E+02  0.51100000000E-03 0. -1.
        -11    1    3    3    0    0  0.13171731764E+01  0.11693116766E+01 -0.17666231105E+00  0.17701538935E+01  0.51100000000E-03 0.  1.
         12    1    3    3    0    0  0.11935613404E+02  0.83390534082E-01  0.35386488162E+00  0.11941149094E+02  0.00000000000E+00 0. -1.
</event>
<event>
 7    1  0.1749967E-008  0.4614232E+02  0.7816164E-02  0.1320468E+00
        -11   -1    0    0    0    0  0.00000000000E+00  0.00000000000E+00  0.45593999997E+02  0.45594000000E+02  0.51100000000E-03 0.  1.
         11   -1    0    0    0    0 -0.00000000000E+00 -0.00000000000E+00 -0.45593999997E+02  0.45594000000E+02  0.51100000000E-03 0. -1.
    9900012    2    1    2    0    0 -0.26546201284E+02 -0.28777918872E+02 -0.22276536744E+02  0.46142317560E+02  0.99999981621E+01 0.  0.
        -12    1    1    2    0    0  0.26546201284E+02  0.28777918872E+02  0.22276536744E+02  0.45045682440E+02  0.00000000000E+00 0.  1.
         11    1    3    3    0    0 -0.24199649657E+02 -0.25506381494E+02 -0.19683537293E+02  0.40294418733E+02  0.51100000000E-03 0. -1.
        -11    1    3    3    0    0 -0.33658905643E+00 -0.44768547001E+00  0.81373429682E+00  0.98786549687E+00  0.51100000000E-03 0.  1.
         12    1    3    3    0    0 -0.20099625709E+01 -0.28238519078E+01 -0.34067337476E+01  0.48600333292E+01  0.00000000000E+00 0. -1.
</event>
<event>
 7    1  0.1549900E-008  0.4614232E+02  0.7816164E-02  0.1320468E+00
        -11   -1    0    0    0    0  0.00000000000E+00  0.00000000000E+00  0.45593999997E+02  0.45594000000E+02  0.51100000000E-03 0.  1.
         11   -1    0    0    0    0 -0.00000000000E+00 -0.00000000000E+00 -0.45593999997E+02  0.45594000000E+02  0.51100000000E-03 0. -1.
    9900012    2    1    2    0    0  0.32271234142E+02 -0.29662641000E+02 -0.10383095835E+02  0.46142317595E+02  0.99999984896E+01 0.  0.
        -12    1    1    2    0    0 -0.32271234142E+02  0.29662641000E+02  0.10383095835E+02  0.45045682405E+02  0.00000000000E+00 0.  1.
         11    1    3    3    0    0  0.28312065269E+02 -0.25998712914E+02 -0.58609848592E+01  0.38882608667E+02  0.51100000000E-03 0. -1.
        -11    1    3    3    0    0  0.26565356187E+01 -0.18745077608E+01 -0.36304463531E+01  0.48735102157E+01  0.51100000000E-03 0.  1.
         12    1    3    3    0    0  0.13026332550E+01 -0.17894203252E+01 -0.89166462309E+00  0.23861987129E+01  0.00000000000E+00 0. -1.
</event>
<event>
 7    1  0.1549900E-008  0.4614232E+02  0.7816164E-02  0.1320468E+00
        -11   -1    0    0    0    0  0.00000000000E+00  0.00000000000E+00  0.45593999997E+02  0.45594000000E+02  0.51100000000E-03 0.  1.
         11   -1    0    0    0    0 -0.00000000000E+00 -0.00000000000E+00 -0.45593999997E+02  0.45594000000E+02  0.51100000000E-03 0. -1.
    9900012    2    1    2    0    0 -0.11601869824E+01 -0.43722635614E+02 -0.10774903805E+02  0.46142318177E+02  0.10000003791E+02 0.  0.
        -12    1    1    2    0    0  0.11601869824E+01  0.43722635614E+02  0.10774903805E+02  0.45045681823E+02  0.00000000000E+00 0.  1.
         11    1    3    3    0    0 -0.37543055926E+01 -0.21270200632E+02 -0.38069808270E+01  0.21931925330E+02  0.51100000000E-03 0. -1.
        -11    1    3    3    0    0  0.10580794390E+01 -0.16457359423E+01 -0.19282432096E+01  0.27470167505E+01  0.51100000000E-03 0.  1.
         12    1    3    3    0    0  0.15360391712E+01 -0.20806699041E+02 -0.50396797681E+01  0.21463376097E+02  0.00000000000E+00 0. -1.
</event>
<event>
 7    1  0.1549900E-008  0.4614232E+02  0.7816164E-02  0.1320468E+00
        -11   -1    0    0    0    0  0.00000000000E+00  0.00000000000E+00  0.45593999997E+02  0.45594000000E+02  0.51100000000E-03 0. -1.
         11   -1    0    0    0    0 -0.00000000000E+00 -0.00000000000E+00 -0.45593999997E+02  0.45594000000E+02  0.51100000000E-03 0.  1.
    9900012    2    1    2    0    0 -0.20052966251E+02  0.26103295766E+02  0.30750769955E+02  0.46142319207E+02  0.10000013186E+02 0.  0.
        -12    1    1    2    0    0  0.20052966251E+02 -0.26103295766E+02 -0.30750769955E+02  0.45045680793E+02  0.00000000000E+00 0.  1.
         11    1    3    3    0    0 -0.29116643893E+01  0.98193146878E+00  0.58364150618E+00  0.31277174735E+01  0.51100000000E-03 0.  1.
        -11    1    3    3    0    0 -0.11814415149E+02  0.16046282662E+02  0.22087336844E+02  0.29747504798E+02  0.51100000000E-03 0. -1.
        -12    1    3    3    0    0 -0.53268867125E+01  0.90750816352E+01  0.80797916044E+01  0.13267096936E+02  0.00000000000E+00 0.  1.
</event>
<event>
 7    1  0.1549900E-008  0.4614231E+02  0.7816164E-02  0.1320468E+00
        -11   -1    0    0    0    0  0.00000000000E+00  0.00000000000E+00  0.45593999997E+02  0.45594000000E+02  0.51100000000E-03 0.  1.
         11   -1    0    0    0    0 -0.00000000000E+00 -0.00000000000E+00 -0.45593999997E+02  0.45594000000E+02  0.51100000000E-03 0. -1.
    9900012    2    1    2    0    0  0.22879041692E+02 -0.88391984440E+01 -0.37782696589E+02  0.46142310535E+02  0.99999341042E+01 0.  0.
        -12    1    1    2    0    0 -0.22879041692E+02  0.88391984440E+01  0.37782696589E+02  0.45045689465E+02  0.00000000000E+00 0.  1.
         11    1    3    3    0    0  0.17063844495E+02 -0.10100161179E+02 -0.28901637287E+02  0.35049859956E+02  0.51100000000E-03 0. -1.
        -11    1    3    3    0    0  0.57487133661E+01  0.15558655589E+01 -0.89791136645E+01  0.10774641779E+02  0.51100000000E-03 0.  1.
         12    1    3    3    0    0  0.66483830566E-01 -0.29490282419E+00  0.98054362463E-01  0.31780880013E+00  0.00000000000E+00 0. -1.
</event>
<event>
 7    1  0.1549900E-008  0.4614232E+02  0.7816164E-02  0.1320468E+00
        -11   -1    0    0    0    0  0.00000000000E+00  0.00000000000E+00  0.45593999997E+02  0.45594000000E+02  0.51100000000E-03 0.  1.
         11   -1    0    0    0    0 -0.00000000000E+00 -0.00000000000E+00 -0.45593999997E+02  0.45594000000E+02  0.51100000000E-03 0. -1.
    9900012    2    1    2    0    0  0.52217196577E+01  0.92981410596E+01 -0.43765188231E+02  0.46142317807E+02  0.10000000414E+02 0.  0.
        -12    1    1    2    0    0 -0.52217196577E+01 -0.92981410596E+01  0.43765188231E+02  0.45045682193E+02  0.00000000000E+00 0.  1.
         11    1    3    3    0    0  0.14449844532E+01  0.39609713926E+01 -0.33513396291E+02  0.33777581406E+02  0.51100000000E-03 0. -1.
        -11    1    3    3    0    0  0.78837693379E+00  0.30002016680E+01 -0.50474198353E+01  0.59244574008E+01  0.51100000000E-03 0.  1.
         12    1    3    3    0    0  0.29883582707E+01  0.23369679990E+01 -0.52043721049E+01  0.64402789993E+01  0.00000000000E+00 0. -1.
</event>
<event>
 7    1  0.1549900E-008  0.4614232E+02  0.7816164E-02  0.1320468E+00
        -11   -1    0    0    0    0  0.00000000000E+00  0.00000000000E+00  0.45593999997E+02  0.45594000000E+02  0.51100000000E-03 0.  1.
         11   -1    0    0    0    0 -0.00000000000E+00 -0.00000000000E+00 -0.45593999997E+02  0.45594000000E+02  0.51100000000E-03 0. -1.
    9900012    2    1    2    0    0 -0.25023796954E+02 -0.28032580808E+02 -0.24841448609E+02  0.46142316858E+02  0.99999917646E+01 0.  0.
        -12    1    1    2    0    0  0.25023796954E+02  0.28032580808E+02  0.24841448609E+02  0.45045683142E+02  0.00000000000E+00 0.  1.
         11    1    3    3    0    0 -0.77543033168E+00 -0.40295183403E+01 -0.17565622531E+01  0.44636108101E+01  0.51100000000E-03 0. -1.
        -11    1    3    3    0    0 -0.15238111801E+02 -0.18795849504E+02 -0.14679206087E+02  0.28301291516E+02  0.51100000000E-03 0.  1.
        -12    1    3    3    0    0 -0.90102548213E+01 -0.52072129637E+01 -0.84056802683E+01  0.13377414532E+02  0.00000000000E+00 0.  1.
</event>
<event>
 7    1  0.1549900E-008  0.4614232E+02  0.7816164E-02  0.1320468E+00
        -11   -1    0    0    0    0  0.00000000000E+00  0.00000000000E+00  0.45593999997E+02  0.45594000000E+02  0.51100000000E-03 0.  1.
         11   -1    0    0    0    0 -0.00000000000E+00 -0.00000000000E+00 -0.45593999997E+02  0.45594000000E+02  0.51100000000E-03 0. -1.
    9900012    2    1    2    0    0 -0.44720821297E+02  0.14867822526E+01 -0.51914566560E+01  0.46142316510E+02  0.99999885872E+01 0.  0.
        -12    1    1    2    0    0  0.44720821297E+02 -0.14867822526E+01  0.51914566560E+01  0.45045683490E+02  0.00000000000E+00 0.  1.
         11    1    3    3    0    0 -0.27340339290E+02 -0.45583481307E+00 -0.69408466060E+01  0.28211297201E+02  0.51100000000E-03 0. -1.
        -11    1    3    3    0    0 -0.11306145872E+02 -0.40027699118E+00  0.68371795934E+00  0.11333870772E+02  0.51100000000E-03 0.  1.
         12    1    3    3    0    0 -0.60743361341E+01  0.23428940568E+01  0.10656719907E+01  0.65971485373E+01  0.00000000000E+00 0. -1.
</event>
<event>
 7    1  0.1549900E-008  0.4614232E+02  0.7816164E-02  0.1320468E+00
        -11   -1    0    0    0    0  0.00000000000E+00  0.00000000000E+00  0.45593999997E+02  0.45594000000E+02  0.51100000000E-03 0. -1.
         11   -1    0    0    0    0 -0.00000000000E+00 -0.00000000000E+00 -0.45593999997E+02  0.45594000000E+02  0.51100000000E-03 0.  1.
    9900012    2    1    2    0    0 -0.11310826652E+01  0.14734424703E+02  0.42552683524E+02  0.46142317694E+02  0.99999993862E+01 0.  0.
        -12    1    1    2    0    0  0.11310826652E+01 -0.14734424703E+02 -0.42552683524E+02  0.45045682306E+02  0.00000000000E+00 0.  1.
         11    1    3    3    0    0  0.13987541890E+01  0.55243020369E+01  0.19201385606E+02  0.20029169621E+02  0.51100000000E-03 0. -1.
        -11    1    3    3    0    0 -0.39409878330E+01  0.28931611683E+01  0.13174369034E+02  0.14052251291E+02  0.51100000000E-03 0.  1.
        -12    1    3    3    0    0  0.14111509788E+01  0.63169614981E+01  0.10176928884E+02  0.12060896781E+02  0.00000000000E+00 0.  1.
</event>
<event>
 7    1  0.1549900E-008  0.4614232E+02  0.7816164E-02  0.1320468E+00
        -11   -1    0    0    0    0  0.00000000000E+00  0.00000000000E+00  0.45593999997E+02  0.45594000000E+02  0.51100000000E-03 0.  1.
         11   -1    0    0    0    0 -0.00000000000E+00 -0.00000000000E+00 -0.45593999997E+02  0.45594000000E+02  0.51100000000E-03 0. -1.
    9900012    2    1    2    0    0  0.83600045765E+01 -0.28386295903E+02 -0.33962360604E+02  0.46142318637E+02  0.10000007989E+02 0.  0.
        -12    1    1    2    0    0 -0.83600045765E+01  0.28386295903E+02  0.33962360604E+02  0.45045681363E+02  0.00000000000E+00 0.  1.
         11    1    3    3    0    0  0.29187331614E+01 -0.11829738100E+02 -0.15097220277E+02  0.19400715635E+02  0.51100000000E-03 0. -1.
        -11    1    3    3    0    0  0.10083281186E+01 -0.13380197355E+02 -0.14503311315E+02  0.19758351303E+02  0.51100000000E-03 0.  1.
         12    1    3    3    0    0  0.44329432965E+01 -0.31763604478E+01 -0.43618290121E+01  0.69832516992E+01  0.00000000000E+00 0. -1.
</event>
<event>
 7    1  0.1549900E-008  0.4614232E+02  0.7816164E-02  0.1320468E+00
        -11   -1    0    0    0    0  0.00000000000E+00  0.00000000000E+00  0.45593999997E+02  0.45594000000E+02  0.51100000000E-03 0. -1.
         11   -1    0    0    0    0 -0.00000000000E+00 -0.00000000000E+00 -0.45593999997E+02  0.45594000000E+02  0.51100000000E-03 0.  1.
    9900012    2    1    2    0    0 -0.29917243036E+02 -0.32517032219E+02  0.87586585348E+01  0.46142324131E+02  0.10000058084E+02 0.  0.
        -12    1    1    2    0    0  0.29917243036E+02  0.32517032219E+02 -0.87586585348E+01  0.45045675869E+02  0.00000000000E+00 0.  1.
         11    1    3    3    0    0 -0.14759393541E+02 -0.19285635067E+02  0.80865927213E+01  0.25596257534E+02  0.51100000000E-03 0. -1.
        -11    1    3    3    0    0 -0.47952335057E+01 -0.31113604147E+01 -0.14748313461E+01  0.59033851106E+01  0.51100000000E-03 0.  1.
         12    1    3    3    0    0 -0.10362615989E+02 -0.10120036737E+02  0.21468971595E+01  0.14642681487E+02  0.00000000000E+00 0. -1.
</event>
<event>
 7    1  0.1549900E-008  0.4614232E+02  0.7816164E-02  0.1320468E+00
        -11   -1    0    0    0    0  0.00000000000E+00  0.00000000000E+00  0.45593999997E+02  0.45594000000E+02  0.51100000000E-03 0.  1.
         11   -1    0    0    0    0 -0.00000000000E+00 -0.00000000000E+00 -0.45593999997E+02  0.45594000000E+02  0.51100000000E-03 0. -1.
    9900012    2    1    2    0    0 -0.32044511240E+01 -0.27823160487E+01 -0.44845330919E+02  0.46142317690E+02  0.99999993488E+01 0.  0.
        -12    1    1    2    0    0  0.32044511240E+01  0.27823160487E+01  0.44845330919E+02  0.45045682310E+02  0.00000000000E+00 0.  1.
         11    1    3    3    0    0 -0.45090112778E+00 -0.88305351893E+00 -0.18346188927E+02  0.18372962302E+02  0.51100000000E-03 0. -1.
        -11    1    3    3    0    0 -0.48103335592E+01  0.46912106601E+00 -0.12039749526E+02  0.12973625261E+02  0.51100000000E-03 0.  1.
        -12    1    3    3    0    0  0.20567835630E+01 -0.23683835958E+01 -0.14459392466E+02  0.14795730127E+02  0.00000000000E+00 0.  1.
</event>
<event>
 7    1  0.1549900E-008  0.4614232E+02  0.7816164E-02  0.1320468E+00
        -11   -1    0    0    0    0  0.00000000000E+00  0.00000000000E+00  0.45593999997E+02  0.45594000000E+02  0.51100000000E-03 0.  1.
         11   -1    0    0    0    0 -0.00000000000E+00 -0.00000000000E+00 -0.45593999997E+02  0.45594000000E+02  0.51100000000E-03 0. -1.
    9900012    2    1    2    0    0 -0.14394670780E+02  0.20659983094E+02 -0.37350664686E+02  0.46142316513E+02  0.99999886207E+01 0.  0.
        -12    1    1    2    0    0  0.14394670780E+02 -0.20659983094E+02  0.37350664686E+02  0.45045683487E+02  0.00000000000E+00 0.  1.
         11    1    3    3    0    0 -0.35789753808E+01  0.12636770377E+02 -0.18573369926E+02  0.22747903222E+02  0.51100000000E-03 0. -1.
        -11    1    3    3    0    0 -0.15426735553E+01  0.54874920966E+00 -0.45739690195E+01  0.48582054553E+01  0.51100000000E-03 0.  1.
         12    1    3    3    0    0 -0.92730218441E+01  0.74744635079E+01 -0.14203325740E+02  0.18536207836E+02  0.00000000000E+00 0. -1.
</event>
<event>
 7    1  0.1549900E-008  0.4614232E+02  0.7816164E-02  0.1320468E+00
        -11   -1    0    0    0    0  0.00000000000E+00  0.00000000000E+00  0.45593999997E+02  0.45594000000E+02  0.51100000000E-03 0. -1.
         11   -1    0    0    0    0 -0.00000000000E+00 -0.00000000000E+00 -0.45593999997E+02  0.45594000000E+02  0.51100000000E-03 0.  1.
    9900012    2    1    2    0    0 -0.43236569534E+02 -0.79769979059E+01  0.98020367161E+01  0.46142319136E+02  0.10000012542E+02 0.  0.
        -12    1    1    2    0    0  0.43236569534E+02  0.79769979059E+01 -0.98020367161E+01  0.45045680864E+02  0.00000000000E+00 0.  1.
         11    1    3    3    0    0 -0.38381810564E+02 -0.82178215319E+01  0.67646319144E+01  0.39830342933E+02  0.51100000000E-03 0. -1.
        -11    1    3    3    0    0 -0.38338624429E+01  0.12307243346E+01  0.27075080033E+01  0.48521936759E+01  0.51100000000E-03 0.  1.
         12    1    3    3    0    0 -0.10208965268E+01 -0.98990070861E+00  0.32989679845E+00  0.14597825279E+01  0.00000000000E+00 0. -1.
</event>
<event>
 7    1  0.1549900E-008  0.4614232E+02  0.7816164E-02  0.1320468E+00
        -11   -1    0    0    0    0  0.00000000000E+00  0.00000000000E+00  0.45593999997E+02  0.45594000000E+02  0.51100000000E-03 0.  1.
         11   -1    0    0    0    0 -0.00000000000E+00 -0.00000000000E+00 -0.45593999997E+02  0.45594000000E+02  0.51100000000E-03 0. -1.
    9900012    2    1    2    0    0 -0.37534841665E+02  0.24571415003E+02 -0.40613648462E+01  0.46142318093E+02  0.10000003023E+02 0.  0.
        -12    1    1    2    0    0  0.37534841665E+02 -0.24571415003E+02  0.40613648462E+01  0.45045681907E+02  0.00000000000E+00 0.  1.
         11    1    3    3    0    0 -0.65035205796E+01  0.62301653326E+01 -0.19744594288E+01  0.92200450269E+01  0.51100000000E-03 0. -1.
        -11    1    3    3    0    0 -0.88652647654E+00  0.15023229815E+01  0.13734905911E+01  0.22202207546E+01  0.51100000000E-03 0.  1.
        -12    1    3    3    0    0 -0.30144794609E+02  0.16838926689E+02 -0.34603960085E+01  0.34702052311E+02  0.00000000000E+00 0.  1.
</event>
<event>
 7    1  0.1549900E-008  0.4614232E+02  0.7816164E-02  0.1320468E+00
        -11   -1    0    0    0    0  0.00000000000E+00  0.00000000000E+00  0.45593999997E+02  0.45594000000E+02  0.51100000000E-03 0.  1.
         11   -1    0    0    0    0 -0.00000000000E+00 -0.00000000000E+00 -0.45593999997E+02  0.45594000000E+02  0.51100000000E-03 0. -1.
    9900012    2    1    2    0    0  0.17408245703E+02 -0.25790582911E+02 -0.32571647246E+02  0.46142318857E+02  0.10000009989E+02 0.  0.
        -12    1    1    2    0    0 -0.17408245703E+02  0.25790582911E+02  0.32571647246E+02  0.45045681143E+02  0.00000000000E+00 0.  1.
         11    1    3    3    0    0  0.14936468019E+02 -0.19493853303E+02 -0.23198580088E+02  0.33782873055E+02  0.51100000000E-03 0. -1.
        -11    1    3    3    0    0  0.14884377761E+01 -0.27699320846E+01 -0.77323990888E+01  0.83473329092E+01  0.51100000000E-03 0.  1.
        -12    1    3    3    0    0  0.98333990782E+00 -0.35267975237E+01 -0.16406680687E+01  0.40121128921E+01  0.00000000000E+00 0.  1.
</event>
<event>
 7    1  0.1561471E-008  0.4614232E+02  0.7816164E-02  0.1320468E+00
        -11   -1    0    0    0    0  0.00000000000E+00  0.00000000000E+00  0.45593999997E+02  0.45594000000E+02  0.51100000000E-03 0. -1.
         11   -1    0    0    0    0 -0.00000000000E+00 -0.00000000000E+00 -0.45593999997E+02  0.45594000000E+02  0.51100000000E-03 0.  1.
    9900012    2    1    2    0    0 -0.11398053406E+02  0.41895695599E+02  0.11997855718E+02  0.46142317932E+02  0.10000001556E+02 0.  0.
        -12    1    1    2    0    0  0.11398053406E+02 -0.41895695599E+02 -0.11997855718E+02  0.45045682068E+02  0.00000000000E+00 0.  1.
         11    1    3    3    0    0 -0.80353510054E+01  0.39168287295E+02  0.12076933548E+02  0.41768096912E+02  0.51100000000E-03 0. -1.
        -11    1    3    3    0    0 -0.24066914188E+01  0.16014596451E+01 -0.15722148353E+00  0.28950916110E+01  0.51100000000E-03 0.  1.
         12    1    3    3    0    0 -0.95601098168E+00  0.11259486585E+01  0.78143653557E-01  0.14791294092E+01  0.00000000000E+00 0. -1.
</event>
<event>
 7    1  0.1549900E-008  0.4614232E+02  0.7816164E-02  0.1320468E+00
        -11   -1    0    0    0    0  0.00000000000E+00  0.00000000000E+00  0.45593999997E+02  0.45594000000E+02  0.51100000000E-03 0.  1.
         11   -1    0    0    0    0 -0.00000000000E+00 -0.00000000000E+00 -0.45593999997E+02  0.45594000000E+02  0.51100000000E-03 0. -1.
    9900012    2    1    2    0    0  0.40907468901E+02 -0.18585425502E+02 -0.32053764538E+01  0.46142317730E+02  0.99999997166E+01 0.  0.
        -12    1    1    2    0    0 -0.40907468901E+02  0.18585425502E+02  0.32053764538E+01  0.45045682270E+02  0.00000000000E+00 0.  1.
         11    1    3    3    0    0  0.36198265359E+02 -0.16197039217E+02  0.54354267604E+00  0.39660483272E+02  0.51100000000E-03 0. -1.
        -11    1    3    3    0    0  0.30654296094E+01 -0.16927184851E+01 -0.24220536047E+01  0.42577574479E+01  0.51100000000E-03 0.  1.
         12    1    3    3    0    0  0.16437739321E+01 -0.69566779910E+00 -0.13268655252E+01  0.22240770105E+01  0.00000000000E+00 0. -1.
</event>
<event>
 7    1  0.1549900E-008  0.4614231E+02  0.7816164E-02  0.1320468E+00
        -11   -1    0    0    0    0  0.00000000000E+00  0.00000000000E+00  0.45593999997E+02  0.45594000000E+02  0.51100000000E-03 0.  1.
         11   -1    0    0    0    0 -0.00000000000E+00 -0.00000000000E+00 -0.45593999997E+02  0.45594000000E+02  0.51100000000E-03 0. -1.
    9900012    2    1    2    0    0  0.39261560089E+01 -0.26476676656E+02 -0.36230990500E+02  0.46142314520E+02  0.99999704461E+01 0.  0.
        -12    1    1    2    0    0 -0.39261560089E+01  0.26476676656E+02  0.36230990500E+02  0.45045685480E+02  0.00000000000E+00 0.  1.
         11    1    3    3    0    0  0.51838261382E+01 -0.22784145460E+02 -0.27759092287E+02  0.36284384281E+02  0.51100000000E-03 0. -1.
        -11    1    3    3    0    0 -0.97079403265E+00 -0.37589691184E+01 -0.86723695985E+01  0.95016990376E+01  0.51100000000E-03 0.  1.
         12    1    3    3    0    0 -0.28687609662E+00  0.66437922872E-01  0.20047138573E+00  0.35623120147E+00  0.00000000000E+00 0. -1.
</event>
<event>
 7    1  0.1549900E-008  0.4614232E+02  0.7816164E-02  0.1320468E+00
        -11   -1    0    0    0    0  0.00000000000E+00  0.00000000000E+00  0.45593999997E+02  0.45594000000E+02  0.51100000000E-03 0. -1.
         11   -1    0    0    0    0 -0.00000000000E+00 -0.00000000000E+00 -0.45593999997E+02  0.45594000000E+02  0.51100000000E-03 0.  1.
    9900012    2    1    2    0    0 -0.39029078274E+01 -0.36870832677E+02  0.25581679588E+02  0.46142319604E+02  0.10000016801E+02 0.  0.
        -12    1    1    2    0    0  0.39029078274E+01  0.36870832677E+02 -0.25581679588E+02  0.45045680396E+02  0.00000000000E+00 0.  1.
         11    1    3    3    0    0  0.10029822856E+01 -0.19023825511E+02  0.16721735503E+02  0.25348142911E+02  0.51100000000E-03 0. -1.
        -11    1    3    3    0    0 -0.47735717328E+01 -0.13300310200E+02  0.77309409307E+01  0.16107535083E+02  0.51100000000E-03 0.  1.
         12    1    3    3    0    0 -0.13231838015E+00 -0.45466969663E+01  0.11290031540E+01  0.46866416098E+01  0.00000000000E+00 0. -1.
</event>
<event>
 7    1  0.1549900E-008  0.4614232E+02  0.7816164E-02  0.1320468E+00
        -11   -1    0    0    0    0  0.00000000000E+00  0.00000000000E+00  0.45593999997E+02  0.45594000000E+02  0.51100000000E-03 0.  1.
         11   -1    0    0    0    0 -0.00000000000E+00 -0.00000000000E+00 -0.45593999997E+02  0.45594000000E+02  0.51100000000E-03 0. -1.
    9900012    2    1    2    0    0  0.23141103500E+02 -0.34829521377E+02 -0.16748347670E+02  0.46142318962E+02  0.10000010950E+02 0.  0.
        -12    1    1    2    0    0 -0.23141103500E+02  0.34829521377E+02  0.16748347670E+02  0.45045681038E+02  0.00000000000E+00 0.  1.
         11    1    3    3    0    0  0.27438991966E+01 -0.11069301390E+02 -0.28477848300E+01  0.11754501043E+02  0.51100000000E-03 0. -1.
        -11    1    3    3    0    0  0.11231831882E+02 -0.11741779137E+02 -0.59025755170E+01  0.17287678350E+02  0.51100000000E-03 0.  1.
         12    1    3    3    0    0  0.91653724207E+01 -0.12018440849E+02 -0.79979873233E+01  0.17100139569E+02  0.00000000000E+00 0. -1.
</event>
<event>
 7    1  0.1549900E-008  0.4614231E+02  0.7816164E-02  0.1320468E+00
        -11   -1    0    0    0    0  0.00000000000E+00  0.00000000000E+00  0.45593999997E+02  0.45594000000E+02  0.51100000000E-03 0.  1.
         11   -1    0    0    0    0 -0.00000000000E+00 -0.00000000000E+00 -0.45593999997E+02  0.45594000000E+02  0.51100000000E-03 0. -1.
    9900012    2    1    2    0    0  0.12152845823E+02 -0.35386905214E+01 -0.43230781570E+02  0.46142306894E+02  0.99999009057E+01 0.  0.
        -12    1    1    2    0    0 -0.12152845823E+02  0.35386905214E+01  0.43230781570E+02  0.45045693106E+02  0.00000000000E+00 0.  1.
         11    1    3    3    0    0  0.10556030864E+02  0.95228112487E+00 -0.28829594250E+02  0.30716154249E+02  0.51100000000E-03 0. -1.
        -11    1    3    3    0    0 -0.61327134730E+00 -0.22781655164E+01 -0.52629802064E+01  0.57675905524E+01  0.51100000000E-03 0.  1.
        -12    1    3    3    0    0  0.22100863062E+01 -0.22128061299E+01 -0.91382071135E+01  0.96585620927E+01  0.00000000000E+00 0.  1.
</event>
<event>
 7    1  0.1549900E-008  0.4614232E+02  0.7816164E-02  0.1320468E+00
        -11   -1    0    0    0    0  0.00000000000E+00  0.00000000000E+00  0.45593999997E+02  0.45594000000E+02  0.51100000000E-03 0.  1.
         11   -1    0    0    0    0 -0.00000000000E+00 -0.00000000000E+00 -0.45593999997E+02  0.45594000000E+02  0.51100000000E-03 0. -1.
    9900012    2    1    2    0    0 -0.14471469928E+02 -0.18954974674E+02 -0.38215168169E+02  0.46142316689E+02  0.99999902265E+01 0.  0.
        -12    1    1    2    0    0  0.14471469928E+02  0.18954974674E+02  0.38215168169E+02  0.45045683311E+02  0.00000000000E+00 0.  1.
         11    1    3    3    0    0 -0.58627252722E+01 -0.66638329632E+01 -0.12423167130E+02  0.15268048310E+02  0.51100000000E-03 0. -1.
        -11    1    3    3    0    0 -0.88774869336E+00  0.11480178707E+01 -0.26531670264E+01  0.30241260399E+01  0.51100000000E-03 0.  1.
        -12    1    3    3    0    0 -0.77209959621E+01 -0.13439159582E+02 -0.23138834012E+02  0.27850142340E+02  0.00000000000E+00 0.  1.
</event>
<event>
 7    1  0.1549900E-008  0.4614232E+02  0.7816164E-02  0.1320468E+00
        -11   -1    0    0    0    0  0.00000000000E+00  0.00000000000E+00  0.45593999997E+02  0.45594000000E+02  0.51100000000E-03 0.  1.
         11   -1    0    0    0    0 -0.00000000000E+00 -0.00000000000E+00 -0.45593999997E+02  0.45594000000E+02  0.51100000000E-03 0. -1.
    9900012    2    1    2    0    0  0.17506287317E+02 -0.26946605028E+02 -0.31567766424E+02  0.46142317686E+02  0.99999993120E+01 0.  0.
        -12    1    1    2    0    0 -0.17506287317E+02  0.26946605028E+02  0.31567766424E+02  0.45045682314E+02  0.00000000000E+00 0.  1.
         11    1    3    3    0    0  0.44524907264E+00 -0.15024564627E+01 -0.18421531239E+00  0.15778332299E+01  0.51100000000E-03 0. -1.
        -11    1    3    3    0    0  0.17222792472E+02 -0.25915915041E+02 -0.30646530771E+02  0.43674581641E+02  0.51100000000E-03 0.  1.
        -12    1    3    3    0    0 -0.16175422775E+00  0.47176647546E+00 -0.73702034063E+00  0.88990281496E+00  0.00000000000E+00 0.  1.
</event>
<event>
 7    1  0.1549900E-008  0.4614232E+02  0.7816164E-02  0.1320468E+00
        -11   -1    0    0    0    0  0.00000000000E+00  0.00000000000E+00  0.45593999997E+02  0.45594000000E+02  0.51100000000E-03 0. -1.
         11   -1    0    0    0    0 -0.00000000000E+00 -0.00000000000E+00 -0.45593999997E+02  0.45594000000E+02  0.51100000000E-03 0.  1.
    9900012    2    1    2    0    0  0.25790179787E+02 -0.36178894658E+02  0.74207623314E+01  0.46142317568E+02  0.99999982427E+01 0.  0.
        -12    1    1    2    0    0 -0.25790179787E+02  0.36178894658E+02 -0.74207623314E+01  0.45045682432E+02  0.00000000000E+00 0.  1.
         11    1    3    3    0    0  0.78437988403E+01 -0.10301354010E+02  0.32283975786E+01  0.13344123271E+02  0.51100000000E-03 0. -1.
        -11    1    3    3    0    0  0.12033840666E+02 -0.11328892952E+02 -0.63379359781E-01  0.16527587661E+02  0.51100000000E-03 0.  1.
        -12    1    3    3    0    0  0.59125402810E+01 -0.14548647695E+02  0.42557441126E+01  0.16270606636E+02  0.00000000000E+00 0.  1.
</event>
<event>
 7    1  0.1549900E-008  0.4614232E+02  0.7816164E-02  0.1320468E+00
        -11   -1    0    0    0    0  0.00000000000E+00  0.00000000000E+00  0.45593999997E+02  0.45594000000E+02  0.51100000000E-03 0.  1.
         11   -1    0    0    0    0 -0.00000000000E+00 -0.00000000000E+00 -0.45593999997E+02  0.45594000000E+02  0.51100000000E-03 0. -1.
    9900012    2    1    2    0    0  0.11263485598E+01 -0.17997428697E+02 -0.41278775661E+02  0.46142318510E+02  0.10000006829E+02 0.  0.
        -12    1    1    2    0    0 -0.11263485598E+01  0.17997428697E+02  0.41278775661E+02  0.45045681490E+02  0.00000000000E+00 0.  1.
         11    1    3    3    0    0 -0.69304643711E+00 -0.71524744205E+01 -0.17941991724E+02  0.19327526251E+02  0.51100000000E-03 0. -1.
        -11    1    3    3    0    0  0.30296933371E+01 -0.33207689888E+01 -0.14319341952E+02  0.15008334438E+02  0.51100000000E-03 0.  1.
        -12    1    3    3    0    0 -0.12102983403E+01 -0.75241852882E+01 -0.90174419852E+01  0.11806457821E+02  0.00000000000E+00 0.  1.
</event>
<event>
 7    1  0.1549900E-008  0.4614232E+02  0.7816164E-02  0.1320468E+00
        -11   -1    0    0    0    0  0.00000000000E+00  0.00000000000E+00  0.45593999997E+02  0.45594000000E+02  0.51100000000E-03 0.  1.
         11   -1    0    0    0    0 -0.00000000000E+00 -0.00000000000E+00 -0.45593999997E+02  0.45594000000E+02  0.51100000000E-03 0. -1.
    9900012    2    1    2    0    0  0.18683575107E+02 -0.17895504247E+02 -0.36875310750E+02  0.46142316590E+02  0.99999893165E+01 0.  0.
        -12    1    1    2    0    0 -0.18683575107E+02  0.17895504247E+02  0.36875310750E+02  0.45045683410E+02  0.00000000000E+00 0.  1.
         11    1    3    3    0    0  0.15075759340E+02 -0.12020582483E+02 -0.27638135213E+02  0.33699249862E+02  0.51100000000E-03 0. -1.
        -11    1    3    3    0    0  0.21118946316E+01 -0.50781774985E+01 -0.36408924091E+01  0.65957625364E+01  0.51100000000E-03 0.  1.
         12    1    3    3    0    0  0.14959211361E+01 -0.79674426529E+00 -0.55962831271E+01  0.58473041915E+01  0.00000000000E+00 0. -1.
</event>
<event>
 7    1  0.1549900E-008  0.4614232E+02  0.7816164E-02  0.1320468E+00
        -11   -1    0    0    0    0  0.00000000000E+00  0.00000000000E+00  0.45593999997E+02  0.45594000000E+02  0.51100000000E-03 0.  1.
         11   -1    0    0    0    0 -0.00000000000E+00 -0.00000000000E+00 -0.45593999997E+02  0.45594000000E+02  0.51100000000E-03 0. -1.
    9900012    2    1    2    0    0  0.38173332347E+02  0.82971385364E+01 -0.22429171419E+02  0.46142317178E+02  0.99999946786E+01 0.  0.
        -12    1    1    2    0    0 -0.38173332347E+02 -0.82971385364E+01  0.22429171419E+02  0.45045682822E+02  0.00000000000E+00 0.  1.
         11    1    3    3    0    0  0.24838323298E+02  0.30873763329E+01 -0.15549660217E+02  0.29466355900E+02  0.51100000000E-03 0. -1.
        -11    1    3    3    0    0  0.77595758764E+01  0.32566671164E+01 -0.67149704778E+01  0.10766045108E+02  0.51100000000E-03 0.  1.
         12    1    3    3    0    0  0.55754331728E+01  0.19530950872E+01 -0.16454072416E+00  0.59099161697E+01  0.00000000000E+00 0. -1.
</event>
<event>
 7    1  0.1549900E-008  0.4614232E+02  0.7816164E-02  0.1320468E+00
        -11   -1    0    0    0    0  0.00000000000E+00  0.00000000000E+00  0.45593999997E+02  0.45594000000E+02  0.51100000000E-03 0. -1.
         11   -1    0    0    0    0 -0.00000000000E+00 -0.00000000000E+00 -0.45593999997E+02  0.45594000000E+02  0.51100000000E-03 0.  1.
    9900012    2    1    2    0    0  0.15156536140E+02 -0.40299970442E+02  0.13240292307E+02  0.46142317124E+02  0.99999941940E+01 0.  0.
        -12    1    1    2    0    0 -0.15156536140E+02  0.40299970442E+02 -0.13240292307E+02  0.45045682876E+02  0.00000000000E+00 0.  1.
         11    1    3    3    0    0  0.56413602139E+01 -0.68340953484E+01  0.41321588538E+01  0.97777574806E+01  0.51100000000E-03 0. -1.
        -11    1    3    3    0    0  0.96076054840E+01 -0.33006199527E+02  0.81970082457E+01  0.35339867498E+02  0.51100000000E-03 0.  1.
        -12    1    3    3    0    0 -0.92429558311E-01 -0.45967556627E+00  0.91112520752E+00  0.10246921456E+01  0.00000000000E+00 0.  1.
</event>
<event>
 7    1  0.1549900E-008  0.4614232E+02  0.7816164E-02  0.1320468E+00
        -11   -1    0    0    0    0  0.00000000000E+00  0.00000000000E+00  0.45593999997E+02  0.45594000000E+02  0.51100000000E-03 0. -1.
         11   -1    0    0    0    0 -0.00000000000E+00 -0.00000000000E+00 -0.45593999997E+02  0.45594000000E+02  0.51100000000E-03 0.  1.
    9900012    2    1    2    0    0  0.25616943556E+02  0.32422840361E+02  0.17934467162E+02  0.46142317780E+02  0.10000000171E+02 0.  0.
        -12    1    1    2    0    0 -0.25616943556E+02 -0.32422840361E+02 -0.17934467162E+02  0.45045682220E+02  0.00000000000E+00 0.  1.
         11    1    3    3    0    0  0.36884347304E+01  0.44314268443E+01  0.42437746890E+01  0.71590305565E+01  0.51100000000E-03 0. -1.
        -11    1    3    3    0    0  0.35718119383E+01  0.86924752616E+00  0.21528339272E+01  0.42600617324E+01  0.51100000000E-03 0.  1.
        -12    1    3    3    0    0  0.18356696888E+02  0.27122165991E+02  0.11537858546E+02  0.34723225491E+02  0.00000000000E+00 0.  1.
</event>
<event>
 7    1  0.1549900E-008  0.4614232E+02  0.7816164E-02  0.1320468E+00
        -11   -1    0    0    0    0  0.00000000000E+00  0.00000000000E+00  0.45593999997E+02  0.45594000000E+02  0.51100000000E-03 0.  1.
         11   -1    0    0    0    0 -0.00000000000E+00 -0.00000000000E+00 -0.45593999997E+02  0.45594000000E+02  0.51100000000E-03 0. -1.
    9900012    2    1    2    0    0  0.21207277764E+02 -0.37853781977E+02  0.12101903750E+02  0.46142317471E+02  0.99999973580E+01 0.  0.
        -12    1    1    2    0    0 -0.21207277764E+02  0.37853781977E+02 -0.12101903750E+02  0.45045682529E+02  0.00000000000E+00 0.  1.
         11    1    3    3    0    0  0.44736342804E+01 -0.16843530204E+02  0.53788456859E+01  0.18238692239E+02  0.51100000000E-03 0. -1.
        -11    1    3    3    0    0  0.98334554024E+01 -0.10369676879E+02  0.23136035739E+01  0.14476871399E+02  0.51100000000E-03 0.  1.
         12    1    3    3    0    0  0.69001880814E+01 -0.10640574893E+02  0.44094544900E+01  0.13426753834E+02  0.00000000000E+00 0. -1.
</event>
<event>
 7    1  0.1549900E-008  0.4614232E+02  0.7816164E-02  0.1320468E+00
        -11   -1    0    0    0    0  0.00000000000E+00  0.00000000000E+00  0.45593999997E+02  0.45594000000E+02  0.51100000000E-03 0. -1.
         11   -1    0    0    0    0 -0.00000000000E+00 -0.00000000000E+00 -0.45593999997E+02  0.45594000000E+02  0.51100000000E-03 0.  1.
    9900012    2    1    2    0    0  0.44036354578E+02 -0.75991834121E+01  0.56714531901E+01  0.46142317695E+02  0.99999993982E+01 0.  0.
        -12    1    1    2    0    0 -0.44036354578E+02  0.75991834121E+01 -0.56714531901E+01  0.45045682305E+02  0.00000000000E+00 0.  1.
         11    1    3    3    0    0  0.16454750831E+02 -0.14529982986E+01  0.37219414910E+01  0.16932893364E+02  0.51100000000E-03 0. -1.
        -11    1    3    3    0    0  0.18260487415E+02 -0.93161196267E+00 -0.33474090457E+00  0.18287300327E+02  0.51100000000E-03 0.  1.
        -12    1    3    3    0    0  0.93211163314E+01 -0.52145731508E+01  0.22842526037E+01  0.10922124004E+02  0.00000000000E+00 0.  1.
</event>
<event>
 7    1  0.1549900E-008  0.4614232E+02  0.7816164E-02  0.1320468E+00
        -11   -1    0    0    0    0  0.00000000000E+00  0.00000000000E+00  0.45593999997E+02  0.45594000000E+02  0.51100000000E-03 0.  1.
         11   -1    0    0    0    0 -0.00000000000E+00 -0.00000000000E+00 -0.45593999997E+02  0.45594000000E+02  0.51100000000E-03 0. -1.
    9900012    2    1    2    0    0  0.33391143495E+02  0.38918525737E+01 -0.29983302077E+02  0.46142318921E+02  0.10000010579E+02 0.  0.
        -12    1    1    2    0    0 -0.33391143495E+02 -0.38918525737E+01  0.29983302077E+02  0.45045681079E+02  0.00000000000E+00 0.  1.
         11    1    3    3    0    0  0.12121326212E+02 -0.74371412931E+00 -0.99776904430E+01  0.15717314232E+02  0.51100000000E-03 0. -1.
        -11    1    3    3    0    0  0.15556331772E+02  0.67340526069E+00 -0.11079149673E+02  0.19110219532E+02  0.51100000000E-03 0.  1.
         12    1    3    3    0    0  0.57134855119E+01  0.39621614423E+01 -0.89264619618E+01  0.11314785157E+02  0.00000000000E+00 0. -1.
</event>
<event>
 7    1  0.1549900E-008  0.4614232E+02  0.7816164E-02  0.1320468E+00
        -11   -1    0    0    0    0  0.00000000000E+00  0.00000000000E+00  0.45593999997E+02  0.45594000000E+02  0.51100000000E-03 0.  1.
         11   -1    0    0    0    0 -0.00000000000E+00 -0.00000000000E+00 -0.45593999997E+02  0.45594000000E+02  0.51100000000E-03 0. -1.
    9900012    2    1    2    0    0 -0.24546930647E+02  0.37111082100E+02 -0.70234804568E+01  0.46142317670E+02  0.99999991718E+01 0.  0.
        -12    1    1    2    0    0  0.24546930647E+02 -0.37111082100E+02  0.70234804568E+01  0.45045682330E+02  0.00000000000E+00 0.  1.
         11    1    3    3    0    0 -0.13706250961E+02  0.18018558184E+02 -0.80806524490E+01  0.24038026099E+02  0.51100000000E-03 0. -1.
        -11    1    3    3    0    0 -0.91608869849E+01  0.14860317214E+02  0.15424434586E+01  0.17525125110E+02  0.51100000000E-03 0.  1.
         12    1    3    3    0    0 -0.16797927008E+01  0.42322067022E+01 -0.48527146640E+00  0.45791664617E+01  0.00000000000E+00 0. -1.
</event>
<event>
 7    1  0.1549900E-008  0.4614232E+02  0.7816164E-02  0.1320468E+00
        -11   -1    0    0    0    0  0.00000000000E+00  0.00000000000E+00  0.45593999997E+02  0.45594000000E+02  0.51100000000E-03 0.  1.
         11   -1    0    0    0    0 -0.00000000000E+00 -0.00000000000E+00 -0.45593999997E+02  0.45594000000E+02  0.51100000000E-03 0. -1.
    9900012    2    1    2    0    0  0.31291362364E+02  0.27153322502E+02 -0.17682227392E+02  0.46142318220E+02  0.10000004185E+02 0.  0.
        -12    1    1    2    0    0 -0.31291362364E+02 -0.27153322502E+02  0.17682227392E+02  0.45045681780E+02  0.00000000000E+00 0.  1.
         11    1    3    3    0    0  0.78161479660E+01  0.80811868360E+01 -0.61310120926E+01  0.12805743213E+02  0.51100000000E-03 0. -1.
        -11    1    3    3    0    0  0.13802882304E+02  0.61105812857E+01 -0.53217979884E+01  0.16005633309E+02  0.51100000000E-03 0.  1.
        -12    1    3    3    0    0  0.96723320942E+01  0.12961554380E+02 -0.62294173107E+01  0.17330941697E+02  0.00000000000E+00 0.  1.
</event>
<event>
 7    1  0.1549900E-008  0.4614232E+02  0.7816164E-02  0.1320468E+00
        -11   -1    0    0    0    0  0.00000000000E+00  0.00000000000E+00  0.45593999997E+02  0.45594000000E+02  0.51100000000E-03 0.  1.
         11   -1    0    0    0    0 -0.00000000000E+00 -0.00000000000E+00 -0.45593999997E+02  0.45594000000E+02  0.51100000000E-03 0. -1.
    9900012    2    1    2    0    0 -0.42181814004E+02 -0.26179716584E+01 -0.15586990066E+02  0.46142317991E+02  0.10000002099E+02 0.  0.
        -12    1    1    2    0    0  0.42181814004E+02  0.26179716584E+01  0.15586990066E+02  0.45045682009E+02  0.00000000000E+00 0.  1.
         11    1    3    3    0    0 -0.13443483203E+02 -0.38514101742E+01 -0.17237726088E+01  0.14090138155E+02  0.51100000000E-03 0. -1.
        -11    1    3    3    0    0 -0.88363372984E+01  0.15817022455E+01 -0.48237121086E+01  0.10190723115E+02  0.51100000000E-03 0.  1.
         12    1    3    3    0    0 -0.19901993503E+02 -0.34826372972E+00 -0.90395053484E+01  0.21861456721E+02  0.00000000000E+00 0. -1.
</event>
<event>
 7    1  0.1549900E-008  0.4614232E+02  0.7816164E-02  0.1320468E+00
        -11   -1    0    0    0    0  0.00000000000E+00  0.00000000000E+00  0.45593999997E+02  0.45594000000E+02  0.51100000000E-03 0.  1.
         11   -1    0    0    0    0 -0.00000000000E+00 -0.00000000000E+00 -0.45593999997E+02  0.45594000000E+02  0.51100000000E-03 0. -1.
    9900012    2    1    2    0    0 -0.13744739470E+02 -0.33863343629E+02 -0.26333810524E+02  0.46142317837E+02  0.10000000692E+02 0.  0.
        -12    1    1    2    0    0  0.13744739470E+02  0.33863343629E+02  0.26333810524E+02  0.45045682163E+02  0.00000000000E+00 0.  1.
         11    1    3    3    0    0 -0.52982308482E+01 -0.20018858273E+02 -0.11228563060E+02  0.23556454854E+02  0.51100000000E-03 0. -1.
        -11    1    3    3    0    0 -0.56036924941E+01 -0.12389690331E+02 -0.12225973305E+02  0.18286066268E+02  0.51100000000E-03 0.  1.
         12    1    3    3    0    0 -0.28428161273E+01 -0.14547950262E+01 -0.28792741593E+01  0.42997967145E+01  0.00000000000E+00 0. -1.
</event>
<event>
 7    1  0.1549900E-008  0.4614232E+02  0.7816164E-02  0.1320468E+00
        -11   -1    0    0    0    0  0.00000000000E+00  0.00000000000E+00  0.45593999997E+02  0.45594000000E+02  0.51100000000E-03 0.  1.
         11   -1    0    0    0    0 -0.00000000000E+00 -0.00000000000E+00 -0.45593999997E+02  0.45594000000E+02  0.51100000000E-03 0. -1.
    9900012    2    1    2    0    0  0.33937230333E+02  0.22255763405E+02 -0.19546326478E+02  0.46142317785E+02  0.10000000222E+02 0.  0.
        -12    1    1    2    0    0 -0.33937230333E+02 -0.22255763405E+02  0.19546326478E+02  0.45045682215E+02  0.00000000000E+00 0.  1.
         11    1    3    3    0    0  0.24401534744E+02  0.15911767455E+02 -0.17003479762E+02  0.33730365632E+02  0.51100000000E-03 0. -1.
        -11    1    3    3    0    0  0.72978368003E+01  0.35719305535E+01 -0.16144616422E+00  0.81266952058E+01  0.51100000000E-03 0.  1.
         12    1    3    3    0    0  0.22378587887E+01  0.27720653960E+01 -0.23814005515E+01  0.42852569474E+01  0.00000000000E+00 0. -1.
</event>
<event>
 7    1  0.1549900E-008  0.4614232E+02  0.7816164E-02  0.1320468E+00
        -11   -1    0    0    0    0  0.00000000000E+00  0.00000000000E+00  0.45593999997E+02  0.45594000000E+02  0.51100000000E-03 0. -1.
         11   -1    0    0    0    0 -0.00000000000E+00 -0.00000000000E+00 -0.45593999997E+02  0.45594000000E+02  0.51100000000E-03 0.  1.
    9900012    2    1    2    0    0  0.28151790511E+02 -0.34470638046E+02  0.69545107635E+01  0.46142318561E+02  0.10000007296E+02 0.  0.
        -12    1    1    2    0    0 -0.28151790511E+02  0.34470638046E+02 -0.69545107635E+01  0.45045681439E+02  0.00000000000E+00 0.  1.
         11    1    3    3    0    0  0.15438673658E+02 -0.18869569543E+02 -0.66139140184E+00  0.24389562069E+02  0.51100000000E-03 0. -1.
        -11    1    3    3    0    0  0.75594510750E+01 -0.91398859875E+01  0.61442486099E+01  0.13357941745E+02  0.51100000000E-03 0.  1.
        -12    1    3    3    0    0  0.51536657789E+01 -0.64611825154E+01  0.14716535555E+01  0.83948147475E+01  0.00000000000E+00 0.  1.
</event>
<event>
 7    1  0.1549900E-008  0.4614232E+02  0.7816164E-02  0.1320468E+00
        -11   -1    0    0    0    0  0.00000000000E+00  0.00000000000E+00  0.45593999997E+02  0.45594000000E+02  0.51100000000E-03 0.  1.
         11   -1    0    0    0    0 -0.00000000000E+00 -0.00000000000E+00 -0.45593999997E+02  0.45594000000E+02  0.51100000000E-03 0. -1.
    9900012    2    1    2    0    0  0.35376789569E+02  0.65245148816E+01 -0.27111381058E+02  0.46142317438E+02  0.99999970533E+01 0.  0.
        -12    1    1    2    0    0 -0.35376789569E+02 -0.65245148816E+01  0.27111381058E+02  0.45045682562E+02  0.00000000000E+00 0.  1.
         11    1    3    3    0    0  0.58396474125E+01 -0.55332814615E+00 -0.86818606787E+00  0.59297049883E+01  0.51100000000E-03 0.  1.
        -11    1    3    3    0    0  0.18443974934E+02  0.32437466104E+01 -0.16475628471E+02  0.24942903544E+02  0.51100000000E-03 0. -1.
        -12    1    3    3    0    0  0.11093167222E+02  0.38340964174E+01 -0.97675665184E+01  0.15269708905E+02  0.00000000000E+00 0.  1.
</event>
<event>
 7    1  0.1549900E-008  0.4614232E+02  0.7816164E-02  0.1320468E+00
        -11   -1    0    0    0    0  0.00000000000E+00  0.00000000000E+00  0.45593999997E+02  0.45594000000E+02  0.51100000000E-03 0.  1.
         11   -1    0    0    0    0 -0.00000000000E+00 -0.00000000000E+00 -0.45593999997E+02  0.45594000000E+02  0.51100000000E-03 0. -1.
    9900012    2    1    2    0    0 -0.27112322020E+02  0.34305721044E+02 -0.10823718064E+02  0.46142319026E+02  0.10000011535E+02 0.  0.
        -12    1    1    2    0    0  0.27112322020E+02 -0.34305721044E+02  0.10823718064E+02  0.45045680974E+02  0.00000000000E+00 0.  1.
         11    1    3    3    0    0 -0.20504909870E+01  0.63051091077E+01 -0.44862074392E+00  0.66453122561E+01  0.51100000000E-03 0. -1.
        -11    1    3    3    0    0 -0.55663941948E+01  0.10600474399E+02 -0.29421283881E+01  0.12329270925E+02  0.51100000000E-03 0.  1.
         12    1    3    3    0    0 -0.19495436838E+02  0.17400137538E+02 -0.74329689318E+01  0.27167735845E+02  0.00000000000E+00 0. -1.
</event>
<event>
 7    1  0.1549900E-008  0.4614232E+02  0.7816164E-02  0.1320468E+00
        -11   -1    0    0    0    0  0.00000000000E+00  0.00000000000E+00  0.45593999997E+02  0.45594000000E+02  0.51100000000E-03 0. -1.
         11   -1    0    0    0    0 -0.00000000000E+00 -0.00000000000E+00 -0.45593999997E+02  0.45594000000E+02  0.51100000000E-03 0.  1.
    9900012    2    1    2    0    0  0.66899592853E+01 -0.42486372565E+02  0.13389029444E+02  0.46142317427E+02  0.99999969567E+01 0.  0.
        -12    1    1    2    0    0 -0.66899592853E+01  0.42486372565E+02 -0.13389029444E+02  0.45045682573E+02  0.00000000000E+00 0.  1.
         11    1    3    3    0    0  0.49842809764E+01 -0.15069680486E+02  0.15035074400E+01  0.15943615076E+02  0.51100000000E-03 0. -1.
        -11    1    3    3    0    0 -0.40772195603E-01 -0.19574031670E+02  0.98371886244E+01  0.21906954569E+02  0.51100000000E-03 0.  1.
         12    1    3    3    0    0  0.17464505045E+01 -0.78426604091E+01  0.20483333791E+01  0.82917477825E+01  0.00000000000E+00 0. -1.
</event>
<event>
 7    1  0.1549900E-008  0.4614232E+02  0.7816164E-02  0.1320468E+00
        -11   -1    0    0    0    0  0.00000000000E+00  0.00000000000E+00  0.45593999997E+02  0.45594000000E+02  0.51100000000E-03 0.  1.
         11   -1    0    0    0    0 -0.00000000000E+00 -0.00000000000E+00 -0.45593999997E+02  0.45594000000E+02  0.51100000000E-03 0. -1.
    9900012    2    1    2    0    0 -0.15464694637E+02 -0.41743668018E+02 -0.68864318843E+01  0.46142317145E+02  0.99999943805E+01 0.  0.
        -12    1    1    2    0    0  0.15464694637E+02  0.41743668018E+02  0.68864318843E+01  0.45045682855E+02  0.00000000000E+00 0.  1.
         11    1    3    3    0    0 -0.40805905795E+01 -0.12228736125E+02 -0.24780203012E+01  0.13127596564E+02  0.51100000000E-03 0. -1.
        -11    1    3    3    0    0 -0.72493809430E+01 -0.80544323992E+01 -0.20996223992E+01  0.11037926427E+02  0.51100000000E-03 0.  1.
        -12    1    3    3    0    0 -0.41347231142E+01 -0.21460499494E+02 -0.23087891840E+01  0.21976794153E+02  0.00000000000E+00 0.  1.
</event>
<event>
 7    1  0.1549900E-008  0.4614232E+02  0.7816164E-02  0.1320468E+00
        -11   -1    0    0    0    0  0.00000000000E+00  0.00000000000E+00  0.45593999997E+02  0.45594000000E+02  0.51100000000E-03 0.  1.
         11   -1    0    0    0    0 -0.00000000000E+00 -0.00000000000E+00 -0.45593999997E+02  0.45594000000E+02  0.51100000000E-03 0. -1.
    9900012    2    1    2    0    0  0.24338922473E+02 -0.37137520515E+02  0.75851781923E+01  0.46142317573E+02  0.99999982815E+01 0.  0.
        -12    1    1    2    0    0 -0.24338922473E+02  0.37137520515E+02 -0.75851781923E+01  0.45045682427E+02  0.00000000000E+00 0.  1.
         11    1    3    3    0    0  0.22600638231E+02 -0.31410851842E+02  0.44285836517E+01  0.38949233822E+02  0.51100000000E-03 0. -1.
        -11    1    3    3    0    0  0.56630786893E+00 -0.18977031404E+01  0.24107788240E+01  0.31199097120E+01  0.51100000000E-03 0.  1.
         12    1    3    3    0    0  0.11719763734E+01 -0.38289655326E+01  0.74581571656E+00  0.40731740391E+01  0.00000000000E+00 0. -1.
</event>
<event>
 7    1  0.1549900E-008  0.4614232E+02  0.7816164E-02  0.1320468E+00
        -11   -1    0    0    0    0  0.00000000000E+00  0.00000000000E+00  0.45593999997E+02  0.45594000000E+02  0.51100000000E-03 0.  1.
         11   -1    0    0    0    0 -0.00000000000E+00 -0.00000000000E+00 -0.45593999997E+02  0.45594000000E+02  0.51100000000E-03 0. -1.
    9900012    2    1    2    0    0  0.12158386425E+02 -0.22936941006E+02 -0.36812822084E+02  0.46142317711E+02  0.99999995410E+01 0.  0.
        -12    1    1    2    0    0 -0.12158386425E+02  0.22936941006E+02  0.36812822084E+02  0.45045682289E+02  0.00000000000E+00 0.  1.
         11    1    3    3    0    0  0.82468261977E+01 -0.12491959483E+02 -0.27087450727E+02  0.30948169271E+02  0.51100000000E-03 0. -1.
        -11    1    3    3    0    0  0.61838835880E+00 -0.56550819748E+01 -0.35113565220E+01  0.66852061441E+01  0.51100000000E-03 0.  1.
        -12    1    3    3    0    0  0.32931718681E+01 -0.47898995479E+01 -0.62140148348E+01  0.85089422961E+01  0.00000000000E+00 0.  1.
</event>
<event>
 7    1  0.1549900E-008  0.4614232E+02  0.7816164E-02  0.1320468E+00
        -11   -1    0    0    0    0  0.00000000000E+00  0.00000000000E+00  0.45593999997E+02  0.45594000000E+02  0.51100000000E-03 0. -1.
         11   -1    0    0    0    0 -0.00000000000E+00 -0.00000000000E+00 -0.45593999997E+02  0.45594000000E+02  0.51100000000E-03 0.  1.
    9900012    2    1    2    0    0 -0.73925207398E+01  0.41945366428E+02  0.14664589623E+02  0.46142319669E+02  0.10000017396E+02 0.  0.
        -12    1    1    2    0    0  0.73925207398E+01 -0.41945366428E+02 -0.14664589623E+02  0.45045680331E+02  0.00000000000E+00 0.  1.
         11    1    3    3    0    0 -0.17079833559E+01  0.21271767888E+01  0.15393677567E+01  0.31323699632E+01  0.51100000000E-03 0. -1.
        -11    1    3    3    0    0 -0.26539269880E+01  0.60558654842E+01  0.46051030786E+01  0.80575312501E+01  0.51100000000E-03 0.  1.
         12    1    3    3    0    0 -0.30306103959E+01  0.33762324155E+02  0.85201187878E+01  0.34952418456E+02  0.00000000000E+00 0. -1.
</event>
<event>
 7    1  0.1549900E-008  0.4614232E+02  0.7816164E-02  0.1320468E+00
        -11   -1    0    0    0    0  0.00000000000E+00  0.00000000000E+00  0.45593999997E+02  0.45594000000E+02  0.51100000000E-03 0.  1.
         11   -1    0    0    0    0 -0.00000000000E+00 -0.00000000000E+00 -0.45593999997E+02  0.45594000000E+02  0.51100000000E-03 0. -1.
    9900012    2    1    2    0    0  0.15449564484E+02 -0.42140746852E+02  0.38186214372E+01  0.46142318102E+02  0.10000003111E+02 0.  0.
        -12    1    1    2    0    0 -0.15449564484E+02  0.42140746852E+02 -0.38186214372E+01  0.45045681898E+02  0.00000000000E+00 0.  1.
         11    1    3    3    0    0  0.11200225025E+01 -0.84882923233E+01  0.51229238027E+00  0.85771790652E+01  0.51100000000E-03 0. -1.
        -11    1    3    3    0    0  0.45195868877E+01 -0.20226636055E+02  0.29422180814E+01  0.20933230024E+02  0.51100000000E-03 0.  1.
         12    1    3    3    0    0  0.98099550937E+01 -0.13425818474E+02  0.36411097552E+00  0.16631909013E+02  0.00000000000E+00 0. -1.
</event>
<event>
 7    1  0.1570834E-008  0.4614232E+02  0.7816164E-02  0.1320468E+00
        -11   -1    0    0    0    0  0.00000000000E+00  0.00000000000E+00  0.45593999997E+02  0.45594000000E+02  0.51100000000E-03 0.  1.
         11   -1    0    0    0    0 -0.00000000000E+00 -0.00000000000E+00 -0.45593999997E+02  0.45594000000E+02  0.51100000000E-03 0. -1.
    9900012    2    1    2    0    0 -0.17711691659E+02  0.20190709390E+02 -0.36162753683E+02  0.46142317399E+02  0.99999966958E+01 0.  0.
        -12    1    1    2    0    0  0.17711691659E+02 -0.20190709390E+02  0.36162753683E+02  0.45045682601E+02  0.00000000000E+00 0.  1.
         11    1    3    3    0    0 -0.96918119698E+01  0.12014209349E+02 -0.26697023331E+02  0.30838344646E+02  0.51100000000E-03 0. -1.
        -11    1    3    3    0    0 -0.70922800306E+01  0.53599781352E+01 -0.81480786394E+01  0.12059062460E+02  0.51100000000E-03 0.  1.
         12    1    3    3    0    0 -0.92759965846E+00  0.28165219051E+01 -0.13176517128E+01  0.32449102922E+01  0.00000000000E+00 0. -1.
</event>
<event>
 7    1  0.1549900E-008  0.4614232E+02  0.7816164E-02  0.1320468E+00
        -11   -1    0    0    0    0  0.00000000000E+00  0.00000000000E+00  0.45593999997E+02  0.45594000000E+02  0.51100000000E-03 0.  1.
         11   -1    0    0    0    0 -0.00000000000E+00 -0.00000000000E+00 -0.45593999997E+02  0.45594000000E+02  0.51100000000E-03 0. -1.
    9900012    2    1    2    0    0 -0.10539361705E+02 -0.34457140788E+01 -0.43659620112E+02  0.46142317422E+02  0.99999969052E+01 0.  0.
        -12    1    1    2    0    0  0.10539361705E+02  0.34457140788E+01  0.43659620112E+02  0.45045682578E+02  0.00000000000E+00 0.  1.
         11    1    3    3    0    0 -0.57637495980E+01  0.11769020930E+01 -0.24660909849E+02  0.25352837766E+02  0.51100000000E-03 0. -1.
        -11    1    3    3    0    0 -0.32952238724E+01 -0.51373943445E+01 -0.10479507756E+02  0.12127299950E+02  0.51100000000E-03 0.  1.
        -12    1    3    3    0    0 -0.14803882342E+01  0.51477817273E+00 -0.85192025069E+01  0.86621797052E+01  0.00000000000E+00 0.  1.
</event>
<event>
 7    1  0.1549900E-008  0.4614232E+02  0.7816164E-02  0.1320468E+00
        -11   -1    0    0    0    0  0.00000000000E+00  0.00000000000E+00  0.45593999997E+02  0.45594000000E+02  0.51100000000E-03 0.  1.
         11   -1    0    0    0    0 -0.00000000000E+00 -0.00000000000E+00 -0.45593999997E+02  0.45594000000E+02  0.51100000000E-03 0. -1.
    9900012    2    1    2    0    0 -0.39717848738E+01 -0.22946953085E+02 -0.38558730585E+02  0.46142318350E+02  0.10000005373E+02 0.  0.
        -12    1    1    2    0    0  0.39717848738E+01  0.22946953085E+02  0.38558730585E+02  0.45045681650E+02  0.00000000000E+00 0.  1.
         11    1    3    3    0    0  0.14012326029E-01 -0.60093314188E+01 -0.58675279188E+01  0.83988180469E+01  0.51100000000E-03 0. -1.
        -11    1    3    3    0    0 -0.19681276504E+01 -0.16399004193E+02 -0.26667586646E+02  0.31368153320E+02  0.51100000000E-03 0.  1.
        -12    1    3    3    0    0 -0.20176695494E+01 -0.53861747358E+00 -0.60236160203E+01  0.63753469830E+01  0.00000000000E+00 0.  1.
</event>
<event>
 7    1  0.1549900E-008  0.4614232E+02  0.7816164E-02  0.1320468E+00
        -11   -1    0    0    0    0  0.00000000000E+00  0.00000000000E+00  0.45593999997E+02  0.45594000000E+02  0.51100000000E-03 0.  1.
         11   -1    0    0    0    0 -0.00000000000E+00 -0.00000000000E+00 -0.45593999997E+02  0.45594000000E+02  0.51100000000E-03 0. -1.
    9900012    2    1    2    0    0  0.44755038017E+02 -0.19273976664E+01  0.47312848776E+01  0.46142319339E+02  0.10000014388E+02 0.  0.
        -12    1    1    2    0    0 -0.44755038017E+02  0.19273976664E+01 -0.47312848776E+01  0.45045680661E+02  0.00000000000E+00 0.  1.
         11    1    3    3    0    0  0.18484501422E+02 -0.17987701245E+01  0.27680475799E+00  0.18573879184E+02  0.51100000000E-03 0. -1.
        -11    1    3    3    0    0  0.87959804018E+01  0.26622853084E+01  0.35416918443E+01  0.98488890578E+01  0.51100000000E-03 0.  1.
        -12    1    3    3    0    0  0.17474556192E+02 -0.27909128502E+01  0.91278827532E+00  0.17719551097E+02  0.00000000000E+00 0.  1.
</event>
<event>
 7    1  0.1549900E-008  0.4614232E+02  0.7816164E-02  0.1320468E+00
        -11   -1    0    0    0    0  0.00000000000E+00  0.00000000000E+00  0.45593999997E+02  0.45594000000E+02  0.51100000000E-03 0.  1.
         11   -1    0    0    0    0 -0.00000000000E+00 -0.00000000000E+00 -0.45593999997E+02  0.45594000000E+02  0.51100000000E-03 0. -1.
    9900012    2    1    2    0    0  0.35855342631E+02 -0.23261735524E+02 -0.14226718177E+02  0.46142318244E+02  0.10000004402E+02 0.  0.
        -12    1    1    2    0    0 -0.35855342631E+02  0.23261735524E+02  0.14226718177E+02  0.45045681756E+02  0.00000000000E+00 0.  1.
         11    1    3    3    0    0  0.11413831384E+01  0.58191801164E+00 -0.28565967828E+00  0.13126255193E+01  0.51100000000E-03 0. -1.
        -11    1    3    3    0    0  0.15796860433E+02 -0.95258078796E+01 -0.92881145602E+01  0.20653108426E+02  0.51100000000E-03 0.  1.
        -12    1    3    3    0    0  0.18917099060E+02 -0.14317845656E+02 -0.46529439381E+01  0.24176584299E+02  0.00000000000E+00 0.  1.
</event>
<event>
 7    1  0.1549900E-008  0.4614232E+02  0.7816164E-02  0.1320468E+00
        -11   -1    0    0    0    0  0.00000000000E+00  0.00000000000E+00  0.45593999997E+02  0.45594000000E+02  0.51100000000E-03 0. -1.
         11   -1    0    0    0    0 -0.00000000000E+00 -0.00000000000E+00 -0.45593999997E+02  0.45594000000E+02  0.51100000000E-03 0.  1.
    9900012    2    1    2    0    0  0.14553739627E+02 -0.18010401390E+02  0.38638421874E+02  0.46142317185E+02  0.99999947428E+01 0.  0.
        -12    1    1    2    0    0 -0.14553739627E+02  0.18010401390E+02 -0.38638421874E+02  0.45045682815E+02  0.00000000000E+00 0.  1.
         11    1    3    3    0    0  0.14568982174E+02 -0.13786530688E+02  0.27544880364E+02  0.34074097266E+02  0.51100000000E-03 0. -1.
        -11    1    3    3    0    0 -0.10073775761E+01 -0.19667845687E+01  0.63268155724E+01  0.67016152284E+01  0.51100000000E-03 0.  1.
         12    1    3    3    0    0  0.99213502993E+00 -0.22570861332E+01  0.47667259382E+01  0.53666046901E+01  0.00000000000E+00 0. -1.
</event>
<event>
 7    1  0.1549900E-008  0.4614232E+02  0.7816164E-02  0.1320468E+00
        -11   -1    0    0    0    0  0.00000000000E+00  0.00000000000E+00  0.45593999997E+02  0.45594000000E+02  0.51100000000E-03 0. -1.
         11   -1    0    0    0    0 -0.00000000000E+00 -0.00000000000E+00 -0.45593999997E+02  0.45594000000E+02  0.51100000000E-03 0.  1.
    9900012    2    1    2    0    0 -0.20050564443E+02  0.39512273860E+02  0.81159456527E+01  0.46142317700E+02  0.99999994411E+01 0.  0.
        -12    1    1    2    0    0  0.20050564443E+02 -0.39512273860E+02 -0.81159456527E+01  0.45045682300E+02  0.00000000000E+00 0.  1.
         11    1    3    3    0    0 -0.30640607746E+01  0.69550004107E+01 -0.90203060643E+00  0.76533756356E+01  0.51100000000E-03 0. -1.
        -11    1    3    3    0    0 -0.76019516984E+01  0.17813498954E+02  0.13834579380E+01  0.19417115408E+02  0.51100000000E-03 0.  1.
        -12    1    3    3    0    0 -0.93845519697E+01  0.14743774495E+02  0.76345183212E+01  0.19071826657E+02  0.00000000000E+00 0.  1.
</event>
<event>
 7    1  0.1549900E-008  0.4614232E+02  0.7816164E-02  0.1320468E+00
        -11   -1    0    0    0    0  0.00000000000E+00  0.00000000000E+00  0.45593999997E+02  0.45594000000E+02  0.51100000000E-03 0.  1.
         11   -1    0    0    0    0 -0.00000000000E+00 -0.00000000000E+00 -0.45593999997E+02  0.45594000000E+02  0.51100000000E-03 0. -1.
    9900012    2    1    2    0    0  0.33719484867E+02  0.83727443286E+01 -0.28670663105E+02  0.46142318407E+02  0.10000005889E+02 0.  0.
        -12    1    1    2    0    0 -0.33719484867E+02 -0.83727443286E+01  0.28670663105E+02  0.45045681593E+02  0.00000000000E+00 0.  1.
         11    1    3    3    0    0  0.20197607807E+02  0.27217408465E+01 -0.15932575313E+02  0.25868865277E+02  0.51100000000E-03 0. -1.
        -11    1    3    3    0    0  0.10551763526E+00  0.14200750210E+01 -0.21670602958E+00  0.14403849489E+01  0.51100000000E-03 0.  1.
        -12    1    3    3    0    0  0.13416359425E+02  0.42309284611E+01 -0.12521381763E+02  0.18833068181E+02  0.00000000000E+00 0.  1.
</event>
<event>
 7    1  0.1549900E-008  0.4614232E+02  0.7816164E-02  0.1320468E+00
        -11   -1    0    0    0    0  0.00000000000E+00  0.00000000000E+00  0.45593999997E+02  0.45594000000E+02  0.51100000000E-03 0.  1.
         11   -1    0    0    0    0 -0.00000000000E+00 -0.00000000000E+00 -0.45593999997E+02  0.45594000000E+02  0.51100000000E-03 0. -1.
    9900012    2    1    2    0    0 -0.21460671234E+02 -0.32438639003E+02 -0.22721967890E+02  0.46142317243E+02  0.99999952772E+01 0.  0.
        -12    1    1    2    0    0  0.21460671234E+02  0.32438639003E+02  0.22721967890E+02  0.45045682757E+02  0.00000000000E+00 0.  1.
         11    1    3    3    0    0 -0.11173086214E+02 -0.13057945895E+02 -0.11817340430E+02  0.20856589885E+02  0.51100000000E-03 0. -1.
        -11    1    3    3    0    0 -0.51725621293E+00 -0.17450339888E+01 -0.32409557242E+01  0.37170541937E+01  0.51100000000E-03 0.  1.
         12    1    3    3    0    0 -0.97703288071E+01 -0.17635659119E+02 -0.76636717363E+01  0.21568673164E+02  0.00000000000E+00 0. -1.
</event>
<event>
 7    1  0.1549900E-008  0.4614232E+02  0.7816164E-02  0.1320468E+00
        -11   -1    0    0    0    0  0.00000000000E+00  0.00000000000E+00  0.45593999997E+02  0.45594000000E+02  0.51100000000E-03 0.  1.
         11   -1    0    0    0    0 -0.00000000000E+00 -0.00000000000E+00 -0.45593999997E+02  0.45594000000E+02  0.51100000000E-03 0. -1.
    9900012    2    1    2    0    0  0.25351878917E+01  0.42308394909E+02 -0.15254049013E+02  0.46142317980E+02  0.10000001993E+02 0.  0.
        -12    1    1    2    0    0 -0.25351878917E+01 -0.42308394909E+02  0.15254049013E+02  0.45045682020E+02  0.00000000000E+00 0.  1.
         11    1    3    3    0    0 -0.10689177648E+00  0.17467404115E+02 -0.98185188750E+01  0.20038087372E+02  0.51100000000E-03 0. -1.
        -11    1    3    3    0    0  0.39711642964E+01  0.14589248576E+02 -0.42037788892E+01  0.15693568016E+02  0.51100000000E-03 0.  1.
         12    1    3    3    0    0 -0.13290846283E+01  0.10251742218E+02 -0.12317512490E+01  0.10410662591E+02  0.00000000000E+00 0. -1.
</event>
<event>
 7    1  0.1549900E-008  0.4614232E+02  0.7816164E-02  0.1320468E+00
        -11   -1    0    0    0    0  0.00000000000E+00  0.00000000000E+00  0.45593999997E+02  0.45594000000E+02  0.51100000000E-03 0.  1.
         11   -1    0    0    0    0 -0.00000000000E+00 -0.00000000000E+00 -0.45593999997E+02  0.45594000000E+02  0.51100000000E-03 0. -1.
    9900012    2    1    2    0    0 -0.14472073038E+02  0.36962661451E+01 -0.42497180823E+02  0.46142315863E+02  0.99999826910E+01 0.  0.
        -12    1    1    2    0    0  0.14472073038E+02 -0.36962661451E+01  0.42497180823E+02  0.45045684137E+02  0.00000000000E+00 0.  1.
         11    1    3    3    0    0 -0.46891547198E+01 -0.73740579994E+00 -0.16957400161E+02  0.17609240749E+02  0.51100000000E-03 0. -1.
        -11    1    3    3    0    0 -0.67845599129E+01  0.23467729285E+01 -0.85938297046E+01  0.11197834864E+02  0.51100000000E-03 0.  1.
        -12    1    3    3    0    0 -0.29983584056E+01  0.20868990166E+01 -0.16945950958E+02  0.17335240250E+02  0.00000000000E+00 0.  1.
</event>
<event>
 7    1  0.1549900E-008  0.4614232E+02  0.7816164E-02  0.1320468E+00
        -11   -1    0    0    0    0  0.00000000000E+00  0.00000000000E+00  0.45593999997E+02  0.45594000000E+02  0.51100000000E-03 0.  1.
         11   -1    0    0    0    0 -0.00000000000E+00 -0.00000000000E+00 -0.45593999997E+02  0.45594000000E+02  0.51100000000E-03 0. -1.
    9900012    2    1    2    0    0 -0.43505621855E+02 -0.96719229745E+01 -0.65443211448E+01  0.46142319116E+02  0.10000012355E+02 0.  0.
        -12    1    1    2    0    0  0.43505621855E+02  0.96719229745E+01  0.65443211448E+01  0.45045680884E+02  0.00000000000E+00 0.  1.
         11    1    3    3    0    0 -0.10859483125E+02  0.11123699021E+01 -0.13385980983E+01  0.10998071907E+02  0.51100000000E-03 0. -1.
        -11    1    3    3    0    0 -0.71003962943E+01 -0.19766963076E+00 -0.96201813245E+00  0.71679969285E+01  0.51100000000E-03 0.  1.
         12    1    3    3    0    0 -0.25545742436E+02 -0.10586623246E+02 -0.42437049140E+01  0.27976250281E+02  0.00000000000E+00 0. -1.
</event>
<event>
 7    1  0.1549900E-008  0.4614232E+02  0.7816164E-02  0.1320468E+00
        -11   -1    0    0    0    0  0.00000000000E+00  0.00000000000E+00  0.45593999997E+02  0.45594000000E+02  0.51100000000E-03 0.  1.
         11   -1    0    0    0    0 -0.00000000000E+00 -0.00000000000E+00 -0.45593999997E+02  0.45594000000E+02  0.51100000000E-03 0. -1.
    9900012    2    1    2    0    0  0.66352051035E+01  0.44279373042E+02 -0.49421231253E+01  0.46142318690E+02  0.10000008467E+02 0.  0.
        -12    1    1    2    0    0 -0.66352051035E+01 -0.44279373042E+02  0.49421231253E+01  0.45045681310E+02  0.00000000000E+00 0.  1.
         11    1    3    3    0    0  0.19589297251E+01  0.16316392486E+02 -0.19109776762E+01  0.16544301296E+02  0.51100000000E-03 0. -1.
        -11    1    3    3    0    0 -0.14465870081E+00  0.68655240494E+01 -0.39780161671E+01  0.79360544037E+01  0.51100000000E-03 0.  1.
        -12    1    3    3    0    0  0.48209340793E+01  0.21097456506E+02  0.94687071797E+00  0.21661962990E+02  0.00000000000E+00 0.  1.
</event>
<event>
 7    1  0.1549900E-008  0.4614232E+02  0.7816164E-02  0.1320468E+00
        -11   -1    0    0    0    0  0.00000000000E+00  0.00000000000E+00  0.45593999997E+02  0.45594000000E+02  0.51100000000E-03 0. -1.
         11   -1    0    0    0    0 -0.00000000000E+00 -0.00000000000E+00 -0.45593999997E+02  0.45594000000E+02  0.51100000000E-03 0.  1.
    9900012    2    1    2    0    0 -0.15323555330E+02 -0.36574424167E+02  0.21368520599E+02  0.46142317369E+02  0.99999964217E+01 0.  0.
        -12    1    1    2    0    0  0.15323555330E+02  0.36574424167E+02 -0.21368520599E+02  0.45045682631E+02  0.00000000000E+00 0.  1.
         11    1    3    3    0    0 -0.70073483485E+01 -0.20049430263E+02  0.10158358054E+02  0.23543041931E+02  0.51100000000E-03 0. -1.
        -11    1    3    3    0    0 -0.26215110612E+01 -0.36873249111E+01  0.62276936187E+01  0.76975874996E+01  0.51100000000E-03 0.  1.
        -12    1    3    3    0    0 -0.56946959204E+01 -0.12837668993E+02  0.49824689265E+01  0.14901687938E+02  0.00000000000E+00 0.  1.
</event>
<event>
 7    1  0.1549900E-008  0.4614232E+02  0.7816164E-02  0.1320468E+00
        -11   -1    0    0    0    0  0.00000000000E+00  0.00000000000E+00  0.45593999997E+02  0.45594000000E+02  0.51100000000E-03 0. -1.
         11   -1    0    0    0    0 -0.00000000000E+00 -0.00000000000E+00 -0.45593999997E+02  0.45594000000E+02  0.51100000000E-03 0.  1.
    9900012    2    1    2    0    0 -0.23152365037E+02  0.38316628553E+02  0.49917396280E+01  0.46142317688E+02  0.99999993324E+01 0.  0.
        -12    1    1    2    0    0  0.23152365037E+02 -0.38316628553E+02 -0.49917396280E+01  0.45045682312E+02  0.00000000000E+00 0.  1.
         11    1    3    3    0    0 -0.15634777830E+02  0.26594899744E+02  0.73805810256E+01  0.31720780991E+02  0.51100000000E-03 0. -1.
        -11    1    3    3    0    0 -0.44109764083E+01  0.92513308984E+01 -0.18770984423E+01  0.10419565014E+02  0.51100000000E-03 0.  1.
        -12    1    3    3    0    0 -0.31066107988E+01  0.24703979105E+01 -0.51174295534E+00  0.40019716820E+01  0.00000000000E+00 0.  1.
</event>
<event>
 7    1  0.1549900E-008  0.4614232E+02  0.7816164E-02  0.1320468E+00
        -11   -1    0    0    0    0  0.00000000000E+00  0.00000000000E+00  0.45593999997E+02  0.45594000000E+02  0.51100000000E-03 0.  1.
         11   -1    0    0    0    0 -0.00000000000E+00 -0.00000000000E+00 -0.45593999997E+02  0.45594000000E+02  0.51100000000E-03 0. -1.
    9900012    2    1    2    0    0  0.42761491412E+02  0.11631652252E+02 -0.80791737563E+01  0.46142317294E+02  0.99999957366E+01 0.  0.
        -12    1    1    2    0    0 -0.42761491412E+02 -0.11631652252E+02  0.80791737563E+01  0.45045682706E+02  0.00000000000E+00 0.  1.
         11    1    3    3    0    0  0.28169245791E+02  0.74540834228E+01 -0.53161276980E+01  0.29619773498E+02  0.51100000000E-03 0. -1.
        -11    1    3    3    0    0  0.12023068115E+02  0.55910642707E+01 -0.15521953263E+01  0.13350036598E+02  0.51100000000E-03 0.  1.
        -12    1    3    3    0    0  0.25691775058E+01 -0.14134954419E+01 -0.12108507320E+01  0.31725071972E+01  0.00000000000E+00 0.  1.
</event>
<event>
 7    1  0.1549900E-008  0.4614232E+02  0.7816164E-02  0.1320468E+00
        -11   -1    0    0    0    0  0.00000000000E+00  0.00000000000E+00  0.45593999997E+02  0.45594000000E+02  0.51100000000E-03 0. -1.
         11   -1    0    0    0    0 -0.00000000000E+00 -0.00000000000E+00 -0.45593999997E+02  0.45594000000E+02  0.51100000000E-03 0.  1.
    9900012    2    1    2    0    0 -0.35830219027E+02  0.62813382339E+01  0.26567904027E+02  0.46142319520E+02  0.10000016036E+02 0.  0.
        -12    1    1    2    0    0  0.35830219027E+02 -0.62813382339E+01 -0.26567904027E+02  0.45045680480E+02  0.00000000000E+00 0.  1.
         11    1    3    3    0    0 -0.59203440768E+01  0.38314534258E+01  0.39554302283E+01  0.80855388128E+01  0.51100000000E-03 0. -1.
        -11    1    3    3    0    0 -0.17537151492E+02 -0.13174576316E+01  0.11576799752E+02  0.21054920323E+02  0.51100000000E-03 0.  1.
         12    1    3    3    0    0 -0.12372723459E+02  0.37673424396E+01  0.11035674047E+02  0.17001860384E+02  0.00000000000E+00 0. -1.
</event>
<event>
 7    1  0.1549900E-008  0.4614232E+02  0.7816164E-02  0.1320468E+00
        -11   -1    0    0    0    0  0.00000000000E+00  0.00000000000E+00  0.45593999997E+02  0.45594000000E+02  0.51100000000E-03 0. -1.
         11   -1    0    0    0    0 -0.00000000000E+00 -0.00000000000E+00 -0.45593999997E+02  0.45594000000E+02  0.51100000000E-03 0.  1.
    9900012    2    1    2    0    0 -0.29420742735E+02  0.17056459453E+02  0.29539983043E+02  0.46142317517E+02  0.99999977767E+01 0.  0.
        -12    1    1    2    0    0  0.29420742735E+02 -0.17056459453E+02 -0.29539983043E+02  0.45045682483E+02  0.00000000000E+00 0.  1.
         11    1    3    3    0    0 -0.21971992565E+02  0.10946081047E+02  0.24716032703E+02  0.34834859270E+02  0.51100000000E-03 0. -1.
        -11    1    3    3    0    0 -0.31730175843E+01  0.47980667557E+01  0.28218153588E+01  0.64071934076E+01  0.51100000000E-03 0.  1.
        -12    1    3    3    0    0 -0.42757325855E+01  0.13123116510E+01  0.20021349815E+01  0.49002648394E+01  0.00000000000E+00 0.  1.
</event>
<event>
 7    1  0.1549900E-008  0.4614232E+02  0.7816164E-02  0.1320468E+00
        -11   -1    0    0    0    0  0.00000000000E+00  0.00000000000E+00  0.45593999997E+02  0.45594000000E+02  0.51100000000E-03 0.  1.
         11   -1    0    0    0    0 -0.00000000000E+00 -0.00000000000E+00 -0.45593999997E+02  0.45594000000E+02  0.51100000000E-03 0. -1.
    9900012    2    1    2    0    0  0.28467046174E+02 -0.29292392500E+02 -0.18992011153E+02  0.46142318033E+02  0.10000002478E+02 0.  0.
        -12    1    1    2    0    0 -0.28467046174E+02  0.29292392500E+02  0.18992011153E+02  0.45045681967E+02  0.00000000000E+00 0.  1.
         11    1    3    3    0    0  0.42680162312E+01 -0.39764006862E+01  0.16362634736E+00  0.58356232580E+01  0.51100000000E-03 0. -1.
        -11    1    3    3    0    0  0.83797307808E+01 -0.10125641174E+02 -0.10114024820E+02  0.16584390115E+02  0.51100000000E-03 0.  1.
         12    1    3    3    0    0  0.15819299162E+02 -0.15190350640E+02 -0.90416126800E+01  0.23722304660E+02  0.00000000000E+00 0. -1.
</event>
<event>
 7    1  0.1549900E-008  0.4614232E+02  0.7816164E-02  0.1320468E+00
        -11   -1    0    0    0    0  0.00000000000E+00  0.00000000000E+00  0.45593999997E+02  0.45594000000E+02  0.51100000000E-03 0. -1.
         11   -1    0    0    0    0 -0.00000000000E+00 -0.00000000000E+00 -0.45593999997E+02  0.45594000000E+02  0.51100000000E-03 0.  1.
    9900012    2    1    2    0    0 -0.26233800760E+02  0.31213113919E+02  0.19147914970E+02  0.46142318403E+02  0.10000005856E+02 0.  0.
        -12    1    1    2    0    0  0.26233800760E+02 -0.31213113919E+02 -0.19147914970E+02  0.45045681597E+02  0.00000000000E+00 0.  1.
         11    1    3    3    0    0 -0.42742048568E+01  0.62257248749E+01  0.40040688066E+00  0.75623279027E+01  0.51100000000E-03 0. -1.
        -11    1    3    3    0    0 -0.92804937991E+01  0.92149959692E+01  0.10314905915E+02  0.16656560274E+02  0.51100000000E-03 0.  1.
         12    1    3    3    0    0 -0.12679102104E+02  0.15772393075E+02  0.84326021738E+01  0.21923430226E+02  0.00000000000E+00 0. -1.
</event>
<event>
 7    1  0.1549900E-008  0.4614232E+02  0.7816164E-02  0.1320468E+00
        -11   -1    0    0    0    0  0.00000000000E+00  0.00000000000E+00  0.45593999997E+02  0.45594000000E+02  0.51100000000E-03 0.  1.
         11   -1    0    0    0    0 -0.00000000000E+00 -0.00000000000E+00 -0.45593999997E+02  0.45594000000E+02  0.51100000000E-03 0. -1.
    9900012    2    1    2    0    0 -0.18083639135E+01  0.37943625883E+02 -0.24210009974E+02  0.46142317542E+02  0.99999980004E+01 0.  0.
        -12    1    1    2    0    0  0.18083639135E+01 -0.37943625883E+02  0.24210009974E+02  0.45045682458E+02  0.00000000000E+00 0.  1.
         11    1    3    3    0    0  0.30926846829E+01  0.14230485387E+02 -0.11406194034E+02  0.18497910031E+02  0.51100000000E-03 0. -1.
        -11    1    3    3    0    0 -0.16933655250E+01  0.16708734217E+02 -0.89506412552E+01  0.19030587618E+02  0.51100000000E-03 0.  1.
         12    1    3    3    0    0 -0.32076830715E+01  0.70044062788E+01 -0.38531746851E+01  0.86138198936E+01  0.00000000000E+00 0. -1.
</event>
<event>
 7    1  0.1549900E-008  0.4614232E+02  0.7816164E-02  0.1320468E+00
        -11   -1    0    0    0    0  0.00000000000E+00  0.00000000000E+00  0.45593999997E+02  0.45594000000E+02  0.51100000000E-03 0.  1.
         11   -1    0    0    0    0 -0.00000000000E+00 -0.00000000000E+00 -0.45593999997E+02  0.45594000000E+02  0.51100000000E-03 0. -1.
    9900012    2    1    2    0    0 -0.82683250129E+01 -0.26178304841E+02 -0.35713368333E+02  0.46142317403E+02  0.99999967390E+01 0.  0.
        -12    1    1    2    0    0  0.82683250129E+01  0.26178304841E+02  0.35713368333E+02  0.45045682597E+02  0.00000000000E+00 0.  1.
         11    1    3    3    0    0 -0.54834318086E+01 -0.49739637900E+01 -0.90702017820E+01  0.11707984490E+02  0.51100000000E-03 0. -1.
        -11    1    3    3    0    0 -0.74302358543E+00 -0.85870896708E+01 -0.75519347382E+01  0.11459577288E+02  0.51100000000E-03 0.  1.
         12    1    3    3    0    0 -0.20418696189E+01 -0.12617251381E+02 -0.19091231813E+02  0.22974755626E+02  0.00000000000E+00 0. -1.
</event>
<event>
 7    1  0.1549900E-008  0.4614232E+02  0.7816164E-02  0.1320468E+00
        -11   -1    0    0    0    0  0.00000000000E+00  0.00000000000E+00  0.45593999997E+02  0.45594000000E+02  0.51100000000E-03 0.  1.
         11   -1    0    0    0    0 -0.00000000000E+00 -0.00000000000E+00 -0.45593999997E+02  0.45594000000E+02  0.51100000000E-03 0. -1.
    9900012    2    1    2    0    0  0.99603512416E+01  0.31009313819E+02 -0.31117958031E+02  0.46142318160E+02  0.10000003637E+02 0.  0.
        -12    1    1    2    0    0 -0.99603512416E+01 -0.31009313819E+02  0.31117958031E+02  0.45045681840E+02  0.00000000000E+00 0.  1.
         11    1    3    3    0    0 -0.12698752869E+01  0.25909627518E+01 -0.24705939569E+01  0.37986189578E+01  0.51100000000E-03 0. -1.
        -11    1    3    3    0    0  0.97460024566E+01  0.16632497245E+02 -0.18551069983E+02  0.26753817041E+02  0.51100000000E-03 0.  1.
        -12    1    3    3    0    0  0.14842240719E+01  0.11785853823E+02 -0.10096294092E+02  0.15589882161E+02  0.00000000000E+00 0.  1.
</event>
<event>
 7    1  0.1549900E-008  0.4614232E+02  0.7816164E-02  0.1320468E+00
        -11   -1    0    0    0    0  0.00000000000E+00  0.00000000000E+00  0.45593999997E+02  0.45594000000E+02  0.51100000000E-03 0.  1.
         11   -1    0    0    0    0 -0.00000000000E+00 -0.00000000000E+00 -0.45593999997E+02  0.45594000000E+02  0.51100000000E-03 0. -1.
    9900012    2    1    2    0    0 -0.39259781572E+02 -0.21530331033E+02 -0.49221915141E+01  0.46142316824E+02  0.99999914538E+01 0.  0.
        -12    1    1    2    0    0  0.39259781572E+02  0.21530331033E+02  0.49221915141E+01  0.45045683176E+02  0.00000000000E+00 0.  1.
         11    1    3    3    0    0 -0.31798053702E+01 -0.30417806976E+01 -0.81792423600E+00  0.44757784039E+01  0.51100000000E-03 0. -1.
        -11    1    3    3    0    0 -0.49339724497E+01 -0.62329832313E+01 -0.34527051594E-01  0.79495507090E+01  0.51100000000E-03 0.  1.
        -12    1    3    3    0    0 -0.31146003752E+02 -0.12255567104E+02 -0.40697402265E+01  0.33716987711E+02  0.00000000000E+00 0.  1.
</event>
<event>
 7    1  0.1549900E-008  0.4614232E+02  0.7816164E-02  0.1320468E+00
        -11   -1    0    0    0    0  0.00000000000E+00  0.00000000000E+00  0.45593999997E+02  0.45594000000E+02  0.51100000000E-03 0. -1.
         11   -1    0    0    0    0 -0.00000000000E+00 -0.00000000000E+00 -0.45593999997E+02  0.45594000000E+02  0.51100000000E-03 0.  1.
    9900012    2    1    2    0    0 -0.21325456783E+02  0.27773090176E+02  0.28337143326E+02  0.46142319443E+02  0.10000015339E+02 0.  0.
        -12    1    1    2    0    0  0.21325456783E+02 -0.27773090176E+02 -0.28337143326E+02  0.45045680557E+02  0.00000000000E+00 0.  1.
         11    1    3    3    0    0 -0.99312645690E+01  0.18125327267E+02  0.16068919854E+02  0.26179528071E+02  0.51100000000E-03 0. -1.
        -11    1    3    3    0    0 -0.43180541957E+01  0.75498808676E+00  0.34020255827E+01  0.55488176556E+01  0.51100000000E-03 0.  1.
        -12    1    3    3    0    0 -0.70761380178E+01  0.88927748223E+01  0.88661978896E+01  0.14413973717E+02  0.00000000000E+00 0.  1.
</event>
<event>
 7    1  0.1549900E-008  0.4614232E+02  0.7816164E-02  0.1320468E+00
        -11   -1    0    0    0    0  0.00000000000E+00  0.00000000000E+00  0.45593999997E+02  0.45594000000E+02  0.51100000000E-03 0.  1.
         11   -1    0    0    0    0 -0.00000000000E+00 -0.00000000000E+00 -0.45593999997E+02  0.45594000000E+02  0.51100000000E-03 0. -1.
    9900012    2    1    2    0    0 -0.21806463889E+02  0.33848477965E+02 -0.20195843781E+02  0.46142318365E+02  0.10000005510E+02 0.  0.
        -12    1    1    2    0    0  0.21806463889E+02 -0.33848477965E+02  0.20195843781E+02  0.45045681635E+02  0.00000000000E+00 0.  1.
         11    1    3    3    0    0 -0.57218694340E+01  0.58439794599E+01 -0.84436982028E+01  0.11755336037E+02  0.51100000000E-03 0. -1.
        -11    1    3    3    0    0 -0.15531888196E+02  0.26675342050E+02 -0.11395520040E+02  0.32903970911E+02  0.51100000000E-03 0.  1.
         12    1    3    3    0    0 -0.55270625866E+00  0.13291564548E+01 -0.35662553840E+00  0.14830114175E+01  0.00000000000E+00 0. -1.
</event>
<event>
 7    1  0.1549900E-008  0.4614232E+02  0.7816164E-02  0.1320468E+00
        -11   -1    0    0    0    0  0.00000000000E+00  0.00000000000E+00  0.45593999997E+02  0.45594000000E+02  0.51100000000E-03 0.  1.
         11   -1    0    0    0    0 -0.00000000000E+00 -0.00000000000E+00 -0.45593999997E+02  0.45594000000E+02  0.51100000000E-03 0. -1.
    9900012    2    1    2    0    0  0.94809920294E+01  0.21347430288E+02 -0.38516379332E+02  0.46142318002E+02  0.10000002201E+02 0.  0.
        -12    1    1    2    0    0 -0.94809920294E+01 -0.21347430288E+02  0.38516379332E+02  0.45045681998E+02  0.00000000000E+00 0.  1.
         11    1    3    3    0    0 -0.62180437594E+00  0.14712639340E+01 -0.71801067636E+01  0.73556231308E+01  0.51100000000E-03 0. -1.
        -11    1    3    3    0    0  0.96936723994E+00  0.69792277114E+01 -0.92129169195E+01  0.11598583134E+02  0.51100000000E-03 0.  1.
         12    1    3    3    0    0  0.91334291654E+01  0.12896938643E+02 -0.22123355649E+02  0.27188111737E+02  0.00000000000E+00 0. -1.
</event>
<event>
 7    1  0.1549900E-008  0.4614232E+02  0.7816164E-02  0.1320468E+00
        -11   -1    0    0    0    0  0.00000000000E+00  0.00000000000E+00  0.45593999997E+02  0.45594000000E+02  0.51100000000E-03 0.  1.
         11   -1    0    0    0    0 -0.00000000000E+00 -0.00000000000E+00 -0.45593999997E+02  0.45594000000E+02  0.51100000000E-03 0. -1.
    9900012    2    1    2    0    0 -0.16277976842E+02 -0.35333851616E+02 -0.22708147805E+02  0.46142316780E+02  0.99999910502E+01 0.  0.
        -12    1    1    2    0    0  0.16277976842E+02  0.35333851616E+02  0.22708147805E+02  0.45045683220E+02  0.00000000000E+00 0.  1.
         11    1    3    3    0    0 -0.65122487307E+01 -0.24180765074E+02 -0.15612958095E+02  0.29510730994E+02  0.51100000000E-03 0. -1.
        -11    1    3    3    0    0 -0.81255446269E+01 -0.77144987376E+01 -0.57307094922E+01  0.12584871783E+02  0.51100000000E-03 0.  1.
         12    1    3    3    0    0 -0.16401834841E+01 -0.34385878043E+01 -0.13644802177E+01  0.40467140020E+01  0.00000000000E+00 0. -1.
</event>
<event>
 7    1  0.1549900E-008  0.4614231E+02  0.7816164E-02  0.1320468E+00
        -11   -1    0    0    0    0  0.00000000000E+00  0.00000000000E+00  0.45593999997E+02  0.45594000000E+02  0.51100000000E-03 0.  1.
         11   -1    0    0    0    0 -0.00000000000E+00 -0.00000000000E+00 -0.45593999997E+02  0.45594000000E+02  0.51100000000E-03 0. -1.
    9900012    2    1    2    0    0 -0.41876116802E+01 -0.34927274184E+01 -0.44714417046E+02  0.46142308440E+02  0.99999150017E+01 0.  0.
        -12    1    1    2    0    0  0.41876116802E+01  0.34927274184E+01  0.44714417046E+02  0.45045691560E+02  0.00000000000E+00 0.  1.
         11    1    3    3    0    0 -0.20275611587E+01 -0.55638675319E+00 -0.31121574616E+02  0.31192514765E+02  0.51100000000E-03 0. -1.
        -11    1    3    3    0    0 -0.23074006081E+01 -0.32607373755E+01 -0.52379516316E+01  0.65873092651E+01  0.51100000000E-03 0.  1.
        -12    1    3    3    0    0  0.14735008659E+00  0.32439671027E+00 -0.83548907975E+01  0.83624844102E+01  0.00000000000E+00 0.  1.
</event>
<event>
 7    1  0.1549900E-008  0.4614232E+02  0.7816164E-02  0.1320468E+00
        -11   -1    0    0    0    0  0.00000000000E+00  0.00000000000E+00  0.45593999997E+02  0.45594000000E+02  0.51100000000E-03 0.  1.
         11   -1    0    0    0    0 -0.00000000000E+00 -0.00000000000E+00 -0.45593999997E+02  0.45594000000E+02  0.51100000000E-03 0. -1.
    9900012    2    1    2    0    0 -0.10171974638E+02 -0.35144377419E+02 -0.26277693500E+02  0.46142317545E+02  0.99999980290E+01 0.  0.
        -12    1    1    2    0    0  0.10171974638E+02  0.35144377419E+02  0.26277693500E+02  0.45045682455E+02  0.00000000000E+00 0.  1.
         11    1    3    3    0    0 -0.25795560240E+01 -0.19095972623E+02 -0.12289999173E+02  0.22855072952E+02  0.51100000000E-03 0. -1.
        -11    1    3    3    0    0 -0.23958347394E+01 -0.74933215483E+01 -0.29892084716E+01  0.84157744429E+01  0.51100000000E-03 0.  1.
        -12    1    3    3    0    0 -0.51965838743E+01 -0.85550832477E+01 -0.10998485855E+02  0.14871470150E+02  0.00000000000E+00 0.  1.
</event>
<event>
 7    1  0.1549900E-008  0.4614232E+02  0.7816164E-02  0.1320468E+00
        -11   -1    0    0    0    0  0.00000000000E+00  0.00000000000E+00  0.45593999997E+02  0.45594000000E+02  0.51100000000E-03 0.  1.
         11   -1    0    0    0    0 -0.00000000000E+00 -0.00000000000E+00 -0.45593999997E+02  0.45594000000E+02  0.51100000000E-03 0. -1.
    9900012    2    1    2    0    0  0.38676730888E+02 -0.35336251400E+01 -0.22819672782E+02  0.46142317802E+02  0.10000000374E+02 0.  0.
        -12    1    1    2    0    0 -0.38676730888E+02  0.35336251400E+01  0.22819672782E+02  0.45045682198E+02  0.00000000000E+00 0.  1.
         11    1    3    3    0    0 -0.23522346344E+00 -0.66153158528E+00 -0.12872935823E+01  0.14663148176E+01  0.51100000000E-03 0.  1.
        -11    1    3    3    0    0  0.35720524625E+02 -0.17962059954E+01 -0.19376086965E+02  0.40676958857E+02  0.51100000000E-03 0. -1.
        -12    1    3    3    0    0  0.31914297261E+01 -0.10758875593E+01 -0.21562922345E+01  0.39990441279E+01  0.00000000000E+00 0.  1.
</event>
<event>
 7    1  0.1549900E-008  0.4614232E+02  0.7816164E-02  0.1320468E+00
        -11   -1    0    0    0    0  0.00000000000E+00  0.00000000000E+00  0.45593999997E+02  0.45594000000E+02  0.51100000000E-03 0.  1.
         11   -1    0    0    0    0 -0.00000000000E+00 -0.00000000000E+00 -0.45593999997E+02  0.45594000000E+02  0.51100000000E-03 0. -1.
    9900012    2    1    2    0    0  0.19062729676E+02 -0.12600422813E+02 -0.38819520387E+02  0.46142317845E+02  0.10000000761E+02 0.  0.
        -12    1    1    2    0    0 -0.19062729676E+02  0.12600422813E+02  0.38819520387E+02  0.45045682155E+02  0.00000000000E+00 0.  1.
         11    1    3    3    0    0  0.13445044938E+02 -0.59818003943E+01 -0.19698026890E+02  0.24587871663E+02  0.51100000000E-03 0. -1.
        -11    1    3    3    0    0  0.60539827995E+00 -0.44232968827E+01 -0.80784425174E+01  0.92300214604E+01  0.51100000000E-03 0.  1.
        -12    1    3    3    0    0  0.50122864585E+01 -0.21953255357E+01 -0.11043050980E+02  0.12324424721E+02  0.00000000000E+00 0.  1.
</event>
<event>
 7    1  0.1549900E-008  0.4614232E+02  0.7816164E-02  0.1320468E+00
        -11   -1    0    0    0    0  0.00000000000E+00  0.00000000000E+00  0.45593999997E+02  0.45594000000E+02  0.51100000000E-03 0.  1.
         11   -1    0    0    0    0 -0.00000000000E+00 -0.00000000000E+00 -0.45593999997E+02  0.45594000000E+02  0.51100000000E-03 0. -1.
    9900012    2    1    2    0    0  0.37453730054E+02 -0.21300282427E+02 -0.13138861814E+02  0.46142316342E+02  0.99999870632E+01 0.  0.
        -12    1    1    2    0    0 -0.37453730054E+02  0.21300282427E+02  0.13138861814E+02  0.45045683658E+02  0.00000000000E+00 0.  1.
         11    1    3    3    0    0  0.23611425745E+02 -0.10803260712E+02 -0.96241276911E+01  0.27691762346E+02  0.51100000000E-03 0. -1.
        -11    1    3    3    0    0  0.95136438180E+01 -0.93734659855E+01 -0.11851014398E+01  0.13408047918E+02  0.51100000000E-03 0.  1.
        -12    1    3    3    0    0  0.43286604905E+01 -0.11235557293E+01 -0.23296326830E+01  0.50425060790E+01  0.00000000000E+00 0.  1.
</event>
<event>
 7    1  0.1549900E-008  0.4614232E+02  0.7816164E-02  0.1320468E+00
        -11   -1    0    0    0    0  0.00000000000E+00  0.00000000000E+00  0.45593999997E+02  0.45594000000E+02  0.51100000000E-03 0. -1.
         11   -1    0    0    0    0 -0.00000000000E+00 -0.00000000000E+00 -0.45593999997E+02  0.45594000000E+02  0.51100000000E-03 0.  1.
    9900012    2    1    2    0    0 -0.41294580563E+02  0.12661739806E+02 -0.12788723560E+02  0.46142317753E+02  0.99999999275E+01 0.  0.
        -12    1    1    2    0    0  0.41294580563E+02 -0.12661739806E+02  0.12788723560E+02  0.45045682247E+02  0.00000000000E+00 0.  1.
         11    1    3    3    0    0 -0.14591418738E+02  0.36699285779E+01 -0.11325975463E+01  0.15088427818E+02  0.51100000000E-03 0. -1.
        -11    1    3    3    0    0 -0.45238169815E+01  0.35944018233E+00  0.33222418071E-01  0.45381958218E+01  0.51100000000E-03 0.  1.
         12    1    3    3    0    0 -0.22179344844E+02  0.86323710458E+01 -0.11689348432E+02  0.26515694114E+02  0.00000000000E+00 0. -1.
</event>
<event>
 7    1  0.1549900E-008  0.4614232E+02  0.7816164E-02  0.1320468E+00
        -11   -1    0    0    0    0  0.00000000000E+00  0.00000000000E+00  0.45593999997E+02  0.45594000000E+02  0.51100000000E-03 0. -1.
         11   -1    0    0    0    0 -0.00000000000E+00 -0.00000000000E+00 -0.45593999997E+02  0.45594000000E+02  0.51100000000E-03 0.  1.
    9900012    2    1    2    0    0  0.71077334376E+01 -0.10463273480E+02  0.43233245749E+02  0.46142317582E+02  0.99999983646E+01 0.  0.
        -12    1    1    2    0    0 -0.71077334376E+01  0.10463273480E+02 -0.43233245749E+02  0.45045682418E+02  0.00000000000E+00 0.  1.
         11    1    3    3    0    0  0.44603776570E+01 -0.10266520175E+02  0.30394235524E+02  0.32389905197E+02  0.51100000000E-03 0. -1.
        -11    1    3    3    0    0  0.16172319737E+01 -0.75688855550E+00  0.12355851423E+02  0.12484205389E+02  0.51100000000E-03 0.  1.
        -12    1    3    3    0    0  0.10301238070E+01  0.56013525014E+00  0.48315880216E+00  0.12682069958E+01  0.00000000000E+00 0.  1.
</event>
<event>
 7    1  0.1549900E-008  0.4614231E+02  0.7816164E-02  0.1320468E+00
        -11   -1    0    0    0    0  0.00000000000E+00  0.00000000000E+00  0.45593999997E+02  0.45594000000E+02  0.51100000000E-03 0.  1.
         11   -1    0    0    0    0 -0.00000000000E+00 -0.00000000000E+00 -0.45593999997E+02  0.45594000000E+02  0.51100000000E-03 0. -1.
    9900012    2    1    2    0    0 -0.12222018665E+02 -0.64681510935E+01 -0.42870726183E+02  0.46142313389E+02  0.99999601328E+01 0.  0.
        -12    1    1    2    0    0  0.12222018665E+02  0.64681510935E+01  0.42870726183E+02  0.45045686611E+02  0.00000000000E+00 0.  1.
         11    1    3    3    0    0 -0.73135851422E+01 -0.37869212114E+01 -0.26577525217E+02  0.27824344499E+02  0.51100000000E-03 0. -1.
        -11    1    3    3    0    0  0.76997650115E+00 -0.25750729691E+01 -0.49648772216E+01  0.56456948815E+01  0.51100000000E-03 0.  1.
         12    1    3    3    0    0 -0.56784100244E+01 -0.10615691301E+00 -0.11328323744E+02  0.12672274009E+02  0.00000000000E+00 0. -1.
</event>
<event>
 7    1  0.1549900E-008  0.4614231E+02  0.7816164E-02  0.1320468E+00
        -11   -1    0    0    0    0  0.00000000000E+00  0.00000000000E+00  0.45593999997E+02  0.45594000000E+02  0.51100000000E-03 0.  1.
         11   -1    0    0    0    0 -0.00000000000E+00 -0.00000000000E+00 -0.45593999997E+02  0.45594000000E+02  0.51100000000E-03 0. -1.
    9900012    2    1    2    0    0  0.12699240390E+02  0.36608252854E+02 -0.22971279660E+02  0.46142305725E+02  0.99998902405E+01 0.  0.
        -12    1    1    2    0    0 -0.12699240390E+02 -0.36608252854E+02  0.22971279660E+02  0.45045694275E+02  0.00000000000E+00 0.  1.
         11    1    3    3    0    0  0.11456091413E+02  0.26741074411E+02 -0.17504106477E+02  0.33951742737E+02  0.51100000000E-03 0. -1.
        -11    1    3    3    0    0  0.95855262387E+00  0.16620781442E+01  0.56797011173E+00  0.20009790601E+01  0.51100000000E-03 0.  1.
         12    1    3    3    0    0  0.28459635264E+00  0.82051002997E+01 -0.60351432954E+01  0.10189583927E+02  0.00000000000E+00 0. -1.
</event>
<event>
 7    1  0.1549900E-008  0.4614232E+02  0.7816164E-02  0.1320468E+00
        -11   -1    0    0    0    0  0.00000000000E+00  0.00000000000E+00  0.45593999997E+02  0.45594000000E+02  0.51100000000E-03 0. -1.
         11   -1    0    0    0    0 -0.00000000000E+00 -0.00000000000E+00 -0.45593999997E+02  0.45594000000E+02  0.51100000000E-03 0.  1.
    9900012    2    1    2    0    0  0.35045890508E+02 -0.15148305426E+02  0.23904557913E+02  0.46142317768E+02  0.10000000058E+02 0.  0.
        -12    1    1    2    0    0 -0.35045890508E+02  0.15148305426E+02 -0.23904557913E+02  0.45045682232E+02  0.00000000000E+00 0.  1.
         11    1    3    3    0    0  0.18926773896E+02 -0.50727876146E+01  0.10713276155E+02  0.22332268818E+02  0.51100000000E-03 0. -1.
        -11    1    3    3    0    0  0.12808379796E+02 -0.75268598798E+01  0.72084357620E+01  0.16512715072E+02  0.51100000000E-03 0.  1.
         12    1    3    3    0    0  0.33107368152E+01 -0.25486579315E+01  0.59828459960E+01  0.72973338778E+01  0.00000000000E+00 0. -1.
</event>
<event>
 7    1  0.1549900E-008  0.4614232E+02  0.7816164E-02  0.1320468E+00
        -11   -1    0    0    0    0  0.00000000000E+00  0.00000000000E+00  0.45593999997E+02  0.45594000000E+02  0.51100000000E-03 0.  1.
         11   -1    0    0    0    0 -0.00000000000E+00 -0.00000000000E+00 -0.45593999997E+02  0.45594000000E+02  0.51100000000E-03 0. -1.
    9900012    2    1    2    0    0 -0.85193809591E+01  0.37913790056E+02 -0.22783283396E+02  0.46142319512E+02  0.10000015962E+02 0.  0.
        -12    1    1    2    0    0  0.85193809591E+01 -0.37913790056E+02  0.22783283396E+02  0.45045680488E+02  0.00000000000E+00 0.  1.
         11    1    3    3    0    0 -0.68508914068E+01  0.24148050152E+02 -0.19125259555E+02  0.31556910376E+02  0.51100000000E-03 0. -1.
        -11    1    3    3    0    0 -0.17802227787E+01  0.98633304106E+01 -0.15291380321E+01  0.10138675619E+02  0.51100000000E-03 0.  1.
        -12    1    3    3    0    0  0.11173322646E+00  0.39024094941E+01 -0.21288858088E+01  0.44467335158E+01  0.00000000000E+00 0.  1.
</event>
<event>
 7    1  0.1549900E-008  0.4614232E+02  0.7816164E-02  0.1320468E+00
        -11   -1    0    0    0    0  0.00000000000E+00  0.00000000000E+00  0.45593999997E+02  0.45594000000E+02  0.51100000000E-03 0.  1.
         11   -1    0    0    0    0 -0.00000000000E+00 -0.00000000000E+00 -0.45593999997E+02  0.45594000000E+02  0.51100000000E-03 0. -1.
    9900012    2    1    2    0    0  0.45804978054E+01  0.13646829699E+02 -0.42683679129E+02  0.46142318909E+02  0.10000010466E+02 0.  0.
        -12    1    1    2    0    0 -0.45804978054E+01 -0.13646829699E+02  0.42683679129E+02  0.45045681091E+02  0.00000000000E+00 0.  1.
         11    1    3    3    0    0  0.29852665755E+01 -0.73037356830E-01 -0.61435353700E+01  0.68308255786E+01  0.51100000000E-03 0. -1.
        -11    1    3    3    0    0  0.22710422278E+01  0.12493606895E+02 -0.29240040094E+02  0.31878327920E+02  0.51100000000E-03 0.  1.
         12    1    3    3    0    0 -0.67581099793E+00  0.12262601602E+01 -0.73001036655E+01  0.74331654100E+01  0.00000000000E+00 0. -1.
</event>
<event>
 7    1  0.1549900E-008  0.4614232E+02  0.7816164E-02  0.1320468E+00
        -11   -1    0    0    0    0  0.00000000000E+00  0.00000000000E+00  0.45593999997E+02  0.45594000000E+02  0.51100000000E-03 0.  1.
         11   -1    0    0    0    0 -0.00000000000E+00 -0.00000000000E+00 -0.45593999997E+02  0.45594000000E+02  0.51100000000E-03 0. -1.
    9900012    2    1    2    0    0  0.32553045810E+02 -0.10183686551E+02 -0.29422868718E+02  0.46142318000E+02  0.10000002178E+02 0.  0.
        -12    1    1    2    0    0 -0.32553045810E+02  0.10183686551E+02  0.29422868718E+02  0.45045682000E+02  0.00000000000E+00 0.  1.
         11    1    3    3    0    0  0.90975535782E+01  0.86137897065E+00 -0.51571548964E+01  0.10493031103E+02  0.51100000000E-03 0. -1.
        -11    1    3    3    0    0 -0.52869896393E-01 -0.18959162383E-01 -0.32909374368E+00  0.33385270559E+00  0.51100000000E-03 0.  1.
         12    1    3    3    0    0  0.23508362128E+02 -0.11026106359E+02 -0.23936620078E+02  0.35315434191E+02  0.00000000000E+00 0. -1.
</event>
<event>
 7    1  0.1549900E-008  0.4614231E+02  0.7816164E-02  0.1320468E+00
        -11   -1    0    0    0    0  0.00000000000E+00  0.00000000000E+00  0.45593999997E+02  0.45594000000E+02  0.51100000000E-03 0. -1.
         11   -1    0    0    0    0 -0.00000000000E+00 -0.00000000000E+00 -0.45593999997E+02  0.45594000000E+02  0.51100000000E-03 0.  1.
    9900012    2    1    2    0    0 -0.43994629153E+02 -0.75264505635E+01  0.60777545106E+01  0.46142312611E+02  0.99999530414E+01 0.  0.
        -12    1    1    2    0    0  0.43994629153E+02  0.75264505635E+01 -0.60777545106E+01  0.45045687389E+02  0.00000000000E+00 0.  1.
         11    1    3    3    0    0  0.32808740871E+00 -0.32176888592E+00  0.14328295601E+00  0.48135935673E+00  0.51100000000E-03 0. -1.
        -11    1    3    3    0    0 -0.83672799763E+00 -0.53564674256E+00  0.96801399607E+00  0.13871130208E+01  0.51100000000E-03 0.  1.
         12    1    3    3    0    0 -0.43485988564E+02 -0.66690349351E+01  0.49664575585E+01  0.44273840234E+02  0.00000000000E+00 0. -1.
</event>
<event>
 7    1  0.1549900E-008  0.4614232E+02  0.7816164E-02  0.1320468E+00
        -11   -1    0    0    0    0  0.00000000000E+00  0.00000000000E+00  0.45593999997E+02  0.45594000000E+02  0.51100000000E-03 0.  1.
         11   -1    0    0    0    0 -0.00000000000E+00 -0.00000000000E+00 -0.45593999997E+02  0.45594000000E+02  0.51100000000E-03 0. -1.
    9900012    2    1    2    0    0 -0.27630047936E+02  0.19397286828E+02 -0.29823468222E+02  0.46142317165E+02  0.99999945686E+01 0.  0.
        -12    1    1    2    0    0  0.27630047936E+02 -0.19397286828E+02  0.29823468222E+02  0.45045682835E+02  0.00000000000E+00 0.  1.
         11    1    3    3    0    0 -0.21942472805E+02  0.14055026901E+02 -0.25628413761E+02  0.36549028525E+02  0.51100000000E-03 0. -1.
        -11    1    3    3    0    0 -0.38179109590E+01  0.40114842704E+01 -0.46766236307E+01  0.72483969943E+01  0.51100000000E-03 0.  1.
         12    1    3    3    0    0 -0.18696641724E+01  0.13307756564E+01  0.48156916980E+00  0.23448916458E+01  0.00000000000E+00 0. -1.
</event>
<event>
 7    1  0.1549900E-008  0.4614232E+02  0.7816164E-02  0.1320468E+00
        -11   -1    0    0    0    0  0.00000000000E+00  0.00000000000E+00  0.45593999997E+02  0.45594000000E+02  0.51100000000E-03 0. -1.
         11   -1    0    0    0    0 -0.00000000000E+00 -0.00000000000E+00 -0.45593999997E+02  0.45594000000E+02  0.51100000000E-03 0.  1.
    9900012    2    1    2    0    0 -0.30762130609E+02  0.27089943462E+02  0.18679932265E+02  0.46142316679E+02  0.99999901356E+01 0.  0.
        -12    1    1    2    0    0  0.30762130609E+02 -0.27089943462E+02 -0.18679932265E+02  0.45045683321E+02  0.00000000000E+00 0.  1.
         11    1    3    3    0    0 -0.37052673723E+01  0.11141828964E+01  0.22178963198E+01  0.44597616723E+01  0.51100000000E-03 0. -1.
        -11    1    3    3    0    0 -0.25472630211E+02  0.21338148695E+02  0.15591386648E+02  0.36705078905E+02  0.51100000000E-03 0.  1.
        -12    1    3    3    0    0 -0.15842330266E+01  0.46376118707E+01  0.87064929690E+00  0.49774761018E+01  0.00000000000E+00 0.  1.
</event>
<event>
 7    1  0.1549900E-008  0.4614232E+02  0.7816164E-02  0.1320468E+00
        -11   -1    0    0    0    0  0.00000000000E+00  0.00000000000E+00  0.45593999997E+02  0.45594000000E+02  0.51100000000E-03 0. -1.
         11   -1    0    0    0    0 -0.00000000000E+00 -0.00000000000E+00 -0.45593999997E+02  0.45594000000E+02  0.51100000000E-03 0.  1.
    9900012    2    1    2    0    0  0.39666120392E+02 -0.20260934521E+02  0.67236058424E+01  0.46142318186E+02  0.10000003871E+02 0.  0.
        -12    1    1    2    0    0 -0.39666120392E+02  0.20260934521E+02 -0.67236058424E+01  0.45045681814E+02  0.00000000000E+00 0.  1.
         11    1    3    3    0    0  0.38410384913E+01 -0.31611675881E+01 -0.14128173534E+01  0.51713257822E+01  0.51100000000E-03 0.  1.
        -11    1    3    3    0    0  0.23915182100E+02 -0.13530871886E+02  0.76746276339E+01  0.28529289134E+02  0.51100000000E-03 0. -1.
         12    1    3    3    0    0  0.11909899801E+02 -0.35688950462E+01  0.46179556192E+00  0.12441703270E+02  0.00000000000E+00 0. -1.
</event>
<event>
 7    1  0.1549900E-008  0.4614232E+02  0.7816164E-02  0.1320468E+00
        -11   -1    0    0    0    0  0.00000000000E+00  0.00000000000E+00  0.45593999997E+02  0.45594000000E+02  0.51100000000E-03 0.  1.
         11   -1    0    0    0    0 -0.00000000000E+00 -0.00000000000E+00 -0.45593999997E+02  0.45594000000E+02  0.51100000000E-03 0. -1.
    9900012    2    1    2    0    0 -0.30904118256E+01  0.30398376408E+02 -0.33098359921E+02  0.46142319153E+02  0.10000012692E+02 0.  0.
        -12    1    1    2    0    0  0.30904118256E+01 -0.30398376408E+02  0.33098359921E+02  0.45045680847E+02  0.00000000000E+00 0.  1.
         11    1    3    3    0    0 -0.16019699645E+00  0.65674228861E+01 -0.42836177308E+01  0.78425816902E+01  0.51100000000E-03 0. -1.
        -11    1    3    3    0    0  0.12613954459E+01  0.18017510428E+02 -0.20842674759E+02  0.27579682592E+02  0.51100000000E-03 0.  1.
        -12    1    3    3    0    0 -0.41916102751E+01  0.58134430936E+01 -0.79720674316E+01  0.10720054871E+02  0.00000000000E+00 0.  1.
</event>
<event>
 7    1  0.1549900E-008  0.4614232E+02  0.7816164E-02  0.1320468E+00
        -11   -1    0    0    0    0  0.00000000000E+00  0.00000000000E+00  0.45593999997E+02  0.45594000000E+02  0.51100000000E-03 0. -1.
         11   -1    0    0    0    0 -0.00000000000E+00 -0.00000000000E+00 -0.45593999997E+02  0.45594000000E+02  0.51100000000E-03 0.  1.
    9900012    2    1    2    0    0  0.42047858010E+02 -0.15857693104E+02  0.31023617244E+01  0.46142318275E+02  0.10000004686E+02 0.  0.
        -12    1    1    2    0    0 -0.42047858010E+02  0.15857693104E+02 -0.31023617244E+01  0.45045681725E+02  0.00000000000E+00 0.  1.
         11    1    3    3    0    0  0.12028401922E+02 -0.96849362184E+00  0.46010987974E+00  0.12076097633E+02  0.51100000000E-03 0.  1.
        -11    1    3    3    0    0  0.20094152643E+02 -0.10506287021E+02  0.43330018794E+01  0.23085318775E+02  0.51100000000E-03 0. -1.
         12    1    3    3    0    0  0.99253034457E+01 -0.43829124612E+01 -0.16907500347E+01  0.10980901867E+02  0.00000000000E+00 0. -1.
</event>
<event>
 7    1  0.1549900E-008  0.4614232E+02  0.7816164E-02  0.1320468E+00
        -11   -1    0    0    0    0  0.00000000000E+00  0.00000000000E+00  0.45593999997E+02  0.45594000000E+02  0.51100000000E-03 0.  1.
         11   -1    0    0    0    0 -0.00000000000E+00 -0.00000000000E+00 -0.45593999997E+02  0.45594000000E+02  0.51100000000E-03 0. -1.
    9900012    2    1    2    0    0  0.31956156316E+02  0.40182310060E+00 -0.31745176543E+02  0.46142316277E+02  0.99999864686E+01 0.  0.
        -12    1    1    2    0    0 -0.31956156316E+02 -0.40182310060E+00  0.31745176543E+02  0.45045683723E+02  0.00000000000E+00 0.  1.
         11    1    3    3    0    0  0.86468989985E+01 -0.34335459396E+01 -0.80449165996E+01  0.12299544031E+02  0.51100000000E-03 0. -1.
        -11    1    3    3    0    0  0.10981356753E+02  0.25317755234E+01 -0.14703754008E+02  0.18525670450E+02  0.51100000000E-03 0.  1.
        -12    1    3    3    0    0  0.12327900565E+02  0.13035935167E+01 -0.89965059351E+01  0.15317101796E+02  0.00000000000E+00 0.  1.
</event>
<event>
 7    1  0.1549900E-008  0.4614232E+02  0.7816164E-02  0.1320468E+00
        -11   -1    0    0    0    0  0.00000000000E+00  0.00000000000E+00  0.45593999997E+02  0.45594000000E+02  0.51100000000E-03 0.  1.
         11   -1    0    0    0    0 -0.00000000000E+00 -0.00000000000E+00 -0.45593999997E+02  0.45594000000E+02  0.51100000000E-03 0. -1.
    9900012    2    1    2    0    0 -0.38188153382E+02  0.60650553985E+01 -0.23108299841E+02  0.46142317885E+02  0.10000001130E+02 0.  0.
        -12    1    1    2    0    0  0.38188153382E+02 -0.60650553985E+01  0.23108299841E+02  0.45045682115E+02  0.00000000000E+00 0.  1.
         11    1    3    3    0    0 -0.24738143469E+02  0.65680903480E+01 -0.12886211598E+02  0.28656063978E+02  0.51100000000E-03 0. -1.
        -11    1    3    3    0    0 -0.10159153925E+02 -0.13897080811E+01 -0.54213918599E+01  0.11598757993E+02  0.51100000000E-03 0.  1.
         12    1    3    3    0    0 -0.32908559872E+01  0.88667313152E+00 -0.48006963830E+01  0.58874959135E+01  0.00000000000E+00 0. -1.
</event>
<event>
 7    1  0.1549900E-008  0.4614232E+02  0.7816164E-02  0.1320468E+00
        -11   -1    0    0    0    0  0.00000000000E+00  0.00000000000E+00  0.45593999997E+02  0.45594000000E+02  0.51100000000E-03 0.  1.
         11   -1    0    0    0    0 -0.00000000000E+00 -0.00000000000E+00 -0.45593999997E+02  0.45594000000E+02  0.51100000000E-03 0. -1.
    9900012    2    1    2    0    0 -0.42965283082E+02 -0.61392231448E+01 -0.12058518212E+02  0.46142317936E+02  0.10000001598E+02 0.  0.
        -12    1    1    2    0    0  0.42965283082E+02  0.61392231448E+01  0.12058518212E+02  0.45045682064E+02  0.00000000000E+00 0.  1.
         11    1    3    3    0    0 -0.28933139036E+02 -0.38148832818E+01 -0.40425684870E+01  0.29462216976E+02  0.51100000000E-03 0. -1.
        -11    1    3    3    0    0 -0.13381979643E+02 -0.29507183691E+01 -0.77288353057E+01  0.15732737000E+02  0.51100000000E-03 0.  1.
        -12    1    3    3    0    0 -0.65016440302E+00  0.62637850617E+00 -0.28711441932E+00  0.94736396054E+00  0.00000000000E+00 0.  1.
</event>
<event>
 7    1  0.1549900E-008  0.4614232E+02  0.7816164E-02  0.1320468E+00
        -11   -1    0    0    0    0  0.00000000000E+00  0.00000000000E+00  0.45593999997E+02  0.45594000000E+02  0.51100000000E-03 0. -1.
         11   -1    0    0    0    0 -0.00000000000E+00 -0.00000000000E+00 -0.45593999997E+02  0.45594000000E+02  0.51100000000E-03 0.  1.
    9900012    2    1    2    0    0 -0.43730157397E+02  0.91408566031E+00  0.10768059438E+02  0.46142319601E+02  0.10000016778E+02 0.  0.
        -12    1    1    2    0    0  0.43730157397E+02 -0.91408566031E+00 -0.10768059438E+02  0.45045680399E+02  0.00000000000E+00 0.  1.
         11    1    3    3    0    0 -0.27245066577E+02 -0.16225427077E+01  0.92993127735E+01  0.28834068668E+02  0.51100000000E-03 0. -1.
        -11    1    3    3    0    0 -0.11959390432E+02  0.31811235107E+01  0.24922737569E+01  0.12623707658E+02  0.51100000000E-03 0.  1.
         12    1    3    3    0    0 -0.45257003883E+01 -0.64449514262E+00 -0.10235270921E+01  0.46845432757E+01  0.00000000000E+00 0. -1.
</event>
<event>
 7    1  0.1549900E-008  0.4614232E+02  0.7816164E-02  0.1320468E+00
        -11   -1    0    0    0    0  0.00000000000E+00  0.00000000000E+00  0.45593999997E+02  0.45594000000E+02  0.51100000000E-03 0. -1.
         11   -1    0    0    0    0 -0.00000000000E+00 -0.00000000000E+00 -0.45593999997E+02  0.45594000000E+02  0.51100000000E-03 0.  1.
    9900012    2    1    2    0    0  0.42097144136E+02 -0.20538863672E+01  0.15897342240E+02  0.46142317811E+02  0.10000000456E+02 0.  0.
        -12    1    1    2    0    0 -0.42097144136E+02  0.20538863672E+01 -0.15897342240E+02  0.45045682189E+02  0.00000000000E+00 0.  1.
         11    1    3    3    0    0  0.11899419444E+02  0.75340026521E+00  0.72046464548E+01  0.13930926957E+02  0.51100000000E-03 0. -1.
        -11    1    3    3    0    0  0.80412316614E+01 -0.14603612278E+00 -0.54103249565E+00  0.80607350536E+01  0.51100000000E-03 0.  1.
        -12    1    3    3    0    0  0.22156493030E+02 -0.26612505096E+01  0.92337282803E+01  0.24150655801E+02  0.00000000000E+00 0.  1.
</event>
<event>
 7    1  0.1549900E-008  0.4614232E+02  0.7816164E-02  0.1320468E+00
        -11   -1    0    0    0    0  0.00000000000E+00  0.00000000000E+00  0.45593999997E+02  0.45594000000E+02  0.51100000000E-03 0.  1.
         11   -1    0    0    0    0 -0.00000000000E+00 -0.00000000000E+00 -0.45593999997E+02  0.45594000000E+02  0.51100000000E-03 0. -1.
    9900012    2    1    2    0    0  0.43802796329E+01  0.21516312302E+02 -0.39331602463E+02  0.46142317665E+02  0.99999991230E+01 0.  0.
        -12    1    1    2    0    0 -0.43802796329E+01 -0.21516312302E+02  0.39331602463E+02  0.45045682335E+02  0.00000000000E+00 0.  1.
         11    1    3    3    0    0  0.52576222243E+01  0.82717133881E+01 -0.12684914152E+02  0.16030311324E+02  0.51100000000E-03 0. -1.
        -11    1    3    3    0    0 -0.17060465485E+01  0.36398752388E+01 -0.49991441123E+01  0.64148833736E+01  0.51100000000E-03 0.  1.
         12    1    3    3    0    0  0.82870395712E+00  0.96047236752E+01 -0.21647544198E+02  0.23697122968E+02  0.00000000000E+00 0. -1.
</event>
<event>
 7    1  0.1606951E-008  0.4614232E+02  0.7816164E-02  0.1320468E+00
        -11   -1    0    0    0    0  0.00000000000E+00  0.00000000000E+00  0.45593999997E+02  0.45594000000E+02  0.51100000000E-03 0. -1.
         11   -1    0    0    0    0 -0.00000000000E+00 -0.00000000000E+00 -0.45593999997E+02  0.45594000000E+02  0.51100000000E-03 0.  1.
    9900012    2    1    2    0    0  0.18711065409E+02 -0.40239895924E+02  0.77304789477E+01  0.46142317660E+02  0.99999990790E+01 0.  0.
        -12    1    1    2    0    0 -0.18711065409E+02  0.40239895924E+02 -0.77304789477E+01  0.45045682340E+02  0.00000000000E+00 0.  1.
         11    1    3    3    0    0  0.33125034546E+01 -0.11754177361E+02 -0.81235282421E+00  0.12239006575E+02  0.51100000000E-03 0. -1.
        -11    1    3    3    0    0  0.51052570188E+01 -0.50178699415E+01  0.13224888116E+01  0.72795360358E+01  0.51100000000E-03 0.  1.
         12    1    3    3    0    0  0.10293304936E+02 -0.23467848621E+02  0.72203429603E+01  0.26623775049E+02  0.00000000000E+00 0. -1.
</event>
<event>
 7    1  0.1549900E-008  0.4614232E+02  0.7816164E-02  0.1320468E+00
        -11   -1    0    0    0    0  0.00000000000E+00  0.00000000000E+00  0.45593999997E+02  0.45594000000E+02  0.51100000000E-03 0.  1.
         11   -1    0    0    0    0 -0.00000000000E+00 -0.00000000000E+00 -0.45593999997E+02  0.45594000000E+02  0.51100000000E-03 0. -1.
    9900012    2    1    2    0    0 -0.33077906416E+02  0.14441978677E+02 -0.26951713683E+02  0.46142317505E+02  0.99999976637E+01 0.  0.
        -12    1    1    2    0    0  0.33077906416E+02 -0.14441978677E+02  0.26951713683E+02  0.45045682495E+02  0.00000000000E+00 0.  1.
         11    1    3    3    0    0 -0.88881832202E+01  0.65099683429E+01 -0.60033017756E+01  0.12546677698E+02  0.51100000000E-03 0. -1.
        -11    1    3    3    0    0 -0.22846954359E+02  0.65897309359E+01 -0.20959281428E+02  0.31696992847E+02  0.51100000000E-03 0.  1.
        -12    1    3    3    0    0 -0.13427688370E+01  0.13422793983E+01  0.10869520742E-01  0.18986469601E+01  0.00000000000E+00 0.  1.
</event>
<event>
 7    1  0.1549900E-008  0.4614232E+02  0.7816164E-02  0.1320468E+00
        -11   -1    0    0    0    0  0.00000000000E+00  0.00000000000E+00  0.45593999997E+02  0.45594000000E+02  0.51100000000E-03 0.  1.
         11   -1    0    0    0    0 -0.00000000000E+00 -0.00000000000E+00 -0.45593999997E+02  0.45594000000E+02  0.51100000000E-03 0. -1.
    9900012    2    1    2    0    0  0.37100183363E+02 -0.11157960759E+02 -0.22982381269E+02  0.46142317159E+02  0.99999945055E+01 0.  0.
        -12    1    1    2    0    0 -0.37100183363E+02  0.11157960759E+02  0.22982381269E+02  0.45045682841E+02  0.00000000000E+00 0.  1.
         11    1    3    3    0    0  0.15885800859E+02 -0.20520430706E+01 -0.10987396317E+02  0.19424016778E+02  0.51100000000E-03 0. -1.
        -11    1    3    3    0    0  0.91901477039E+01 -0.47298795304E+01 -0.86874963940E+01  0.13501969080E+02  0.51100000000E-03 0.  1.
         12    1    3    3    0    0  0.12024234800E+02 -0.43760381577E+01 -0.33074885585E+01  0.13216331300E+02  0.00000000000E+00 0. -1.
</event>
<event>
 7    1  0.1549900E-008  0.4614232E+02  0.7816164E-02  0.1320468E+00
        -11   -1    0    0    0    0  0.00000000000E+00  0.00000000000E+00  0.45593999997E+02  0.45594000000E+02  0.51100000000E-03 0.  1.
         11   -1    0    0    0    0 -0.00000000000E+00 -0.00000000000E+00 -0.45593999997E+02  0.45594000000E+02  0.51100000000E-03 0. -1.
    9900012    2    1    2    0    0  0.10636284785E+02  0.23522369726E+02 -0.36914508764E+02  0.46142318866E+02  0.10000010073E+02 0.  0.
        -12    1    1    2    0    0 -0.10636284785E+02 -0.23522369726E+02  0.36914508764E+02  0.45045681134E+02  0.00000000000E+00 0.  1.
         11    1    3    3    0    0  0.35114655129E+00  0.48177303369E+00 -0.26729504969E+01  0.27386262572E+01  0.51100000000E-03 0. -1.
        -11    1    3    3    0    0  0.76302089285E+01  0.10129540950E+02 -0.22113527848E+02  0.25491877183E+02  0.51100000000E-03 0.  1.
        -12    1    3    3    0    0  0.26549293055E+01  0.12911055743E+02 -0.12128030419E+02  0.17911815426E+02  0.00000000000E+00 0.  1.
</event>
<event>
 7    1  0.1549900E-008  0.4614232E+02  0.7816164E-02  0.1320468E+00
        -11   -1    0    0    0    0  0.00000000000E+00  0.00000000000E+00  0.45593999997E+02  0.45594000000E+02  0.51100000000E-03 0. -1.
         11   -1    0    0    0    0 -0.00000000000E+00 -0.00000000000E+00 -0.45593999997E+02  0.45594000000E+02  0.51100000000E-03 0.  1.
    9900012    2    1    2    0    0  0.80227975161E+01  0.10195084148E+02  0.43137087574E+02  0.46142319351E+02  0.10000014498E+02 0.  0.
        -12    1    1    2    0    0 -0.80227975161E+01 -0.10195084148E+02 -0.43137087574E+02  0.45045680649E+02  0.00000000000E+00 0.  1.
         11    1    3    3    0    0  0.29407076437E+01  0.34974677915E+01  0.17317094566E+02  0.17909824311E+02  0.51100000000E-03 0. -1.
        -11    1    3    3    0    0  0.57447673185E+01  0.12561013875E+01  0.14768246441E+02  0.15895950599E+02  0.51100000000E-03 0.  1.
         12    1    3    3    0    0 -0.66267744621E+00  0.54415149692E+01  0.11051746567E+02  0.12336544441E+02  0.00000000000E+00 0. -1.
</event>
<event>
 7    1  0.1549900E-008  0.4614232E+02  0.7816164E-02  0.1320468E+00
        -11   -1    0    0    0    0  0.00000000000E+00  0.00000000000E+00  0.45593999997E+02  0.45594000000E+02  0.51100000000E-03 0.  1.
         11   -1    0    0    0    0 -0.00000000000E+00 -0.00000000000E+00 -0.45593999997E+02  0.45594000000E+02  0.51100000000E-03 0. -1.
    9900012    2    1    2    0    0  0.37143656719E+02 -0.25483894835E+02 -0.18274362881E+00  0.46142317347E+02  0.99999962279E+01 0.  0.
        -12    1    1    2    0    0 -0.37143656719E+02  0.25483894835E+02  0.18274362881E+00  0.45045682653E+02  0.00000000000E+00 0.  1.
         11    1    3    3    0    0  0.18926342729E+02 -0.12789018165E+02 -0.37391760688E+01  0.23146206441E+02  0.51100000000E-03 0. -1.
        -11    1    3    3    0    0  0.15225492087E+02 -0.96016614729E+01  0.10834564643E+01  0.18032786543E+02  0.51100000000E-03 0.  1.
        -12    1    3    3    0    0  0.29918219036E+01 -0.30932151972E+01  0.24729759757E+01  0.49633243633E+01  0.00000000000E+00 0.  1.
</event>
<event>
 7    1  0.1549900E-008  0.4614232E+02  0.7816164E-02  0.1320468E+00
        -11   -1    0    0    0    0  0.00000000000E+00  0.00000000000E+00  0.45593999997E+02  0.45594000000E+02  0.51100000000E-03 0. -1.
         11   -1    0    0    0    0 -0.00000000000E+00 -0.00000000000E+00 -0.45593999997E+02  0.45594000000E+02  0.51100000000E-03 0.  1.
    9900012    2    1    2    0    0  0.24028613570E+02  0.23084543630E+02  0.30312424679E+02  0.46142317470E+02  0.99999973475E+01 0.  0.
        -12    1    1    2    0    0 -0.24028613570E+02 -0.23084543630E+02 -0.30312424679E+02  0.45045682530E+02  0.00000000000E+00 0.  1.
         11    1    3    3    0    0  0.51779021163E+01  0.98959781384E+01  0.12200685705E+02  0.16540791564E+02  0.51100000000E-03 0. -1.
        -11    1    3    3    0    0  0.62308760375E+01  0.50123586401E+01  0.38433023689E+01  0.88723462901E+01  0.51100000000E-03 0.  1.
        -12    1    3    3    0    0  0.12619835416E+02  0.81762068511E+01  0.14268436605E+02  0.20729179616E+02  0.00000000000E+00 0.  1.
</event>
<event>
 7    1  0.1549900E-008  0.4614232E+02  0.7816164E-02  0.1320468E+00
        -11   -1    0    0    0    0  0.00000000000E+00  0.00000000000E+00  0.45593999997E+02  0.45594000000E+02  0.51100000000E-03 0.  1.
         11   -1    0    0    0    0 -0.00000000000E+00 -0.00000000000E+00 -0.45593999997E+02  0.45594000000E+02  0.51100000000E-03 0. -1.
    9900012    2    1    2    0    0  0.27701314196E+02  0.23638323291E+02 -0.26513776739E+02  0.46142317708E+02  0.99999995161E+01 0.  0.
        -12    1    1    2    0    0 -0.27701314196E+02 -0.23638323291E+02  0.26513776739E+02  0.45045682292E+02  0.00000000000E+00 0.  1.
         11    1    3    3    0    0  0.94466909824E+01  0.52110157937E+01 -0.60920677409E+01  0.12389832353E+02  0.51100000000E-03 0. -1.
        -11    1    3    3    0    0  0.30846654196E+01  0.19860523284E+01 -0.63215876129E+01  0.73090378855E+01  0.51100000000E-03 0.  1.
        -12    1    3    3    0    0  0.15169957794E+02  0.16441255169E+02 -0.14100121385E+02  0.26443447469E+02  0.00000000000E+00 0.  1.
</event>
<event>
 7    1  0.1549900E-008  0.4614232E+02  0.7816164E-02  0.1320468E+00
        -11   -1    0    0    0    0  0.00000000000E+00  0.00000000000E+00  0.45593999997E+02  0.45594000000E+02  0.51100000000E-03 0. -1.
         11   -1    0    0    0    0 -0.00000000000E+00 -0.00000000000E+00 -0.45593999997E+02  0.45594000000E+02  0.51100000000E-03 0.  1.
    9900012    2    1    2    0    0 -0.19805224236E+02 -0.38132834223E+02  0.13518635306E+02  0.46142318148E+02  0.10000003530E+02 0.  0.
        -12    1    1    2    0    0  0.19805224236E+02  0.38132834223E+02 -0.13518635306E+02  0.45045681852E+02  0.00000000000E+00 0.  1.
         11    1    3    3    0    0 -0.17432337235E+02 -0.29557610975E+02  0.68362204649E+01  0.34989607865E+02  0.51100000000E-03 0. -1.
        -11    1    3    3    0    0 -0.17876850762E+01 -0.58467447247E+01  0.49653190966E+01  0.78762069424E+01  0.51100000000E-03 0.  1.
         12    1    3    3    0    0 -0.58520192484E+00 -0.27284785240E+01  0.17170957447E+01  0.32765033412E+01  0.00000000000E+00 0. -1.
</event>
<event>
 7    1  0.1549900E-008  0.4614232E+02  0.7816164E-02  0.1320468E+00
        -11   -1    0    0    0    0  0.00000000000E+00  0.00000000000E+00  0.45593999997E+02  0.45594000000E+02  0.51100000000E-03 0.  1.
         11   -1    0    0    0    0 -0.00000000000E+00 -0.00000000000E+00 -0.45593999997E+02  0.45594000000E+02  0.51100000000E-03 0. -1.
    9900012    2    1    2    0    0  0.11936667100E+02 -0.33474777988E+01 -0.43306163819E+02  0.46142318144E+02  0.10000003495E+02 0.  0.
        -12    1    1    2    0    0 -0.11936667100E+02  0.33474777988E+01  0.43306163819E+02  0.45045681856E+02  0.00000000000E+00 0.  1.
         11    1    3    3    0    0  0.10542319509E+02  0.11316968233E+00 -0.25485831335E+02  0.27580444287E+02  0.51100000000E-03 0. -1.
        -11    1    3    3    0    0  0.16601338247E+01 -0.63115304995E+00 -0.31266367959E+01  0.35958665719E+01  0.51100000000E-03 0.  1.
         12    1    3    3    0    0 -0.26578623378E+00 -0.28294944312E+01 -0.14693695689E+02  0.14966007285E+02  0.00000000000E+00 0. -1.
</event>
<event>
 7    1  0.1549900E-008  0.4614232E+02  0.7816164E-02  0.1320468E+00
        -11   -1    0    0    0    0  0.00000000000E+00  0.00000000000E+00  0.45593999997E+02  0.45594000000E+02  0.51100000000E-03 0. -1.
         11   -1    0    0    0    0 -0.00000000000E+00 -0.00000000000E+00 -0.45593999997E+02  0.45594000000E+02  0.51100000000E-03 0.  1.
    9900012    2    1    2    0    0  0.60899499696E+01 -0.44041961268E+02  0.72340637181E+01  0.46142317401E+02  0.99999967138E+01 0.  0.
        -12    1    1    2    0    0 -0.60899499696E+01  0.44041961268E+02 -0.72340637181E+01  0.45045682599E+02  0.00000000000E+00 0.  1.
         11    1    3    3    0    0  0.43834160089E+01 -0.16744858961E+02  0.54269783621E+01  0.18139920946E+02  0.51100000000E-03 0. -1.
        -11    1    3    3    0    0 -0.11163737597E+01 -0.22554571301E+01 -0.86440599703E+00  0.26609350285E+01  0.51100000000E-03 0.  1.
         12    1    3    3    0    0  0.28229077204E+01 -0.25041645177E+02  0.26714913530E+01  0.25341461426E+02  0.00000000000E+00 0. -1.
</event>
<event>
 7    1  0.1549900E-008  0.4614232E+02  0.7816164E-02  0.1320468E+00
        -11   -1    0    0    0    0  0.00000000000E+00  0.00000000000E+00  0.45593999997E+02  0.45594000000E+02  0.51100000000E-03 0. -1.
         11   -1    0    0    0    0 -0.00000000000E+00 -0.00000000000E+00 -0.45593999997E+02  0.45594000000E+02  0.51100000000E-03 0.  1.
    9900012    2    1    2    0    0  0.20666496187E+02  0.39989717137E+02 -0.16828448303E+01  0.46142317543E+02  0.99999980102E+01 0.  0.
        -12    1    1    2    0    0 -0.20666496187E+02 -0.39989717137E+02  0.16828448303E+01  0.45045682457E+02  0.00000000000E+00 0.  1.
         11    1    3    3    0    0  0.67815223607E+01  0.13746771909E+02  0.42126482832E-01  0.15328553694E+02  0.51100000000E-03 0. -1.
        -11    1    3    3    0    0  0.21890030125E+01  0.11199809511E+01  0.15533769273E+01  0.29084483249E+01  0.51100000000E-03 0.  1.
        -12    1    3    3    0    0  0.11695970814E+02  0.25122964276E+02 -0.32783482404E+01  0.27905315524E+02  0.00000000000E+00 0.  1.
</event>
<event>
 7    1  0.1549900E-008  0.4614232E+02  0.7816164E-02  0.1320468E+00
        -11   -1    0    0    0    0  0.00000000000E+00  0.00000000000E+00  0.45593999997E+02  0.45594000000E+02  0.51100000000E-03 0.  1.
         11   -1    0    0    0    0 -0.00000000000E+00 -0.00000000000E+00 -0.45593999997E+02  0.45594000000E+02  0.51100000000E-03 0. -1.
    9900012    2    1    2    0    0 -0.70163504554E+01  0.36230281629E+02 -0.25831193818E+02  0.46142322574E+02  0.10000043892E+02 0.  0.
        -12    1    1    2    0    0  0.70163504554E+01 -0.36230281629E+02  0.25831193818E+02  0.45045677426E+02  0.00000000000E+00 0.  1.
         11    1    3    3    0    0 -0.45436854118E+01  0.13030709392E+02 -0.11425840039E+02  0.17916313383E+02  0.51100000000E-03 0. -1.
        -11    1    3    3    0    0 -0.13471761241E+01  0.15334726412E+01  0.23252270629E+00  0.20543828564E+01  0.51100000000E-03 0.  1.
         12    1    3    3    0    0 -0.11254889195E+01  0.21666099596E+02 -0.14637876485E+02  0.26171626335E+02  0.00000000000E+00 0. -1.
</event>
<event>
 7    1  0.1549900E-008  0.4614232E+02  0.7816164E-02  0.1320468E+00
        -11   -1    0    0    0    0  0.00000000000E+00  0.00000000000E+00  0.45593999997E+02  0.45594000000E+02  0.51100000000E-03 0. -1.
         11   -1    0    0    0    0 -0.00000000000E+00 -0.00000000000E+00 -0.45593999997E+02  0.45594000000E+02  0.51100000000E-03 0.  1.
    9900012    2    1    2    0    0 -0.18710960162E+02 -0.40972558779E+02 -0.51263122514E+00  0.46142318810E+02  0.10000009568E+02 0.  0.
        -12    1    1    2    0    0  0.18710960162E+02  0.40972558779E+02  0.51263122514E+00  0.45045681190E+02  0.00000000000E+00 0.  1.
         11    1    3    3    0    0 -0.17289863226E+02 -0.29096424335E+02 -0.22981750606E+01  0.33923780573E+02  0.51100000000E-03 0. -1.
        -11    1    3    3    0    0 -0.16564189766E+01 -0.11626643507E+02  0.17506034374E+01  0.11873802075E+02  0.51100000000E-03 0.  1.
         12    1    3    3    0    0  0.23532204073E+00 -0.24949093628E+00  0.34940398123E-01  0.34473616225E+00  0.00000000000E+00 0. -1.
</event>
<event>
 7    1  0.1549900E-008  0.4614232E+02  0.7816164E-02  0.1320468E+00
        -11   -1    0    0    0    0  0.00000000000E+00  0.00000000000E+00  0.45593999997E+02  0.45594000000E+02  0.51100000000E-03 0.  1.
         11   -1    0    0    0    0 -0.00000000000E+00 -0.00000000000E+00 -0.45593999997E+02  0.45594000000E+02  0.51100000000E-03 0. -1.
    9900012    2    1    2    0    0 -0.12695306920E+02 -0.24307785610E+02 -0.35736175896E+02  0.46142317335E+02  0.99999961188E+01 0.  0.
        -12    1    1    2    0    0  0.12695306920E+02  0.24307785610E+02  0.35736175896E+02  0.45045682665E+02  0.00000000000E+00 0.  1.
         11    1    3    3    0    0 -0.92007971495E+01 -0.12610665402E+02 -0.22251824986E+02  0.27181377183E+02  0.51100000000E-03 0. -1.
        -11    1    3    3    0    0 -0.74469644511E+00 -0.66785465040E+01 -0.38210868369E+01  0.77303467631E+01  0.51100000000E-03 0.  1.
        -12    1    3    3    0    0 -0.27498133257E+01 -0.50185737039E+01 -0.96632640725E+01  0.11230593390E+02  0.00000000000E+00 0.  1.
</event>
<event>
 7    1  0.1691869E-008  0.4614231E+02  0.7816164E-02  0.1320468E+00
        -11   -1    0    0    0    0  0.00000000000E+00  0.00000000000E+00  0.45593999997E+02  0.45594000000E+02  0.51100000000E-03 0. -1.
         11   -1    0    0    0    0 -0.00000000000E+00 -0.00000000000E+00 -0.45593999997E+02  0.45594000000E+02  0.51100000000E-03 0.  1.
    9900012    2    1    2    0    0  0.16655823215E+02 -0.36754293362E+02  0.20020469907E+02  0.46142314937E+02  0.99999742450E+01 0.  0.
        -12    1    1    2    0    0 -0.16655823215E+02  0.36754293362E+02 -0.20020469907E+02  0.45045685063E+02  0.00000000000E+00 0.  1.
         11    1    3    3    0    0  0.12979123044E+02 -0.34480498392E+02  0.17506384460E+02  0.40790144661E+02  0.51100000000E-03 0. -1.
        -11    1    3    3    0    0  0.27977206234E+01 -0.15596471309E+01  0.27186907934E+01  0.42013116702E+01  0.51100000000E-03 0.  1.
         12    1    3    3    0    0  0.87897954808E+00 -0.71414783893E+00 -0.20460534614E+00  0.11508586053E+01  0.00000000000E+00 0. -1.
</event>
<event>
 7    1  0.1549900E-008  0.4614232E+02  0.7816164E-02  0.1320468E+00
        -11   -1    0    0    0    0  0.00000000000E+00  0.00000000000E+00  0.45593999997E+02  0.45594000000E+02  0.51100000000E-03 0. -1.
         11   -1    0    0    0    0 -0.00000000000E+00 -0.00000000000E+00 -0.45593999997E+02  0.45594000000E+02  0.51100000000E-03 0.  1.
    9900012    2    1    2    0    0 -0.32488804419E+02  0.60251002189E+01  0.30615179315E+02  0.46142318190E+02  0.10000003915E+02 0.  0.
        -12    1    1    2    0    0  0.32488804419E+02 -0.60251002189E+01 -0.30615179315E+02  0.45045681810E+02  0.00000000000E+00 0.  1.
         11    1    3    3    0    0 -0.22029308069E+02  0.45590688999E+01  0.14482532671E+02  0.26754799122E+02  0.51100000000E-03 0. -1.
        -11    1    3    3    0    0 -0.79346908346E+01  0.40280402451E+00  0.12898575270E+02  0.15149086242E+02  0.51100000000E-03 0.  1.
         12    1    3    3    0    0 -0.25248055153E+01  0.10632272946E+01  0.32340713746E+01  0.42384328267E+01  0.00000000000E+00 0. -1.
</event>
<event>
 7    1  0.1549900E-008  0.4614232E+02  0.7816164E-02  0.1320468E+00
        -11   -1    0    0    0    0  0.00000000000E+00  0.00000000000E+00  0.45593999997E+02  0.45594000000E+02  0.51100000000E-03 0.  1.
         11   -1    0    0    0    0 -0.00000000000E+00 -0.00000000000E+00 -0.45593999997E+02  0.45594000000E+02  0.51100000000E-03 0. -1.
    9900012    2    1    2    0    0 -0.17291902951E+02 -0.35943140638E+02 -0.20933083092E+02  0.46142320581E+02  0.10000025713E+02 0.  0.
        -12    1    1    2    0    0  0.17291902951E+02  0.35943140638E+02  0.20933083092E+02  0.45045679419E+02  0.00000000000E+00 0.  1.
         11    1    3    3    0    0 -0.14928276590E+02 -0.29725866734E+02 -0.16036014446E+02  0.36927420091E+02  0.51100000000E-03 0. -1.
        -11    1    3    3    0    0  0.10207093082E+00 -0.50948078688E+01 -0.32661495205E+01  0.60527034164E+01  0.51100000000E-03 0.  1.
         12    1    3    3    0    0 -0.24656972921E+01 -0.11224660354E+01 -0.16309191254E+01  0.31621970733E+01  0.00000000000E+00 0. -1.
</event>
<event>
 7    1  0.1549900E-008  0.4614232E+02  0.7816164E-02  0.1320468E+00
        -11   -1    0    0    0    0  0.00000000000E+00  0.00000000000E+00  0.45593999997E+02  0.45594000000E+02  0.51100000000E-03 0. -1.
         11   -1    0    0    0    0 -0.00000000000E+00 -0.00000000000E+00 -0.45593999997E+02  0.45594000000E+02  0.51100000000E-03 0.  1.
    9900012    2    1    2    0    0  0.24412873514E+02 -0.26479370702E+02  0.27054906981E+02  0.46142318102E+02  0.10000003107E+02 0.  0.
        -12    1    1    2    0    0 -0.24412873514E+02  0.26479370702E+02 -0.27054906981E+02  0.45045681898E+02  0.00000000000E+00 0.  1.
         11    1    3    3    0    0  0.42671597021E+01 -0.31640261188E+01  0.50387453399E+01  0.73217940469E+01  0.51100000000E-03 0. -1.
        -11    1    3    3    0    0  0.11483550039E+02 -0.12840348096E+02  0.70778722987E+01  0.18623714379E+02  0.51100000000E-03 0.  1.
        -12    1    3    3    0    0  0.86621637721E+01 -0.10474996486E+02  0.14938289342E+02  0.20196809676E+02  0.00000000000E+00 0.  1.
</event>
<event>
 7    1  0.1549900E-008  0.4614232E+02  0.7816164E-02  0.1320468E+00
        -11   -1    0    0    0    0  0.00000000000E+00  0.00000000000E+00  0.45593999997E+02  0.45594000000E+02  0.51100000000E-03 0.  1.
         11   -1    0    0    0    0 -0.00000000000E+00 -0.00000000000E+00 -0.45593999997E+02  0.45594000000E+02  0.51100000000E-03 0. -1.
    9900012    2    1    2    0    0 -0.10006574896E+02  0.22081512796E+02 -0.37965623901E+02  0.46142319334E+02  0.10000014342E+02 0.  0.
        -12    1    1    2    0    0  0.10006574896E+02 -0.22081512796E+02  0.37965623901E+02  0.45045680666E+02  0.00000000000E+00 0.  1.
         11    1    3    3    0    0 -0.33434945865E+01  0.16520979774E+02 -0.29045257191E+02  0.33581969780E+02  0.51100000000E-03 0. -1.
        -11    1    3    3    0    0 -0.42750819824E+01  0.42683203990E+01 -0.53110264233E+01  0.80437483125E+01  0.51100000000E-03 0.  1.
         12    1    3    3    0    0 -0.23879983269E+01  0.12922126232E+01 -0.36093402862E+01  0.45166012414E+01  0.00000000000E+00 0. -1.
</event>
<event>
 7    1  0.1549900E-008  0.4614232E+02  0.7816164E-02  0.1320468E+00
        -11   -1    0    0    0    0  0.00000000000E+00  0.00000000000E+00  0.45593999997E+02  0.45594000000E+02  0.51100000000E-03 0.  1.
         11   -1    0    0    0    0 -0.00000000000E+00 -0.00000000000E+00 -0.45593999997E+02  0.45594000000E+02  0.51100000000E-03 0. -1.
    9900012    2    1    2    0    0  0.89269442309E+01 -0.43510933109E+02 -0.74981289155E+01  0.46142316849E+02  0.99999916842E+01 0.  0.
        -12    1    1    2    0    0 -0.89269442309E+01  0.43510933109E+02  0.74981289155E+01  0.45045683151E+02  0.00000000000E+00 0.  1.
         11    1    3    3    0    0  0.40521459094E+01 -0.29932187169E+02 -0.85317603130E+01  0.31387045887E+02  0.51100000000E-03 0. -1.
        -11    1    3    3    0    0  0.39026365771E+01 -0.10813180214E+02  0.20001422006E+01  0.11668590646E+02  0.51100000000E-03 0.  1.
         12    1    3    3    0    0  0.97216174439E+00 -0.27655657257E+01 -0.96651080308E+00  0.30866803160E+01  0.00000000000E+00 0. -1.
</event>
<event>
 7    1  0.1549900E-008  0.4614232E+02  0.7816164E-02  0.1320468E+00
        -11   -1    0    0    0    0  0.00000000000E+00  0.00000000000E+00  0.45593999997E+02  0.45594000000E+02  0.51100000000E-03 0.  1.
         11   -1    0    0    0    0 -0.00000000000E+00 -0.00000000000E+00 -0.45593999997E+02  0.45594000000E+02  0.51100000000E-03 0. -1.
    9900012    2    1    2    0    0  0.25101485395E+02  0.21599530156E+02 -0.30536682884E+02  0.46142320146E+02  0.10000021744E+02 0.  0.
        -12    1    1    2    0    0 -0.25101485395E+02 -0.21599530156E+02  0.30536682884E+02  0.45045679854E+02  0.00000000000E+00 0.  1.
         11    1    3    3    0    0  0.16987300753E+02  0.13311431565E+02 -0.14055812511E+02  0.25755163808E+02  0.51100000000E-03 0. -1.
        -11    1    3    3    0    0  0.73271486242E+01  0.56639294373E+01 -0.12715286209E+02  0.15730407092E+02  0.51100000000E-03 0.  1.
         12    1    3    3    0    0  0.78703601731E+00  0.26241691546E+01 -0.37655841635E+01  0.46567492456E+01  0.00000000000E+00 0. -1.
</event>
<event>
 7    1  0.1549900E-008  0.4614232E+02  0.7816164E-02  0.1320468E+00
        -11   -1    0    0    0    0  0.00000000000E+00  0.00000000000E+00  0.45593999997E+02  0.45594000000E+02  0.51100000000E-03 0.  1.
         11   -1    0    0    0    0 -0.00000000000E+00 -0.00000000000E+00 -0.45593999997E+02  0.45594000000E+02  0.51100000000E-03 0. -1.
    9900012    2    1    2    0    0  0.12786336390E+02  0.43042529082E+02 -0.36004566566E+01  0.46142323224E+02  0.10000049817E+02 0.  0.
        -12    1    1    2    0    0 -0.12786336390E+02 -0.43042529082E+02  0.36004566566E+01  0.45045676776E+02  0.00000000000E+00 0.  1.
         11    1    3    3    0    0 -0.44269324263E+00  0.49403477731E+01 -0.10031449684E+01  0.50605645451E+01  0.51100000000E-03 0.  1.
        -11    1    3    3    0    0  0.13286641160E+02  0.38425094676E+02 -0.26729034193E+01  0.40745148756E+02  0.51100000000E-03 0. -1.
         12    1    3    3    0    0 -0.57611527653E-01 -0.32291336701E+00  0.75591731087E-01  0.33660992338E+00  0.00000000000E+00 0. -1.
</event>
<event>
 7    1  0.1549900E-008  0.4614232E+02  0.7816164E-02  0.1320468E+00
        -11   -1    0    0    0    0  0.00000000000E+00  0.00000000000E+00  0.45593999997E+02  0.45594000000E+02  0.51100000000E-03 0.  1.
         11   -1    0    0    0    0 -0.00000000000E+00 -0.00000000000E+00 -0.45593999997E+02  0.45594000000E+02  0.51100000000E-03 0. -1.
    9900012    2    1    2    0    0 -0.31210758256E+02 -0.26165077531E+02 -0.19245538709E+02  0.46142317928E+02  0.10000001524E+02 0.  0.
        -12    1    1    2    0    0  0.31210758256E+02  0.26165077531E+02  0.19245538709E+02  0.45045682072E+02  0.00000000000E+00 0.  1.
         11    1    3    3    0    0 -0.20010245062E+01 -0.16158157427E+01 -0.27401779488E+01  0.37581291943E+01  0.51100000000E-03 0. -1.
        -11    1    3    3    0    0 -0.22694692414E+02 -0.14855673070E+02 -0.13627268279E+02  0.30355271818E+02  0.51100000000E-03 0.  1.
        -12    1    3    3    0    0 -0.65150413362E+01 -0.96935887179E+01 -0.28780924814E+01  0.12028916916E+02  0.00000000000E+00 0.  1.
</event>
<event>
 7    1  0.1785890E-008  0.4614232E+02  0.7816164E-02  0.1320468E+00
        -11   -1    0    0    0    0  0.00000000000E+00  0.00000000000E+00  0.45593999997E+02  0.45594000000E+02  0.51100000000E-03 0. -1.
         11   -1    0    0    0    0 -0.00000000000E+00 -0.00000000000E+00 -0.45593999997E+02  0.45594000000E+02  0.51100000000E-03 0.  1.
    9900012    2    1    2    0    0  0.36396449160E+02  0.21623335849E+02  0.15389713335E+02  0.46142318285E+02  0.10000004775E+02 0.  0.
        -12    1    1    2    0    0 -0.36396449160E+02 -0.21623335849E+02 -0.15389713335E+02  0.45045681715E+02  0.00000000000E+00 0.  1.
         11    1    3    3    0    0  0.14292484518E+02  0.86986814586E+01  0.20003200468E+01  0.16850621750E+02  0.51100000000E-03 0. -1.
        -11    1    3    3    0    0 -0.51867188964E-02 -0.16493747441E+00 -0.17247743518E+00  0.23870483716E+00  0.51100000000E-03 0.  1.
         12    1    3    3    0    0  0.22109151361E+02  0.13089591865E+02  0.13561870723E+02  0.29052991698E+02  0.00000000000E+00 0. -1.
</event>
<event>
 7    1  0.1549900E-008  0.4614232E+02  0.7816164E-02  0.1320468E+00
        -11   -1    0    0    0    0  0.00000000000E+00  0.00000000000E+00  0.45593999997E+02  0.45594000000E+02  0.51100000000E-03 0. -1.
         11   -1    0    0    0    0 -0.00000000000E+00 -0.00000000000E+00 -0.45593999997E+02  0.45594000000E+02  0.51100000000E-03 0.  1.
    9900012    2    1    2    0    0 -0.29006115654E+02 -0.22471082230E+02  0.26130619281E+02  0.46142317122E+02  0.99999941735E+01 0.  0.
        -12    1    1    2    0    0  0.29006115654E+02  0.22471082230E+02 -0.26130619281E+02  0.45045682878E+02  0.00000000000E+00 0.  1.
         11    1    3    3    0    0 -0.13447313180E+02 -0.13930663954E+02  0.12991461506E+02  0.23316768693E+02  0.51100000000E-03 0. -1.
        -11    1    3    3    0    0 -0.99996810228E+01 -0.32005780862E+01  0.10009589622E+02  0.14506178177E+02  0.51100000000E-03 0.  1.
         12    1    3    3    0    0 -0.55591214514E+01 -0.53398401901E+01  0.31295681524E+01  0.83193702519E+01  0.00000000000E+00 0. -1.
</event>
<event>
 7    1  0.1549900E-008  0.4614232E+02  0.7816164E-02  0.1320468E+00
        -11   -1    0    0    0    0  0.00000000000E+00  0.00000000000E+00  0.45593999997E+02  0.45594000000E+02  0.51100000000E-03 0. -1.
         11   -1    0    0    0    0 -0.00000000000E+00 -0.00000000000E+00 -0.45593999997E+02  0.45594000000E+02  0.51100000000E-03 0.  1.
    9900012    2    1    2    0    0  0.28934096759E+02 -0.26561825803E+02  0.22054498590E+02  0.46142318150E+02  0.10000003546E+02 0.  0.
        -12    1    1    2    0    0 -0.28934096759E+02  0.26561825803E+02 -0.22054498590E+02  0.45045681850E+02  0.00000000000E+00 0.  1.
         11    1    3    3    0    0  0.14320404604E+02 -0.98827506359E+01  0.86800667066E+01  0.19444441531E+02  0.51100000000E-03 0. -1.
        -11    1    3    3    0    0  0.54818945569E+01 -0.39070458612E+01  0.71163970057E+01  0.97958808639E+01  0.51100000000E-03 0.  1.
        -12    1    3    3    0    0  0.91317975980E+01 -0.12772029306E+02  0.62580348774E+01  0.16901995755E+02  0.00000000000E+00 0.  1.
</event>
<event>
 7    1  0.1549900E-008  0.4614232E+02  0.7816164E-02  0.1320468E+00
        -11   -1    0    0    0    0  0.00000000000E+00  0.00000000000E+00  0.45593999997E+02  0.45594000000E+02  0.51100000000E-03 0.  1.
         11   -1    0    0    0    0 -0.00000000000E+00 -0.00000000000E+00 -0.45593999997E+02  0.45594000000E+02  0.51100000000E-03 0. -1.
    9900012    2    1    2    0    0 -0.32462493451E+02 -0.28052777355E+02 -0.13723763390E+02  0.46142317855E+02  0.10000000852E+02 0.  0.
        -12    1    1    2    0    0  0.32462493451E+02  0.28052777355E+02  0.13723763390E+02  0.45045682145E+02  0.00000000000E+00 0.  1.
         11    1    3    3    0    0 -0.69412823234E+01 -0.77653796532E+01 -0.35010622794E+01  0.10988173588E+02  0.51100000000E-03 0. -1.
        -11    1    3    3    0    0 -0.26589586161E+01 -0.26211759664E+01  0.14328511571E+01  0.39992108057E+01  0.51100000000E-03 0.  1.
        -12    1    3    3    0    0 -0.22862252511E+02 -0.17666221735E+02 -0.11655552268E+02  0.31154933461E+02  0.00000000000E+00 0.  1.
</event>
<event>
 7    1  0.1549900E-008  0.4614231E+02  0.7816164E-02  0.1320468E+00
        -11   -1    0    0    0    0  0.00000000000E+00  0.00000000000E+00  0.45593999997E+02  0.45594000000E+02  0.51100000000E-03 0. -1.
         11   -1    0    0    0    0 -0.00000000000E+00 -0.00000000000E+00 -0.45593999997E+02  0.45594000000E+02  0.51100000000E-03 0.  1.
    9900012    2    1    2    0    0  0.18285899266E+02 -0.40629750442E+02 -0.66304848243E+01  0.46142311394E+02  0.99999419420E+01 0.  0.
        -12    1    1    2    0    0 -0.18285899266E+02  0.40629750442E+02  0.66304848243E+01  0.45045688606E+02  0.00000000000E+00 0.  1.
         11    1    3    3    0    0  0.45968044878E+01 -0.12698743861E+02 -0.24720165326E+01  0.13729514673E+02  0.51100000000E-03 0. -1.
        -11    1    3    3    0    0  0.11547042623E+02 -0.16739199999E+02 -0.51416766489E+01  0.20975505928E+02  0.51100000000E-03 0.  1.
        -12    1    3    3    0    0  0.21420521552E+01 -0.11191806583E+02  0.98320835723E+00  0.11437290793E+02  0.00000000000E+00 0.  1.
</event>
<event>
 7    1  0.1549900E-008  0.4614232E+02  0.7816164E-02  0.1320468E+00
        -11   -1    0    0    0    0  0.00000000000E+00  0.00000000000E+00  0.45593999997E+02  0.45594000000E+02  0.51100000000E-03 0.  1.
         11   -1    0    0    0    0 -0.00000000000E+00 -0.00000000000E+00 -0.45593999997E+02  0.45594000000E+02  0.51100000000E-03 0. -1.
    9900012    2    1    2    0    0 -0.22088979826E+02  0.15340408689E+02 -0.36136718368E+02  0.46142316712E+02  0.99999904305E+01 0.  0.
        -12    1    1    2    0    0  0.22088979826E+02 -0.15340408689E+02  0.36136718368E+02  0.45045683288E+02  0.00000000000E+00 0.  1.
         11    1    3    3    0    0 -0.89183203651E+01  0.94103713686E+01 -0.18097601124E+02  0.22262405399E+02  0.51100000000E-03 0. -1.
        -11    1    3    3    0    0 -0.52423048696E+01  0.56563990373E+00 -0.10296252904E+02  0.11567823174E+02  0.51100000000E-03 0.  1.
        -12    1    3    3    0    0 -0.79283545909E+01  0.53643974170E+01 -0.77428643399E+01  0.12312088139E+02  0.00000000000E+00 0.  1.
</event>
<event>
 7    1  0.1549900E-008  0.4614232E+02  0.7816164E-02  0.1320468E+00
        -11   -1    0    0    0    0  0.00000000000E+00  0.00000000000E+00  0.45593999997E+02  0.45594000000E+02  0.51100000000E-03 0. -1.
         11   -1    0    0    0    0 -0.00000000000E+00 -0.00000000000E+00 -0.45593999997E+02  0.45594000000E+02  0.51100000000E-03 0.  1.
    9900012    2    1    2    0    0 -0.39301389966E+02  0.13331509839E+02  0.17515281364E+02  0.46142317753E+02  0.99999999262E+01 0.  0.
        -12    1    1    2    0    0  0.39301389966E+02 -0.13331509839E+02 -0.17515281364E+02  0.45045682247E+02  0.00000000000E+00 0.  1.
         11    1    3    3    0    0 -0.26298573239E+02  0.98797530341E+01  0.11509057237E+02  0.30359230444E+02  0.51100000000E-03 0.  1.
        -11    1    3    3    0    0 -0.10724902530E+02  0.14224881394E+01  0.24409874480E+01  0.11090781162E+02  0.51100000000E-03 0. -1.
         12    1    3    3    0    0 -0.22779141965E+01  0.20292686655E+01  0.35652366784E+01  0.46923061469E+01  0.00000000000E+00 0. -1.
</event>
<event>
 7    1  0.1549900E-008  0.4614232E+02  0.7816164E-02  0.1320468E+00
        -11   -1    0    0    0    0  0.00000000000E+00  0.00000000000E+00  0.45593999997E+02  0.45594000000E+02  0.51100000000E-03 0. -1.
         11   -1    0    0    0    0 -0.00000000000E+00 -0.00000000000E+00 -0.45593999997E+02  0.45594000000E+02  0.51100000000E-03 0.  1.
    9900012    2    1    2    0    0  0.10124617450E+02  0.39315281613E+02  0.19517024368E+02  0.46142317776E+02  0.10000000139E+02 0.  0.
        -12    1    1    2    0    0 -0.10124617450E+02 -0.39315281613E+02 -0.19517024368E+02  0.45045682224E+02  0.00000000000E+00 0.  1.
         11    1    3    3    0    0 -0.13286317589E+01  0.66024223348E+01  0.17573046765E+01  0.69602703270E+01  0.51100000000E-03 0. -1.
        -11    1    3    3    0    0  0.45426929845E+01  0.91468840498E+01  0.69289523024E+01  0.12341471859E+02  0.51100000000E-03 0.  1.
         12    1    3    3    0    0  0.69105562248E+01  0.23565975228E+02  0.10830767389E+02  0.26840575591E+02  0.00000000000E+00 0. -1.
</event>
<event>
 7    1  0.1549900E-008  0.4614232E+02  0.7816164E-02  0.1320468E+00
        -11   -1    0    0    0    0  0.00000000000E+00  0.00000000000E+00  0.45593999997E+02  0.45594000000E+02  0.51100000000E-03 0.  1.
         11   -1    0    0    0    0 -0.00000000000E+00 -0.00000000000E+00 -0.45593999997E+02  0.45594000000E+02  0.51100000000E-03 0. -1.
    9900012    2    1    2    0    0 -0.15890080177E+01 -0.60228614907E+01 -0.44612931544E+02  0.46142317988E+02  0.10000002067E+02 0.  0.
        -12    1    1    2    0    0  0.15890080177E+01  0.60228614907E+01  0.44612931544E+02  0.45045682012E+02  0.00000000000E+00 0.  1.
         11    1    3    3    0    0 -0.56318893621E+00 -0.11348347421E+01 -0.15999266705E+02  0.16049347870E+02  0.51100000000E-03 0. -1.
        -11    1    3    3    0    0 -0.86748106686E+00 -0.57453951029E+01 -0.10849877665E+02  0.12307799718E+02  0.51100000000E-03 0.  1.
        -12    1    3    3    0    0 -0.15833801463E+00  0.85736835434E+00 -0.17763787174E+02  0.17785170400E+02  0.00000000000E+00 0.  1.
</event>
<event>
 7    1  0.1549900E-008  0.4614232E+02  0.7816164E-02  0.1320468E+00
        -11   -1    0    0    0    0  0.00000000000E+00  0.00000000000E+00  0.45593999997E+02  0.45594000000E+02  0.51100000000E-03 0.  1.
         11   -1    0    0    0    0 -0.00000000000E+00 -0.00000000000E+00 -0.45593999997E+02  0.45594000000E+02  0.51100000000E-03 0. -1.
    9900012    2    1    2    0    0 -0.77570278700E+01  0.43326443344E+02  0.95792099569E+01  0.46142318325E+02  0.10000005138E+02 0.  0.
        -12    1    1    2    0    0  0.77570278700E+01 -0.43326443344E+02 -0.95792099569E+01  0.45045681675E+02  0.00000000000E+00 0.  1.
         11    1    3    3    0    0 -0.72932967547E+01  0.41446253033E+02  0.84054016973E+01  0.42914273220E+02  0.51100000000E-03 0. -1.
        -11    1    3    3    0    0 -0.12250830394E+01  0.18727555357E+01  0.97561818079E+00  0.24412850808E+01  0.51100000000E-03 0.  1.
         12    1    3    3    0    0  0.76135192406E+00  0.74347753018E-02  0.19819007881E+00  0.78676002408E+00  0.00000000000E+00 0. -1.
</event>
<event>
 7    1  0.1549900E-008  0.4614232E+02  0.7816164E-02  0.1320468E+00
        -11   -1    0    0    0    0  0.00000000000E+00  0.00000000000E+00  0.45593999997E+02  0.45594000000E+02  0.51100000000E-03 0.  1.
         11   -1    0    0    0    0 -0.00000000000E+00 -0.00000000000E+00 -0.45593999997E+02  0.45594000000E+02  0.51100000000E-03 0. -1.
    9900012    2    1    2    0    0 -0.40837519861E+02  0.32484003570E+01  0.18731214988E+02  0.46142317097E+02  0.99999939400E+01 0.  0.
        -12    1    1    2    0    0  0.40837519861E+02 -0.32484003570E+01 -0.18731214988E+02  0.45045682903E+02  0.00000000000E+00 0.  1.
         11    1    3    3    0    0 -0.35275265835E+02  0.40261342860E+01  0.13022928464E+02  0.37817334690E+02  0.51100000000E-03 0. -1.
        -11    1    3    3    0    0 -0.51401397869E+01  0.59175204992E-02  0.51386607762E+01  0.72682120827E+01  0.51100000000E-03 0.  1.
        -12    1    3    3    0    0 -0.42211424010E+00 -0.78365144949E+00  0.56962574721E+00  0.10567703241E+01  0.00000000000E+00 0.  1.
</event>
<event>
 7    1  0.1549900E-008  0.4614232E+02  0.7816164E-02  0.1320468E+00
        -11   -1    0    0    0    0  0.00000000000E+00  0.00000000000E+00  0.45593999997E+02  0.45594000000E+02  0.51100000000E-03 0.  1.
         11   -1    0    0    0    0 -0.00000000000E+00 -0.00000000000E+00 -0.45593999997E+02  0.45594000000E+02  0.51100000000E-03 0. -1.
    9900012    2    1    2    0    0 -0.13098525278E+02 -0.30779713337E+02 -0.30168715275E+02  0.46142317644E+02  0.99999989334E+01 0.  0.
        -12    1    1    2    0    0  0.13098525278E+02  0.30779713337E+02  0.30168715275E+02  0.45045682356E+02  0.00000000000E+00 0.  1.
         11    1    3    3    0    0 -0.88130333912E+00 -0.58687042212E+01 -0.64121370643E+01  0.87369266223E+01  0.51100000000E-03 0. -1.
        -11    1    3    3    0    0 -0.14434695080E+01 -0.98726640976E+01 -0.54046166697E+01  0.11347377768E+02  0.51100000000E-03 0.  1.
        -12    1    3    3    0    0 -0.10773752431E+02 -0.15038345018E+02 -0.18351961541E+02  0.26058013254E+02  0.00000000000E+00 0.  1.
</event>
<event>
 7    1  0.1549900E-008  0.4614232E+02  0.7816164E-02  0.1320468E+00
        -11   -1    0    0    0    0  0.00000000000E+00  0.00000000000E+00  0.45593999997E+02  0.45594000000E+02  0.51100000000E-03 0. -1.
         11   -1    0    0    0    0 -0.00000000000E+00 -0.00000000000E+00 -0.45593999997E+02  0.45594000000E+02  0.51100000000E-03 0.  1.
    9900012    2    1    2    0    0 -0.40256067376E+02 -0.18657258035E+02 -0.77761948573E+01  0.46142318248E+02  0.10000004443E+02 0.  0.
        -12    1    1    2    0    0  0.40256067376E+02  0.18657258035E+02  0.77761948573E+01  0.45045681752E+02  0.00000000000E+00 0.  1.
         11    1    3    3    0    0 -0.10498423360E+02 -0.56342106050E+01  0.15928267123E+01  0.12020745376E+02  0.51100000000E-03 0. -1.
        -11    1    3    3    0    0 -0.12365013795E+02 -0.52342942852E+01 -0.62516968471E+01  0.14811317178E+02  0.51100000000E-03 0.  1.
        -12    1    3    3    0    0 -0.17392630221E+02 -0.77887531452E+01 -0.31173247225E+01  0.19310255694E+02  0.00000000000E+00 0.  1.
</event>
<event>
 7    1  0.1549900E-008  0.4614232E+02  0.7816164E-02  0.1320468E+00
        -11   -1    0    0    0    0  0.00000000000E+00  0.00000000000E+00  0.45593999997E+02  0.45594000000E+02  0.51100000000E-03 0.  1.
         11   -1    0    0    0    0 -0.00000000000E+00 -0.00000000000E+00 -0.45593999997E+02  0.45594000000E+02  0.51100000000E-03 0. -1.
    9900012    2    1    2    0    0 -0.95263582145E+01 -0.43047084671E+02 -0.92363646458E+01  0.46142318394E+02  0.10000005770E+02 0.  0.
        -12    1    1    2    0    0  0.95263582145E+01  0.43047084671E+02  0.92363646458E+01  0.45045681606E+02  0.00000000000E+00 0.  1.
         11    1    3    3    0    0 -0.84684217712E+01 -0.21095299167E+02 -0.13747069305E+01  0.22773134032E+02  0.51100000000E-03 0. -1.
        -11    1    3    3    0    0  0.75912522551E-01 -0.10263678956E+02 -0.37139377274E+01  0.10915227993E+02  0.51100000000E-03 0.  1.
         12    1    3    3    0    0 -0.11338489658E+01 -0.11688106548E+02 -0.41477199879E+01  0.12453956369E+02  0.00000000000E+00 0. -1.
</event>
<event>
 7    1  0.1549900E-008  0.4614232E+02  0.7816164E-02  0.1320468E+00
        -11   -1    0    0    0    0  0.00000000000E+00  0.00000000000E+00  0.45593999997E+02  0.45594000000E+02  0.51100000000E-03 0.  1.
         11   -1    0    0    0    0 -0.00000000000E+00 -0.00000000000E+00 -0.45593999997E+02  0.45594000000E+02  0.51100000000E-03 0. -1.
    9900012    2    1    2    0    0 -0.21895410526E+02  0.18156163434E+02  0.34929331488E+02  0.46142317955E+02  0.10000001764E+02 0.  0.
        -12    1    1    2    0    0  0.21895410526E+02 -0.18156163434E+02 -0.34929331488E+02  0.45045682045E+02  0.00000000000E+00 0.  1.
         11    1    3    3    0    0 -0.10373575365E+02  0.77120564976E+01  0.20903178334E+02  0.24577016621E+02  0.51100000000E-03 0. -1.
        -11    1    3    3    0    0 -0.10098831387E+02  0.66035412940E+01  0.11914560790E+02  0.16957296722E+02  0.51100000000E-03 0.  1.
        -12    1    3    3    0    0 -0.14230037739E+01  0.38405656421E+01  0.21115923633E+01  0.46080046116E+01  0.00000000000E+00 0.  1.
</event>
<event>
 7    1  0.1549900E-008  0.4614232E+02  0.7816164E-02  0.1320468E+00
        -11   -1    0    0    0    0  0.00000000000E+00  0.00000000000E+00  0.45593999997E+02  0.45594000000E+02  0.51100000000E-03 0. -1.
         11   -1    0    0    0    0 -0.00000000000E+00 -0.00000000000E+00 -0.45593999997E+02  0.45594000000E+02  0.51100000000E-03 0.  1.
    9900012    2    1    2    0    0  0.20627346445E+02  0.19115548325E+01  0.39999650246E+02  0.46142317820E+02  0.10000000538E+02 0.  0.
        -12    1    1    2    0    0 -0.20627346445E+02 -0.19115548325E+01 -0.39999650246E+02  0.45045682180E+02  0.00000000000E+00 0.  1.
         11    1    3    3    0    0  0.29288359118E+01  0.11602088159E+01  0.28643656348E+01  0.42577875764E+01  0.51100000000E-03 0. -1.
        -11    1    3    3    0    0  0.14565494224E+02  0.29946776169E+01  0.33193875416E+02  0.36372449484E+02  0.51100000000E-03 0.  1.
        -12    1    3    3    0    0  0.31330163096E+01 -0.22433316004E+01  0.39414091948E+01  0.55120807601E+01  0.00000000000E+00 0.  1.
</event>
<event>
 7    1  0.1549900E-008  0.4614232E+02  0.7816164E-02  0.1320468E+00
        -11   -1    0    0    0    0  0.00000000000E+00  0.00000000000E+00  0.45593999997E+02  0.45594000000E+02  0.51100000000E-03 0.  1.
         11   -1    0    0    0    0 -0.00000000000E+00 -0.00000000000E+00 -0.45593999997E+02  0.45594000000E+02  0.51100000000E-03 0. -1.
    9900012    2    1    2    0    0 -0.17198170614E+02 -0.36360033730E+02 -0.20280146716E+02  0.46142317897E+02  0.10000001237E+02 0.  0.
        -12    1    1    2    0    0  0.17198170614E+02  0.36360033730E+02  0.20280146716E+02  0.45045682103E+02  0.00000000000E+00 0.  1.
         11    1    3    3    0    0 -0.59873644730E+01 -0.81582331752E+01 -0.72510183245E+01  0.12449199528E+02  0.51100000000E-03 0. -1.
        -11    1    3    3    0    0 -0.93761016415E+01 -0.26630522208E+02 -0.10311220043E+02  0.30056900274E+02  0.51100000000E-03 0.  1.
        -12    1    3    3    0    0 -0.18347044995E+01 -0.15712783469E+01 -0.27179083483E+01  0.36362180949E+01  0.00000000000E+00 0.  1.
</event>
<event>
 7    1  0.1549900E-008  0.4614232E+02  0.7816164E-02  0.1320468E+00
        -11   -1    0    0    0    0  0.00000000000E+00  0.00000000000E+00  0.45593999997E+02  0.45594000000E+02  0.51100000000E-03 0. -1.
         11   -1    0    0    0    0 -0.00000000000E+00 -0.00000000000E+00 -0.45593999997E+02  0.45594000000E+02  0.51100000000E-03 0.  1.
    9900012    2    1    2    0    0 -0.32052830434E+02  0.31064858905E+02  0.60583878290E+01  0.46142318068E+02  0.10000002803E+02 0.  0.
        -12    1    1    2    0    0  0.32052830434E+02 -0.31064858905E+02 -0.60583878290E+01  0.45045681932E+02  0.00000000000E+00 0.  1.
         11    1    3    3    0    0 -0.38735109577E+01  0.47843504449E+01  0.38302590927E+01  0.72501711220E+01  0.51100000000E-03 0.  1.
        -11    1    3    3    0    0 -0.13811730400E+02  0.96541405101E+01  0.11989482870E+01  0.16893898392E+02  0.51100000000E-03 0. -1.
         12    1    3    3    0    0 -0.14367589077E+02  0.16626367949E+02  0.10291804493E+01  0.21998248554E+02  0.00000000000E+00 0. -1.
</event>
<event>
 7    1  0.1549900E-008  0.4614232E+02  0.7816164E-02  0.1320468E+00
        -11   -1    0    0    0    0  0.00000000000E+00  0.00000000000E+00  0.45593999997E+02  0.45594000000E+02  0.51100000000E-03 0. -1.
         11   -1    0    0    0    0 -0.00000000000E+00 -0.00000000000E+00 -0.45593999997E+02  0.45594000000E+02  0.51100000000E-03 0.  1.
    9900012    2    1    2    0    0 -0.10188571930E+02  0.33490365841E+02  0.28349635469E+02  0.46142318371E+02  0.10000005566E+02 0.  0.
        -12    1    1    2    0    0  0.10188571930E+02 -0.33490365841E+02 -0.28349635469E+02  0.45045681629E+02  0.00000000000E+00 0.  1.
         11    1    3    3    0    0 -0.23646586521E+01  0.18575093590E+02  0.15703614967E+02  0.24438273992E+02  0.51100000000E-03 0. -1.
        -11    1    3    3    0    0 -0.23336559891E+01  0.26282399465E+01  0.45253551344E+00  0.35437810519E+01  0.51100000000E-03 0.  1.
         12    1    3    3    0    0 -0.54902572887E+01  0.12287032304E+02  0.12193484989E+02  0.18160263327E+02  0.00000000000E+00 0. -1.
</event>
<event>
 7    1  0.1549900E-008  0.4614232E+02  0.7816164E-02  0.1320468E+00
        -11   -1    0    0    0    0  0.00000000000E+00  0.00000000000E+00  0.45593999997E+02  0.45594000000E+02  0.51100000000E-03 0.  1.
         11   -1    0    0    0    0 -0.00000000000E+00 -0.00000000000E+00 -0.45593999997E+02  0.45594000000E+02  0.51100000000E-03 0. -1.
    9900012    2    1    2    0    0 -0.10647855287E+02 -0.11054872255E+00 -0.43768988544E+02  0.46142318726E+02  0.10000008800E+02 0.  0.
        -12    1    1    2    0    0  0.10647855287E+02  0.11054872255E+00  0.43768988544E+02  0.45045681274E+02  0.00000000000E+00 0.  1.
         11    1    3    3    0    0 -0.50844050049E+01  0.28208179144E+00 -0.95191452303E+01  0.10795594961E+02  0.51100000000E-03 0. -1.
        -11    1    3    3    0    0 -0.40041319886E+01 -0.19955110296E+01 -0.95513241729E+01  0.10547176445E+02  0.51100000000E-03 0.  1.
        -12    1    3    3    0    0 -0.15593182931E+01  0.16028805156E+01 -0.24698519141E+02  0.24799547320E+02  0.00000000000E+00 0.  1.
</event>
<event>
 7    1  0.1549900E-008  0.4614232E+02  0.7816164E-02  0.1320468E+00
        -11   -1    0    0    0    0  0.00000000000E+00  0.00000000000E+00  0.45593999997E+02  0.45594000000E+02  0.51100000000E-03 0.  1.
         11   -1    0    0    0    0 -0.00000000000E+00 -0.00000000000E+00 -0.45593999997E+02  0.45594000000E+02  0.51100000000E-03 0. -1.
    9900012    2    1    2    0    0 -0.22894827219E+02 -0.30779894463E+01 -0.38671261184E+02  0.46142316810E+02  0.99999913311E+01 0.  0.
        -12    1    1    2    0    0  0.22894827219E+02  0.30779894463E+01  0.38671261184E+02  0.45045683190E+02  0.00000000000E+00 0.  1.
         11    1    3    3    0    0 -0.95887784188E+01  0.74914298497E+00 -0.16872207237E+02  0.19421052085E+02  0.51100000000E-03 0. -1.
        -11    1    3    3    0    0 -0.48263332346E+01  0.55170654414E+00 -0.12438365072E+02  0.13353306651E+02  0.51100000000E-03 0.  1.
         12    1    3    3    0    0 -0.84797155659E+01 -0.43788389755E+01 -0.93606888755E+01  0.13367958074E+02  0.00000000000E+00 0. -1.
</event>
<event>
 7    1  0.1549900E-008  0.4614232E+02  0.7816164E-02  0.1320468E+00
        -11   -1    0    0    0    0  0.00000000000E+00  0.00000000000E+00  0.45593999997E+02  0.45594000000E+02  0.51100000000E-03 0.  1.
         11   -1    0    0    0    0 -0.00000000000E+00 -0.00000000000E+00 -0.45593999997E+02  0.45594000000E+02  0.51100000000E-03 0. -1.
    9900012    2    1    2    0    0 -0.19660652503E+02 -0.19122194898E+02 -0.35733932751E+02  0.46142317139E+02  0.99999943295E+01 0.  0.
        -12    1    1    2    0    0  0.19660652503E+02  0.19122194898E+02  0.35733932751E+02  0.45045682861E+02  0.00000000000E+00 0.  1.
         11    1    3    3    0    0  0.48428182207E+00  0.37613104616E+00 -0.19740743670E+01  0.20671171507E+01  0.51100000000E-03 0. -1.
        -11    1    3    3    0    0 -0.33514712005E+00 -0.15124459868E+01 -0.23389346798E+01  0.28054290496E+01  0.51100000000E-03 0.  1.
         12    1    3    3    0    0 -0.19809787205E+02 -0.17985879957E+02 -0.31420923704E+02  0.41269770939E+02  0.00000000000E+00 0. -1.
</event>
<event>
 7    1  0.1549900E-008  0.4614232E+02  0.7816164E-02  0.1320468E+00
        -11   -1    0    0    0    0  0.00000000000E+00  0.00000000000E+00  0.45593999997E+02  0.45594000000E+02  0.51100000000E-03 0.  1.
         11   -1    0    0    0    0 -0.00000000000E+00 -0.00000000000E+00 -0.45593999997E+02  0.45594000000E+02  0.51100000000E-03 0. -1.
    9900012    2    1    2    0    0  0.38399432274E+02  0.22970578626E+02 -0.51913052949E+01  0.46142317276E+02  0.99999955777E+01 0.  0.
        -12    1    1    2    0    0 -0.38399432274E+02 -0.22970578626E+02  0.51913052949E+01  0.45045682724E+02  0.00000000000E+00 0.  1.
         11    1    3    3    0    0  0.15665889733E+02  0.10050799054E+02 -0.39646330699E+01  0.19030422444E+02  0.51100000000E-03 0. -1.
        -11    1    3    3    0    0  0.54856074513E+01  0.22064607367E+01 -0.31803213040E+01  0.67137770257E+01  0.51100000000E-03 0.  1.
        -12    1    3    3    0    0  0.17247935090E+02  0.10713318835E+02  0.19536490790E+01  0.20398117806E+02  0.00000000000E+00 0.  1.
</event>
<event>
 7    1  0.1549900E-008  0.4614232E+02  0.7816164E-02  0.1320468E+00
        -11   -1    0    0    0    0  0.00000000000E+00  0.00000000000E+00  0.45593999997E+02  0.45594000000E+02  0.51100000000E-03 0.  1.
         11   -1    0    0    0    0 -0.00000000000E+00 -0.00000000000E+00 -0.45593999997E+02  0.45594000000E+02  0.51100000000E-03 0. -1.
    9900012    2    1    2    0    0 -0.26305706195E+02  0.17110864649E+02 -0.32316274208E+02  0.46142318229E+02  0.10000004271E+02 0.  0.
        -12    1    1    2    0    0  0.26305706195E+02 -0.17110864649E+02  0.32316274208E+02  0.45045681771E+02  0.00000000000E+00 0.  1.
         11    1    3    3    0    0 -0.15372363037E+02  0.75439940529E+01 -0.13180545942E+02  0.21608983854E+02  0.51100000000E-03 0. -1.
        -11    1    3    3    0    0 -0.44729205436E+01  0.62155164621E+01 -0.12637357478E+02  0.14776415918E+02  0.51100000000E-03 0.  1.
        -12    1    3    3    0    0 -0.64604226144E+01  0.33513541341E+01 -0.64983707885E+01  0.97569184579E+01  0.00000000000E+00 0.  1.
</event>
<event>
 7    1  0.1549900E-008  0.4614232E+02  0.7816164E-02  0.1320468E+00
        -11   -1    0    0    0    0  0.00000000000E+00  0.00000000000E+00  0.45593999997E+02  0.45594000000E+02  0.51100000000E-03 0.  1.
         11   -1    0    0    0    0 -0.00000000000E+00 -0.00000000000E+00 -0.45593999997E+02  0.45594000000E+02  0.51100000000E-03 0. -1.
    9900012    2    1    2    0    0  0.68832878785E+01 -0.39183262825E+02 -0.21128317098E+02  0.46142317399E+02  0.99999966941E+01 0.  0.
        -12    1    1    2    0    0 -0.68832878785E+01  0.39183262825E+02  0.21128317098E+02  0.45045682601E+02  0.00000000000E+00 0.  1.
         11    1    3    3    0    0  0.30563600865E+01 -0.14545768164E+02 -0.50348531922E+01  0.15693006576E+02  0.51100000000E-03 0. -1.
        -11    1    3    3    0    0 -0.17741380686E-01 -0.17719030912E+02 -0.92610529179E+01  0.19993285689E+02  0.51100000000E-03 0.  1.
        -12    1    3    3    0    0  0.38446691727E+01 -0.69184637483E+01 -0.68324109882E+01  0.10456025134E+02  0.00000000000E+00 0.  1.
</event>
<event>
 7    1  0.1549900E-008  0.4614232E+02  0.7816164E-02  0.1320468E+00
        -11   -1    0    0    0    0  0.00000000000E+00  0.00000000000E+00  0.45593999997E+02  0.45594000000E+02  0.51100000000E-03 0.  1.
         11   -1    0    0    0    0 -0.00000000000E+00 -0.00000000000E+00 -0.45593999997E+02  0.45594000000E+02  0.51100000000E-03 0. -1.
    9900012    2    1    2    0    0 -0.26415626072E+02 -0.24351264596E+02 -0.27172488107E+02  0.46142317653E+02  0.99999990141E+01 0.  0.
        -12    1    1    2    0    0  0.26415626072E+02  0.24351264596E+02  0.27172488107E+02  0.45045682347E+02  0.00000000000E+00 0.  1.
         11    1    3    3    0    0 -0.17196278960E+02 -0.12350030634E+02 -0.14240293950E+02  0.25515117848E+02  0.51100000000E-03 0. -1.
        -11    1    3    3    0    0 -0.27518778042E+01 -0.45056851794E+01 -0.79519867528E+01  0.95450575673E+01  0.51100000000E-03 0.  1.
         12    1    3    3    0    0 -0.64674693074E+01 -0.74955487827E+01 -0.49802074037E+01  0.11082142238E+02  0.00000000000E+00 0. -1.
</event>
<event>
 7    1  0.1549900E-008  0.4614232E+02  0.7816164E-02  0.1320468E+00
        -11   -1    0    0    0    0  0.00000000000E+00  0.00000000000E+00  0.45593999997E+02  0.45594000000E+02  0.51100000000E-03 0.  1.
         11   -1    0    0    0    0 -0.00000000000E+00 -0.00000000000E+00 -0.45593999997E+02  0.45594000000E+02  0.51100000000E-03 0. -1.
    9900012    2    1    2    0    0  0.35934984073E+02  0.25519857625E+02 -0.93020135499E+01  0.46142315749E+02  0.99999816534E+01 0.  0.
        -12    1    1    2    0    0 -0.35934984073E+02 -0.25519857625E+02  0.93020135499E+01  0.45045684251E+02  0.00000000000E+00 0.  1.
         11    1    3    3    0    0  0.21009898764E+02  0.10817310443E+02 -0.72937272291E+01  0.24731124286E+02  0.51100000000E-03 0. -1.
        -11    1    3    3    0    0  0.45517992121E+01  0.62119207991E+01  0.70841884571E+00  0.77336080586E+01  0.51100000000E-03 0.  1.
         12    1    3    3    0    0  0.10373286097E+02  0.84906263831E+01 -0.27167051666E+01  0.13677583405E+02  0.00000000000E+00 0. -1.
</event>
<event>
 7    1  0.1549900E-008  0.4614232E+02  0.7816164E-02  0.1320468E+00
        -11   -1    0    0    0    0  0.00000000000E+00  0.00000000000E+00  0.45593999997E+02  0.45594000000E+02  0.51100000000E-03 0. -1.
         11   -1    0    0    0    0 -0.00000000000E+00 -0.00000000000E+00 -0.45593999997E+02  0.45594000000E+02  0.51100000000E-03 0.  1.
    9900012    2    1    2    0    0  0.20643300374E+02  0.40011649984E+02  0.14267002718E+01  0.46142318093E+02  0.10000003028E+02 0.  0.
        -12    1    1    2    0    0 -0.20643300374E+02 -0.40011649984E+02 -0.14267002718E+01  0.45045681907E+02  0.00000000000E+00 0.  1.
         11    1    3    3    0    0  0.48255435696E+01  0.95645680448E+01 -0.18305160050E+01  0.10868193122E+02  0.51100000000E-03 0. -1.
        -11    1    3    3    0    0  0.85280373634E+01  0.87134158990E+01  0.14792225071E+01  0.12281658576E+02  0.51100000000E-03 0.  1.
        -12    1    3    3    0    0  0.72897194413E+01  0.21733666040E+02  0.17779937697E+01  0.22992466395E+02  0.00000000000E+00 0.  1.
</event>
<event>
 7    1  0.1549900E-008  0.4614232E+02  0.7816164E-02  0.1320468E+00
        -11   -1    0    0    0    0  0.00000000000E+00  0.00000000000E+00  0.45593999997E+02  0.45594000000E+02  0.51100000000E-03 0.  1.
         11   -1    0    0    0    0 -0.00000000000E+00 -0.00000000000E+00 -0.45593999997E+02  0.45594000000E+02  0.51100000000E-03 0. -1.
    9900012    2    1    2    0    0 -0.26608885891E+01  0.21897535854E+02 -0.39275068883E+02  0.46142318294E+02  0.10000004864E+02 0.  0.
        -12    1    1    2    0    0  0.26608885891E+01 -0.21897535854E+02  0.39275068883E+02  0.45045681706E+02  0.00000000000E+00 0.  1.
         11    1    3    3    0    0 -0.59254990358E+00  0.15410733910E+02 -0.19880816326E+02  0.25161253806E+02  0.51100000000E-03 0. -1.
        -11    1    3    3    0    0 -0.25200374741E+01  0.41635603474E+01 -0.81676356822E+01  0.95076861820E+01  0.51100000000E-03 0.  1.
         12    1    3    3    0    0  0.45169878859E+00  0.23232415960E+01 -0.11226616875E+02  0.11473378306E+02  0.00000000000E+00 0. -1.
</event>
<event>
 7    1  0.1549900E-008  0.4614232E+02  0.7816164E-02  0.1320468E+00
        -11   -1    0    0    0    0  0.00000000000E+00  0.00000000000E+00  0.45593999997E+02  0.45594000000E+02  0.51100000000E-03 0.  1.
         11   -1    0    0    0    0 -0.00000000000E+00 -0.00000000000E+00 -0.45593999997E+02  0.45594000000E+02  0.51100000000E-03 0. -1.
    9900012    2    1    2    0    0  0.16876389108E+02 -0.72565188594E+00 -0.41758524890E+02  0.46142317843E+02  0.10000000745E+02 0.  0.
        -12    1    1    2    0    0 -0.16876389108E+02  0.72565188594E+00  0.41758524890E+02  0.45045682157E+02  0.00000000000E+00 0.  1.
         11    1    3    3    0    0  0.81784921635E+01 -0.30679636521E+01 -0.19971065451E+02  0.21797788662E+02  0.51100000000E-03 0. -1.
        -11    1    3    3    0    0  0.14033244374E+00 -0.11494477644E+01 -0.54706285581E+01  0.55918423118E+01  0.51100000000E-03 0.  1.
         12    1    3    3    0    0  0.85575645010E+01  0.34917595306E+01 -0.16316830881E+02  0.18752686869E+02  0.00000000000E+00 0. -1.
</event>
<event>
 7    1  0.1549900E-008  0.4614232E+02  0.7816164E-02  0.1320468E+00
        -11   -1    0    0    0    0  0.00000000000E+00  0.00000000000E+00  0.45593999997E+02  0.45594000000E+02  0.51100000000E-03 0.  1.
         11   -1    0    0    0    0 -0.00000000000E+00 -0.00000000000E+00 -0.45593999997E+02  0.45594000000E+02  0.51100000000E-03 0. -1.
    9900012    2    1    2    0    0 -0.69239918898E+01 -0.43100264945E+02 -0.11114807374E+02  0.46142318243E+02  0.10000004392E+02 0.  0.
        -12    1    1    2    0    0  0.69239918898E+01  0.43100264945E+02  0.11114807374E+02  0.45045681757E+02  0.00000000000E+00 0.  1.
         11    1    3    3    0    0 -0.16165229678E+01 -0.42683507771E+01  0.27628657050E+00  0.45725593918E+01  0.51100000000E-03 0.  1.
        -11    1    3    3    0    0 -0.32915564745E+01 -0.19440221986E+02 -0.16785629753E+01  0.19788232584E+02  0.51100000000E-03 0. -1.
        -12    1    3    3    0    0 -0.20159124475E+01 -0.19391692182E+02 -0.97125309692E+01  0.21781526267E+02  0.00000000000E+00 0.  1.
</event>
<event>
 7    1  0.1549900E-008  0.4614232E+02  0.7816164E-02  0.1320468E+00
        -11   -1    0    0    0    0  0.00000000000E+00  0.00000000000E+00  0.45593999997E+02  0.45594000000E+02  0.51100000000E-03 0.  1.
         11   -1    0    0    0    0 -0.00000000000E+00 -0.00000000000E+00 -0.45593999997E+02  0.45594000000E+02  0.51100000000E-03 0. -1.
    9900012    2    1    2    0    0 -0.92417157666E+01  0.58476412865E+00 -0.44083582542E+02  0.46142317530E+02  0.99999978952E+01 0.  0.
        -12    1    1    2    0    0  0.92417157666E+01 -0.58476412865E+00  0.44083582542E+02  0.45045682470E+02  0.00000000000E+00 0.  1.
         11    1    3    3    0    0 -0.38615775186E+01 -0.11978943642E+01 -0.30680029169E+02  0.30945289172E+02  0.51100000000E-03 0. -1.
        -11    1    3    3    0    0 -0.52693883519E+01  0.20236027475E+01 -0.80215755623E+01  0.98085216238E+01  0.51100000000E-03 0.  1.
        -12    1    3    3    0    0 -0.11074989609E+00 -0.24094425465E+00 -0.53819778110E+01  0.53885067348E+01  0.00000000000E+00 0.  1.
</event>
<event>
 7    1  0.1549900E-008  0.4614232E+02  0.7816164E-02  0.1320468E+00
        -11   -1    0    0    0    0  0.00000000000E+00  0.00000000000E+00  0.45593999997E+02  0.45594000000E+02  0.51100000000E-03 0. -1.
         11   -1    0    0    0    0 -0.00000000000E+00 -0.00000000000E+00 -0.45593999997E+02  0.45594000000E+02  0.51100000000E-03 0.  1.
    9900012    2    1    2    0    0 -0.32688029411E+01  0.24409130265E+02  0.37717671211E+02  0.46142318358E+02  0.10000005446E+02 0.  0.
        -12    1    1    2    0    0  0.32688029411E+01 -0.24409130265E+02 -0.37717671211E+02  0.45045681642E+02  0.00000000000E+00 0.  1.
         11    1    3    3    0    0  0.54400913533E+00  0.69947192046E+01  0.97539929299E+01  0.12015091387E+02  0.51100000000E-03 0. -1.
        -11    1    3    3    0    0 -0.46920076530E+01  0.84929323597E+01  0.19584397294E+02  0.21856199430E+02  0.51100000000E-03 0.  1.
        -12    1    3    3    0    0  0.87919557658E+00  0.89214787011E+01  0.83792809868E+01  0.12271027542E+02  0.00000000000E+00 0.  1.
</event>
<event>
 7    1  0.1549900E-008  0.4614232E+02  0.7816164E-02  0.1320468E+00
        -11   -1    0    0    0    0  0.00000000000E+00  0.00000000000E+00  0.45593999997E+02  0.45594000000E+02  0.51100000000E-03 0.  1.
         11   -1    0    0    0    0 -0.00000000000E+00 -0.00000000000E+00 -0.45593999997E+02  0.45594000000E+02  0.51100000000E-03 0. -1.
    9900012    2    1    2    0    0  0.67231876925E+00 -0.39122056541E+02 -0.22318740437E+02  0.46142317685E+02  0.99999993093E+01 0.  0.
        -12    1    1    2    0    0 -0.67231876925E+00  0.39122056541E+02  0.22318740437E+02  0.45045682315E+02  0.00000000000E+00 0.  1.
         11    1    3    3    0    0 -0.17433307867E+00 -0.25796225770E+02 -0.94208777938E+01  0.27463222584E+02  0.51100000000E-03 0. -1.
        -11    1    3    3    0    0  0.13681029766E+01 -0.99450816291E+01 -0.10307751959E+02  0.14388401756E+02  0.51100000000E-03 0.  1.
         12    1    3    3    0    0 -0.52145112867E+00 -0.33807491414E+01 -0.25901106834E+01  0.42906933460E+01  0.00000000000E+00 0. -1.
</event>
<event>
 7    1  0.1549900E-008  0.4614231E+02  0.7816164E-02  0.1320468E+00
        -11   -1    0    0    0    0  0.00000000000E+00  0.00000000000E+00  0.45593999997E+02  0.45594000000E+02  0.51100000000E-03 0.  1.
         11   -1    0    0    0    0 -0.00000000000E+00 -0.00000000000E+00 -0.45593999997E+02  0.45594000000E+02  0.51100000000E-03 0. -1.
    9900012    2    1    2    0    0  0.30119076150E+02 -0.27825090479E+02 -0.18647238166E+02  0.46142313198E+02  0.99999583867E+01 0.  0.
        -12    1    1    2    0    0 -0.30119076150E+02  0.27825090479E+02  0.18647238166E+02  0.45045686802E+02  0.00000000000E+00 0.  1.
         11    1    3    3    0    0  0.23825816433E+02 -0.18488478366E+02 -0.14047165536E+02  0.33268847603E+02  0.51100000000E-03 0. -1.
        -11    1    3    3    0    0 -0.13180187334E-01 -0.26805141610E+01 -0.19946600959E+01  0.33412571054E+01  0.51100000000E-03 0.  1.
         12    1    3    3    0    0  0.63064399041E+01 -0.66560979517E+01 -0.26054125349E+01  0.95322084893E+01  0.00000000000E+00 0. -1.
</event>
<event>
 7    1  0.1549900E-008  0.4614232E+02  0.7816164E-02  0.1320468E+00
        -11   -1    0    0    0    0  0.00000000000E+00  0.00000000000E+00  0.45593999997E+02  0.45594000000E+02  0.51100000000E-03 0. -1.
         11   -1    0    0    0    0 -0.00000000000E+00 -0.00000000000E+00 -0.45593999997E+02  0.45594000000E+02  0.51100000000E-03 0.  1.
    9900012    2    1    2    0    0  0.41993686912E+02  0.27129502982E+01  0.16071202001E+02  0.46142319035E+02  0.10000011617E+02 0.  0.
        -12    1    1    2    0    0 -0.41993686912E+02 -0.27129502982E+01 -0.16071202001E+02  0.45045680965E+02  0.00000000000E+00 0.  1.
         11    1    3    3    0    0  0.25856318223E+02  0.23643202217E+00  0.84293094207E+01  0.27196660635E+02  0.51100000000E-03 0. -1.
        -11    1    3    3    0    0  0.60790246542E+01 -0.18685383798E+01  0.32434769563E+01  0.71390559215E+01  0.51100000000E-03 0.  1.
         12    1    3    3    0    0  0.10058344036E+02  0.43450566558E+01  0.43984156243E+01  0.11806602478E+02  0.00000000000E+00 0. -1.
</event>
<event>
 7    1  0.1549900E-008  0.4614232E+02  0.7816164E-02  0.1320468E+00
        -11   -1    0    0    0    0  0.00000000000E+00  0.00000000000E+00  0.45593999997E+02  0.45594000000E+02  0.51100000000E-03 0.  1.
         11   -1    0    0    0    0 -0.00000000000E+00 -0.00000000000E+00 -0.45593999997E+02  0.45594000000E+02  0.51100000000E-03 0. -1.
    9900012    2    1    2    0    0  0.43045131099E+02  0.64301697870E+01 -0.11613918112E+02  0.46142317757E+02  0.99999999639E+01 0.  0.
        -12    1    1    2    0    0 -0.43045131099E+02 -0.64301697870E+01  0.11613918112E+02  0.45045682243E+02  0.00000000000E+00 0.  1.
         11    1    3    3    0    0  0.25362542578E+02  0.85953464067E+00 -0.32983736341E+01  0.25590557530E+02  0.51100000000E-03 0. -1.
        -11    1    3    3    0    0  0.61097169890E+01  0.31887480754E+01 -0.40271676138E+01  0.79821573040E+01  0.51100000000E-03 0.  1.
         12    1    3    3    0    0  0.11572871532E+02  0.23818870709E+01 -0.42883768638E+01  0.12569602923E+02  0.00000000000E+00 0. -1.
</event>
<event>
 7    1  0.1549900E-008  0.4614232E+02  0.7816164E-02  0.1320468E+00
        -11   -1    0    0    0    0  0.00000000000E+00  0.00000000000E+00  0.45593999997E+02  0.45594000000E+02  0.51100000000E-03 0.  1.
         11   -1    0    0    0    0 -0.00000000000E+00 -0.00000000000E+00 -0.45593999997E+02  0.45594000000E+02  0.51100000000E-03 0. -1.
    9900012    2    1    2    0    0 -0.29261312129E+02 -0.20668761128E+02 -0.27307352637E+02  0.46142316720E+02  0.99999905074E+01 0.  0.
        -12    1    1    2    0    0  0.29261312129E+02  0.20668761128E+02  0.27307352637E+02  0.45045683280E+02  0.00000000000E+00 0.  1.
         11    1    3    3    0    0 -0.15070203328E+02 -0.10997892939E+02 -0.17899287160E+02  0.25854383740E+02  0.51100000000E-03 0. -1.
        -11    1    3    3    0    0 -0.21615531318E+01 -0.16933344670E+01 -0.40460373822E+01  0.48897967563E+01  0.51100000000E-03 0.  1.
         12    1    3    3    0    0 -0.12029555669E+02 -0.79775337216E+01 -0.53620280947E+01  0.15398136224E+02  0.00000000000E+00 0. -1.
</event>
<event>
 7    1  0.1549900E-008  0.4614232E+02  0.7816164E-02  0.1320468E+00
        -11   -1    0    0    0    0  0.00000000000E+00  0.00000000000E+00  0.45593999997E+02  0.45594000000E+02  0.51100000000E-03 0.  1.
         11   -1    0    0    0    0 -0.00000000000E+00 -0.00000000000E+00 -0.45593999997E+02  0.45594000000E+02  0.51100000000E-03 0. -1.
    9900012    2    1    2    0    0 -0.16298433577E+02 -0.11322886717E+02 -0.40438433512E+02  0.46142316460E+02  0.99999881380E+01 0.  0.
        -12    1    1    2    0    0  0.16298433577E+02  0.11322886717E+02  0.40438433512E+02  0.45045683540E+02  0.00000000000E+00 0.  1.
         11    1    3    3    0    0 -0.15494908879E+02 -0.11807906582E+02 -0.33187169660E+02  0.38482555650E+02  0.51100000000E-03 0. -1.
        -11    1    3    3    0    0 -0.36254590291E+00  0.13601407361E+01 -0.32782931805E+01  0.35677203915E+01  0.51100000000E-03 0.  1.
         12    1    3    3    0    0 -0.44097879499E+00 -0.87512087079E+00 -0.39729706715E+01  0.40920404192E+01  0.00000000000E+00 0. -1.
</event>
<event>
 7    1  0.1549900E-008  0.4614232E+02  0.7816164E-02  0.1320468E+00
        -11   -1    0    0    0    0  0.00000000000E+00  0.00000000000E+00  0.45593999997E+02  0.45594000000E+02  0.51100000000E-03 0.  1.
         11   -1    0    0    0    0 -0.00000000000E+00 -0.00000000000E+00 -0.45593999997E+02  0.45594000000E+02  0.51100000000E-03 0. -1.
    9900012    2    1    2    0    0 -0.36924117385E+02 -0.19461843252E+02 -0.16939884658E+02  0.46142317857E+02  0.10000000877E+02 0.  0.
        -12    1    1    2    0    0  0.36924117385E+02  0.19461843252E+02  0.16939884658E+02  0.45045682143E+02  0.00000000000E+00 0.  1.
         11    1    3    3    0    0 -0.76847864296E+01 -0.35496419553E+01 -0.53740768859E+01  0.10026794259E+02  0.51100000000E-03 0. -1.
        -11    1    3    3    0    0 -0.24942000250E+02 -0.12157221733E+02 -0.12319838721E+02  0.30359180541E+02  0.51100000000E-03 0.  1.
        -12    1    3    3    0    0 -0.42973307054E+01 -0.37549795638E+01  0.75403094870E+00  0.57563430568E+01  0.00000000000E+00 0.  1.
</event>
<event>
 7    1  0.1549900E-008  0.4614232E+02  0.7816164E-02  0.1320468E+00
        -11   -1    0    0    0    0  0.00000000000E+00  0.00000000000E+00  0.45593999997E+02  0.45594000000E+02  0.51100000000E-03 0.  1.
         11   -1    0    0    0    0 -0.00000000000E+00 -0.00000000000E+00 -0.45593999997E+02  0.45594000000E+02  0.51100000000E-03 0. -1.
    9900012    2    1    2    0    0 -0.23088351463E+02  0.66762771017E+01 -0.38098145761E+02  0.46142319190E+02  0.10000013030E+02 0.  0.
        -12    1    1    2    0    0  0.23088351463E+02 -0.66762771017E+01  0.38098145761E+02  0.45045680810E+02  0.00000000000E+00 0.  1.
         11    1    3    3    0    0 -0.14021890282E+02  0.52010236050E-01 -0.19449724793E+02  0.23977237267E+02  0.51100000000E-03 0. -1.
        -11    1    3    3    0    0 -0.85702987153E+01  0.71827174823E+01 -0.16909104821E+02  0.20272130539E+02  0.51100000000E-03 0.  1.
        -12    1    3    3    0    0 -0.49616246532E+00 -0.55845061660E+00 -0.17393161467E+01  0.18929513838E+01  0.00000000000E+00 0.  1.
</event>
<event>
 7    1  0.1549900E-008  0.4614233E+02  0.7816164E-02  0.1320468E+00
        -11   -1    0    0    0    0  0.00000000000E+00  0.00000000000E+00  0.45593999997E+02  0.45594000000E+02  0.51100000000E-03 0.  1.
         11   -1    0    0    0    0 -0.00000000000E+00 -0.00000000000E+00 -0.45593999997E+02  0.45594000000E+02  0.51100000000E-03 0. -1.
    9900012    2    1    2    0    0  0.10169103276E+01  0.41276812529E+02 -0.18008405405E+02  0.46142334011E+02  0.10000148175E+02 0.  0.
        -12    1    1    2    0    0 -0.10169103276E+01 -0.41276812529E+02  0.18008405405E+02  0.45045665989E+02  0.00000000000E+00 0.  1.
         11    1    3    3    0    0  0.82928915580E+00  0.14308615082E+02 -0.75412894076E+01  0.16195531243E+02  0.51100000000E-03 0. -1.
        -11    1    3    3    0    0  0.14261206057E+01  0.25184977905E+02 -0.75900651800E+01  0.26342475620E+02  0.51100000000E-03 0.  1.
        -12    1    3    3    0    0 -0.12384994340E+01  0.17832195424E+01 -0.28770508170E+01  0.36043271477E+01  0.00000000000E+00 0.  1.
</event>
<event>
 7    1  0.1549900E-008  0.4614232E+02  0.7816164E-02  0.1320468E+00
        -11   -1    0    0    0    0  0.00000000000E+00  0.00000000000E+00  0.45593999997E+02  0.45594000000E+02  0.51100000000E-03 0. -1.
         11   -1    0    0    0    0 -0.00000000000E+00 -0.00000000000E+00 -0.45593999997E+02  0.45594000000E+02  0.51100000000E-03 0.  1.
    9900012    2    1    2    0    0  0.15027348281E+02  0.42461859282E+02  0.53154356942E+00  0.46142320645E+02  0.10000026295E+02 0.  0.
        -12    1    1    2    0    0 -0.15027348281E+02 -0.42461859282E+02 -0.53154356942E+00  0.45045679355E+02  0.00000000000E+00 0.  1.
         11    1    3    3    0    0  0.30730294699E+01  0.94446207752E+01 -0.42483828531E+00  0.99410693359E+01  0.51100000000E-03 0. -1.
        -11    1    3    3    0    0  0.43091222256E+01  0.33262397185E+01  0.10380212143E+01  0.55416507760E+01  0.51100000000E-03 0.  1.
        -12    1    3    3    0    0  0.76451965858E+01  0.29690998788E+02 -0.81639359545E-01  0.30659600533E+02  0.00000000000E+00 0.  1.
</event>
<event>
 7    1  0.1549900E-008  0.4614232E+02  0.7816164E-02  0.1320468E+00
        -11   -1    0    0    0    0  0.00000000000E+00  0.00000000000E+00  0.45593999997E+02  0.45594000000E+02  0.51100000000E-03 0.  1.
         11   -1    0    0    0    0 -0.00000000000E+00 -0.00000000000E+00 -0.45593999997E+02  0.45594000000E+02  0.51100000000E-03 0. -1.
    9900012    2    1    2    0    0  0.28663145787E+02  0.19862973790E+02 -0.28513154890E+02  0.46142315900E+02  0.99999830332E+01 0.  0.
        -12    1    1    2    0    0 -0.28663145787E+02 -0.19862973790E+02  0.28513154890E+02  0.45045684100E+02  0.00000000000E+00 0.  1.
         11    1    3    3    0    0  0.16022411174E+02  0.96800261111E+01 -0.16959256066E+02  0.25259392944E+02  0.51100000000E-03 0. -1.
        -11    1    3    3    0    0  0.17298358020E+01  0.50287544323E+01 -0.32024237412E+01  0.62077549180E+01  0.51100000000E-03 0.  1.
         12    1    3    3    0    0  0.10910898810E+02  0.51541932470E+01 -0.83514750835E+01  0.14675168038E+02  0.00000000000E+00 0. -1.
</event>
<event>
 7    1  0.1549900E-008  0.4614232E+02  0.7816164E-02  0.1320468E+00
        -11   -1    0    0    0    0  0.00000000000E+00  0.00000000000E+00  0.45593999997E+02  0.45594000000E+02  0.51100000000E-03 0.  1.
         11   -1    0    0    0    0 -0.00000000000E+00 -0.00000000000E+00 -0.45593999997E+02  0.45594000000E+02  0.51100000000E-03 0. -1.
    9900012    2    1    2    0    0 -0.17282041997E+01  0.25118398601E+02 -0.37352279079E+02  0.46142318848E+02  0.10000009910E+02 0.  0.
        -12    1    1    2    0    0  0.17282041997E+01 -0.25118398601E+02  0.37352279079E+02  0.45045681152E+02  0.00000000000E+00 0.  1.
         11    1    3    3    0    0 -0.39688242631E+01  0.74513184947E+01 -0.98054785725E+01  0.12939131487E+02  0.51100000000E-03 0. -1.
        -11    1    3    3    0    0 -0.14054450939E+01  0.54867173918E+01 -0.65735544412E+01  0.86770364700E+01  0.51100000000E-03 0.  1.
         12    1    3    3    0    0  0.36460651572E+01  0.12180362715E+02 -0.20973246065E+02  0.24526150891E+02  0.00000000000E+00 0. -1.
</event>
<event>
 7    1  0.1549900E-008  0.4614232E+02  0.7816164E-02  0.1320468E+00
        -11   -1    0    0    0    0  0.00000000000E+00  0.00000000000E+00  0.45593999997E+02  0.45594000000E+02  0.51100000000E-03 0. -1.
         11   -1    0    0    0    0 -0.00000000000E+00 -0.00000000000E+00 -0.45593999997E+02  0.45594000000E+02  0.51100000000E-03 0.  1.
    9900012    2    1    2    0    0 -0.24035132854E+02 -0.15248340931E+02  0.34912947376E+02  0.46142318665E+02  0.10000008241E+02 0.  0.
        -12    1    1    2    0    0  0.24035132854E+02  0.15248340931E+02 -0.34912947376E+02  0.45045681335E+02  0.00000000000E+00 0.  1.
         11    1    3    3    0    0 -0.79343343950E+00 -0.25761689469E+00  0.36025563412E+01  0.36978798710E+01  0.51100000000E-03 0. -1.
        -11    1    3    3    0    0 -0.77997509164E+01 -0.12085686475E+01  0.99607942330E+01  0.12708822705E+02  0.51100000000E-03 0.  1.
         12    1    3    3    0    0 -0.15441948498E+02 -0.13782155388E+02  0.21349596802E+02  0.29735616089E+02  0.00000000000E+00 0. -1.
</event>
<event>
 7    1  0.1549900E-008  0.4614232E+02  0.7816164E-02  0.1320468E+00
        -11   -1    0    0    0    0  0.00000000000E+00  0.00000000000E+00  0.45593999997E+02  0.45594000000E+02  0.51100000000E-03 0.  1.
         11   -1    0    0    0    0 -0.00000000000E+00 -0.00000000000E+00 -0.45593999997E+02  0.45594000000E+02  0.51100000000E-03 0. -1.
    9900012    2    1    2    0    0  0.32564227541E+02 -0.13856619812E+01 -0.31092839390E+02  0.46142316125E+02  0.99999850782E+01 0.  0.
        -12    1    1    2    0    0 -0.32564227541E+02  0.13856619812E+01  0.31092839390E+02  0.45045683875E+02  0.00000000000E+00 0.  1.
         11    1    3    3    0    0  0.38895405968E+01  0.23281672191E+01 -0.22664464404E+01  0.50681030359E+01  0.51100000000E-03 0.  1.
        -11    1    3    3    0    0  0.52893338848E+01 -0.24387320703E+01 -0.52223898106E+01  0.78229037225E+01  0.51100000000E-03 0. -1.
         12    1    3    3    0    0  0.23385353059E+02 -0.12750971300E+01 -0.23604003139E+02  0.33251309366E+02  0.00000000000E+00 0. -1.
</event>
<event>
 7    1  0.1549900E-008  0.4614231E+02  0.7816164E-02  0.1320468E+00
        -11   -1    0    0    0    0  0.00000000000E+00  0.00000000000E+00  0.45593999997E+02  0.45594000000E+02  0.51100000000E-03 0.  1.
         11   -1    0    0    0    0 -0.00000000000E+00 -0.00000000000E+00 -0.45593999997E+02  0.45594000000E+02  0.51100000000E-03 0. -1.
    9900012    2    1    2    0    0 -0.32815387783E+02  0.11687423522E+02 -0.28559909229E+02  0.46142312536E+02  0.99999523521E+01 0.  0.
        -12    1    1    2    0    0  0.32815387783E+02 -0.11687423522E+02  0.28559909229E+02  0.45045687464E+02  0.00000000000E+00 0.  1.
         11    1    3    3    0    0 -0.50171155661E+01  0.52616658486E+01 -0.63531347612E+01  0.96549934056E+01  0.51100000000E-03 0.  1.
        -11    1    3    3    0    0 -0.97729121609E+01  0.19165121742E+01 -0.10769785657E+02  0.14668712090E+02  0.51100000000E-03 0. -1.
        -12    1    3    3    0    0 -0.18025360056E+02  0.45092454992E+01 -0.11436988811E+02  0.21818607040E+02  0.00000000000E+00 0.  1.
</event>
<event>
 7    1  0.1915005E-008  0.4614232E+02  0.7816164E-02  0.1320468E+00
        -11   -1    0    0    0    0  0.00000000000E+00  0.00000000000E+00  0.45593999997E+02  0.45594000000E+02  0.51100000000E-03 0. -1.
         11   -1    0    0    0    0 -0.00000000000E+00 -0.00000000000E+00 -0.45593999997E+02  0.45594000000E+02  0.51100000000E-03 0.  1.
    9900012    2    1    2    0    0  0.13419354900E+02  0.38476003726E+02  0.19199779082E+02  0.46142318015E+02  0.10000002318E+02 0.  0.
        -12    1    1    2    0    0 -0.13419354900E+02 -0.38476003726E+02 -0.19199779082E+02  0.45045681985E+02  0.00000000000E+00 0.  1.
         11    1    3    3    0    0  0.22776977582E+01  0.15628492140E+02  0.47743887127E+01  0.16499468521E+02  0.51100000000E-03 0. -1.
        -11    1    3    3    0    0 -0.43080800566E-01 -0.20321151766E+00 -0.52462329765E-01  0.21425086570E+00  0.51100000000E-03 0.  1.
         12    1    3    3    0    0  0.11184737942E+02  0.23050723104E+02  0.14477852699E+02  0.29428598628E+02  0.00000000000E+00 0. -1.
</event>
<event>
 7    1  0.1549900E-008  0.4614232E+02  0.7816164E-02  0.1320468E+00
        -11   -1    0    0    0    0  0.00000000000E+00  0.00000000000E+00  0.45593999997E+02  0.45594000000E+02  0.51100000000E-03 0.  1.
         11   -1    0    0    0    0 -0.00000000000E+00 -0.00000000000E+00 -0.45593999997E+02  0.45594000000E+02  0.51100000000E-03 0. -1.
    9900012    2    1    2    0    0  0.96182369673E+01 -0.27841925105E+02 -0.34079762751E+02  0.46142317576E+02  0.99999983087E+01 0.  0.
        -12    1    1    2    0    0 -0.96182369673E+01  0.27841925105E+02  0.34079762751E+02  0.45045682424E+02  0.00000000000E+00 0.  1.
         11    1    3    3    0    0  0.24829793425E+01 -0.15518149074E+02 -0.18678661324E+02  0.24410459361E+02  0.51100000000E-03 0.  1.
        -11    1    3    3    0    0  0.37665098079E+01 -0.43595373497E+01 -0.99863337719E+01  0.11529051327E+02  0.51100000000E-03 0. -1.
        -12    1    3    3    0    0  0.33687478169E+01 -0.79642386813E+01 -0.54147676552E+01  0.10202806888E+02  0.00000000000E+00 0.  1.
</event>
<event>
 7    1  0.1549900E-008  0.4614232E+02  0.7816164E-02  0.1320468E+00
        -11   -1    0    0    0    0  0.00000000000E+00  0.00000000000E+00  0.45593999997E+02  0.45594000000E+02  0.51100000000E-03 0.  1.
         11   -1    0    0    0    0 -0.00000000000E+00 -0.00000000000E+00 -0.45593999997E+02  0.45594000000E+02  0.51100000000E-03 0. -1.
    9900012    2    1    2    0    0  0.14319208291E+02  0.35813739517E+02 -0.23269074590E+02  0.46142317670E+02  0.99999991721E+01 0.  0.
        -12    1    1    2    0    0 -0.14319208291E+02 -0.35813739517E+02  0.23269074590E+02  0.45045682330E+02  0.00000000000E+00 0.  1.
         11    1    3    3    0    0  0.70629998983E+01  0.21951754254E+02 -0.13194610239E+02  0.26568086533E+02  0.51100000000E-03 0. -1.
        -11    1    3    3    0    0 -0.10122229969E+01  0.27215596618E+01 -0.19323008217E+01  0.34878745842E+01  0.51100000000E-03 0.  1.
         12    1    3    3    0    0  0.82684313900E+01  0.11140425601E+02 -0.81421635293E+01  0.16086356553E+02  0.00000000000E+00 0. -1.
</event>
<event>
 7    1  0.1549900E-008  0.4614233E+02  0.7816164E-02  0.1320468E+00
        -11   -1    0    0    0    0  0.00000000000E+00  0.00000000000E+00  0.45593999997E+02  0.45594000000E+02  0.51100000000E-03 0.  1.
         11   -1    0    0    0    0 -0.00000000000E+00 -0.00000000000E+00 -0.45593999997E+02  0.45594000000E+02  0.51100000000E-03 0. -1.
    9900012    2    1    2    0    0  0.21766069574E+02 -0.19718056122E+02 -0.34154781584E+02  0.46142327323E+02  0.10000087189E+02 0.  0.
        -12    1    1    2    0    0 -0.21766069574E+02  0.19718056122E+02  0.34154781584E+02  0.45045672677E+02  0.00000000000E+00 0.  1.
         11    1    3    3    0    0  0.12316468840E+02 -0.15867439433E+02 -0.18869534559E+02  0.27559578617E+02  0.51100000000E-03 0. -1.
        -11    1    3    3    0    0  0.57798587013E+01 -0.37510860258E+01 -0.10277051926E+02  0.12373164895E+02  0.51100000000E-03 0.  1.
         12    1    3    3    0    0  0.36697420329E+01 -0.99530663212E-01 -0.50081950990E+01  0.62095838098E+01  0.00000000000E+00 0. -1.
</event>
<event>
 7    1  0.1549900E-008  0.4614232E+02  0.7816164E-02  0.1320468E+00
        -11   -1    0    0    0    0  0.00000000000E+00  0.00000000000E+00  0.45593999997E+02  0.45594000000E+02  0.51100000000E-03 0.  1.
         11   -1    0    0    0    0 -0.00000000000E+00 -0.00000000000E+00 -0.45593999997E+02  0.45594000000E+02  0.51100000000E-03 0. -1.
    9900012    2    1    2    0    0 -0.15475084186E+02  0.34312113799E+02 -0.24744981764E+02  0.46142317561E+02  0.99999981734E+01 0.  0.
        -12    1    1    2    0    0  0.15475084186E+02 -0.34312113799E+02  0.24744981764E+02  0.45045682439E+02  0.00000000000E+00 0.  1.
         11    1    3    3    0    0 -0.18668464373E+01  0.10713400591E+02 -0.31710549263E+01  0.11327738408E+02  0.51100000000E-03 0. -1.
        -11    1    3    3    0    0 -0.12469589061E+01  0.11459081245E+01 -0.13693186828E+01  0.21778534982E+01  0.51100000000E-03 0.  1.
         12    1    3    3    0    0 -0.12361278843E+02  0.22452805084E+02 -0.20204608155E+02  0.32636725654E+02  0.00000000000E+00 0. -1.
</event>
<event>
 7    1  0.1549900E-008  0.4614232E+02  0.7816164E-02  0.1320468E+00
        -11   -1    0    0    0    0  0.00000000000E+00  0.00000000000E+00  0.45593999997E+02  0.45594000000E+02  0.51100000000E-03 0.  1.
         11   -1    0    0    0    0 -0.00000000000E+00 -0.00000000000E+00 -0.45593999997E+02  0.45594000000E+02  0.51100000000E-03 0. -1.
    9900012    2    1    2    0    0 -0.28815210545E+02 -0.30421060844E+02 -0.16533486374E+02  0.46142317929E+02  0.10000001527E+02 0.  0.
        -12    1    1    2    0    0  0.28815210545E+02  0.30421060844E+02  0.16533486374E+02  0.45045682071E+02  0.00000000000E+00 0.  1.
         11    1    3    3    0    0 -0.16858033523E+02 -0.22627434312E+02 -0.14300538101E+02  0.31633834230E+02  0.51100000000E-03 0. -1.
        -11    1    3    3    0    0 -0.97540186249E+01 -0.69113892207E+01 -0.20420978075E+01  0.12127586075E+02  0.51100000000E-03 0.  1.
        -12    1    3    3    0    0 -0.22031583970E+01 -0.88223731090E+00 -0.19085046512E+00  0.23808976238E+01  0.00000000000E+00 0.  1.
</event>
<event>
 7    1  0.1549900E-008  0.4614232E+02  0.7816164E-02  0.1320468E+00
        -11   -1    0    0    0    0  0.00000000000E+00  0.00000000000E+00  0.45593999997E+02  0.45594000000E+02  0.51100000000E-03 0.  1.
         11   -1    0    0    0    0 -0.00000000000E+00 -0.00000000000E+00 -0.45593999997E+02  0.45594000000E+02  0.51100000000E-03 0. -1.
    9900012    2    1    2    0    0  0.11813899627E+02  0.78575391714E+01 -0.42752828339E+02  0.46142317885E+02  0.10000001132E+02 0.  0.
        -12    1    1    2    0    0 -0.11813899627E+02 -0.78575391714E+01  0.42752828339E+02  0.45045682115E+02  0.00000000000E+00 0.  1.
         11    1    3    3    0    0  0.67903417277E+01  0.12303425083E+01 -0.17742033536E+02  0.19036865228E+02  0.51100000000E-03 0. -1.
        -11    1    3    3    0    0  0.60434754143E+01  0.70088972672E+01 -0.20987492583E+02  0.22937373022E+02  0.51100000000E-03 0.  1.
         12    1    3    3    0    0 -0.10199175153E+01 -0.38170060411E+00 -0.40233022201E+01  0.41680796350E+01  0.00000000000E+00 0. -1.
</event>
<event>
 7    1  0.1549900E-008  0.4614232E+02  0.7816164E-02  0.1320468E+00
        -11   -1    0    0    0    0  0.00000000000E+00  0.00000000000E+00  0.45593999997E+02  0.45594000000E+02  0.51100000000E-03 0. -1.
         11   -1    0    0    0    0 -0.00000000000E+00 -0.00000000000E+00 -0.45593999997E+02  0.45594000000E+02  0.51100000000E-03 0.  1.
    9900012    2    1    2    0    0 -0.32974468051E+00 -0.38794264032E+02 -0.22891261377E+02  0.46142317623E+02  0.99999987403E+01 0.  0.
        -12    1    1    2    0    0  0.32974468051E+00  0.38794264032E+02  0.22891261377E+02  0.45045682377E+02  0.00000000000E+00 0.  1.
         11    1    3    3    0    0 -0.29686500339E+01 -0.60001395092E+01 -0.51948266977E+01  0.84735341997E+01  0.51100000000E-03 0. -1.
        -11    1    3    3    0    0 -0.57869130621E+00 -0.85757130721E+01 -0.65939261790E+01  0.10833171329E+02  0.51100000000E-03 0.  1.
         12    1    3    3    0    0  0.32175966596E+01 -0.24218411451E+02 -0.11102508500E+02  0.26835612094E+02  0.00000000000E+00 0. -1.
</event>
<event>
 7    1  0.1549900E-008  0.4614232E+02  0.7816164E-02  0.1320468E+00
        -11   -1    0    0    0    0  0.00000000000E+00  0.00000000000E+00  0.45593999997E+02  0.45594000000E+02  0.51100000000E-03 0.  1.
         11   -1    0    0    0    0 -0.00000000000E+00 -0.00000000000E+00 -0.45593999997E+02  0.45594000000E+02  0.51100000000E-03 0. -1.
    9900012    2    1    2    0    0 -0.41837933186E+02 -0.62017089682E+01 -0.15499656785E+02  0.46142320874E+02  0.10000028389E+02 0.  0.
        -12    1    1    2    0    0  0.41837933186E+02  0.62017089682E+01  0.15499656785E+02  0.45045679126E+02  0.00000000000E+00 0.  1.
         11    1    3    3    0    0 -0.18797378081E+02 -0.37292887548E+01 -0.52208875037E+01  0.19862192324E+02  0.51100000000E-03 0. -1.
        -11    1    3    3    0    0 -0.22664934020E+02 -0.35478845052E+01 -0.10284945115E+02  0.25140939021E+02  0.51100000000E-03 0.  1.
        -12    1    3    3    0    0 -0.37562108589E+00  0.10754642917E+01  0.61758335827E-02  0.11391895294E+01  0.00000000000E+00 0.  1.
</event>
<event>
 7    1  0.1549900E-008  0.4614232E+02  0.7816164E-02  0.1320468E+00
        -11   -1    0    0    0    0  0.00000000000E+00  0.00000000000E+00  0.45593999997E+02  0.45594000000E+02  0.51100000000E-03 0.  1.
         11   -1    0    0    0    0 -0.00000000000E+00 -0.00000000000E+00 -0.45593999997E+02  0.45594000000E+02  0.51100000000E-03 0. -1.
    9900012    2    1    2    0    0  0.69556302752E+01 -0.40553632243E+02 -0.18334001727E+02  0.46142317633E+02  0.99999988276E+01 0.  0.
        -12    1    1    2    0    0 -0.69556302752E+01  0.40553632243E+02  0.18334001727E+02  0.45045682367E+02  0.00000000000E+00 0.  1.
         11    1    3    3    0    0  0.38139493917E+01 -0.59706242602E+01 -0.11547145384E+01  0.71782957550E+01  0.51100000000E-03 0. -1.
        -11    1    3    3    0    0  0.17873175733E+01 -0.17537934713E+02 -0.11019742096E+02  0.20789621792E+02  0.51100000000E-03 0.  1.
         12    1    3    3    0    0  0.13543633102E+01 -0.17045073269E+02 -0.61595450926E+01  0.18174400086E+02  0.00000000000E+00 0. -1.
</event>
<event>
 7    1  0.1549900E-008  0.4614232E+02  0.7816164E-02  0.1320468E+00
        -11   -1    0    0    0    0  0.00000000000E+00  0.00000000000E+00  0.45593999997E+02  0.45594000000E+02  0.51100000000E-03 0. -1.
         11   -1    0    0    0    0 -0.00000000000E+00 -0.00000000000E+00 -0.45593999997E+02  0.45594000000E+02  0.51100000000E-03 0.  1.
    9900012    2    1    2    0    0 -0.38286097780E+02 -0.12541765653E+02  0.20149252431E+02  0.46142317161E+02  0.99999945245E+01 0.  0.
        -12    1    1    2    0    0  0.38286097780E+02  0.12541765653E+02 -0.20149252431E+02  0.45045682839E+02  0.00000000000E+00 0.  1.
         11    1    3    3    0    0 -0.31526843621E+02 -0.11796312079E+02  0.16817260363E+02  0.37628647248E+02  0.51100000000E-03 0. -1.
        -11    1    3    3    0    0 -0.58057350163E+01 -0.12218682384E+01  0.10914172132E+01  0.60324715387E+01  0.51100000000E-03 0.  1.
         12    1    3    3    0    0 -0.95351914307E+00  0.47641466430E+00  0.22405748550E+01  0.24811983737E+01  0.00000000000E+00 0. -1.
</event>
<event>
 7    1  0.1644904E-008  0.4614232E+02  0.7816164E-02  0.1320468E+00
        -11   -1    0    0    0    0  0.00000000000E+00  0.00000000000E+00  0.45593999997E+02  0.45594000000E+02  0.51100000000E-03 0. -1.
         11   -1    0    0    0    0 -0.00000000000E+00 -0.00000000000E+00 -0.45593999997E+02  0.45594000000E+02  0.51100000000E-03 0.  1.
    9900012    2    1    2    0    0  0.29335112026E+02  0.30796022988E+02 -0.14838115768E+02  0.46142317531E+02  0.99999979050E+01 0.  0.
        -12    1    1    2    0    0 -0.29335112026E+02 -0.30796022988E+02  0.14838115768E+02  0.45045682469E+02  0.00000000000E+00 0.  1.
         11    1    3    3    0    0  0.15394165900E+02  0.20907513152E+02 -0.71753446109E+01  0.26936778213E+02  0.51100000000E-03 0. -1.
        -11    1    3    3    0    0  0.66475269994E+01  0.23622085269E+01 -0.22182335185E+01  0.73952825866E+01  0.51100000000E-03 0.  1.
         12    1    3    3    0    0  0.72934191270E+01  0.75263013100E+01 -0.54445376391E+01  0.11810256732E+02  0.00000000000E+00 0. -1.
</event>
<event>
 7    1  0.1549900E-008  0.4614232E+02  0.7816164E-02  0.1320468E+00
        -11   -1    0    0    0    0  0.00000000000E+00  0.00000000000E+00  0.45593999997E+02  0.45594000000E+02  0.51100000000E-03 0. -1.
         11   -1    0    0    0    0 -0.00000000000E+00 -0.00000000000E+00 -0.45593999997E+02  0.45594000000E+02  0.51100000000E-03 0.  1.
    9900012    2    1    2    0    0  0.12897863156E+02 -0.32567331836E+02  0.28321858279E+02  0.46142316152E+02  0.99999853313E+01 0.  0.
        -12    1    1    2    0    0 -0.12897863156E+02  0.32567331836E+02 -0.28321858279E+02  0.45045683848E+02  0.00000000000E+00 0.  1.
         11    1    3    3    0    0  0.10278249833E+02 -0.22506521638E+02  0.20192591995E+02  0.31936291388E+02  0.51100000000E-03 0. -1.
        -11    1    3    3    0    0  0.15528753658E+01 -0.10052168032E+02  0.59607506169E+01  0.11789319413E+02  0.51100000000E-03 0.  1.
         12    1    3    3    0    0  0.10667379576E+01 -0.86421657346E-02  0.21685156670E+01  0.24167053513E+01  0.00000000000E+00 0. -1.
</event>
<event>
 7    1  0.1549900E-008  0.4614232E+02  0.7816164E-02  0.1320468E+00
        -11   -1    0    0    0    0  0.00000000000E+00  0.00000000000E+00  0.45593999997E+02  0.45594000000E+02  0.51100000000E-03 0.  1.
         11   -1    0    0    0    0 -0.00000000000E+00 -0.00000000000E+00 -0.45593999997E+02  0.45594000000E+02  0.51100000000E-03 0. -1.
    9900012    2    1    2    0    0  0.15863592870E+02 -0.27487087874E+02 -0.31967483429E+02  0.46142316796E+02  0.99999911987E+01 0.  0.
        -12    1    1    2    0    0 -0.15863592870E+02  0.27487087874E+02  0.31967483429E+02  0.45045683204E+02  0.00000000000E+00 0.  1.
         11    1    3    3    0    0  0.13537909020E+02 -0.25972122924E+02 -0.31707225005E+02  0.43164502402E+02  0.51100000000E-03 0. -1.
        -11    1    3    3    0    0  0.15492366631E+01 -0.15438395390E+01 -0.24348018617E+00  0.22006493638E+01  0.51100000000E-03 0.  1.
         12    1    3    3    0    0  0.77644718639E+00  0.28874588537E-01 -0.16778237727E-01  0.77716503034E+00  0.00000000000E+00 0. -1.
</event>
<event>
 7    1  0.1549900E-008  0.4614232E+02  0.7816164E-02  0.1320468E+00
        -11   -1    0    0    0    0  0.00000000000E+00  0.00000000000E+00  0.45593999997E+02  0.45594000000E+02  0.51100000000E-03 0.  1.
         11   -1    0    0    0    0 -0.00000000000E+00 -0.00000000000E+00 -0.45593999997E+02  0.45594000000E+02  0.51100000000E-03 0. -1.
    9900012    2    1    2    0    0 -0.31799909328E+02 -0.11076560358E+02 -0.29919712767E+02  0.46142316137E+02  0.99999851933E+01 0.  0.
        -12    1    1    2    0    0  0.31799909328E+02  0.11076560358E+02  0.29919712767E+02  0.45045683863E+02  0.00000000000E+00 0.  1.
         11    1    3    3    0    0 -0.24546279558E+02 -0.65876855358E+01 -0.25992056073E+02  0.36352502253E+02  0.51100000000E-03 0. -1.
        -11    1    3    3    0    0 -0.15941132793E+01 -0.23410168715E+01 -0.64934326640E+00  0.29057192016E+01  0.51100000000E-03 0.  1.
         12    1    3    3    0    0 -0.56595164901E+01 -0.21478579504E+01 -0.32783134274E+01  0.68840946830E+01  0.00000000000E+00 0. -1.
</event>
<event>
 7    1  0.1549900E-008  0.4614231E+02  0.7816164E-02  0.1320468E+00
        -11   -1    0    0    0    0  0.00000000000E+00  0.00000000000E+00  0.45593999997E+02  0.45594000000E+02  0.51100000000E-03 0.  1.
         11   -1    0    0    0    0 -0.00000000000E+00 -0.00000000000E+00 -0.45593999997E+02  0.45594000000E+02  0.51100000000E-03 0. -1.
    9900012    2    1    2    0    0 -0.31584244447E+02 -0.21012361416E+02 -0.24290531309E+02  0.46142314959E+02  0.99999744482E+01 0.  0.
        -12    1    1    2    0    0  0.31584244447E+02  0.21012361416E+02  0.24290531309E+02  0.45045685041E+02  0.00000000000E+00 0.  1.
         11    1    3    3    0    0 -0.57327994132E+01 -0.69281807524E+01 -0.39171091687E+01  0.98085892028E+01  0.51100000000E-03 0. -1.
        -11    1    3    3    0    0 -0.13253487312E+02 -0.74378918754E+01 -0.14236061312E+02  0.20824087097E+02  0.51100000000E-03 0.  1.
         12    1    3    3    0    0 -0.12597957721E+02 -0.66462887882E+01 -0.61373608284E+01  0.15509638659E+02  0.00000000000E+00 0. -1.
</event>
<event>
 7    1  0.1549900E-008  0.4614232E+02  0.7816164E-02  0.1320468E+00
        -11   -1    0    0    0    0  0.00000000000E+00  0.00000000000E+00  0.45593999997E+02  0.45594000000E+02  0.51100000000E-03 0.  1.
         11   -1    0    0    0    0 -0.00000000000E+00 -0.00000000000E+00 -0.45593999997E+02  0.45594000000E+02  0.51100000000E-03 0. -1.
    9900012    2    1    2    0    0 -0.13771690267E+02 -0.33737973179E+02 -0.26480241971E+02  0.46142317611E+02  0.99999986324E+01 0.  0.
        -12    1    1    2    0    0  0.13771690267E+02  0.33737973179E+02  0.26480241971E+02  0.45045682389E+02  0.00000000000E+00 0.  1.
         11    1    3    3    0    0 -0.93462234889E+01 -0.17612800730E+02 -0.17335776621E+02  0.26421426805E+02  0.51100000000E-03 0. -1.
        -11    1    3    3    0    0 -0.20143347617E+01 -0.11806714521E+01 -0.12283349147E+01  0.26382449723E+01  0.51100000000E-03 0.  1.
         12    1    3    3    0    0 -0.24111320168E+01 -0.14944500996E+02 -0.79161304352E+01  0.17082645834E+02  0.00000000000E+00 0. -1.
</event>
<event>
 7    1  0.1549900E-008  0.4614232E+02  0.7816164E-02  0.1320468E+00
        -11   -1    0    0    0    0  0.00000000000E+00  0.00000000000E+00  0.45593999997E+02  0.45594000000E+02  0.51100000000E-03 0.  1.
         11   -1    0    0    0    0 -0.00000000000E+00 -0.00000000000E+00 -0.45593999997E+02  0.45594000000E+02  0.51100000000E-03 0. -1.
    9900012    2    1    2    0    0 -0.89701440006E+00  0.16499898725E+02 -0.41905395326E+02  0.46142318185E+02  0.10000003865E+02 0.  0.
        -12    1    1    2    0    0  0.89701440006E+00 -0.16499898725E+02  0.41905395326E+02  0.45045681815E+02  0.00000000000E+00 0.  1.
         11    1    3    3    0    0 -0.91380468374E+00  0.73754795183E+01 -0.18591254594E+02  0.20021675374E+02  0.51100000000E-03 0. -1.
        -11    1    3    3    0    0  0.32220034086E+01  0.51339968943E+01 -0.84436216436E+01  0.10393939426E+02  0.51100000000E-03 0.  1.
        -12    1    3    3    0    0 -0.32052131250E+01  0.39904223123E+01 -0.14870519088E+02  0.15726703385E+02  0.00000000000E+00 0.  1.
</event>
<event>
 7    1  0.1549900E-008  0.4614232E+02  0.7816164E-02  0.1320468E+00
        -11   -1    0    0    0    0  0.00000000000E+00  0.00000000000E+00  0.45593999997E+02  0.45594000000E+02  0.51100000000E-03 0. -1.
         11   -1    0    0    0    0 -0.00000000000E+00 -0.00000000000E+00 -0.45593999997E+02  0.45594000000E+02  0.51100000000E-03 0.  1.
    9900012    2    1    2    0    0  0.36784949129E+02  0.11886935822E+02  0.23123187334E+02  0.46142317431E+02  0.99999969910E+01 0.  0.
        -12    1    1    2    0    0 -0.36784949129E+02 -0.11886935822E+02 -0.23123187334E+02  0.45045682569E+02  0.00000000000E+00 0.  1.
         11    1    3    3    0    0  0.30862431518E+01  0.40006574617E+01  0.24521852064E+01  0.56163484103E+01  0.51100000000E-03 0.  1.
        -11    1    3    3    0    0  0.30263991170E+02  0.83418218412E+01  0.18672492830E+02  0.36526115888E+02  0.51100000000E-03 0. -1.
        -12    1    3    3    0    0  0.34347148069E+01 -0.45554348111E+00  0.19985092979E+01  0.39998531325E+01  0.00000000000E+00 0.  1.
</event>
<event>
 7    1  0.1549900E-008  0.4614232E+02  0.7816164E-02  0.1320468E+00
        -11   -1    0    0    0    0  0.00000000000E+00  0.00000000000E+00  0.45593999997E+02  0.45594000000E+02  0.51100000000E-03 0.  1.
         11   -1    0    0    0    0 -0.00000000000E+00 -0.00000000000E+00 -0.45593999997E+02  0.45594000000E+02  0.51100000000E-03 0. -1.
    9900012    2    1    2    0    0 -0.26164986272E+02  0.12238710364E+02 -0.34564735692E+02  0.46142317727E+02  0.99999996876E+01 0.  0.
        -12    1    1    2    0    0  0.26164986272E+02 -0.12238710364E+02  0.34564735692E+02  0.45045682273E+02  0.00000000000E+00 0.  1.
         11    1    3    3    0    0 -0.22068226007E+01  0.28373530600E+00 -0.29578134209E+01  0.37012473855E+01  0.51100000000E-03 0. -1.
        -11    1    3    3    0    0 -0.17775459251E+02  0.73827011760E+01 -0.15949083275E+02  0.24996889523E+02  0.51100000000E-03 0.  1.
        -12    1    3    3    0    0 -0.61827044200E+01  0.45722738824E+01 -0.15657838996E+02  0.17444180819E+02  0.00000000000E+00 0.  1.
</event>
<event>
 7    1  0.1549900E-008  0.4614232E+02  0.7816164E-02  0.1320468E+00
        -11   -1    0    0    0    0  0.00000000000E+00  0.00000000000E+00  0.45593999997E+02  0.45594000000E+02  0.51100000000E-03 0.  1.
         11   -1    0    0    0    0 -0.00000000000E+00 -0.00000000000E+00 -0.45593999997E+02  0.45594000000E+02  0.51100000000E-03 0. -1.
    9900012    2    1    2    0    0  0.32077292776E+02  0.11262168797E+02 -0.29552061997E+02  0.46142317342E+02  0.99999961795E+01 0.  0.
        -12    1    1    2    0    0 -0.32077292776E+02 -0.11262168797E+02  0.29552061997E+02  0.45045682658E+02  0.00000000000E+00 0.  1.
         11    1    3    3    0    0  0.14773444377E+02  0.74091384941E+01 -0.88393792901E+01  0.18742588361E+02  0.51100000000E-03 0. -1.
        -11    1    3    3    0    0  0.89598660067E+01  0.20939593848E+01 -0.12820483855E+02  0.15780642297E+02  0.51100000000E-03 0.  1.
        -12    1    3    3    0    0  0.83439823924E+01  0.17590709185E+01 -0.78921988521E+01  0.11619086684E+02  0.00000000000E+00 0.  1.
</event>
<event>
 7    1  0.1549900E-008  0.4614232E+02  0.7816164E-02  0.1320468E+00
        -11   -1    0    0    0    0  0.00000000000E+00  0.00000000000E+00  0.45593999997E+02  0.45594000000E+02  0.51100000000E-03 0.  1.
         11   -1    0    0    0    0 -0.00000000000E+00 -0.00000000000E+00 -0.45593999997E+02  0.45594000000E+02  0.51100000000E-03 0. -1.
    9900012    2    1    2    0    0  0.21666230658E+02  0.34682157807E+02 -0.18890100441E+02  0.46142317457E+02  0.99999972259E+01 0.  0.
        -12    1    1    2    0    0 -0.21666230658E+02 -0.34682157807E+02  0.18890100441E+02  0.45045682543E+02  0.00000000000E+00 0.  1.
         11    1    3    3    0    0  0.80476773210E+01  0.71232486451E+01 -0.61166934875E+01  0.12366071365E+02  0.51100000000E-03 0. -1.
        -11    1    3    3    0    0  0.98783430387E+01  0.16945471605E+02 -0.54779423532E+01  0.20365130046E+02  0.51100000000E-03 0.  1.
         12    1    3    3    0    0  0.37402102979E+01  0.10613437557E+02 -0.72954646006E+01  0.13411116046E+02  0.00000000000E+00 0. -1.
</event>
<event>
 7    1  0.1875430E-008  0.4614232E+02  0.7816164E-02  0.1320468E+00
        -11   -1    0    0    0    0  0.00000000000E+00  0.00000000000E+00  0.45593999997E+02  0.45594000000E+02  0.51100000000E-03 0.  1.
         11   -1    0    0    0    0 -0.00000000000E+00 -0.00000000000E+00 -0.45593999997E+02  0.45594000000E+02  0.51100000000E-03 0. -1.
    9900012    2    1    2    0    0  0.34481840248E+02 -0.22320135541E+02  0.18491286751E+02  0.46142318263E+02  0.10000004576E+02 0.  0.
        -12    1    1    2    0    0 -0.34481840248E+02  0.22320135541E+02 -0.18491286751E+02  0.45045681737E+02  0.00000000000E+00 0.  1.
         11    1    3    3    0    0  0.28135806618E+02 -0.18656924403E+02  0.17628759097E+02  0.38085136074E+02  0.51100000000E-03 0. -1.
        -11    1    3    3    0    0 -0.17640243534E+00 -0.27102155094E+00 -0.48497631689E+00  0.58290032538E+00  0.51100000000E-03 0.  1.
         12    1    3    3    0    0  0.65224360655E+01 -0.33921895866E+01  0.13475039709E+01  0.74742818633E+01  0.00000000000E+00 0. -1.
</event>
<event>
 7    1  0.1549900E-008  0.4614232E+02  0.7816164E-02  0.1320468E+00
        -11   -1    0    0    0    0  0.00000000000E+00  0.00000000000E+00  0.45593999997E+02  0.45594000000E+02  0.51100000000E-03 0.  1.
         11   -1    0    0    0    0 -0.00000000000E+00 -0.00000000000E+00 -0.45593999997E+02  0.45594000000E+02  0.51100000000E-03 0. -1.
    9900012    2    1    2    0    0  0.37051501391E+02 -0.21517256330E+02 -0.13903505267E+02  0.46142317255E+02  0.99999953849E+01 0.  0.
        -12    1    1    2    0    0 -0.37051501391E+02  0.21517256330E+02  0.13903505267E+02  0.45045682745E+02  0.00000000000E+00 0.  1.
         11    1    3    3    0    0  0.14920680898E+02 -0.53957880093E+01 -0.39195764693E+01  0.16343326671E+02  0.51100000000E-03 0. -1.
        -11    1    3    3    0    0  0.78231574269E+01 -0.84459522081E+01 -0.63996299982E+01  0.13171604504E+02  0.51100000000E-03 0.  1.
        -12    1    3    3    0    0  0.14307663066E+02 -0.76755161124E+01 -0.35842987994E+01  0.16627386081E+02  0.00000000000E+00 0.  1.
</event>
<event>
 7    1  0.1549900E-008  0.4614232E+02  0.7816164E-02  0.1320468E+00
        -11   -1    0    0    0    0  0.00000000000E+00  0.00000000000E+00  0.45593999997E+02  0.45594000000E+02  0.51100000000E-03 0.  1.
         11   -1    0    0    0    0 -0.00000000000E+00 -0.00000000000E+00 -0.45593999997E+02  0.45594000000E+02  0.51100000000E-03 0. -1.
    9900012    2    1    2    0    0 -0.19481743700E+02  0.40455286970E+02 -0.35979152901E+01  0.46142316790E+02  0.99999911437E+01 0.  0.
        -12    1    1    2    0    0  0.19481743700E+02 -0.40455286970E+02  0.35979152901E+01  0.45045683210E+02  0.00000000000E+00 0.  1.
         11    1    3    3    0    0 -0.72367714441E+01  0.19185458062E+02 -0.22459518949E+01  0.20627577709E+02  0.51100000000E-03 0. -1.
        -11    1    3    3    0    0 -0.28886049091E+01  0.11646774594E+02 -0.14932303645E+01  0.12092193099E+02  0.51100000000E-03 0.  1.
         12    1    3    3    0    0 -0.93563673471E+01  0.96230543141E+01  0.14126696930E+00  0.13422545981E+02  0.00000000000E+00 0. -1.
</event>
<event>
 7    1  0.1549900E-008  0.4614232E+02  0.7816164E-02  0.1320468E+00
        -11   -1    0    0    0    0  0.00000000000E+00  0.00000000000E+00  0.45593999997E+02  0.45594000000E+02  0.51100000000E-03 0.  1.
         11   -1    0    0    0    0 -0.00000000000E+00 -0.00000000000E+00 -0.45593999997E+02  0.45594000000E+02  0.51100000000E-03 0. -1.
    9900012    2    1    2    0    0  0.92800200654E+01 -0.28096390162E+02 -0.33964504523E+02  0.46142317854E+02  0.10000000848E+02 0.  0.
        -12    1    1    2    0    0 -0.92800200654E+01  0.28096390162E+02  0.33964504523E+02  0.45045682146E+02  0.00000000000E+00 0.  1.
         11    1    3    3    0    0  0.89797004288E+01 -0.24605522300E+02 -0.32147277497E+02  0.41467025431E+02  0.51100000000E-03 0. -1.
        -11    1    3    3    0    0 -0.13538572150E+00 -0.64057361252E+00  0.61859866903E+00  0.90073770937E+00  0.51100000000E-03 0.  1.
        -12    1    3    3    0    0  0.43570535801E+00 -0.28502942494E+01 -0.24358256951E+01  0.37745547133E+01  0.00000000000E+00 0.  1.
</event>
<event>
 7    1  0.1769220E-008  0.4614232E+02  0.7816164E-02  0.1320468E+00
        -11   -1    0    0    0    0  0.00000000000E+00  0.00000000000E+00  0.45593999997E+02  0.45594000000E+02  0.51100000000E-03 0. -1.
         11   -1    0    0    0    0 -0.00000000000E+00 -0.00000000000E+00 -0.45593999997E+02  0.45594000000E+02  0.51100000000E-03 0.  1.
    9900012    2    1    2    0    0 -0.33201168679E+02  0.11104445727E+02  0.28345848845E+02  0.46142318039E+02  0.10000002536E+02 0.  0.
        -12    1    1    2    0    0  0.33201168679E+02 -0.11104445727E+02 -0.28345848845E+02  0.45045681961E+02  0.00000000000E+00 0.  1.
         11    1    3    3    0    0 -0.31200306263E+02  0.86431594650E+01  0.23406055766E+02  0.39950053358E+02  0.51100000000E-03 0. -1.
        -11    1    3    3    0    0 -0.21929881017E+01  0.26667663280E+01  0.45634662036E+01  0.57224176285E+01  0.51100000000E-03 0.  1.
         12    1    3    3    0    0  0.19212568577E+00 -0.20548006597E+00  0.37632687472E+00  0.46984705307E+00  0.00000000000E+00 0. -1.
</event>
<event>
 7    1  0.1549900E-008  0.4614232E+02  0.7816164E-02  0.1320468E+00
        -11   -1    0    0    0    0  0.00000000000E+00  0.00000000000E+00  0.45593999997E+02  0.45594000000E+02  0.51100000000E-03 0. -1.
         11   -1    0    0    0    0 -0.00000000000E+00 -0.00000000000E+00 -0.45593999997E+02  0.45594000000E+02  0.51100000000E-03 0.  1.
    9900012    2    1    2    0    0  0.28397691533E+02  0.15939140660E+02  0.31122799082E+02  0.46142315277E+02  0.99999773519E+01 0.  0.
        -12    1    1    2    0    0 -0.28397691533E+02 -0.15939140660E+02 -0.31122799082E+02  0.45045684723E+02  0.00000000000E+00 0.  1.
         11    1    3    3    0    0  0.18376590988E+02  0.79461054474E+01  0.21805874224E+02  0.29602970106E+02  0.51100000000E-03 0. -1.
        -11    1    3    3    0    0  0.42032141694E+01  0.24173830620E+01  0.98444718499E+00  0.49477153054E+01  0.51100000000E-03 0.  1.
        -12    1    3    3    0    0  0.58178863757E+01  0.55756521510E+01  0.83324776731E+01  0.11591629867E+02  0.00000000000E+00 0.  1.
</event>
<event>
 7    1  0.1549900E-008  0.4614232E+02  0.7816164E-02  0.1320468E+00
        -11   -1    0    0    0    0  0.00000000000E+00  0.00000000000E+00  0.45593999997E+02  0.45594000000E+02  0.51100000000E-03 0.  1.
         11   -1    0    0    0    0 -0.00000000000E+00 -0.00000000000E+00 -0.45593999997E+02  0.45594000000E+02  0.51100000000E-03 0. -1.
    9900012    2    1    2    0    0  0.26341782566E+02  0.21946620783E+02 -0.29215916975E+02  0.46142317885E+02  0.10000001129E+02 0.  0.
        -12    1    1    2    0    0 -0.26341782566E+02 -0.21946620783E+02  0.29215916975E+02  0.45045682115E+02  0.00000000000E+00 0.  1.
         11    1    3    3    0    0  0.37271001669E+01  0.13847565415E+01 -0.61407077114E+00  0.40231715731E+01  0.51100000000E-03 0.  1.
        -11    1    3    3    0    0  0.45087858925E+01  0.68121630330E+01 -0.69985282630E+01  0.10757049480E+02  0.51100000000E-03 0. -1.
         12    1    3    3    0    0  0.18105896507E+02  0.13749701208E+02 -0.21603317941E+02  0.31362096831E+02  0.00000000000E+00 0. -1.
</event>
<event>
 7    1  0.1549900E-008  0.4614232E+02  0.7816164E-02  0.1320468E+00
        -11   -1    0    0    0    0  0.00000000000E+00  0.00000000000E+00  0.45593999997E+02  0.45594000000E+02  0.51100000000E-03 0. -1.
         11   -1    0    0    0    0 -0.00000000000E+00 -0.00000000000E+00 -0.45593999997E+02  0.45594000000E+02  0.51100000000E-03 0.  1.
    9900012    2    1    2    0    0 -0.15026902533E+02 -0.39876652727E+02  0.14599943107E+02  0.46142316842E+02  0.99999916182E+01 0.  0.
        -12    1    1    2    0    0  0.15026902533E+02  0.39876652727E+02 -0.14599943107E+02  0.45045683158E+02  0.00000000000E+00 0.  1.
         11    1    3    3    0    0 -0.14277884329E+02 -0.30181609608E+02  0.11571331660E+02  0.35336712582E+02  0.51100000000E-03 0. -1.
        -11    1    3    3    0    0  0.74079623879E+00 -0.48036389858E+01  0.29621254762E+01  0.56919165639E+01  0.51100000000E-03 0.  1.
         12    1    3    3    0    0 -0.14898144426E+01 -0.48914041332E+01  0.66485970476E-01  0.51136876960E+01  0.00000000000E+00 0. -1.
</event>
<event>
 7    1  0.1549900E-008  0.4614231E+02  0.7816164E-02  0.1320468E+00
        -11   -1    0    0    0    0  0.00000000000E+00  0.00000000000E+00  0.45593999997E+02  0.45594000000E+02  0.51100000000E-03 0.  1.
         11   -1    0    0    0    0 -0.00000000000E+00 -0.00000000000E+00 -0.45593999997E+02  0.45594000000E+02  0.51100000000E-03 0. -1.
    9900012    2    1    2    0    0 -0.10251872649E+02  0.35372608261E+02 -0.25938226672E+02  0.46142313071E+02  0.99999572337E+01 0.  0.
        -12    1    1    2    0    0  0.10251872649E+02 -0.35372608261E+02  0.25938226672E+02  0.45045686929E+02  0.00000000000E+00 0.  1.
         11    1    3    3    0    0 -0.71863646819E+01  0.18092206421E+02 -0.16807744558E+02  0.25719098894E+02  0.51100000000E-03 0. -1.
        -11    1    3    3    0    0 -0.28218924347E+01  0.65835838050E+01 -0.16003188931E+01  0.73394600245E+01  0.51100000000E-03 0.  1.
        -12    1    3    3    0    0 -0.24361553284E+00  0.10696818035E+02 -0.75301632210E+01  0.13083754153E+02  0.00000000000E+00 0.  1.
</event>
<event>
 7    1  0.1549900E-008  0.4614232E+02  0.7816164E-02  0.1320468E+00
        -11   -1    0    0    0    0  0.00000000000E+00  0.00000000000E+00  0.45593999997E+02  0.45594000000E+02  0.51100000000E-03 0.  1.
         11   -1    0    0    0    0 -0.00000000000E+00 -0.00000000000E+00 -0.45593999997E+02  0.45594000000E+02  0.51100000000E-03 0. -1.
    9900012    2    1    2    0    0 -0.13719108517E+02  0.33835359137E+02 -0.26383102114E+02  0.46142317148E+02  0.99999944087E+01 0.  0.
        -12    1    1    2    0    0  0.13719108517E+02 -0.33835359137E+02  0.26383102114E+02  0.45045682852E+02  0.00000000000E+00 0.  1.
         11    1    3    3    0    0 -0.69356801787E+01  0.24625240650E+02 -0.19183936208E+02  0.31977015891E+02  0.51100000000E-03 0. -1.
        -11    1    3    3    0    0 -0.34693584947E+01  0.69380961773E+01 -0.29020399974E+01  0.82822378219E+01  0.51100000000E-03 0.  1.
         12    1    3    3    0    0 -0.33140698432E+01  0.22720223101E+01 -0.42971259092E+01  0.58830634352E+01  0.00000000000E+00 0. -1.
</event>
<event>
 7    1  0.1549900E-008  0.4614232E+02  0.7816164E-02  0.1320468E+00
        -11   -1    0    0    0    0  0.00000000000E+00  0.00000000000E+00  0.45593999997E+02  0.45594000000E+02  0.51100000000E-03 0.  1.
         11   -1    0    0    0    0 -0.00000000000E+00 -0.00000000000E+00 -0.45593999997E+02  0.45594000000E+02  0.51100000000E-03 0. -1.
    9900012    2    1    2    0    0  0.15930387942E+02  0.67299042396E+01 -0.41593804217E+02  0.46142318517E+02  0.10000006890E+02 0.  0.
        -12    1    1    2    0    0 -0.15930387942E+02 -0.67299042396E+01  0.41593804217E+02  0.45045681483E+02  0.00000000000E+00 0.  1.
         11    1    3    3    0    0  0.10617049853E+02  0.36158737397E+01 -0.36157365958E+02  0.37856986195E+02  0.51100000000E-03 0. -1.
        -11    1    3    3    0    0  0.61771914775E+00  0.42770896662E+00 -0.25211521770E+00  0.79251135622E+00  0.51100000000E-03 0.  1.
         12    1    3    3    0    0  0.46956189419E+01  0.26863215332E+01 -0.51843230408E+01  0.74928209654E+01  0.00000000000E+00 0. -1.
</event>
<event>
 7    1  0.1549900E-008  0.4614232E+02  0.7816164E-02  0.1320468E+00
        -11   -1    0    0    0    0  0.00000000000E+00  0.00000000000E+00  0.45593999997E+02  0.45594000000E+02  0.51100000000E-03 0.  1.
         11   -1    0    0    0    0 -0.00000000000E+00 -0.00000000000E+00 -0.45593999997E+02  0.45594000000E+02  0.51100000000E-03 0. -1.
    9900012    2    1    2    0    0 -0.18985088136E+02 -0.12395766426E+02 -0.38923320622E+02  0.46142317798E+02  0.10000000333E+02 0.  0.
        -12    1    1    2    0    0  0.18985088136E+02  0.12395766426E+02  0.38923320622E+02  0.45045682202E+02  0.00000000000E+00 0.  1.
         11    1    3    3    0    0 -0.94001189723E+01 -0.33178590466E+01 -0.23681689033E+02  0.25694217658E+02  0.51100000000E-03 0. -1.
        -11    1    3    3    0    0 -0.62884884680E+00 -0.22511797658E+01 -0.31800841452E+01  0.39466690566E+01  0.51100000000E-03 0.  1.
         12    1    3    3    0    0 -0.89561203168E+01 -0.68267276136E+01 -0.12061547444E+02  0.16501431083E+02  0.00000000000E+00 0. -1.
</event>
<event>
 7    1  0.1549900E-008  0.4614232E+02  0.7816164E-02  0.1320468E+00
        -11   -1    0    0    0    0  0.00000000000E+00  0.00000000000E+00  0.45593999997E+02  0.45594000000E+02  0.51100000000E-03 0.  1.
         11   -1    0    0    0    0 -0.00000000000E+00 -0.00000000000E+00 -0.45593999997E+02  0.45594000000E+02  0.51100000000E-03 0. -1.
    9900012    2    1    2    0    0  0.16766089458E+02  0.40059341733E+02 -0.11969145551E+02  0.46142322504E+02  0.10000043253E+02 0.  0.
        -12    1    1    2    0    0 -0.16766089458E+02 -0.40059341733E+02  0.11969145551E+02  0.45045677496E+02  0.00000000000E+00 0.  1.
         11    1    3    3    0    0  0.84349792997E+01  0.24686667145E+02 -0.10263352201E+02  0.28034207840E+02  0.51100000000E-03 0. -1.
        -11    1    3    3    0    0  0.81283443576E+01  0.13676970038E+02 -0.26917675691E+01  0.16136142796E+02  0.51100000000E-03 0.  1.
         12    1    3    3    0    0  0.20276580030E+00  0.16957045502E+01  0.98597421924E+00  0.19719718691E+01  0.00000000000E+00 0. -1.
</event>
<event>
 7    1  0.1549900E-008  0.4614232E+02  0.7816164E-02  0.1320468E+00
        -11   -1    0    0    0    0  0.00000000000E+00  0.00000000000E+00  0.45593999997E+02  0.45594000000E+02  0.51100000000E-03 0. -1.
         11   -1    0    0    0    0 -0.00000000000E+00 -0.00000000000E+00 -0.45593999997E+02  0.45594000000E+02  0.51100000000E-03 0.  1.
    9900012    2    1    2    0    0  0.27933670307E+02 -0.41397488662E+01  0.35095384290E+02  0.46142318121E+02  0.10000003280E+02 0.  0.
        -12    1    1    2    0    0 -0.27933670307E+02  0.41397488662E+01 -0.35095384290E+02  0.45045681879E+02  0.00000000000E+00 0.  1.
         11    1    3    3    0    0  0.20668083731E+02 -0.18966282777E+01  0.19207835151E+02  0.28279105632E+02  0.51100000000E-03 0. -1.
        -11    1    3    3    0    0  0.34515471653E+01 -0.20077814874E+01  0.55120945821E+01  0.68064345497E+01  0.51100000000E-03 0.  1.
         12    1    3    3    0    0  0.38140394110E+01 -0.23533910113E+00  0.10375454557E+02  0.11056777939E+02  0.00000000000E+00 0. -1.
</event>
<event>
 7    1  0.1549900E-008  0.4614232E+02  0.7816164E-02  0.1320468E+00
        -11   -1    0    0    0    0  0.00000000000E+00  0.00000000000E+00  0.45593999997E+02  0.45594000000E+02  0.51100000000E-03 0.  1.
         11   -1    0    0    0    0 -0.00000000000E+00 -0.00000000000E+00 -0.45593999997E+02  0.45594000000E+02  0.51100000000E-03 0. -1.
    9900012    2    1    2    0    0 -0.21489417812E+02  0.40573971502E+01 -0.39380908614E+02  0.46142317490E+02  0.99999975283E+01 0.  0.
        -12    1    1    2    0    0  0.21489417812E+02 -0.40573971502E+01  0.39380908614E+02  0.45045682510E+02  0.00000000000E+00 0.  1.
         11    1    3    3    0    0 -0.10657034714E+02 -0.17006194139E+01 -0.22982229591E+02  0.25389906903E+02  0.51100000000E-03 0. -1.
        -11    1    3    3    0    0 -0.87885519832E+01  0.33432407679E+01 -0.10783234681E+02  0.14307133020E+02  0.51100000000E-03 0.  1.
         12    1    3    3    0    0 -0.20438311148E+01  0.24147757962E+01 -0.56154443407E+01  0.64452775670E+01  0.00000000000E+00 0. -1.
</event>
<event>
 7    1  0.1549900E-008  0.4614232E+02  0.7816164E-02  0.1320468E+00
        -11   -1    0    0    0    0  0.00000000000E+00  0.00000000000E+00  0.45593999997E+02  0.45594000000E+02  0.51100000000E-03 0. -1.
         11   -1    0    0    0    0 -0.00000000000E+00 -0.00000000000E+00 -0.45593999997E+02  0.45594000000E+02  0.51100000000E-03 0.  1.
    9900012    2    1    2    0    0 -0.29312019495E+02 -0.33550260000E+02  0.66557449159E+01  0.46142319038E+02  0.10000011639E+02 0.  0.
        -12    1    1    2    0    0  0.29312019495E+02  0.33550260000E+02 -0.66557449159E+01  0.45045680962E+02  0.00000000000E+00 0.  1.
         11    1    3    3    0    0 -0.70025809873E+01 -0.11929999271E+02  0.45982574657E+01  0.14577551066E+02  0.51100000000E-03 0. -1.
        -11    1    3    3    0    0 -0.67057683896E+01 -0.10003361291E+02  0.64142938482E+00  0.12060099449E+02  0.51100000000E-03 0.  1.
         12    1    3    3    0    0 -0.15603670118E+02 -0.11616899438E+02  0.14160580653E+01  0.19504668522E+02  0.00000000000E+00 0. -1.
</event>
<event>
 7    1  0.1549900E-008  0.4614232E+02  0.7816164E-02  0.1320468E+00
        -11   -1    0    0    0    0  0.00000000000E+00  0.00000000000E+00  0.45593999997E+02  0.45594000000E+02  0.51100000000E-03 0.  1.
         11   -1    0    0    0    0 -0.00000000000E+00 -0.00000000000E+00 -0.45593999997E+02  0.45594000000E+02  0.51100000000E-03 0. -1.
    9900012    2    1    2    0    0 -0.30243490983E+02 -0.29318826987E+02  0.15964054711E+02  0.46142318680E+02  0.10000008380E+02 0.  0.
        -12    1    1    2    0    0  0.30243490983E+02  0.29318826987E+02 -0.15964054711E+02  0.45045681320E+02  0.00000000000E+00 0.  1.
         11    1    3    3    0    0 -0.15577213948E+02 -0.19595178210E+02  0.63846172784E+01  0.25833775208E+02  0.51100000000E-03 0. -1.
        -11    1    3    3    0    0 -0.13069639767E+02 -0.75396390075E+01  0.72565252809E+01  0.16742723776E+02  0.51100000000E-03 0.  1.
        -12    1    3    3    0    0 -0.15966372678E+01 -0.21840097695E+01  0.23229121520E+01  0.35658196960E+01  0.00000000000E+00 0.  1.
</event>
<event>
 7    1  0.1549900E-008  0.4614232E+02  0.7816164E-02  0.1320468E+00
        -11   -1    0    0    0    0  0.00000000000E+00  0.00000000000E+00  0.45593999997E+02  0.45594000000E+02  0.51100000000E-03 0.  1.
         11   -1    0    0    0    0 -0.00000000000E+00 -0.00000000000E+00 -0.45593999997E+02  0.45594000000E+02  0.51100000000E-03 0. -1.
    9900012    2    1    2    0    0  0.19456758630E+02  0.26005612139E+02 -0.31213077072E+02  0.46142317639E+02  0.99999988843E+01 0.  0.
        -12    1    1    2    0    0 -0.19456758630E+02 -0.26005612139E+02  0.31213077072E+02  0.45045682361E+02  0.00000000000E+00 0.  1.
         11    1    3    3    0    0  0.27266711112E+01  0.65912475503E+01 -0.31498844848E+01  0.77975029431E+01  0.51100000000E-03 0.  1.
        -11    1    3    3    0    0  0.14873781571E+02  0.14076874432E+02 -0.21959645629E+02  0.30026884760E+02  0.51100000000E-03 0. -1.
        -12    1    3    3    0    0  0.18563059479E+01  0.53374901561E+01 -0.61035469585E+01  0.83179299356E+01  0.00000000000E+00 0.  1.
</event>
<event>
 7    1  0.1549900E-008  0.4614232E+02  0.7816164E-02  0.1320468E+00
        -11   -1    0    0    0    0  0.00000000000E+00  0.00000000000E+00  0.45593999997E+02  0.45594000000E+02  0.51100000000E-03 0.  1.
         11   -1    0    0    0    0 -0.00000000000E+00 -0.00000000000E+00 -0.45593999997E+02  0.45594000000E+02  0.51100000000E-03 0. -1.
    9900012    2    1    2    0    0 -0.59930777090E+01 -0.13153237479E+02 -0.42663670924E+02  0.46142318150E+02  0.10000003550E+02 0.  0.
        -12    1    1    2    0    0  0.59930777090E+01  0.13153237479E+02  0.42663670924E+02  0.45045681850E+02  0.00000000000E+00 0.  1.
         11    1    3    3    0    0 -0.53362947653E+01 -0.77574266193E+01 -0.26438215513E+02  0.28064799115E+02  0.51100000000E-03 0. -1.
        -11    1    3    3    0    0 -0.49561863456E+00 -0.29320727584E+01 -0.15053662839E+02  0.15344557785E+02  0.51100000000E-03 0.  1.
        -12    1    3    3    0    0 -0.16116430913E+00 -0.24637381015E+01 -0.11717925721E+01  0.27329612509E+01  0.00000000000E+00 0.  1.
</event>
<event>
 7    1  0.1549900E-008  0.4614232E+02  0.7816164E-02  0.1320468E+00
        -11   -1    0    0    0    0  0.00000000000E+00  0.00000000000E+00  0.45593999997E+02  0.45594000000E+02  0.51100000000E-03 0. -1.
         11   -1    0    0    0    0 -0.00000000000E+00 -0.00000000000E+00 -0.45593999997E+02  0.45594000000E+02  0.51100000000E-03 0.  1.
    9900012    2    1    2    0    0 -0.44567789168E+02 -0.31283633529E+01 -0.57479170868E+01  0.46142322744E+02  0.10000045440E+02 0.  0.
        -12    1    1    2    0    0  0.44567789168E+02  0.31283633529E+01  0.57479170868E+01  0.45045677256E+02  0.00000000000E+00 0.  1.
         11    1    3    3    0    0 -0.33311831280E+02 -0.46986791217E+01 -0.68716216986E+01  0.34336203543E+02  0.51100000000E-03 0. -1.
        -11    1    3    3    0    0 -0.41123441340E+01  0.17242853554E+01  0.13443297416E+01  0.46574410333E+01  0.51100000000E-03 0.  1.
        -12    1    3    3    0    0 -0.71436137543E+01 -0.15396958668E+00 -0.22062512978E+00  0.71486781681E+01  0.00000000000E+00 0.  1.
</event>
<event>
 7    1  0.1549900E-008  0.4614232E+02  0.7816164E-02  0.1320468E+00
        -11   -1    0    0    0    0  0.00000000000E+00  0.00000000000E+00  0.45593999997E+02  0.45594000000E+02  0.51100000000E-03 0.  1.
         11   -1    0    0    0    0 -0.00000000000E+00 -0.00000000000E+00 -0.45593999997E+02  0.45594000000E+02  0.51100000000E-03 0. -1.
    9900012    2    1    2    0    0 -0.13747980030E+02 -0.23270068915E+02 -0.36036238454E+02  0.46142317142E+02  0.99999943511E+01 0.  0.
        -12    1    1    2    0    0  0.13747980030E+02  0.23270068915E+02  0.36036238454E+02  0.45045682858E+02  0.00000000000E+00 0.  1.
         11    1    3    3    0    0 -0.19213618241E+01 -0.13485245617E+01 -0.39834390664E+01  0.46236281003E+01  0.51100000000E-03 0. -1.
        -11    1    3    3    0    0 -0.60683201646E+00 -0.25505613840E+01 -0.25874214093E+00  0.26344935427E+01  0.51100000000E-03 0.  1.
        -12    1    3    3    0    0 -0.11219786189E+02 -0.19370982970E+02 -0.31794057247E+02  0.38884195499E+02  0.00000000000E+00 0.  1.
</event>
<event>
 7    1  0.1549900E-008  0.4614232E+02  0.7816164E-02  0.1320468E+00
        -11   -1    0    0    0    0  0.00000000000E+00  0.00000000000E+00  0.45593999997E+02  0.45594000000E+02  0.51100000000E-03 0. -1.
         11   -1    0    0    0    0 -0.00000000000E+00 -0.00000000000E+00 -0.45593999997E+02  0.45594000000E+02  0.51100000000E-03 0.  1.
    9900012    2    1    2    0    0  0.28958616584E+01 -0.22829703369E+02  0.38723791382E+02  0.46142318857E+02  0.10000009992E+02 0.  0.
        -12    1    1    2    0    0 -0.28958616584E+01  0.22829703369E+02 -0.38723791382E+02  0.45045681143E+02  0.00000000000E+00 0.  1.
         11    1    3    3    0    0  0.51640707855E+01 -0.71291547732E+01  0.15742468116E+02  0.18036567786E+02  0.51100000000E-03 0. -1.
        -11    1    3    3    0    0 -0.10890292847E+00 -0.32258703119E+01  0.27531013834E+01  0.42423656850E+01  0.51100000000E-03 0.  1.
         12    1    3    3    0    0 -0.21593061987E+01 -0.12474678284E+02  0.20228221883E+02  0.23863385386E+02  0.00000000000E+00 0. -1.
</event>
<event>
 7    1  0.1549900E-008  0.4614232E+02  0.7816164E-02  0.1320468E+00
        -11   -1    0    0    0    0  0.00000000000E+00  0.00000000000E+00  0.45593999997E+02  0.45594000000E+02  0.51100000000E-03 0.  1.
         11   -1    0    0    0    0 -0.00000000000E+00 -0.00000000000E+00 -0.45593999997E+02  0.45594000000E+02  0.51100000000E-03 0. -1.
    9900012    2    1    2    0    0 -0.31304384760E+02 -0.13752726294E+02 -0.29325954385E+02  0.46142316674E+02  0.99999900893E+01 0.  0.
        -12    1    1    2    0    0  0.31304384760E+02  0.13752726294E+02  0.29325954385E+02  0.45045683326E+02  0.00000000000E+00 0.  1.
         11    1    3    3    0    0 -0.13517653949E+02 -0.44802664631E+01 -0.73036631943E+01  0.16004476005E+02  0.51100000000E-03 0. -1.
        -11    1    3    3    0    0 -0.11401300626E+02 -0.45771181487E+01 -0.16056708871E+02  0.20217753746E+02  0.51100000000E-03 0.  1.
         12    1    3    3    0    0 -0.63854301846E+01 -0.46953416823E+01 -0.59655823195E+01  0.99200869233E+01  0.00000000000E+00 0. -1.
</event>
<event>
 7    1  0.1549900E-008  0.4614232E+02  0.7816164E-02  0.1320468E+00
        -11   -1    0    0    0    0  0.00000000000E+00  0.00000000000E+00  0.45593999997E+02  0.45594000000E+02  0.51100000000E-03 0. -1.
         11   -1    0    0    0    0 -0.00000000000E+00 -0.00000000000E+00 -0.45593999997E+02  0.45594000000E+02  0.51100000000E-03 0.  1.
    9900012    2    1    2    0    0 -0.15801088373E+02 -0.28835754873E+02  0.30788610205E+02  0.46142315732E+02  0.99999814956E+01 0.  0.
        -12    1    1    2    0    0  0.15801088373E+02  0.28835754873E+02 -0.30788610205E+02  0.45045684268E+02  0.00000000000E+00 0.  1.
         11    1    3    3    0    0 -0.78365119830E+01 -0.12476846522E+02  0.16300784522E+02  0.21972669285E+02  0.51100000000E-03 0. -1.
        -11    1    3    3    0    0 -0.55950033465E+01 -0.50168412180E+01  0.38664986235E+01  0.84511874977E+01  0.51100000000E-03 0.  1.
         12    1    3    3    0    0 -0.23695730430E+01 -0.11342067133E+02  0.10621327059E+02  0.15718458949E+02  0.00000000000E+00 0. -1.
</event>
<event>
 7    1  0.1549900E-008  0.4614232E+02  0.7816164E-02  0.1320468E+00
        -11   -1    0    0    0    0  0.00000000000E+00  0.00000000000E+00  0.45593999997E+02  0.45594000000E+02  0.51100000000E-03 0.  1.
         11   -1    0    0    0    0 -0.00000000000E+00 -0.00000000000E+00 -0.45593999997E+02  0.45594000000E+02  0.51100000000E-03 0. -1.
    9900012    2    1    2    0    0 -0.41399886081E+02  0.22574297308E+01 -0.17608719182E+02  0.46142317102E+02  0.99999939926E+01 0.  0.
        -12    1    1    2    0    0  0.41399886081E+02 -0.22574297308E+01  0.17608719182E+02  0.45045682898E+02  0.00000000000E+00 0.  1.
         11    1    3    3    0    0 -0.28978914624E+02  0.34597871365E+01 -0.96901875254E+01  0.30751379714E+02  0.51100000000E-03 0. -1.
        -11    1    3    3    0    0 -0.12268685564E+01 -0.55397466130E+00 -0.27131107138E+01  0.30287067185E+01  0.51100000000E-03 0.  1.
        -12    1    3    3    0    0 -0.11194102900E+02 -0.64838274438E+00 -0.52054209430E+01  0.12362230669E+02  0.00000000000E+00 0.  1.
</event>
<event>
 7    1  0.1549900E-008  0.4614232E+02  0.7816164E-02  0.1320468E+00
        -11   -1    0    0    0    0  0.00000000000E+00  0.00000000000E+00  0.45593999997E+02  0.45594000000E+02  0.51100000000E-03 0.  1.
         11   -1    0    0    0    0 -0.00000000000E+00 -0.00000000000E+00 -0.45593999997E+02  0.45594000000E+02  0.51100000000E-03 0. -1.
    9900012    2    1    2    0    0 -0.25585084673E+02  0.25124526177E+02 -0.27263072207E+02  0.46142317860E+02  0.10000000903E+02 0.  0.
        -12    1    1    2    0    0  0.25585084673E+02 -0.25124526177E+02  0.27263072207E+02  0.45045682140E+02  0.00000000000E+00 0.  1.
         11    1    3    3    0    0 -0.14339348262E+02  0.12723951390E+02 -0.18164788106E+02  0.26409759081E+02  0.51100000000E-03 0. -1.
        -11    1    3    3    0    0 -0.56631087421E+00  0.22328986394E-01 -0.16926442555E+01  0.17850074025E+01  0.51100000000E-03 0.  1.
         12    1    3    3    0    0 -0.10679425536E+02  0.12378245801E+02 -0.74056398455E+01  0.17947551376E+02  0.00000000000E+00 0. -1.
</event>
<event>
 7    1  0.1549900E-008  0.4614232E+02  0.7816164E-02  0.1320468E+00
        -11   -1    0    0    0    0  0.00000000000E+00  0.00000000000E+00  0.45593999997E+02  0.45594000000E+02  0.51100000000E-03 0.  1.
         11   -1    0    0    0    0 -0.00000000000E+00 -0.00000000000E+00 -0.45593999997E+02  0.45594000000E+02  0.51100000000E-03 0. -1.
    9900012    2    1    2    0    0 -0.31159315950E+02 -0.14085468258E+02  0.29322520281E+02  0.46142316720E+02  0.99999905064E+01 0.  0.
        -12    1    1    2    0    0  0.31159315950E+02  0.14085468258E+02 -0.29322520281E+02  0.45045683280E+02  0.00000000000E+00 0.  1.
         11    1    3    3    0    0 -0.66370860040E+01 -0.65177393935E+01  0.65221910383E+01  0.11360933660E+02  0.51100000000E-03 0. -1.
        -11    1    3    3    0    0 -0.16270948803E+02 -0.66934777481E+01  0.18113892429E+02  0.25251921085E+02  0.51100000000E-03 0.  1.
        -12    1    3    3    0    0 -0.82512811431E+01 -0.87425111661E+00  0.46864368142E+01  0.95294619749E+01  0.00000000000E+00 0.  1.
</event>
<event>
 7    1  0.1549900E-008  0.4614231E+02  0.7816164E-02  0.1320468E+00
        -11   -1    0    0    0    0  0.00000000000E+00  0.00000000000E+00  0.45593999997E+02  0.45594000000E+02  0.51100000000E-03 0. -1.
         11   -1    0    0    0    0 -0.00000000000E+00 -0.00000000000E+00 -0.45593999997E+02  0.45594000000E+02  0.51100000000E-03 0.  1.
    9900012    2    1    2    0    0 -0.23608322321E+02  0.10850647074E+02  0.36797069582E+02  0.46142314806E+02  0.99999730566E+01 0.  0.
        -12    1    1    2    0    0  0.23608322321E+02 -0.10850647074E+02 -0.36797069582E+02  0.45045685194E+02  0.00000000000E+00 0.  1.
         11    1    3    3    0    0 -0.80561701944E+00  0.85745288612E+00  0.73538930149E+01  0.74474147843E+01  0.51100000000E-03 0.  1.
        -11    1    3    3    0    0 -0.95772538968E+01  0.59072299983E+01  0.12587079568E+02  0.16883534309E+02  0.51100000000E-03 0. -1.
        -12    1    3    3    0    0 -0.13225451405E+02  0.40859641893E+01  0.16856096999E+02  0.21811365713E+02  0.00000000000E+00 0.  1.
</event>
<event>
 7    1  0.1563926E-008  0.4614232E+02  0.7816164E-02  0.1320468E+00
        -11   -1    0    0    0    0  0.00000000000E+00  0.00000000000E+00  0.45593999997E+02  0.45594000000E+02  0.51100000000E-03 0. -1.
         11   -1    0    0    0    0 -0.00000000000E+00 -0.00000000000E+00 -0.45593999997E+02  0.45594000000E+02  0.51100000000E-03 0.  1.
    9900012    2    1    2    0    0  0.38732128339E+02 -0.21351225905E+02  0.85475722241E+01  0.46142316475E+02  0.99999882699E+01 0.  0.
        -12    1    1    2    0    0 -0.38732128339E+02  0.21351225905E+02 -0.85475722241E+01  0.45045683525E+02  0.00000000000E+00 0.  1.
         11    1    3    3    0    0  0.18845716236E+02 -0.12512313942E+02  0.86852347140E+01  0.24231226195E+02  0.51100000000E-03 0. -1.
        -11    1    3    3    0    0  0.98092405204E+01 -0.30808996279E+01 -0.56297273468E+00  0.10297090884E+02  0.51100000000E-03 0.  1.
         12    1    3    3    0    0  0.10077171583E+02 -0.57580123353E+01  0.42531024472E+00  0.11613999396E+02  0.00000000000E+00 0. -1.
</event>
<event>
 7    1  0.1549900E-008  0.4614232E+02  0.7816164E-02  0.1320468E+00
        -11   -1    0    0    0    0  0.00000000000E+00  0.00000000000E+00  0.45593999997E+02  0.45594000000E+02  0.51100000000E-03 0.  1.
         11   -1    0    0    0    0 -0.00000000000E+00 -0.00000000000E+00 -0.45593999997E+02  0.45594000000E+02  0.51100000000E-03 0. -1.
    9900012    2    1    2    0    0  0.25957429997E+02  0.35983204488E+02 -0.77803774698E+01  0.46142318177E+02  0.10000003794E+02 0.  0.
        -12    1    1    2    0    0 -0.25957429997E+02 -0.35983204488E+02  0.77803774698E+01  0.45045681823E+02  0.00000000000E+00 0.  1.
         11    1    3    3    0    0  0.65973730477E+01  0.13105308174E+02  0.50039561466E+00  0.14680763927E+02  0.51100000000E-03 0. -1.
        -11    1    3    3    0    0 -0.74667309870E-01  0.98850032018E+00  0.14284615714E+00  0.10015554782E+01  0.51100000000E-03 0.  1.
         12    1    3    3    0    0  0.19434724260E+02  0.21889395994E+02 -0.84236192416E+01  0.30459998772E+02  0.00000000000E+00 0. -1.
</event>
<event>
 7    1  0.1549900E-008  0.4614232E+02  0.7816164E-02  0.1320468E+00
        -11   -1    0    0    0    0  0.00000000000E+00  0.00000000000E+00  0.45593999997E+02  0.45594000000E+02  0.51100000000E-03 0.  1.
         11   -1    0    0    0    0 -0.00000000000E+00 -0.00000000000E+00 -0.45593999997E+02  0.45594000000E+02  0.51100000000E-03 0. -1.
    9900012    2    1    2    0    0 -0.14487987255E+02  0.64086917100E+01 -0.42167999809E+02  0.46142319718E+02  0.10000017845E+02 0.  0.
        -12    1    1    2    0    0  0.14487987255E+02 -0.64086917100E+01  0.42167999809E+02  0.45045680282E+02  0.00000000000E+00 0.  1.
         11    1    3    3    0    0 -0.91744204568E+01 -0.14526150458E+00 -0.24238943238E+02  0.25917512635E+02  0.51100000000E-03 0. -1.
        -11    1    3    3    0    0 -0.10036350698E+01  0.39734526695E+01 -0.58487101911E+01  0.71416399118E+01  0.51100000000E-03 0.  1.
         12    1    3    3    0    0 -0.43099317286E+01  0.25805005451E+01 -0.12080346380E+02  0.13083167172E+02  0.00000000000E+00 0. -1.
</event>
<event>
 7    1  0.1549900E-008  0.4614232E+02  0.7816164E-02  0.1320468E+00
        -11   -1    0    0    0    0  0.00000000000E+00  0.00000000000E+00  0.45593999997E+02  0.45594000000E+02  0.51100000000E-03 0.  1.
         11   -1    0    0    0    0 -0.00000000000E+00 -0.00000000000E+00 -0.45593999997E+02  0.45594000000E+02  0.51100000000E-03 0. -1.
    9900012    2    1    2    0    0 -0.31434784770E+02 -0.32069525772E+02 -0.35374249661E+01  0.46142317053E+02  0.99999935425E+01 0.  0.
        -12    1    1    2    0    0  0.31434784770E+02  0.32069525772E+02  0.35374249661E+01  0.45045682947E+02  0.00000000000E+00 0.  1.
         11    1    3    3    0    0 -0.86549647753E+01 -0.86731624471E+01 -0.30731502438E-01  0.12252881571E+02  0.51100000000E-03 0. -1.
        -11    1    3    3    0    0 -0.20071932901E+02 -0.15839549155E+02 -0.14885239955E+01  0.25612292201E+02  0.51100000000E-03 0.  1.
        -12    1    3    3    0    0 -0.27078870937E+01 -0.75568141694E+01 -0.20181694682E+01  0.82771432817E+01  0.00000000000E+00 0.  1.
</event>
<event>
 7    1  0.1549900E-008  0.4614232E+02  0.7816164E-02  0.1320468E+00
        -11   -1    0    0    0    0  0.00000000000E+00  0.00000000000E+00  0.45593999997E+02  0.45594000000E+02  0.51100000000E-03 0. -1.
         11   -1    0    0    0    0 -0.00000000000E+00 -0.00000000000E+00 -0.45593999997E+02  0.45594000000E+02  0.51100000000E-03 0.  1.
    9900012    2    1    2    0    0 -0.84432029815E+01 -0.19359042980E+02  0.39787601665E+02  0.46142317988E+02  0.10000002073E+02 0.  0.
        -12    1    1    2    0    0  0.84432029815E+01  0.19359042980E+02 -0.39787601665E+02  0.45045682012E+02  0.00000000000E+00 0.  1.
         11    1    3    3    0    0 -0.16919918480E+01 -0.38221372287E+01  0.11876664307E+02  0.12590739642E+02  0.51100000000E-03 0. -1.
        -11    1    3    3    0    0  0.81165919901E+00 -0.19085109392E+01  0.80069028505E+01  0.82711364502E+01  0.51100000000E-03 0.  1.
        -12    1    3    3    0    0 -0.75628703325E+01 -0.13628394812E+02  0.19904034507E+02  0.25280441896E+02  0.00000000000E+00 0.  1.
</event>
<event>
 7    1  0.1549900E-008  0.4614232E+02  0.7816164E-02  0.1320468E+00
        -11   -1    0    0    0    0  0.00000000000E+00  0.00000000000E+00  0.45593999997E+02  0.45594000000E+02  0.51100000000E-03 0.  1.
         11   -1    0    0    0    0 -0.00000000000E+00 -0.00000000000E+00 -0.45593999997E+02  0.45594000000E+02  0.51100000000E-03 0. -1.
    9900012    2    1    2    0    0  0.10507460839E+02  0.21792825708E+02 -0.37997098490E+02  0.46142317862E+02  0.10000000918E+02 0.  0.
        -12    1    1    2    0    0 -0.10507460839E+02 -0.21792825708E+02  0.37997098490E+02  0.45045682138E+02  0.00000000000E+00 0.  1.
         11    1    3    3    0    0  0.74932706746E+01  0.13712812436E+02 -0.23815855509E+02  0.28484825858E+02  0.51100000000E-03 0. -1.
        -11    1    3    3    0    0  0.34454293111E+01  0.38708863199E+01 -0.11590341334E+02  0.12696092176E+02  0.51100000000E-03 0.  1.
        -12    1    3    3    0    0 -0.43123914693E+00  0.42091269527E+01 -0.25909016478E+01  0.49613998281E+01  0.00000000000E+00 0.  1.
</event>
<event>
 7    1  0.1549900E-008  0.4614232E+02  0.7816164E-02  0.1320468E+00
        -11   -1    0    0    0    0  0.00000000000E+00  0.00000000000E+00  0.45593999997E+02  0.45594000000E+02  0.51100000000E-03 0. -1.
         11   -1    0    0    0    0 -0.00000000000E+00 -0.00000000000E+00 -0.45593999997E+02  0.45594000000E+02  0.51100000000E-03 0.  1.
    9900012    2    1    2    0    0  0.10652270465E+02 -0.25334809682E+02  0.35690194688E+02  0.46142318248E+02  0.10000004437E+02 0.  0.
        -12    1    1    2    0    0 -0.10652270465E+02  0.25334809682E+02 -0.35690194688E+02  0.45045681752E+02  0.00000000000E+00 0.  1.
         11    1    3    3    0    0 -0.50432925698E+00 -0.14806728186E+01  0.70966804250E-01  0.15658149775E+01  0.51100000000E-03 0.  1.
        -11    1    3    3    0    0  0.10478003475E+02 -0.20515153824E+02  0.28204565379E+02  0.36416446858E+02  0.51100000000E-03 0. -1.
         12    1    3    3    0    0  0.67859624674E+00 -0.33389830393E+01  0.74146625042E+01  0.81600564124E+01  0.00000000000E+00 0. -1.
</event>
<event>
 7    1  0.1549900E-008  0.4614232E+02  0.7816164E-02  0.1320468E+00
        -11   -1    0    0    0    0  0.00000000000E+00  0.00000000000E+00  0.45593999997E+02  0.45594000000E+02  0.51100000000E-03 0. -1.
         11   -1    0    0    0    0 -0.00000000000E+00 -0.00000000000E+00 -0.45593999997E+02  0.45594000000E+02  0.51100000000E-03 0.  1.
    9900012    2    1    2    0    0 -0.45516937062E+01  0.40451748782E+02  0.19288638249E+02  0.46142318069E+02  0.10000002809E+02 0.  0.
        -12    1    1    2    0    0  0.45516937062E+01 -0.40451748782E+02 -0.19288638249E+02  0.45045681931E+02  0.00000000000E+00 0.  1.
         11    1    3    3    0    0 -0.45165127574E+00  0.16035085429E+02  0.77036085124E+01  0.17795323485E+02  0.51100000000E-03 0. -1.
        -11    1    3    3    0    0 -0.73879596867E+00  0.61623802235E+01  0.67432410651E+01  0.91647176621E+01  0.51100000000E-03 0.  1.
        -12    1    3    3    0    0 -0.33612464618E+01  0.18254283130E+02  0.48417886719E+01  0.19182276922E+02  0.00000000000E+00 0.  1.
</event>
<event>
 7    1  0.1798916E-008  0.4614232E+02  0.7816164E-02  0.1320468E+00
        -11   -1    0    0    0    0  0.00000000000E+00  0.00000000000E+00  0.45593999997E+02  0.45594000000E+02  0.51100000000E-03 0.  1.
         11   -1    0    0    0    0 -0.00000000000E+00 -0.00000000000E+00 -0.45593999997E+02  0.45594000000E+02  0.51100000000E-03 0. -1.
    9900012    2    1    2    0    0 -0.73826075152E+01  0.42204015044E+02 -0.13907975466E+02  0.46142316953E+02  0.99999926337E+01 0.  0.
        -12    1    1    2    0    0  0.73826075152E+01 -0.42204015044E+02  0.13907975466E+02  0.45045683047E+02  0.00000000000E+00 0.  1.
         11    1    3    3    0    0 -0.24856835694E+01  0.14735909654E+02 -0.95051562024E+01  0.17710834278E+02  0.51100000000E-03 0. -1.
        -11    1    3    3    0    0 -0.19117607396E-01  0.84657362241E+01 -0.10987469573E+01  0.85367617066E+01  0.51100000000E-03 0.  1.
         12    1    3    3    0    0 -0.48778063384E+01  0.19002369167E+02 -0.33040723063E+01  0.19894720969E+02  0.00000000000E+00 0. -1.
</event>
<event>
 7    1  0.1549900E-008  0.4614232E+02  0.7816164E-02  0.1320468E+00
        -11   -1    0    0    0    0  0.00000000000E+00  0.00000000000E+00  0.45593999997E+02  0.45594000000E+02  0.51100000000E-03 0.  1.
         11   -1    0    0    0    0 -0.00000000000E+00 -0.00000000000E+00 -0.45593999997E+02  0.45594000000E+02  0.51100000000E-03 0. -1.
    9900012    2    1    2    0    0  0.23395607088E+02  0.11420717641E+02 -0.36760388947E+02  0.46142318542E+02  0.10000007123E+02 0.  0.
        -12    1    1    2    0    0 -0.23395607088E+02 -0.11420717641E+02  0.36760388947E+02  0.45045681458E+02  0.00000000000E+00 0.  1.
         11    1    3    3    0    0  0.84843700537E+01  0.55526140582E+01 -0.82379295699E+01  0.13064438065E+02  0.51100000000E-03 0. -1.
        -11    1    3    3    0    0  0.36250055725E+01  0.23988892666E+01 -0.12055368402E+02  0.12815117740E+02  0.51100000000E-03 0.  1.
         12    1    3    3    0    0  0.11286231461E+02  0.34692143162E+01 -0.16467090975E+02  0.20262762737E+02  0.00000000000E+00 0. -1.
</event>
<event>
 7    1  0.1549900E-008  0.4614232E+02  0.7816164E-02  0.1320468E+00
        -11   -1    0    0    0    0  0.00000000000E+00  0.00000000000E+00  0.45593999997E+02  0.45594000000E+02  0.51100000000E-03 0.  1.
         11   -1    0    0    0    0 -0.00000000000E+00 -0.00000000000E+00 -0.45593999997E+02  0.45594000000E+02  0.51100000000E-03 0. -1.
    9900012    2    1    2    0    0  0.24895419381E+02  0.27068267164E+02 -0.26012314655E+02  0.46142317553E+02  0.99999981024E+01 0.  0.
        -12    1    1    2    0    0 -0.24895419381E+02 -0.27068267164E+02  0.26012314655E+02  0.45045682447E+02  0.00000000000E+00 0.  1.
         11    1    3    3    0    0  0.19358602072E+02  0.16048659506E+02 -0.13681244279E+02  0.28626760058E+02  0.51100000000E-03 0. -1.
        -11    1    3    3    0    0  0.10970803798E+01  0.35691440527E+01 -0.31432984405E+01  0.48808503333E+01  0.51100000000E-03 0.  1.
         12    1    3    3    0    0  0.44397369294E+01  0.74504636050E+01 -0.91877719355E+01  0.12634707162E+02  0.00000000000E+00 0. -1.
</event>
<event>
 7    1  0.1549900E-008  0.4614232E+02  0.7816164E-02  0.1320468E+00
        -11   -1    0    0    0    0  0.00000000000E+00  0.00000000000E+00  0.45593999997E+02  0.45594000000E+02  0.51100000000E-03 0.  1.
         11   -1    0    0    0    0 -0.00000000000E+00 -0.00000000000E+00 -0.45593999997E+02  0.45594000000E+02  0.51100000000E-03 0. -1.
    9900012    2    1    2    0    0 -0.30662553636E+02  0.30261523102E+02 -0.13159083736E+02  0.46142318068E+02  0.10000002795E+02 0.  0.
        -12    1    1    2    0    0  0.30662553636E+02 -0.30261523102E+02  0.13159083736E+02  0.45045681932E+02  0.00000000000E+00 0.  1.
         11    1    3    3    0    0 -0.27726486733E+02  0.24456642805E+02 -0.13744121208E+02  0.39443457149E+02  0.51100000000E-03 0. -1.
        -11    1    3    3    0    0 -0.22529199139E+01  0.54455189906E+01  0.62318980345E+00  0.59260181410E+01  0.51100000000E-03 0.  1.
        -12    1    3    3    0    0 -0.68314698969E+00  0.35936130716E+00 -0.38152331591E-01  0.77284277768E+00  0.00000000000E+00 0.  1.
</event>
<event>
 7    1  0.1549900E-008  0.4614232E+02  0.7816164E-02  0.1320468E+00
        -11   -1    0    0    0    0  0.00000000000E+00  0.00000000000E+00  0.45593999997E+02  0.45594000000E+02  0.51100000000E-03 0.  1.
         11   -1    0    0    0    0 -0.00000000000E+00 -0.00000000000E+00 -0.45593999997E+02  0.45594000000E+02  0.51100000000E-03 0. -1.
    9900012    2    1    2    0    0  0.65614315737E-01  0.42785025872E+02 -0.14090806706E+02  0.46142316769E+02  0.99999909516E+01 0.  0.
        -12    1    1    2    0    0 -0.65614315737E-01 -0.42785025872E+02  0.14090806706E+02  0.45045683231E+02  0.00000000000E+00 0.  1.
         11    1    3    3    0    0 -0.17126744859E+01  0.13489535801E+02 -0.84264354609E+01  0.15997051130E+02  0.51100000000E-03 0. -1.
        -11    1    3    3    0    0 -0.79496173062E+00  0.15349889463E+01 -0.35476190646E+00  0.17646561959E+01  0.51100000000E-03 0.  1.
         12    1    3    3    0    0  0.25732505322E+01  0.27760501125E+02 -0.53096093389E+01  0.28380609443E+02  0.00000000000E+00 0. -1.
</event>
<event>
 7    1  0.1549900E-008  0.4614232E+02  0.7816164E-02  0.1320468E+00
        -11   -1    0    0    0    0  0.00000000000E+00  0.00000000000E+00  0.45593999997E+02  0.45594000000E+02  0.51100000000E-03 0. -1.
         11   -1    0    0    0    0 -0.00000000000E+00 -0.00000000000E+00 -0.45593999997E+02  0.45594000000E+02  0.51100000000E-03 0.  1.
    9900012    2    1    2    0    0  0.24714522122E+02 -0.24854714576E+02  0.28293978033E+02  0.46142316152E+02  0.99999853269E+01 0.  0.
        -12    1    1    2    0    0 -0.24714522122E+02  0.24854714576E+02 -0.28293978033E+02  0.45045683848E+02  0.00000000000E+00 0.  1.
         11    1    3    3    0    0  0.87418339110E+01 -0.48701900762E+01  0.78619706772E+01  0.12725918226E+02  0.51100000000E-03 0. -1.
        -11    1    3    3    0    0  0.39664129602E+01 -0.33740169291E+01  0.12731673326E+01  0.53607254478E+01  0.51100000000E-03 0.  1.
         12    1    3    3    0    0  0.12006275251E+02 -0.16610507571E+02  0.19158840023E+02  0.28055672478E+02  0.00000000000E+00 0. -1.
</event>
<event>
 7    1  0.1549900E-008  0.4614232E+02  0.7816164E-02  0.1320468E+00
        -11   -1    0    0    0    0  0.00000000000E+00  0.00000000000E+00  0.45593999997E+02  0.45594000000E+02  0.51100000000E-03 0. -1.
         11   -1    0    0    0    0 -0.00000000000E+00 -0.00000000000E+00 -0.45593999997E+02  0.45594000000E+02  0.51100000000E-03 0.  1.
    9900012    2    1    2    0    0  0.23686236394E+02  0.30916824888E+02  0.22632402153E+02  0.46142317822E+02  0.10000000558E+02 0.  0.
        -12    1    1    2    0    0 -0.23686236394E+02 -0.30916824888E+02 -0.22632402153E+02  0.45045682178E+02  0.00000000000E+00 0.  1.
         11    1    3    3    0    0  0.12915610941E+02  0.13810513503E+02  0.11143173470E+02  0.21947974951E+02  0.51100000000E-03 0. -1.
        -11    1    3    3    0    0  0.99679977622E+01  0.14882685544E+02  0.72170236843E+01  0.19311673659E+02  0.51100000000E-03 0.  1.
        -12    1    3    3    0    0  0.80262769009E+00  0.22236258410E+01  0.42722049984E+01  0.48826692124E+01  0.00000000000E+00 0.  1.
</event>
<event>
 7    1  0.1549900E-008  0.4614232E+02  0.7816164E-02  0.1320468E+00
        -11   -1    0    0    0    0  0.00000000000E+00  0.00000000000E+00  0.45593999997E+02  0.45594000000E+02  0.51100000000E-03 0.  1.
         11   -1    0    0    0    0 -0.00000000000E+00 -0.00000000000E+00 -0.45593999997E+02  0.45594000000E+02  0.51100000000E-03 0. -1.
    9900012    2    1    2    0    0  0.23646143428E+02  0.15308893311E+02 -0.35151260505E+02  0.46142318426E+02  0.10000006059E+02 0.  0.
        -12    1    1    2    0    0 -0.23646143428E+02 -0.15308893311E+02  0.35151260505E+02  0.45045681574E+02  0.00000000000E+00 0.  1.
         11    1    3    3    0    0  0.20569022161E+02  0.12715994876E+02 -0.32244719072E+02  0.40305125067E+02  0.51100000000E-03 0. -1.
        -11    1    3    3    0    0  0.19538678031E+01 -0.17000683803E-01 -0.29138936354E+00  0.19755496546E+01  0.51100000000E-03 0.  1.
         12    1    3    3    0    0  0.11232534642E+01  0.26098991187E+01 -0.26151520690E+01  0.38616437043E+01  0.00000000000E+00 0. -1.
</event>
<event>
 7    1  0.1580725E-008  0.4614232E+02  0.7816164E-02  0.1320468E+00
        -11   -1    0    0    0    0  0.00000000000E+00  0.00000000000E+00  0.45593999997E+02  0.45594000000E+02  0.51100000000E-03 0.  1.
         11   -1    0    0    0    0 -0.00000000000E+00 -0.00000000000E+00 -0.45593999997E+02  0.45594000000E+02  0.51100000000E-03 0. -1.
    9900012    2    1    2    0    0 -0.29929827263E+01  0.36833027894E+02 -0.25758174812E+02  0.46142318086E+02  0.10000002963E+02 0.  0.
        -12    1    1    2    0    0  0.29929827263E+01 -0.36833027894E+02  0.25758174812E+02  0.45045681914E+02  0.00000000000E+00 0.  1.
         11    1    3    3    0    0 -0.28850089090E+01  0.29734398712E+02 -0.22692174704E+02  0.37515230724E+02  0.51100000000E-03 0. -1.
        -11    1    3    3    0    0 -0.19452760598E+01  0.41714840393E+01 -0.19033075504E+01  0.49807587707E+01  0.51100000000E-03 0.  1.
         12    1    3    3    0    0  0.18373022425E+01  0.29271451424E+01 -0.11626925575E+01  0.36463285916E+01  0.00000000000E+00 0. -1.
</event>
<event>
 7    1  0.1549900E-008  0.4614232E+02  0.7816164E-02  0.1320468E+00
        -11   -1    0    0    0    0  0.00000000000E+00  0.00000000000E+00  0.45593999997E+02  0.45594000000E+02  0.51100000000E-03 0.  1.
         11   -1    0    0    0    0 -0.00000000000E+00 -0.00000000000E+00 -0.45593999997E+02  0.45594000000E+02  0.51100000000E-03 0. -1.
    9900012    2    1    2    0    0 -0.86216718920E+01 -0.17939904475E+02 -0.40409654109E+02  0.46142317144E+02  0.99999943696E+01 0.  0.
        -12    1    1    2    0    0  0.86216718920E+01  0.17939904475E+02  0.40409654109E+02  0.45045682856E+02  0.00000000000E+00 0.  1.
         11    1    3    3    0    0 -0.21956565775E+01 -0.33230426581E-01 -0.56693438610E+01  0.60797592175E+01  0.51100000000E-03 0.  1.
        -11    1    3    3    0    0 -0.11640611351E+01 -0.10278880002E+02 -0.21978141113E+02  0.24290926279E+02  0.51100000000E-03 0. -1.
         12    1    3    3    0    0 -0.52619541795E+01 -0.76277940459E+01 -0.12762169135E+02  0.15771631647E+02  0.00000000000E+00 0. -1.
</event>
<event>
 7    1  0.1549900E-008  0.4614232E+02  0.7816164E-02  0.1320468E+00
        -11   -1    0    0    0    0  0.00000000000E+00  0.00000000000E+00  0.45593999997E+02  0.45594000000E+02  0.51100000000E-03 0.  1.
         11   -1    0    0    0    0 -0.00000000000E+00 -0.00000000000E+00 -0.45593999997E+02  0.45594000000E+02  0.51100000000E-03 0. -1.
    9900012    2    1    2    0    0  0.12170240850E+02  0.22581811134E+02 -0.37027834848E+02  0.46142317521E+02  0.99999978150E+01 0.  0.
        -12    1    1    2    0    0 -0.12170240850E+02 -0.22581811134E+02  0.37027834848E+02  0.45045682479E+02  0.00000000000E+00 0.  1.
         11    1    3    3    0    0  0.30852484612E+01  0.59604883770E+01 -0.15363750671E+02  0.16765769135E+02  0.51100000000E-03 0.  1.
        -11    1    3    3    0    0  0.41656960565E+01  0.11948605076E+02 -0.11161868877E+02  0.16873337073E+02  0.51100000000E-03 0. -1.
         12    1    3    3    0    0  0.49192963322E+01  0.46727176807E+01 -0.10502215300E+02  0.12503211313E+02  0.00000000000E+00 0. -1.
</event>
<event>
 7    1  0.1549900E-008  0.4614232E+02  0.7816164E-02  0.1320468E+00
        -11   -1    0    0    0    0  0.00000000000E+00  0.00000000000E+00  0.45593999997E+02  0.45594000000E+02  0.51100000000E-03 0. -1.
         11   -1    0    0    0    0 -0.00000000000E+00 -0.00000000000E+00 -0.45593999997E+02  0.45594000000E+02  0.51100000000E-03 0.  1.
    9900012    2    1    2    0    0 -0.39702209758E+02 -0.21154456059E+02  0.23101949531E+01  0.46142317948E+02  0.10000001700E+02 0.  0.
        -12    1    1    2    0    0  0.39702209758E+02  0.21154456059E+02 -0.23101949531E+01  0.45045682052E+02  0.00000000000E+00 0.  1.
         11    1    3    3    0    0 -0.10290574568E+02 -0.24457788181E+01  0.45766861491E+00  0.10587125190E+02  0.51100000000E-03 0. -1.
        -11    1    3    3    0    0 -0.67565400585E+01 -0.57692713523E+01  0.31672291895E+01  0.94322142946E+01  0.51100000000E-03 0.  1.
         12    1    3    3    0    0 -0.22655095132E+02 -0.12939405889E+02 -0.13147028513E+01  0.26122978463E+02  0.00000000000E+00 0. -1.
</event>
<event>
 7    1  0.1549900E-008  0.4614232E+02  0.7816164E-02  0.1320468E+00
        -11   -1    0    0    0    0  0.00000000000E+00  0.00000000000E+00  0.45593999997E+02  0.45594000000E+02  0.51100000000E-03 0.  1.
         11   -1    0    0    0    0 -0.00000000000E+00 -0.00000000000E+00 -0.45593999997E+02  0.45594000000E+02  0.51100000000E-03 0. -1.
    9900012    2    1    2    0    0  0.34201066298E+02 -0.16539717982E+02 -0.24204095638E+02  0.46142318160E+02  0.10000003634E+02 0.  0.
        -12    1    1    2    0    0 -0.34201066298E+02  0.16539717982E+02  0.24204095638E+02  0.45045681840E+02  0.00000000000E+00 0.  1.
         11    1    3    3    0    0  0.11013769469E+02 -0.74274847500E+01 -0.61773984594E+01  0.14650286673E+02  0.51100000000E-03 0. -1.
        -11    1    3    3    0    0 -0.26097214437E+00  0.10497492830E-01 -0.11891113841E+01  0.12174575157E+01  0.51100000000E-03 0.  1.
         12    1    3    3    0    0  0.23448268973E+02 -0.91227307249E+01 -0.16837585794E+02  0.30274573971E+02  0.00000000000E+00 0. -1.
</event>
<event>
 7    1  0.1549900E-008  0.4614231E+02  0.7816164E-02  0.1320468E+00
        -11   -1    0    0    0    0  0.00000000000E+00  0.00000000000E+00  0.45593999997E+02  0.45594000000E+02  0.51100000000E-03 0.  1.
         11   -1    0    0    0    0 -0.00000000000E+00 -0.00000000000E+00 -0.45593999997E+02  0.45594000000E+02  0.51100000000E-03 0. -1.
    9900012    2    1    2    0    0  0.15832220500E+02 -0.38226440906E+02 -0.17809942732E+02  0.46142311523E+02  0.99999431140E+01 0.  0.
        -12    1    1    2    0    0 -0.15832220500E+02  0.38226440906E+02  0.17809942732E+02  0.45045688477E+02  0.00000000000E+00 0.  1.
         11    1    3    3    0    0  0.57928383571E+01 -0.24274652633E+02 -0.92247002799E+01  0.26606593773E+02  0.51100000000E-03 0. -1.
        -11    1    3    3    0    0  0.92431345297E+01 -0.12006090444E+02 -0.86215248173E+01  0.17433084469E+02  0.51100000000E-03 0.  1.
        -12    1    3    3    0    0  0.79624761299E+00 -0.19456978292E+01  0.36282364978E-01  0.21026332808E+01  0.00000000000E+00 0.  1.
</event>
<event>
 7    1  0.1549900E-008  0.4614232E+02  0.7816164E-02  0.1320468E+00
        -11   -1    0    0    0    0  0.00000000000E+00  0.00000000000E+00  0.45593999997E+02  0.45594000000E+02  0.51100000000E-03 0.  1.
         11   -1    0    0    0    0 -0.00000000000E+00 -0.00000000000E+00 -0.45593999997E+02  0.45594000000E+02  0.51100000000E-03 0. -1.
    9900012    2    1    2    0    0 -0.24769723993E+02 -0.31385849785E+02 -0.20748560412E+02  0.46142317048E+02  0.99999934992E+01 0.  0.
        -12    1    1    2    0    0  0.24769723993E+02  0.31385849785E+02  0.20748560412E+02  0.45045682952E+02  0.00000000000E+00 0.  1.
         11    1    3    3    0    0 -0.87266809299E+01 -0.11555436235E+02 -0.80118540175E+01  0.16549104861E+02  0.51100000000E-03 0. -1.
        -11    1    3    3    0    0 -0.10377279491E+02 -0.89028548634E+01 -0.32532980322E+01  0.14054632784E+02  0.51100000000E-03 0.  1.
        -12    1    3    3    0    0 -0.56657635722E+01 -0.10927558687E+02 -0.94834083619E+01  0.15538579403E+02  0.00000000000E+00 0.  1.
</event>
<event>
 7    1  0.1549900E-008  0.4614232E+02  0.7816164E-02  0.1320468E+00
        -11   -1    0    0    0    0  0.00000000000E+00  0.00000000000E+00  0.45593999997E+02  0.45594000000E+02  0.51100000000E-03 0.  1.
         11   -1    0    0    0    0 -0.00000000000E+00 -0.00000000000E+00 -0.45593999997E+02  0.45594000000E+02  0.51100000000E-03 0. -1.
    9900012    2    1    2    0    0  0.18845937196E+02 -0.40306973540E+01 -0.40714831516E+02  0.46142319015E+02  0.10000011436E+02 0.  0.
        -12    1    1    2    0    0 -0.18845937196E+02  0.40306973540E+01  0.40714831516E+02  0.45045680985E+02  0.00000000000E+00 0.  1.
         11    1    3    3    0    0  0.56432725395E+01 -0.35006347534E+01 -0.61728745001E+01  0.90667165218E+01  0.51100000000E-03 0. -1.
        -11    1    3    3    0    0  0.54905985108E+01 -0.91409346431E+00 -0.17548277293E+02  0.18409896118E+02  0.51100000000E-03 0.  1.
         12    1    3    3    0    0  0.77120661462E+01  0.38403086369E+00 -0.16993679723E+02  0.18665706375E+02  0.00000000000E+00 0. -1.
</event>
<event>
 7    1  0.1549900E-008  0.4614232E+02  0.7816164E-02  0.1320468E+00
        -11   -1    0    0    0    0  0.00000000000E+00  0.00000000000E+00  0.45593999997E+02  0.45594000000E+02  0.51100000000E-03 0.  1.
         11   -1    0    0    0    0 -0.00000000000E+00 -0.00000000000E+00 -0.45593999997E+02  0.45594000000E+02  0.51100000000E-03 0. -1.
    9900012    2    1    2    0    0 -0.26321265726E+02  0.24749707386E+02 -0.26902721770E+02  0.46142317812E+02  0.10000000466E+02 0.  0.
        -12    1    1    2    0    0  0.26321265726E+02 -0.24749707386E+02  0.26902721770E+02  0.45045682188E+02  0.00000000000E+00 0.  1.
         11    1    3    3    0    0 -0.12901556743E+02  0.94596170585E+01 -0.14843680344E+02  0.21823596581E+02  0.51100000000E-03 0. -1.
        -11    1    3    3    0    0 -0.25582505284E+01  0.68419347714E+01 -0.33676105134E+01  0.80434767367E+01  0.51100000000E-03 0.  1.
        -12    1    3    3    0    0 -0.10861458455E+02  0.84481555566E+01 -0.86914309118E+01  0.16275244495E+02  0.00000000000E+00 0.  1.
</event>
<event>
 7    1  0.1549900E-008  0.4614232E+02  0.7816164E-02  0.1320468E+00
        -11   -1    0    0    0    0  0.00000000000E+00  0.00000000000E+00  0.45593999997E+02  0.45594000000E+02  0.51100000000E-03 0.  1.
         11   -1    0    0    0    0 -0.00000000000E+00 -0.00000000000E+00 -0.45593999997E+02  0.45594000000E+02  0.51100000000E-03 0. -1.
    9900012    2    1    2    0    0 -0.17431347068E+02  0.39884562266E+02 -0.11596689740E+02  0.46142318957E+02  0.10000010901E+02 0.  0.
        -12    1    1    2    0    0  0.17431347068E+02 -0.39884562266E+02  0.11596689740E+02  0.45045681043E+02  0.00000000000E+00 0.  1.
         11    1    3    3    0    0  0.43932405772E+00  0.47277947921E+01 -0.19585094100E+01  0.51362251308E+01  0.51100000000E-03 0. -1.
        -11    1    3    3    0    0 -0.11389621967E+02  0.20903190063E+02 -0.29768811472E+01  0.23990178511E+02  0.51100000000E-03 0.  1.
         12    1    3    3    0    0 -0.64810491592E+01  0.14253577411E+02 -0.66612991824E+01  0.17015915315E+02  0.00000000000E+00 0. -1.
</event>
<event>
 7    1  0.1549900E-008  0.4614232E+02  0.7816164E-02  0.1320468E+00
        -11   -1    0    0    0    0  0.00000000000E+00  0.00000000000E+00  0.45593999997E+02  0.45594000000E+02  0.51100000000E-03 0. -1.
         11   -1    0    0    0    0 -0.00000000000E+00 -0.00000000000E+00 -0.45593999997E+02  0.45594000000E+02  0.51100000000E-03 0.  1.
    9900012    2    1    2    0    0  0.17463661175E+02  0.39679002331E+02  0.12235636549E+02  0.46142317750E+02  0.99999999008E+01 0.  0.
        -12    1    1    2    0    0 -0.17463661175E+02 -0.39679002331E+02 -0.12235636549E+02  0.45045682250E+02  0.00000000000E+00 0.  1.
         11    1    3    3    0    0  0.69284011469E-01  0.69373731073E+01  0.11080237003E+01  0.70256432222E+01  0.51100000000E-03 0. -1.
        -11    1    3    3    0    0  0.54054596701E+01  0.72891571331E+01  0.66330884804E+00  0.90989441610E+01  0.51100000000E-03 0.  1.
         12    1    3    3    0    0  0.11988917493E+02  0.25452472090E+02  0.10464304001E+02  0.30017730367E+02  0.00000000000E+00 0. -1.
</event>
<event>
 7    1  0.1549900E-008  0.4614232E+02  0.7816164E-02  0.1320468E+00
        -11   -1    0    0    0    0  0.00000000000E+00  0.00000000000E+00  0.45593999997E+02  0.45594000000E+02  0.51100000000E-03 0.  1.
         11   -1    0    0    0    0 -0.00000000000E+00 -0.00000000000E+00 -0.45593999997E+02  0.45594000000E+02  0.51100000000E-03 0. -1.
    9900012    2    1    2    0    0 -0.19416462600E+02 -0.35230577395E+02 -0.20271184884E+02  0.46142317187E+02  0.99999947623E+01 0.  0.
        -12    1    1    2    0    0  0.19416462600E+02  0.35230577395E+02  0.20271184884E+02  0.45045682813E+02  0.00000000000E+00 0.  1.
         11    1    3    3    0    0 -0.86245255792E+00 -0.89856565403E+01 -0.60330269338E+01  0.10857405865E+02  0.51100000000E-03 0. -1.
        -11    1    3    3    0    0 -0.30867819648E+01 -0.53997150276E+01 -0.16399361299E+01  0.64323041011E+01  0.51100000000E-03 0.  1.
         12    1    3    3    0    0 -0.15467228077E+02 -0.20845205827E+02 -0.12598221821E+02  0.28852607220E+02  0.00000000000E+00 0. -1.
</event>
<event>
 7    1  0.1549900E-008  0.4614232E+02  0.7816164E-02  0.1320468E+00
        -11   -1    0    0    0    0  0.00000000000E+00  0.00000000000E+00  0.45593999997E+02  0.45594000000E+02  0.51100000000E-03 0.  1.
         11   -1    0    0    0    0 -0.00000000000E+00 -0.00000000000E+00 -0.45593999997E+02  0.45594000000E+02  0.51100000000E-03 0. -1.
    9900012    2    1    2    0    0  0.18349302451E+02 -0.40901798605E+02 -0.44112902254E+01  0.46142317510E+02  0.99999977105E+01 0.  0.
        -12    1    1    2    0    0 -0.18349302451E+02  0.40901798605E+02  0.44112902254E+01  0.45045682490E+02  0.00000000000E+00 0.  1.
         11    1    3    3    0    0  0.49436331719E+01 -0.21571309017E+02  0.31596011658E+00  0.22132797218E+02  0.51100000000E-03 0. -1.
        -11    1    3    3    0    0  0.12912969093E+02 -0.18831634330E+02 -0.45033641257E+01  0.23273493743E+02  0.51100000000E-03 0.  1.
         12    1    3    3    0    0  0.49270018665E+00 -0.49885525811E+00 -0.22388621635E+00  0.73602654867E+00  0.00000000000E+00 0. -1.
</event>
<event>
 7    1  0.1549900E-008  0.4614232E+02  0.7816164E-02  0.1320468E+00
        -11   -1    0    0    0    0  0.00000000000E+00  0.00000000000E+00  0.45593999997E+02  0.45594000000E+02  0.51100000000E-03 0. -1.
         11   -1    0    0    0    0 -0.00000000000E+00 -0.00000000000E+00 -0.45593999997E+02  0.45594000000E+02  0.51100000000E-03 0.  1.
    9900012    2    1    2    0    0  0.18222595711E+02  0.40751500099E+02 -0.60303820919E+01  0.46142320263E+02  0.10000022814E+02 0.  0.
        -12    1    1    2    0    0 -0.18222595711E+02 -0.40751500099E+02  0.60303820919E+01  0.45045679737E+02  0.00000000000E+00 0.  1.
         11    1    3    3    0    0  0.81705141960E+01  0.12674209190E+02 -0.54925258016E+01  0.16048698413E+02  0.51100000000E-03 0. -1.
        -11    1    3    3    0    0 -0.34361081842E+00  0.84441602007E+00  0.20553115824E+00  0.93453203670E+00  0.51100000000E-03 0.  1.
         12    1    3    3    0    0  0.10395692334E+02  0.27232874889E+02 -0.74338744857E+00  0.29159089813E+02  0.00000000000E+00 0. -1.
</event>
<event>
 7    1  0.1549900E-008  0.4614232E+02  0.7816164E-02  0.1320468E+00
        -11   -1    0    0    0    0  0.00000000000E+00  0.00000000000E+00  0.45593999997E+02  0.45594000000E+02  0.51100000000E-03 0. -1.
         11   -1    0    0    0    0 -0.00000000000E+00 -0.00000000000E+00 -0.45593999997E+02  0.45594000000E+02  0.51100000000E-03 0.  1.
    9900012    2    1    2    0    0  0.74470345902E+01 -0.35126745848E+02  0.27198653401E+02  0.46142319354E+02  0.10000014523E+02 0.  0.
        -12    1    1    2    0    0 -0.74470345902E+01  0.35126745848E+02 -0.27198653401E+02  0.45045680646E+02  0.00000000000E+00 0.  1.
         11    1    3    3    0    0  0.31593592548E+01 -0.17977451850E+02  0.12922973157E+02  0.22364560388E+02  0.51100000000E-03 0. -1.
        -11    1    3    3    0    0  0.25784015572E+01 -0.30703455783E+01  0.56031646262E+00  0.40483492142E+01  0.51100000000E-03 0.  1.
        -12    1    3    3    0    0  0.17092737782E+01 -0.14078948420E+02  0.13715363781E+02  0.19729409751E+02  0.00000000000E+00 0.  1.
</event>
<event>
 7    1  0.1549900E-008  0.4614232E+02  0.7816164E-02  0.1320468E+00
        -11   -1    0    0    0    0  0.00000000000E+00  0.00000000000E+00  0.45593999997E+02  0.45594000000E+02  0.51100000000E-03 0.  1.
         11   -1    0    0    0    0 -0.00000000000E+00 -0.00000000000E+00 -0.45593999997E+02  0.45594000000E+02  0.51100000000E-03 0. -1.
    9900012    2    1    2    0    0 -0.33656434306E+02  0.96831732916E-01 -0.29939082082E+02  0.46142316716E+02  0.99999904688E+01 0.  0.
        -12    1    1    2    0    0  0.33656434306E+02 -0.96831732916E-01  0.29939082082E+02  0.45045683284E+02  0.00000000000E+00 0.  1.
         11    1    3    3    0    0 -0.19894664736E+02 -0.36320216355E+01 -0.17985895395E+02  0.27064399117E+02  0.51100000000E-03 0.  1.
        -11    1    3    3    0    0 -0.96577895254E+01  0.25139236495E+01 -0.56772281172E+01  0.11481447208E+02  0.51100000000E-03 0. -1.
        -12    1    3    3    0    0 -0.41039800444E+01  0.12149297190E+01 -0.62759585706E+01  0.75964703914E+01  0.00000000000E+00 0.  1.
</event>
<event>
 7    1  0.1549900E-008  0.4614232E+02  0.7816164E-02  0.1320468E+00
        -11   -1    0    0    0    0  0.00000000000E+00  0.00000000000E+00  0.45593999997E+02  0.45594000000E+02  0.51100000000E-03 0.  1.
         11   -1    0    0    0    0 -0.00000000000E+00 -0.00000000000E+00 -0.45593999997E+02  0.45594000000E+02  0.51100000000E-03 0. -1.
    9900012    2    1    2    0    0 -0.20836706170E+02  0.39861803768E+02 -0.24457713100E+01  0.46142317400E+02  0.99999967065E+01 0.  0.
        -12    1    1    2    0    0  0.20836706170E+02 -0.39861803768E+02  0.24457713100E+01  0.45045682600E+02  0.00000000000E+00 0.  1.
         11    1    3    3    0    0 -0.10994109600E+02  0.26189673649E+02 -0.36334009576E+01  0.28635136712E+02  0.51100000000E-03 0. -1.
        -11    1    3    3    0    0 -0.18689090625E+01  0.11039789224E+01  0.14679327567E+01  0.26203849687E+01  0.51100000000E-03 0.  1.
         12    1    3    3    0    0 -0.79736875074E+01  0.12568151196E+02 -0.28030310915E+00  0.14886795720E+02  0.00000000000E+00 0. -1.
</event>
<event>
 7    1  0.1549900E-008  0.4614232E+02  0.7816164E-02  0.1320468E+00
        -11   -1    0    0    0    0  0.00000000000E+00  0.00000000000E+00  0.45593999997E+02  0.45594000000E+02  0.51100000000E-03 0.  1.
         11   -1    0    0    0    0 -0.00000000000E+00 -0.00000000000E+00 -0.45593999997E+02  0.45594000000E+02  0.51100000000E-03 0. -1.
    9900012    2    1    2    0    0  0.32830490247E+02 -0.21804036873E+02 -0.21814136751E+02  0.46142315678E+02  0.99999810090E+01 0.  0.
        -12    1    1    2    0    0 -0.32830490247E+02  0.21804036873E+02  0.21814136751E+02  0.45045684322E+02  0.00000000000E+00 0.  1.
         11    1    3    3    0    0  0.15552062749E+02 -0.10341766216E+02 -0.12234132897E+02  0.22326952148E+02  0.51100000000E-03 0. -1.
        -11    1    3    3    0    0  0.41550245928E+01 -0.16087599759E+00 -0.30522038080E+00  0.41693249089E+01  0.51100000000E-03 0.  1.
        -12    1    3    3    0    0  0.13123402905E+02 -0.11301394659E+02 -0.92747834735E+01  0.19646038621E+02  0.00000000000E+00 0.  1.
</event>
<event>
 7    1  0.1549900E-008  0.4614232E+02  0.7816164E-02  0.1320468E+00
        -11   -1    0    0    0    0  0.00000000000E+00  0.00000000000E+00  0.45593999997E+02  0.45594000000E+02  0.51100000000E-03 0.  1.
         11   -1    0    0    0    0 -0.00000000000E+00 -0.00000000000E+00 -0.45593999997E+02  0.45594000000E+02  0.51100000000E-03 0. -1.
    9900012    2    1    2    0    0 -0.19413892317E+02  0.38774758121E+02  0.12195581823E+02  0.46142319871E+02  0.10000019243E+02 0.  0.
        -12    1    1    2    0    0  0.19413892317E+02 -0.38774758121E+02 -0.12195581823E+02  0.45045680129E+02  0.00000000000E+00 0.  1.
         11    1    3    3    0    0 -0.52668495284E-01  0.28487735309E+01 -0.78774424719E+00  0.29561505139E+01  0.51100000000E-03 0. -1.
        -11    1    3    3    0    0 -0.19116839506E+02  0.36090111993E+02  0.12680475344E+02  0.42763818721E+02  0.51100000000E-03 0.  1.
        -12    1    3    3    0    0 -0.24438431578E+00 -0.16412740261E+00  0.30285072608E+00  0.42235063677E+00  0.00000000000E+00 0.  1.
</event>
<event>
 7    1  0.1549900E-008  0.4614231E+02  0.7816164E-02  0.1320468E+00
        -11   -1    0    0    0    0  0.00000000000E+00  0.00000000000E+00  0.45593999997E+02  0.45594000000E+02  0.51100000000E-03 0.  1.
         11   -1    0    0    0    0 -0.00000000000E+00 -0.00000000000E+00 -0.45593999997E+02  0.45594000000E+02  0.51100000000E-03 0. -1.
    9900012    2    1    2    0    0 -0.72918650149E+01 -0.26346886484E+02 -0.35802011317E+02  0.46142315000E+02  0.99999748208E+01 0.  0.
        -12    1    1    2    0    0  0.72918650149E+01  0.26346886484E+02  0.35802011317E+02  0.45045685000E+02  0.00000000000E+00 0.  1.
         11    1    3    3    0    0 -0.36111350681E+01 -0.46928285866E+01 -0.11948098680E+02  0.13334916534E+02  0.51100000000E-03 0. -1.
        -11    1    3    3    0    0  0.79159674524E+00 -0.76970714474E+01 -0.66099321297E+01  0.10176577877E+02  0.51100000000E-03 0.  1.
         12    1    3    3    0    0 -0.44723266920E+01 -0.13956986450E+02 -0.17243980507E+02  0.22630820589E+02  0.00000000000E+00 0. -1.
</event>
<event>
 7    1  0.1549900E-008  0.4614232E+02  0.7816164E-02  0.1320468E+00
        -11   -1    0    0    0    0  0.00000000000E+00  0.00000000000E+00  0.45593999997E+02  0.45594000000E+02  0.51100000000E-03 0. -1.
         11   -1    0    0    0    0 -0.00000000000E+00 -0.00000000000E+00 -0.45593999997E+02  0.45594000000E+02  0.51100000000E-03 0.  1.
    9900012    2    1    2    0    0 -0.79771560472E+01 -0.19768412057E+02  0.39682343277E+02  0.46142317612E+02  0.99999986390E+01 0.  0.
        -12    1    1    2    0    0  0.79771560472E+01  0.19768412057E+02 -0.39682343277E+02  0.45045682388E+02  0.00000000000E+00 0.  1.
         11    1    3    3    0    0  0.13938488223E+01 -0.26901172297E+01  0.72566870314E+01  0.78637810359E+01  0.51100000000E-03 0. -1.
        -11    1    3    3    0    0 -0.12901328147E+01  0.16245804695E+00  0.19529949307E+01  0.23462789171E+01  0.51100000000E-03 0.  1.
         12    1    3    3    0    0 -0.80808720548E+01 -0.17240752874E+02  0.30472661315E+02  0.35932257659E+02  0.00000000000E+00 0. -1.
</event>
<event>
 7    1  0.1549900E-008  0.4614232E+02  0.7816164E-02  0.1320468E+00
        -11   -1    0    0    0    0  0.00000000000E+00  0.00000000000E+00  0.45593999997E+02  0.45594000000E+02  0.51100000000E-03 0.  1.
         11   -1    0    0    0    0 -0.00000000000E+00 -0.00000000000E+00 -0.45593999997E+02  0.45594000000E+02  0.51100000000E-03 0. -1.
    9900012    2    1    2    0    0  0.26909000019E+02 -0.83720780292E+01 -0.35141534490E+02  0.46142318532E+02  0.10000007032E+02 0.  0.
        -12    1    1    2    0    0 -0.26909000019E+02  0.83720780292E+01  0.35141534490E+02  0.45045681468E+02  0.00000000000E+00 0.  1.
         11    1    3    3    0    0  0.71404471213E+01 -0.83223722020E+00 -0.50724567909E+01  0.87982056148E+01  0.51100000000E-03 0. -1.
        -11    1    3    3    0    0  0.19607558544E+01 -0.17140920134E+01 -0.78979478138E+01  0.83162644788E+01  0.51100000000E-03 0.  1.
        -12    1    3    3    0    0  0.17807797044E+02 -0.58257487956E+01 -0.22171129886E+02  0.29027848439E+02  0.00000000000E+00 0.  1.
</event>
<event>
 7    1  0.1549900E-008  0.4614232E+02  0.7816164E-02  0.1320468E+00
        -11   -1    0    0    0    0  0.00000000000E+00  0.00000000000E+00  0.45593999997E+02  0.45594000000E+02  0.51100000000E-03 0.  1.
         11   -1    0    0    0    0 -0.00000000000E+00 -0.00000000000E+00 -0.45593999997E+02  0.45594000000E+02  0.51100000000E-03 0. -1.
    9900012    2    1    2    0    0  0.41829706816E+02  0.96466627661E+01  0.13650310600E+02  0.46142318139E+02  0.10000003445E+02 0.  0.
        -12    1    1    2    0    0 -0.41829706816E+02 -0.96466627661E+01 -0.13650310600E+02  0.45045681861E+02  0.00000000000E+00 0.  1.
         11    1    3    3    0    0  0.14074118200E+01  0.23149384935E+01  0.67017918069E-01  0.27100258158E+01  0.51100000000E-03 0. -1.
        -11    1    3    3    0    0  0.12880005363E+02  0.67002408133E+00  0.36290636333E+01  0.13398267557E+02  0.51100000000E-03 0.  1.
         12    1    3    3    0    0  0.27542289634E+02  0.66617001912E+01  0.99542290482E+01  0.30034024766E+02  0.00000000000E+00 0. -1.
</event>
<event>
 7    1  0.1549900E-008  0.4614231E+02  0.7816164E-02  0.1320468E+00
        -11   -1    0    0    0    0  0.00000000000E+00  0.00000000000E+00  0.45593999997E+02  0.45594000000E+02  0.51100000000E-03 0. -1.
         11   -1    0    0    0    0 -0.00000000000E+00 -0.00000000000E+00 -0.45593999997E+02  0.45594000000E+02  0.51100000000E-03 0.  1.
    9900012    2    1    2    0    0  0.84751025729E+01 -0.40350327047E+02 -0.18142147754E+02  0.46142314507E+02  0.99999703272E+01 0.  0.
        -12    1    1    2    0    0 -0.84751025729E+01  0.40350327047E+02  0.18142147754E+02  0.45045685493E+02  0.00000000000E+00 0.  1.
         11    1    3    3    0    0  0.65202701314E+01 -0.16141912402E+02 -0.55580095707E+01  0.18274756612E+02  0.51100000000E-03 0. -1.
        -11    1    3    3    0    0  0.10092234164E+01 -0.79625776667E+00 -0.31823745513E-01  0.12859126515E+01  0.51100000000E-03 0.  1.
         12    1    3    3    0    0  0.94560902498E+00 -0.23412156878E+02 -0.12552314438E+02  0.26581645243E+02  0.00000000000E+00 0. -1.
</event>
<event>
 7    1  0.1549900E-008  0.4614231E+02  0.7816164E-02  0.1320468E+00
        -11   -1    0    0    0    0  0.00000000000E+00  0.00000000000E+00  0.45593999997E+02  0.45594000000E+02  0.51100000000E-03 0.  1.
         11   -1    0    0    0    0 -0.00000000000E+00 -0.00000000000E+00 -0.45593999997E+02  0.45594000000E+02  0.51100000000E-03 0. -1.
    9900012    2    1    2    0    0  0.15496383664E+02 -0.46885319493E+01 -0.42035622517E+02  0.46142314314E+02  0.99999685690E+01 0.  0.
        -12    1    1    2    0    0 -0.15496383664E+02  0.46885319493E+01  0.42035622517E+02  0.45045685686E+02  0.00000000000E+00 0.  1.
         11    1    3    3    0    0  0.11548938718E+02 -0.55348437601E+01 -0.31492865198E+02  0.33997250472E+02  0.51100000000E-03 0. -1.
        -11    1    3    3    0    0  0.40426690269E+01 -0.70636100982E+00 -0.54648806179E+01  0.68342548362E+01  0.51100000000E-03 0.  1.
         12    1    3    3    0    0 -0.95224081396E-01  0.15526728207E+01 -0.50778767009E+01  0.53108090065E+01  0.00000000000E+00 0. -1.
</event>
<event>
 7    1  0.1549900E-008  0.4614232E+02  0.7816164E-02  0.1320468E+00
        -11   -1    0    0    0    0  0.00000000000E+00  0.00000000000E+00  0.45593999997E+02  0.45594000000E+02  0.51100000000E-03 0.  1.
         11   -1    0    0    0    0 -0.00000000000E+00 -0.00000000000E+00 -0.45593999997E+02  0.45594000000E+02  0.51100000000E-03 0. -1.
    9900012    2    1    2    0    0  0.29585717756E+02  0.28101353430E+02  0.19081741356E+02  0.46142316379E+02  0.99999873952E+01 0.  0.
        -12    1    1    2    0    0 -0.29585717756E+02 -0.28101353430E+02 -0.19081741356E+02  0.45045683621E+02  0.00000000000E+00 0.  1.
         11    1    3    3    0    0  0.25412919703E+02  0.24824426256E+02  0.12505234369E+02  0.37662308926E+02  0.51100000000E-03 0. -1.
        -11    1    3    3    0    0  0.15038667451E+01  0.13563791515E+01  0.30224144460E+01  0.36381820919E+01  0.51100000000E-03 0.  1.
         12    1    3    3    0    0  0.26689313073E+01  0.19205480224E+01  0.35540925412E+01  0.48418253604E+01  0.00000000000E+00 0. -1.
</event>
<event>
 7    1  0.1549900E-008  0.4614232E+02  0.7816164E-02  0.1320468E+00
        -11   -1    0    0    0    0  0.00000000000E+00  0.00000000000E+00  0.45593999997E+02  0.45594000000E+02  0.51100000000E-03 0.  1.
         11   -1    0    0    0    0 -0.00000000000E+00 -0.00000000000E+00 -0.45593999997E+02  0.45594000000E+02  0.51100000000E-03 0. -1.
    9900012    2    1    2    0    0 -0.79483956038E+01 -0.96465710919E+00 -0.44328387759E+02  0.46142317439E+02  0.99999970648E+01 0.  0.
        -12    1    1    2    0    0  0.79483956038E+01  0.96465710919E+00  0.44328387759E+02  0.45045682561E+02  0.00000000000E+00 0.  1.
         11    1    3    3    0    0 -0.31333447981E+01 -0.31905409710E+01 -0.76478565248E+01  0.88592951749E+01  0.51100000000E-03 0. -1.
        -11    1    3    3    0    0 -0.32828432669E+01  0.28799157002E+01 -0.17749646899E+02  0.18278975345E+02  0.51100000000E-03 0.  1.
        -12    1    3    3    0    0 -0.15322075388E+01 -0.65403183835E+00 -0.18930884336E+02  0.19004046920E+02  0.00000000000E+00 0.  1.
</event>
<event>
 7    1  0.1549900E-008  0.4614232E+02  0.7816164E-02  0.1320468E+00
        -11   -1    0    0    0    0  0.00000000000E+00  0.00000000000E+00  0.45593999997E+02  0.45594000000E+02  0.51100000000E-03 0.  1.
         11   -1    0    0    0    0 -0.00000000000E+00 -0.00000000000E+00 -0.45593999997E+02  0.45594000000E+02  0.51100000000E-03 0. -1.
    9900012    2    1    2    0    0  0.39147932297E+02 -0.11149560685E+02  0.19293526114E+02  0.46142318115E+02  0.10000003224E+02 0.  0.
        -12    1    1    2    0    0 -0.39147932297E+02  0.11149560685E+02 -0.19293526114E+02  0.45045681885E+02  0.00000000000E+00 0.  1.
         11    1    3    3    0    0  0.34174339853E+02 -0.11140640474E+02  0.13900182189E+02  0.38538479987E+02  0.51100000000E-03 0. -1.
        -11    1    3    3    0    0  0.27640827014E+01  0.92418447133E+00  0.34545842271E+01  0.45197812514E+01  0.51100000000E-03 0.  1.
         12    1    3    3    0    0  0.22095097424E+01 -0.93310468255E+00  0.19387596974E+01  0.30840568761E+01  0.00000000000E+00 0. -1.
</event>
<event>
 7    1  0.1549900E-008  0.4614232E+02  0.7816164E-02  0.1320468E+00
        -11   -1    0    0    0    0  0.00000000000E+00  0.00000000000E+00  0.45593999997E+02  0.45594000000E+02  0.51100000000E-03 0.  1.
         11   -1    0    0    0    0 -0.00000000000E+00 -0.00000000000E+00 -0.45593999997E+02  0.45594000000E+02  0.51100000000E-03 0. -1.
    9900012    2    1    2    0    0 -0.33175723669E+00 -0.32870452895E+02 -0.30798324388E+02  0.46142317393E+02  0.99999966460E+01 0.  0.
        -12    1    1    2    0    0  0.33175723669E+00  0.32870452895E+02  0.30798324388E+02  0.45045682607E+02  0.00000000000E+00 0.  1.
         11    1    3    3    0    0  0.79247797821E-01 -0.16107456361E+02 -0.16023265716E+02  0.22720067673E+02  0.51100000000E-03 0. -1.
        -11    1    3    3    0    0 -0.15736082562E+01 -0.14494140977E+01 -0.43881026183E+01  0.48818530315E+01  0.51100000000E-03 0.  1.
        -12    1    3    3    0    0  0.11626032217E+01 -0.15313582437E+02 -0.10386956054E+02  0.18540396689E+02  0.00000000000E+00 0.  1.
</event>
<event>
 7    1  0.1549900E-008  0.4614232E+02  0.7816164E-02  0.1320468E+00
        -11   -1    0    0    0    0  0.00000000000E+00  0.00000000000E+00  0.45593999997E+02  0.45594000000E+02  0.51100000000E-03 0. -1.
         11   -1    0    0    0    0 -0.00000000000E+00 -0.00000000000E+00 -0.45593999997E+02  0.45594000000E+02  0.51100000000E-03 0.  1.
    9900012    2    1    2    0    0  0.29501570470E+02 -0.25683717495E+02  0.22340938736E+02  0.46142317098E+02  0.99999939518E+01 0.  0.
        -12    1    1    2    0    0 -0.29501570470E+02  0.25683717495E+02 -0.22340938736E+02  0.45045682902E+02  0.00000000000E+00 0.  1.
         11    1    3    3    0    0  0.61817039042E+01 -0.99581362499E+01  0.47550701089E+01  0.12648661302E+02  0.51100000000E-03 0.  1.
        -11    1    3    3    0    0  0.14754920700E+02 -0.76414019334E+01  0.88203998214E+01  0.18812181204E+02  0.51100000000E-03 0. -1.
         12    1    3    3    0    0  0.85649458650E+01 -0.80841793117E+01  0.87654688054E+01  0.14681474592E+02  0.00000000000E+00 0. -1.
</event>
<event>
 7    1  0.1549900E-008  0.4614232E+02  0.7816164E-02  0.1320468E+00
        -11   -1    0    0    0    0  0.00000000000E+00  0.00000000000E+00  0.45593999997E+02  0.45594000000E+02  0.51100000000E-03 0. -1.
         11   -1    0    0    0    0 -0.00000000000E+00 -0.00000000000E+00 -0.45593999997E+02  0.45594000000E+02  0.51100000000E-03 0.  1.
    9900012    2    1    2    0    0  0.16173923106E+02 -0.11616904958E+02  0.40405015663E+02  0.46142316964E+02  0.99999927352E+01 0.  0.
        -12    1    1    2    0    0 -0.16173923106E+02  0.11616904958E+02 -0.40405015663E+02  0.45045683036E+02  0.00000000000E+00 0.  1.
         11    1    3    3    0    0  0.39891977524E+01  0.42167358495E+00  0.86571394476E+01  0.95413610663E+01  0.51100000000E-03 0. -1.
        -11    1    3    3    0    0  0.53422725687E+01 -0.17165314284E+01  0.12658431185E+02  0.13846379912E+02  0.51100000000E-03 0.  1.
         12    1    3    3    0    0  0.68424527846E+01 -0.10322047115E+02  0.19089445030E+02  0.22754575986E+02  0.00000000000E+00 0. -1.
</event>
<event>
 7    1  0.1549900E-008  0.4614232E+02  0.7816164E-02  0.1320468E+00
        -11   -1    0    0    0    0  0.00000000000E+00  0.00000000000E+00  0.45593999997E+02  0.45594000000E+02  0.51100000000E-03 0. -1.
         11   -1    0    0    0    0 -0.00000000000E+00 -0.00000000000E+00 -0.45593999997E+02  0.45594000000E+02  0.51100000000E-03 0.  1.
    9900012    2    1    2    0    0  0.41440089318E+02 -0.10905819320E+02  0.13888667421E+02  0.46142323399E+02  0.10000051409E+02 0.  0.
        -12    1    1    2    0    0 -0.41440089318E+02  0.10905819320E+02 -0.13888667421E+02  0.45045676601E+02  0.00000000000E+00 0.  1.
         11    1    3    3    0    0  0.17522066383E+02 -0.80435864103E+01  0.25748410455E+01  0.19451269865E+02  0.51100000000E-03 0. -1.
        -11    1    3    3    0    0  0.78291531806E+01 -0.90630812049E+00  0.47702432887E+01  0.92126139195E+01  0.51100000000E-03 0.  1.
         12    1    3    3    0    0  0.16088869754E+02 -0.19559247889E+01  0.65435830873E+01  0.17478439615E+02  0.00000000000E+00 0. -1.
</event>
<event>
 7    1  0.1549900E-008  0.4614232E+02  0.7816164E-02  0.1320468E+00
        -11   -1    0    0    0    0  0.00000000000E+00  0.00000000000E+00  0.45593999997E+02  0.45594000000E+02  0.51100000000E-03 0. -1.
         11   -1    0    0    0    0 -0.00000000000E+00 -0.00000000000E+00 -0.45593999997E+02  0.45594000000E+02  0.51100000000E-03 0.  1.
    9900012    2    1    2    0    0  0.11467273342E+02 -0.43371806117E+02  0.40621514682E+01  0.46142323201E+02  0.10000049607E+02 0.  0.
        -12    1    1    2    0    0 -0.11467273342E+02  0.43371806117E+02 -0.40621514682E+01  0.45045676799E+02  0.00000000000E+00 0.  1.
         11    1    3    3    0    0  0.63708683878E+01 -0.12261678326E+02 -0.14658441627E+01  0.13895517938E+02  0.51100000000E-03 0. -1.
        -11    1    3    3    0    0  0.66083513115E+00 -0.14530573895E+02  0.15396592331E+01  0.14626853100E+02  0.51100000000E-03 0.  1.
         12    1    3    3    0    0  0.44355698229E+01 -0.16579553895E+02  0.39883363978E+01  0.17619952164E+02  0.00000000000E+00 0. -1.
</event>
<event>
 7    1  0.1549900E-008  0.4614232E+02  0.7816164E-02  0.1320468E+00
        -11   -1    0    0    0    0  0.00000000000E+00  0.00000000000E+00  0.45593999997E+02  0.45594000000E+02  0.51100000000E-03 0. -1.
         11   -1    0    0    0    0 -0.00000000000E+00 -0.00000000000E+00 -0.45593999997E+02  0.45594000000E+02  0.51100000000E-03 0.  1.
    9900012    2    1    2    0    0  0.33488829007E+02 -0.19690050065E+02 -0.22801615697E+02  0.46142318540E+02  0.10000007100E+02 0.  0.
        -12    1    1    2    0    0 -0.33488829007E+02  0.19690050065E+02  0.22801615697E+02  0.45045681460E+02  0.00000000000E+00 0.  1.
         11    1    3    3    0    0  0.14066233087E+02 -0.27540320868E+01 -0.76809891238E+01  0.16261648138E+02  0.51100000000E-03 0. -1.
        -11    1    3    3    0    0  0.16171442114E+02 -0.13904719245E+02 -0.12530577958E+02  0.24736049433E+02  0.51100000000E-03 0.  1.
         12    1    3    3    0    0  0.32511538061E+01 -0.30312987332E+01 -0.25900486155E+01  0.51446209687E+01  0.00000000000E+00 0. -1.
</event>
<event>
 7    1  0.1549900E-008  0.4614231E+02  0.7816164E-02  0.1320468E+00
        -11   -1    0    0    0    0  0.00000000000E+00  0.00000000000E+00  0.45593999997E+02  0.45594000000E+02  0.51100000000E-03 0.  1.
         11   -1    0    0    0    0 -0.00000000000E+00 -0.00000000000E+00 -0.45593999997E+02  0.45594000000E+02  0.51100000000E-03 0. -1.
    9900012    2    1    2    0    0  0.40865920182E+02 -0.98314492865E+01 -0.16199781368E+02  0.46142314927E+02  0.99999741531E+01 0.  0.
        -12    1    1    2    0    0 -0.40865920182E+02  0.98314492865E+01  0.16199781368E+02  0.45045685073E+02  0.00000000000E+00 0.  1.
         11    1    3    3    0    0  0.25206590583E+02 -0.50276838731E+01 -0.10374166325E+02  0.27717740549E+02  0.51100000000E-03 0. -1.
        -11    1    3    3    0    0  0.16562271931E+01  0.10389404423E+01 -0.19564271561E+01  0.27658801919E+01  0.51100000000E-03 0.  1.
        -12    1    3    3    0    0  0.14003102405E+02 -0.58427058556E+01 -0.38691878863E+01  0.15658694185E+02  0.00000000000E+00 0.  1.
</event>
<event>
 7    1  0.1549900E-008  0.4614232E+02  0.7816164E-02  0.1320468E+00
        -11   -1    0    0    0    0  0.00000000000E+00  0.00000000000E+00  0.45593999997E+02  0.45594000000E+02  0.51100000000E-03 0.  1.
         11   -1    0    0    0    0 -0.00000000000E+00 -0.00000000000E+00 -0.45593999997E+02  0.45594000000E+02  0.51100000000E-03 0. -1.
    9900012    2    1    2    0    0 -0.45306222355E+01 -0.14089811005E+02 -0.42544849162E+02  0.46142317607E+02  0.99999985943E+01 0.  0.
        -12    1    1    2    0    0  0.45306222355E+01  0.14089811005E+02  0.42544849162E+02  0.45045682393E+02  0.00000000000E+00 0.  1.
         11    1    3    3    0    0 -0.63793714608E+00 -0.22834716789E+01 -0.17040114321E+02  0.17204264095E+02  0.51100000000E-03 0. -1.
        -11    1    3    3    0    0 -0.17548377041E+01 -0.11339910345E+02 -0.21790409527E+02  0.24627118581E+02  0.51100000000E-03 0.  1.
        -12    1    3    3    0    0 -0.21378473853E+01 -0.46642898151E+00 -0.37143253143E+01  0.43109349308E+01  0.00000000000E+00 0.  1.
</event>
<event>
 7    1  0.1549900E-008  0.4614232E+02  0.7816164E-02  0.1320468E+00
        -11   -1    0    0    0    0  0.00000000000E+00  0.00000000000E+00  0.45593999997E+02  0.45594000000E+02  0.51100000000E-03 0. -1.
         11   -1    0    0    0    0 -0.00000000000E+00 -0.00000000000E+00 -0.45593999997E+02  0.45594000000E+02  0.51100000000E-03 0.  1.
    9900012    2    1    2    0    0 -0.30594141258E+01  0.34836120611E+02  0.28393629265E+02  0.46142317667E+02  0.99999991442E+01 0.  0.
        -12    1    1    2    0    0  0.30594141258E+01 -0.34836120611E+02 -0.28393629265E+02  0.45045682333E+02  0.00000000000E+00 0.  1.
         11    1    3    3    0    0  0.25304609521E+01  0.60526627983E+01  0.70984572840E+01  0.96657154756E+01  0.51100000000E-03 0. -1.
        -11    1    3    3    0    0 -0.31231086055E+01  0.68037516845E+01  0.58244554167E+01  0.94852056123E+01  0.51100000000E-03 0.  1.
         12    1    3    3    0    0 -0.24667664725E+01  0.21979706128E+02  0.15470716564E+02  0.26991396579E+02  0.00000000000E+00 0. -1.
</event>
<event>
 7    1  0.1549900E-008  0.4614232E+02  0.7816164E-02  0.1320468E+00
        -11   -1    0    0    0    0  0.00000000000E+00  0.00000000000E+00  0.45593999997E+02  0.45594000000E+02  0.51100000000E-03 0.  1.
         11   -1    0    0    0    0 -0.00000000000E+00 -0.00000000000E+00 -0.45593999997E+02  0.45594000000E+02  0.51100000000E-03 0. -1.
    9900012    2    1    2    0    0  0.30325582881E+02  0.25653608385E+02 -0.21245351927E+02  0.46142316758E+02  0.99999908493E+01 0.  0.
        -12    1    1    2    0    0 -0.30325582881E+02 -0.25653608385E+02  0.21245351927E+02  0.45045683242E+02  0.00000000000E+00 0.  1.
         11    1    3    3    0    0  0.45449332343E+01  0.12380912715E+01 -0.18931423211E+01  0.50767387376E+01  0.51100000000E-03 0. -1.
        -11    1    3    3    0    0  0.33162838022E+01  0.71076073927E+01 -0.47311356157E+01  0.91596651457E+01  0.51100000000E-03 0.  1.
         12    1    3    3    0    0  0.22464365845E+02  0.17307909721E+02 -0.14621073990E+02  0.31905912874E+02  0.00000000000E+00 0. -1.
</event>
<event>
 7    1  0.1549900E-008  0.4614232E+02  0.7816164E-02  0.1320468E+00
        -11   -1    0    0    0    0  0.00000000000E+00  0.00000000000E+00  0.45593999997E+02  0.45594000000E+02  0.51100000000E-03 0. -1.
         11   -1    0    0    0    0 -0.00000000000E+00 -0.00000000000E+00 -0.45593999997E+02  0.45594000000E+02  0.51100000000E-03 0.  1.
    9900012    2    1    2    0    0  0.43750169005E+02 -0.36241340808E+01  0.10094648225E+02  0.46142316981E+02  0.99999928887E+01 0.  0.
        -12    1    1    2    0    0 -0.43750169005E+02  0.36241340808E+01 -0.10094648225E+02  0.45045683019E+02  0.00000000000E+00 0.  1.
         11    1    3    3    0    0  0.23036941799E+02 -0.31555388114E+01  0.76899328762E+01  0.24490675380E+02  0.51100000000E-03 0. -1.
        -11    1    3    3    0    0  0.11717796961E+02  0.20492296009E+01 -0.38797186047E+00  0.11901959082E+02  0.51100000000E-03 0.  1.
        -12    1    3    3    0    0  0.89954302456E+01 -0.25178248704E+01  0.27926872092E+01  0.97496825194E+01  0.00000000000E+00 0.  1.
</event>
<event>
 7    1  0.1549900E-008  0.4614232E+02  0.7816164E-02  0.1320468E+00
        -11   -1    0    0    0    0  0.00000000000E+00  0.00000000000E+00  0.45593999997E+02  0.45594000000E+02  0.51100000000E-03 0. -1.
         11   -1    0    0    0    0 -0.00000000000E+00 -0.00000000000E+00 -0.45593999997E+02  0.45594000000E+02  0.51100000000E-03 0.  1.
    9900012    2    1    2    0    0  0.18132949299E+02  0.35522864245E+02  0.20938857246E+02  0.46142317885E+02  0.10000001128E+02 0.  0.
        -12    1    1    2    0    0 -0.18132949299E+02 -0.35522864245E+02 -0.20938857246E+02  0.45045682115E+02  0.00000000000E+00 0.  1.
         11    1    3    3    0    0  0.91725825297E+01  0.21555505559E+02  0.12229627767E+02  0.26426121277E+02  0.51100000000E-03 0. -1.
        -11    1    3    3    0    0 -0.13060328640E+00  0.31382331140E+01  0.33587121470E+01  0.45985336624E+01  0.51100000000E-03 0.  1.
        -12    1    3    3    0    0  0.90909700554E+01  0.10829125573E+02  0.53505173311E+01  0.15117662945E+02  0.00000000000E+00 0.  1.
</event>
<event>
 7    1  0.1549900E-008  0.4614232E+02  0.7816164E-02  0.1320468E+00
        -11   -1    0    0    0    0  0.00000000000E+00  0.00000000000E+00  0.45593999997E+02  0.45594000000E+02  0.51100000000E-03 0.  1.
         11   -1    0    0    0    0 -0.00000000000E+00 -0.00000000000E+00 -0.45593999997E+02  0.45594000000E+02  0.51100000000E-03 0. -1.
    9900012    2    1    2    0    0 -0.30633567559E+02 -0.26096705408E+02 -0.20240059151E+02  0.46142317754E+02  0.99999999363E+01 0.  0.
        -12    1    1    2    0    0  0.30633567559E+02  0.26096705408E+02  0.20240059151E+02  0.45045682246E+02  0.00000000000E+00 0.  1.
         11    1    3    3    0    0 -0.12725904677E+02 -0.10508495694E+02 -0.10415885732E+02  0.19515834787E+02  0.51100000000E-03 0. -1.
        -11    1    3    3    0    0 -0.16107890731E+02 -0.13561285643E+02 -0.10899708664E+02  0.23710256458E+02  0.51100000000E-03 0.  1.
        -12    1    3    3    0    0 -0.17997721513E+01 -0.20269240709E+01  0.10755352451E+01  0.29162265085E+01  0.00000000000E+00 0.  1.
</event>
<event>
 7    1  0.1549900E-008  0.4614232E+02  0.7816164E-02  0.1320468E+00
        -11   -1    0    0    0    0  0.00000000000E+00  0.00000000000E+00  0.45593999997E+02  0.45594000000E+02  0.51100000000E-03 0.  1.
         11   -1    0    0    0    0 -0.00000000000E+00 -0.00000000000E+00 -0.45593999997E+02  0.45594000000E+02  0.51100000000E-03 0. -1.
    9900012    2    1    2    0    0 -0.26641128022E+02 -0.15706756929E+02 -0.32751511850E+02  0.46142318254E+02  0.10000004495E+02 0.  0.
        -12    1    1    2    0    0  0.26641128022E+02  0.15706756929E+02  0.32751511850E+02  0.45045681746E+02  0.00000000000E+00 0.  1.
         11    1    3    3    0    0 -0.68583163114E+01 -0.33637925685E+01 -0.11294173422E+02  0.13634880147E+02  0.51100000000E-03 0.  1.
        -11    1    3    3    0    0 -0.70342281264E+01 -0.85605650128E+01 -0.88085676727E+01  0.14154663662E+02  0.51100000000E-03 0. -1.
         12    1    3    3    0    0 -0.12748583584E+02 -0.37823993476E+01 -0.12648770755E+02  0.18352774445E+02  0.00000000000E+00 0. -1.
</event>
<event>
 7    1  0.1549900E-008  0.4614232E+02  0.7816164E-02  0.1320468E+00
        -11   -1    0    0    0    0  0.00000000000E+00  0.00000000000E+00  0.45593999997E+02  0.45594000000E+02  0.51100000000E-03 0. -1.
         11   -1    0    0    0    0 -0.00000000000E+00 -0.00000000000E+00 -0.45593999997E+02  0.45594000000E+02  0.51100000000E-03 0.  1.
    9900012    2    1    2    0    0 -0.43520543076E+02 -0.86081333899E+01  0.78087102933E+01  0.46142316671E+02  0.99999900629E+01 0.  0.
        -12    1    1    2    0    0  0.43520543076E+02  0.86081333899E+01 -0.78087102933E+01  0.45045683329E+02  0.00000000000E+00 0.  1.
         11    1    3    3    0    0 -0.29750131723E+02 -0.70849085695E+01  0.31384532710E+01  0.30742741520E+02  0.51100000000E-03 0. -1.
        -11    1    3    3    0    0 -0.10259243221E+02 -0.22936403277E+01  0.52629601037E+01  0.11756343255E+02  0.51100000000E-03 0.  1.
         12    1    3    3    0    0 -0.35111681321E+01  0.77041550727E+00 -0.59270308141E+00  0.36432318961E+01  0.00000000000E+00 0. -1.
</event>
<event>
 7    1  0.1549900E-008  0.4614232E+02  0.7816164E-02  0.1320468E+00
        -11   -1    0    0    0    0  0.00000000000E+00  0.00000000000E+00  0.45593999997E+02  0.45594000000E+02  0.51100000000E-03 0.  1.
         11   -1    0    0    0    0 -0.00000000000E+00 -0.00000000000E+00 -0.45593999997E+02  0.45594000000E+02  0.51100000000E-03 0. -1.
    9900012    2    1    2    0    0  0.40578900356E+02  0.93989958072E+01 -0.17150077144E+02  0.46142318494E+02  0.10000006685E+02 0.  0.
        -12    1    1    2    0    0 -0.40578900356E+02 -0.93989958072E+01  0.17150077144E+02  0.45045681506E+02  0.00000000000E+00 0.  1.
         11    1    3    3    0    0  0.10169144793E+02 -0.45187846817E+00 -0.69057834105E+01  0.12300631884E+02  0.51100000000E-03 0. -1.
        -11    1    3    3    0    0  0.23211728781E+02  0.89748566754E+01 -0.67102217706E+01  0.25775171809E+02  0.51100000000E-03 0.  1.
        -12    1    3    3    0    0  0.71980267827E+01  0.87601759989E+00 -0.35340719628E+01  0.80665148012E+01  0.00000000000E+00 0.  1.
</event>
<event>
 7    1  0.1549900E-008  0.4614232E+02  0.7816164E-02  0.1320468E+00
        -11   -1    0    0    0    0  0.00000000000E+00  0.00000000000E+00  0.45593999997E+02  0.45594000000E+02  0.51100000000E-03 0.  1.
         11   -1    0    0    0    0 -0.00000000000E+00 -0.00000000000E+00 -0.45593999997E+02  0.45594000000E+02  0.51100000000E-03 0. -1.
    9900012    2    1    2    0    0  0.32743691747E+01  0.44502149711E+02 -0.61604095106E+01  0.46142317990E+02  0.10000002089E+02 0.  0.
        -12    1    1    2    0    0 -0.32743691747E+01 -0.44502149711E+02  0.61604095106E+01  0.45045682010E+02  0.00000000000E+00 0.  1.
         11    1    3    3    0    0  0.39706148137E-01 -0.46219091672E-01 -0.66212861359E+00  0.66492657090E+00  0.51100000000E-03 0. -1.
        -11    1    3    3    0    0 -0.79235744693E-01  0.23929551817E+02 -0.19235177985E+00  0.23930456074E+02  0.51100000000E-03 0.  1.
         12    1    3    3    0    0  0.33138987712E+01  0.20618816986E+02 -0.53059291172E+01  0.21546935345E+02  0.00000000000E+00 0. -1.
</event>
<event>
 7    1  0.1549900E-008  0.4614232E+02  0.7816164E-02  0.1320468E+00
        -11   -1    0    0    0    0  0.00000000000E+00  0.00000000000E+00  0.45593999997E+02  0.45594000000E+02  0.51100000000E-03 0.  1.
         11   -1    0    0    0    0 -0.00000000000E+00 -0.00000000000E+00 -0.45593999997E+02  0.45594000000E+02  0.51100000000E-03 0. -1.
    9900012    2    1    2    0    0 -0.10952451596E+02  0.41470567246E+02 -0.13760429117E+02  0.46142317042E+02  0.99999934402E+01 0.  0.
        -12    1    1    2    0    0  0.10952451596E+02 -0.41470567246E+02  0.13760429117E+02  0.45045682958E+02  0.00000000000E+00 0.  1.
         11    1    3    3    0    0 -0.16701442467E+01  0.26827950043E+01 -0.11429262840E+01  0.33605135905E+01  0.51100000000E-03 0. -1.
        -11    1    3    3    0    0 -0.41857375008E+01  0.10437649524E+02 -0.75234711058E+01  0.13530245517E+02  0.51100000000E-03 0.  1.
        -12    1    3    3    0    0 -0.50965698489E+01  0.28350122718E+02 -0.50940317270E+01  0.29251557934E+02  0.00000000000E+00 0.  1.
</event>
<event>
 7    1  0.1549900E-008  0.4614232E+02  0.7816164E-02  0.1320468E+00
        -11   -1    0    0    0    0  0.00000000000E+00  0.00000000000E+00  0.45593999997E+02  0.45594000000E+02  0.51100000000E-03 0. -1.
         11   -1    0    0    0    0 -0.00000000000E+00 -0.00000000000E+00 -0.45593999997E+02  0.45594000000E+02  0.51100000000E-03 0.  1.
    9900012    2    1    2    0    0  0.13062466130E+02 -0.57896739532E+01  0.42719611036E+02  0.46142317488E+02  0.99999975105E+01 0.  0.
        -12    1    1    2    0    0 -0.13062466130E+02  0.57896739532E+01 -0.42719611036E+02  0.45045682512E+02  0.00000000000E+00 0.  1.
         11    1    3    3    0    0  0.50109821747E+01  0.70752331236E+00  0.80121532589E+01  0.94765569538E+01  0.51100000000E-03 0. -1.
        -11    1    3    3    0    0  0.11958105961E+01 -0.31546263602E+01  0.17809681254E+02  0.18126400004E+02  0.51100000000E-03 0.  1.
         12    1    3    3    0    0  0.68556733588E+01 -0.33425709054E+01  0.16897776523E+02  0.18539360531E+02  0.00000000000E+00 0. -1.
</event>
<event>
 7    1  0.1549900E-008  0.4614232E+02  0.7816164E-02  0.1320468E+00
        -11   -1    0    0    0    0  0.00000000000E+00  0.00000000000E+00  0.45593999997E+02  0.45594000000E+02  0.51100000000E-03 0. -1.
         11   -1    0    0    0    0 -0.00000000000E+00 -0.00000000000E+00 -0.45593999997E+02  0.45594000000E+02  0.51100000000E-03 0.  1.
    9900012    2    1    2    0    0  0.31363793700E+02 -0.14175421916E+02  0.29059995897E+02  0.46142317596E+02  0.99999984900E+01 0.  0.
        -12    1    1    2    0    0 -0.31363793700E+02  0.14175421916E+02 -0.29059995897E+02  0.45045682404E+02  0.00000000000E+00 0.  1.
         11    1    3    3    0    0  0.15371847276E+02 -0.63610867614E+01  0.12169346876E+02  0.20611892613E+02  0.51100000000E-03 0. -1.
        -11    1    3    3    0    0  0.34746242310E+01 -0.51284579311E+01  0.40686193987E+01  0.74113263570E+01  0.51100000000E-03 0.  1.
        -12    1    3    3    0    0  0.12517322193E+02 -0.26858772234E+01  0.12822029623E+02  0.18119098625E+02  0.00000000000E+00 0.  1.
</event>
<event>
 7    1  0.1549900E-008  0.4614232E+02  0.7816164E-02  0.1320468E+00
        -11   -1    0    0    0    0  0.00000000000E+00  0.00000000000E+00  0.45593999997E+02  0.45594000000E+02  0.51100000000E-03 0.  1.
         11   -1    0    0    0    0 -0.00000000000E+00 -0.00000000000E+00 -0.45593999997E+02  0.45594000000E+02  0.51100000000E-03 0. -1.
    9900012    2    1    2    0    0 -0.28075958909E+02  0.26331936312E+02 -0.23398359582E+02  0.46142316858E+02  0.99999917641E+01 0.  0.
        -12    1    1    2    0    0  0.28075958909E+02 -0.26331936312E+02  0.23398359582E+02  0.45045683142E+02  0.00000000000E+00 0.  1.
         11    1    3    3    0    0 -0.19499217117E+01 -0.58876222939E+00 -0.15131885477E+01  0.25374348241E+01  0.51100000000E-03 0. -1.
        -11    1    3    3    0    0 -0.23188337022E+02  0.25208252721E+02 -0.19152171657E+02  0.39242332481E+02  0.51100000000E-03 0.  1.
        -12    1    3    3    0    0 -0.29377001745E+01  0.17124458210E+01 -0.27329993771E+01  0.43625495527E+01  0.00000000000E+00 0.  1.
</event>
<event>
 7    1  0.1549900E-008  0.4614231E+02  0.7816164E-02  0.1320468E+00
        -11   -1    0    0    0    0  0.00000000000E+00  0.00000000000E+00  0.45593999997E+02  0.45594000000E+02  0.51100000000E-03 0.  1.
         11   -1    0    0    0    0 -0.00000000000E+00 -0.00000000000E+00 -0.45593999997E+02  0.45594000000E+02  0.51100000000E-03 0. -1.
    9900012    2    1    2    0    0  0.13522740375E+02  0.10638310805E+02 -0.41630225537E+02  0.46142313832E+02  0.99999641732E+01 0.  0.
        -12    1    1    2    0    0 -0.13522740375E+02 -0.10638310805E+02  0.41630225537E+02  0.45045686168E+02  0.00000000000E+00 0.  1.
         11    1    3    3    0    0  0.97686011647E+01  0.11102937625E+02 -0.29053348678E+02  0.32600580705E+02  0.51100000000E-03 0. -1.
        -11    1    3    3    0    0 -0.36747159033E+00  0.64327672840E+00 -0.22028216497E+01  0.23240619184E+01  0.51100000000E-03 0.  1.
         12    1    3    3    0    0  0.41216108007E+01 -0.11079035482E+01 -0.10374055209E+02  0.11217671209E+02  0.00000000000E+00 0. -1.
</event>
<event>
 7    1  0.1549900E-008  0.4614232E+02  0.7816164E-02  0.1320468E+00
        -11   -1    0    0    0    0  0.00000000000E+00  0.00000000000E+00  0.45593999997E+02  0.45594000000E+02  0.51100000000E-03 0.  1.
         11   -1    0    0    0    0 -0.00000000000E+00 -0.00000000000E+00 -0.45593999997E+02  0.45594000000E+02  0.51100000000E-03 0. -1.
    9900012    2    1    2    0    0 -0.29797121304E+02 -0.24280659708E+02 -0.23488181261E+02  0.46142317268E+02  0.99999955026E+01 0.  0.
        -12    1    1    2    0    0  0.29797121304E+02  0.24280659708E+02  0.23488181261E+02  0.45045682732E+02  0.00000000000E+00 0.  1.
         11    1    3    3    0    0 -0.19275652537E+02 -0.10335996286E+02 -0.12710257887E+02  0.25296921864E+02  0.51100000000E-03 0. -1.
        -11    1    3    3    0    0 -0.37450591614E+01 -0.65530052341E+01 -0.28709516655E+01  0.80752529030E+01  0.51100000000E-03 0.  1.
         12    1    3    3    0    0 -0.67764096053E+01 -0.73916581880E+01 -0.79069717081E+01  0.12770142501E+02  0.00000000000E+00 0. -1.
</event>
<event>
 7    1  0.1549900E-008  0.4614232E+02  0.7816164E-02  0.1320468E+00
        -11   -1    0    0    0    0  0.00000000000E+00  0.00000000000E+00  0.45593999997E+02  0.45594000000E+02  0.51100000000E-03 0.  1.
         11   -1    0    0    0    0 -0.00000000000E+00 -0.00000000000E+00 -0.45593999997E+02  0.45594000000E+02  0.51100000000E-03 0. -1.
    9900012    2    1    2    0    0  0.81638845636E+01  0.10061297102E+01 -0.44288284561E+02  0.46142318104E+02  0.10000003125E+02 0.  0.
        -12    1    1    2    0    0 -0.81638845636E+01 -0.10061297102E+01  0.44288284561E+02  0.45045681896E+02  0.00000000000E+00 0.  1.
         11    1    3    3    0    0  0.73714965414E+01  0.26854134380E+01 -0.24546124217E+02  0.25769412506E+02  0.51100000000E-03 0. -1.
        -11    1    3    3    0    0 -0.86293422553E+00 -0.10569449256E+00 -0.15747108914E+02  0.15771089570E+02  0.51100000000E-03 0.  1.
        -12    1    3    3    0    0  0.16553222477E+01 -0.15735892353E+01 -0.39950514295E+01  0.46018160274E+01  0.00000000000E+00 0.  1.
</event>
<event>
 7    1  0.1549900E-008  0.4614232E+02  0.7816164E-02  0.1320468E+00
        -11   -1    0    0    0    0  0.00000000000E+00  0.00000000000E+00  0.45593999997E+02  0.45594000000E+02  0.51100000000E-03 0.  1.
         11   -1    0    0    0    0 -0.00000000000E+00 -0.00000000000E+00 -0.45593999997E+02  0.45594000000E+02  0.51100000000E-03 0. -1.
    9900012    2    1    2    0    0  0.36511621216E+02  0.93319133185E+01 -0.24676517647E+02  0.46142316376E+02  0.99999873659E+01 0.  0.
        -12    1    1    2    0    0 -0.36511621216E+02 -0.93319133185E+01  0.24676517647E+02  0.45045683624E+02  0.00000000000E+00 0.  1.
         11    1    3    3    0    0  0.11540590289E+02  0.12961954832E+01 -0.80636662272E+01  0.14138177401E+02  0.51100000000E-03 0. -1.
        -11    1    3    3    0    0  0.17987867084E+01  0.13881900162E+01 -0.44640351891E+01  0.50090234152E+01  0.51100000000E-03 0.  1.
        -12    1    3    3    0    0  0.23172244219E+02  0.66475278191E+01 -0.12148816231E+02  0.26995115559E+02  0.00000000000E+00 0.  1.
</event>
<event>
 7    1  0.1549900E-008  0.4614232E+02  0.7816164E-02  0.1320468E+00
        -11   -1    0    0    0    0  0.00000000000E+00  0.00000000000E+00  0.45593999997E+02  0.45594000000E+02  0.51100000000E-03 0.  1.
         11   -1    0    0    0    0 -0.00000000000E+00 -0.00000000000E+00 -0.45593999997E+02  0.45594000000E+02  0.51100000000E-03 0. -1.
    9900012    2    1    2    0    0  0.28070295809E+01 -0.26282477214E+02 -0.36475546513E+02  0.46142317443E+02  0.99999970974E+01 0.  0.
        -12    1    1    2    0    0 -0.28070295809E+01  0.26282477214E+02  0.36475546513E+02  0.45045682557E+02  0.00000000000E+00 0.  1.
         11    1    3    3    0    0 -0.14944474423E+01 -0.16135370192E+02 -0.23611196833E+02  0.28636902076E+02  0.51100000000E-03 0. -1.
        -11    1    3    3    0    0  0.32477066200E+01 -0.46096060453E+01 -0.91726349230E+01  0.10767232601E+02  0.51100000000E-03 0.  1.
         12    1    3    3    0    0  0.10537704033E+01 -0.55375009774E+01 -0.36917147574E+01  0.67381827660E+01  0.00000000000E+00 0. -1.
</event>
<event>
 7    1  0.1549900E-008  0.4614232E+02  0.7816164E-02  0.1320468E+00
        -11   -1    0    0    0    0  0.00000000000E+00  0.00000000000E+00  0.45593999997E+02  0.45594000000E+02  0.51100000000E-03 0.  1.
         11   -1    0    0    0    0 -0.00000000000E+00 -0.00000000000E+00 -0.45593999997E+02  0.45594000000E+02  0.51100000000E-03 0. -1.
    9900012    2    1    2    0    0  0.14878075219E+02 -0.13454687881E+02 -0.40332713135E+02  0.46142317665E+02  0.99999991239E+01 0.  0.
        -12    1    1    2    0    0 -0.14878075219E+02  0.13454687881E+02  0.40332713135E+02  0.45045682335E+02  0.00000000000E+00 0.  1.
         11    1    3    3    0    0  0.75576826942E+01 -0.10051804624E+02 -0.28682101728E+02  0.31318050765E+02  0.51100000000E-03 0. -1.
        -11    1    3    3    0    0  0.39832085173E+01  0.36731746638E+00 -0.39351992461E+01  0.56112980300E+01  0.51100000000E-03 0.  1.
        -12    1    3    3    0    0  0.33371840074E+01 -0.37702007233E+01 -0.77154121609E+01  0.92129688704E+01  0.00000000000E+00 0.  1.
</event>
<event>
 7    1  0.1549900E-008  0.4614232E+02  0.7816164E-02  0.1320468E+00
        -11   -1    0    0    0    0  0.00000000000E+00  0.00000000000E+00  0.45593999997E+02  0.45594000000E+02  0.51100000000E-03 0.  1.
         11   -1    0    0    0    0 -0.00000000000E+00 -0.00000000000E+00 -0.45593999997E+02  0.45594000000E+02  0.51100000000E-03 0. -1.
    9900012    2    1    2    0    0  0.59842626851E+01 -0.62614137387E+01 -0.44205167295E+02  0.46142317438E+02  0.99999970508E+01 0.  0.
        -12    1    1    2    0    0 -0.59842626851E+01  0.62614137387E+01  0.44205167295E+02  0.45045682562E+02  0.00000000000E+00 0.  1.
         11    1    3    3    0    0  0.40877344395E+01 -0.15307500339E+00 -0.22300646894E+02  0.22672711725E+02  0.51100000000E-03 0. -1.
        -11    1    3    3    0    0  0.28781548176E+00  0.61860085466E-01  0.26818710966E+00  0.39823235507E+00  0.51100000000E-03 0.  1.
         12    1    3    3    0    0  0.16087127639E+01 -0.61701988208E+01 -0.22172707511E+02  0.23071373358E+02  0.00000000000E+00 0. -1.
</event>
<event>
 7    1  0.1549900E-008  0.4614232E+02  0.7816164E-02  0.1320468E+00
        -11   -1    0    0    0    0  0.00000000000E+00  0.00000000000E+00  0.45593999997E+02  0.45594000000E+02  0.51100000000E-03 0. -1.
         11   -1    0    0    0    0 -0.00000000000E+00 -0.00000000000E+00 -0.45593999997E+02  0.45594000000E+02  0.51100000000E-03 0.  1.
    9900012    2    1    2    0    0  0.15891856105E+01 -0.21137192937E+02  0.39746786599E+02  0.46142317842E+02  0.10000000735E+02 0.  0.
        -12    1    1    2    0    0 -0.15891856105E+01  0.21137192937E+02 -0.39746786599E+02  0.45045682158E+02  0.00000000000E+00 0.  1.
         11    1    3    3    0    0 -0.13944469760E+01 -0.99763536713E+01  0.15527151974E+02  0.18508499767E+02  0.51100000000E-03 0. -1.
        -11    1    3    3    0    0  0.39963644483E+01 -0.73906161455E+01  0.10950795173E+02  0.13802610296E+02  0.51100000000E-03 0.  1.
         12    1    3    3    0    0 -0.10127318619E+01 -0.37702231202E+01  0.13268839453E+02  0.13831207779E+02  0.00000000000E+00 0. -1.
</event>
<event>
 7    1  0.1549900E-008  0.4614232E+02  0.7816164E-02  0.1320468E+00
        -11   -1    0    0    0    0  0.00000000000E+00  0.00000000000E+00  0.45593999997E+02  0.45594000000E+02  0.51100000000E-03 0.  1.
         11   -1    0    0    0    0 -0.00000000000E+00 -0.00000000000E+00 -0.45593999997E+02  0.45594000000E+02  0.51100000000E-03 0. -1.
    9900012    2    1    2    0    0  0.99255379688E+01  0.21897545307E+02 -0.38093237875E+02  0.46142316897E+02  0.99999921180E+01 0.  0.
        -12    1    1    2    0    0 -0.99255379688E+01 -0.21897545307E+02  0.38093237875E+02  0.45045683103E+02  0.00000000000E+00 0.  1.
         11    1    3    3    0    0 -0.20796656590E+00  0.60904802318E+01 -0.91344511318E+01  0.10980682915E+02  0.51100000000E-03 0. -1.
        -11    1    3    3    0    0  0.86651376680E+01  0.11158886003E+02 -0.25606872976E+02  0.29245808102E+02  0.51100000000E-03 0.  1.
        -12    1    3    3    0    0  0.14683668666E+01  0.46481790716E+01 -0.33519137670E+01  0.59158258797E+01  0.00000000000E+00 0.  1.
</event>
<event>
 7    1  0.1549900E-008  0.4614232E+02  0.7816164E-02  0.1320468E+00
        -11   -1    0    0    0    0  0.00000000000E+00  0.00000000000E+00  0.45593999997E+02  0.45594000000E+02  0.51100000000E-03 0.  1.
         11   -1    0    0    0    0 -0.00000000000E+00 -0.00000000000E+00 -0.45593999997E+02  0.45594000000E+02  0.51100000000E-03 0. -1.
    9900012    2    1    2    0    0 -0.42142567895E+02 -0.12317144215E+02  0.10070027788E+02  0.46142317299E+02  0.99999957851E+01 0.  0.
        -12    1    1    2    0    0  0.42142567895E+02  0.12317144215E+02 -0.10070027788E+02  0.45045682701E+02  0.00000000000E+00 0.  1.
         11    1    3    3    0    0 -0.33877184422E+02 -0.10622918539E+02  0.41083817228E+01  0.35740576706E+02  0.51100000000E-03 0. -1.
        -11    1    3    3    0    0 -0.31626465002E+01 -0.42280252343E+00  0.29284862545E+01  0.43309498799E+01  0.51100000000E-03 0.  1.
        -12    1    3    3    0    0 -0.51027369721E+01 -0.12714231528E+01  0.30331598103E+01  0.60707907125E+01  0.00000000000E+00 0.  1.
</event>
<event>
 7    1  0.1549900E-008  0.4614232E+02  0.7816164E-02  0.1320468E+00
        -11   -1    0    0    0    0  0.00000000000E+00  0.00000000000E+00  0.45593999997E+02  0.45594000000E+02  0.51100000000E-03 0. -1.
         11   -1    0    0    0    0 -0.00000000000E+00 -0.00000000000E+00 -0.45593999997E+02  0.45594000000E+02  0.51100000000E-03 0.  1.
    9900012    2    1    2    0    0 -0.18108565482E+02 -0.38762074353E+02  0.14095915719E+02  0.46142318831E+02  0.10000009760E+02 0.  0.
        -12    1    1    2    0    0  0.18108565482E+02  0.38762074353E+02 -0.14095915719E+02  0.45045681169E+02  0.00000000000E+00 0.  1.
         11    1    3    3    0    0 -0.11557872471E+02 -0.18279866583E+02  0.60595471372E+01  0.22460099067E+02  0.51100000000E-03 0. -1.
        -11    1    3    3    0    0 -0.61588633030E+01 -0.19323786838E+02  0.57360801243E+01  0.21077071675E+02  0.51100000000E-03 0.  1.
        -12    1    3    3    0    0 -0.39182970754E+00 -0.11584209327E+01  0.23002884579E+01  0.26051480892E+01  0.00000000000E+00 0.  1.
</event>
<event>
 7    1  0.1549900E-008  0.4614232E+02  0.7816164E-02  0.1320468E+00
        -11   -1    0    0    0    0  0.00000000000E+00  0.00000000000E+00  0.45593999997E+02  0.45594000000E+02  0.51100000000E-03 0.  1.
         11   -1    0    0    0    0 -0.00000000000E+00 -0.00000000000E+00 -0.45593999997E+02  0.45594000000E+02  0.51100000000E-03 0. -1.
    9900012    2    1    2    0    0  0.21138383594E+02 -0.69037697427E+01 -0.39174228485E+02  0.46142317909E+02  0.10000001350E+02 0.  0.
        -12    1    1    2    0    0 -0.21138383594E+02  0.69037697427E+01  0.39174228485E+02  0.45045682091E+02  0.00000000000E+00 0.  1.
         11    1    3    3    0    0  0.46724104921E+01  0.14313339946E+01 -0.11537600608E+02  0.12529819027E+02  0.51100000000E-03 0. -1.
        -11    1    3    3    0    0  0.98755732496E+01 -0.37013588329E+01 -0.11676506563E+02  0.15734287718E+02  0.51100000000E-03 0.  1.
         12    1    3    3    0    0  0.65903998527E+01 -0.46337449044E+01 -0.15960121314E+02  0.17878211164E+02  0.00000000000E+00 0. -1.
</event>
<event>
 7    1  0.1549900E-008  0.4614232E+02  0.7816164E-02  0.1320468E+00
        -11   -1    0    0    0    0  0.00000000000E+00  0.00000000000E+00  0.45593999997E+02  0.45594000000E+02  0.51100000000E-03 0.  1.
         11   -1    0    0    0    0 -0.00000000000E+00 -0.00000000000E+00 -0.45593999997E+02  0.45594000000E+02  0.51100000000E-03 0. -1.
    9900012    2    1    2    0    0 -0.84973929217E+00 -0.45088361472E+01 -0.44811401234E+02  0.46142319399E+02  0.10000014934E+02 0.  0.
        -12    1    1    2    0    0  0.84973929217E+00  0.45088361472E+01  0.44811401234E+02  0.45045680601E+02  0.00000000000E+00 0.  1.
         11    1    3    3    0    0 -0.11337507211E+01 -0.20637688430E+01 -0.10022422735E+02  0.10295313996E+02  0.51100000000E-03 0. -1.
        -11    1    3    3    0    0  0.27883659211E+01 -0.45743539009E+01 -0.21368039250E+02  0.22029362219E+02  0.51100000000E-03 0.  1.
        -12    1    3    3    0    0 -0.25043544922E+01  0.21292865967E+01 -0.13420939249E+02  0.13817643184E+02  0.00000000000E+00 0.  1.
</event>
<event>
 7    1  0.1549900E-008  0.4614232E+02  0.7816164E-02  0.1320468E+00
        -11   -1    0    0    0    0  0.00000000000E+00  0.00000000000E+00  0.45593999997E+02  0.45594000000E+02  0.51100000000E-03 0. -1.
         11   -1    0    0    0    0 -0.00000000000E+00 -0.00000000000E+00 -0.45593999997E+02  0.45594000000E+02  0.51100000000E-03 0.  1.
    9900012    2    1    2    0    0 -0.43682213793E+02 -0.33101661207E+01  0.10489064841E+02  0.46142317822E+02  0.10000000558E+02 0.  0.
        -12    1    1    2    0    0  0.43682213793E+02  0.33101661207E+01 -0.10489064841E+02  0.45045682178E+02  0.00000000000E+00 0.  1.
         11    1    3    3    0    0 -0.20074347146E+02  0.88767354686E+00  0.40285732686E+01  0.20493822984E+02  0.51100000000E-03 0. -1.
        -11    1    3    3    0    0 -0.59805586556E+00 -0.14455052269E+01 -0.89135240796E-01  0.15668763613E+01  0.51100000000E-03 0.  1.
         12    1    3    3    0    0 -0.23009810782E+02 -0.27523344407E+01  0.65496268128E+01  0.24081618477E+02  0.00000000000E+00 0. -1.
</event>
<event>
 7    1  0.1661021E-008  0.4614232E+02  0.7816164E-02  0.1320468E+00
        -11   -1    0    0    0    0  0.00000000000E+00  0.00000000000E+00  0.45593999997E+02  0.45594000000E+02  0.51100000000E-03 0. -1.
         11   -1    0    0    0    0 -0.00000000000E+00 -0.00000000000E+00 -0.45593999997E+02  0.45594000000E+02  0.51100000000E-03 0.  1.
    9900012    2    1    2    0    0  0.21701008404E+02  0.29413784726E+02  0.26325060337E+02  0.46142319859E+02  0.10000019129E+02 0.  0.
        -12    1    1    2    0    0 -0.21701008404E+02 -0.29413784726E+02 -0.26325060337E+02  0.45045680141E+02  0.00000000000E+00 0.  1.
         11    1    3    3    0    0  0.19386350154E+02  0.19901223312E+02  0.16825775671E+02  0.32480701791E+02  0.51100000000E-03 0. -1.
        -11    1    3    3    0    0  0.13775167603E+01  0.69677954915E+01  0.66977975592E+01  0.97625928340E+01  0.51100000000E-03 0.  1.
         12    1    3    3    0    0  0.93714148910E+00  0.25447659223E+01  0.28014871063E+01  0.38990252341E+01  0.00000000000E+00 0. -1.
</event>
<event>
 7    1  0.1549900E-008  0.4614232E+02  0.7816164E-02  0.1320468E+00
        -11   -1    0    0    0    0  0.00000000000E+00  0.00000000000E+00  0.45593999997E+02  0.45594000000E+02  0.51100000000E-03 0.  1.
         11   -1    0    0    0    0 -0.00000000000E+00 -0.00000000000E+00 -0.45593999997E+02  0.45594000000E+02  0.51100000000E-03 0. -1.
    9900012    2    1    2    0    0  0.82968612349E+01 -0.14909262826E+02 -0.41689201629E+02  0.46142317001E+02  0.99999930680E+01 0.  0.
        -12    1    1    2    0    0 -0.82968612349E+01  0.14909262826E+02  0.41689201629E+02  0.45045682999E+02  0.00000000000E+00 0.  1.
         11    1    3    3    0    0  0.27596059141E+01  0.38706273000E+00 -0.95171466410E+01  0.99167193570E+01  0.51100000000E-03 0. -1.
        -11    1    3    3    0    0  0.33662140836E+01 -0.12314714360E+02 -0.22429346156E+02  0.25808121905E+02  0.51100000000E-03 0.  1.
        -12    1    3    3    0    0  0.21710412371E+01 -0.29816111963E+01 -0.97427088323E+01  0.10417475739E+02  0.00000000000E+00 0.  1.
</event>
<event>
 7    1  0.1549900E-008  0.4614232E+02  0.7816164E-02  0.1320468E+00
        -11   -1    0    0    0    0  0.00000000000E+00  0.00000000000E+00  0.45593999997E+02  0.45594000000E+02  0.51100000000E-03 0.  1.
         11   -1    0    0    0    0 -0.00000000000E+00 -0.00000000000E+00 -0.45593999997E+02  0.45594000000E+02  0.51100000000E-03 0. -1.
    9900012    2    1    2    0    0 -0.21535080842E+02 -0.37168348305E+02 -0.13559784758E+02  0.46142316685E+02  0.99999901909E+01 0.  0.
        -12    1    1    2    0    0  0.21535080842E+02  0.37168348305E+02  0.13559784758E+02  0.45045683315E+02  0.00000000000E+00 0.  1.
         11    1    3    3    0    0 -0.11747465367E+02 -0.13612134458E+02 -0.56153440622E+01  0.18836805362E+02  0.51100000000E-03 0. -1.
        -11    1    3    3    0    0 -0.10466504966E+02 -0.22501138118E+02 -0.71708728497E+01  0.25831576810E+02  0.51100000000E-03 0.  1.
        -12    1    3    3    0    0  0.67888949155E+00 -0.10550757296E+01 -0.77356784607E+00  0.14739345133E+01  0.00000000000E+00 0.  1.
</event>
<event>
 7    1  0.1549900E-008  0.4614232E+02  0.7816164E-02  0.1320468E+00
        -11   -1    0    0    0    0  0.00000000000E+00  0.00000000000E+00  0.45593999997E+02  0.45594000000E+02  0.51100000000E-03 0.  1.
         11   -1    0    0    0    0 -0.00000000000E+00 -0.00000000000E+00 -0.45593999997E+02  0.45594000000E+02  0.51100000000E-03 0. -1.
    9900012    2    1    2    0    0 -0.30316731409E+02 -0.75251100068E+01 -0.32455845730E+02  0.46142318676E+02  0.10000008340E+02 0.  0.
        -12    1    1    2    0    0  0.30316731409E+02  0.75251100068E+01  0.32455845730E+02  0.45045681324E+02  0.00000000000E+00 0.  1.
         11    1    3    3    0    0 -0.95920547843E+01 -0.33685979361E+01 -0.54475401952E+01  0.11533891862E+02  0.51100000000E-03 0. -1.
        -11    1    3    3    0    0 -0.87750614449E+01  0.53079396335E+00 -0.11569890996E+02  0.14530857631E+02  0.51100000000E-03 0.  1.
         12    1    3    3    0    0 -0.11949615180E+02 -0.46873060341E+01 -0.15438414539E+02  0.20077569183E+02  0.00000000000E+00 0. -1.
</event>
<event>
 7    1  0.1549900E-008  0.4614232E+02  0.7816164E-02  0.1320468E+00
        -11   -1    0    0    0    0  0.00000000000E+00  0.00000000000E+00  0.45593999997E+02  0.45594000000E+02  0.51100000000E-03 0.  1.
         11   -1    0    0    0    0 -0.00000000000E+00 -0.00000000000E+00 -0.45593999997E+02  0.45594000000E+02  0.51100000000E-03 0. -1.
    9900012    2    1    2    0    0 -0.31774400741E+01 -0.41301019063E+02 -0.17698679226E+02  0.46142317105E+02  0.99999940213E+01 0.  0.
        -12    1    1    2    0    0  0.31774400741E+01  0.41301019063E+02  0.17698679226E+02  0.45045682895E+02  0.00000000000E+00 0.  1.
         11    1    3    3    0    0  0.10179186316E+00 -0.83311580295E+01 -0.35896902504E+01  0.90721790134E+01  0.51100000000E-03 0. -1.
        -11    1    3    3    0    0 -0.56933837560E+01 -0.24905902196E+02 -0.83785867498E+01  0.26887158626E+02  0.51100000000E-03 0.  1.
        -12    1    3    3    0    0  0.24141518187E+01 -0.80639588381E+01 -0.57304022254E+01  0.10182979466E+02  0.00000000000E+00 0.  1.
</event>
<event>
 7    1  0.1549900E-008  0.4614232E+02  0.7816164E-02  0.1320468E+00
        -11   -1    0    0    0    0  0.00000000000E+00  0.00000000000E+00  0.45593999997E+02  0.45594000000E+02  0.51100000000E-03 0.  1.
         11   -1    0    0    0    0 -0.00000000000E+00 -0.00000000000E+00 -0.45593999997E+02  0.45594000000E+02  0.51100000000E-03 0. -1.
    9900012    2    1    2    0    0 -0.20485512594E+02 -0.26924474448E+02 -0.29741047431E+02  0.46142318156E+02  0.10000003598E+02 0.  0.
        -12    1    1    2    0    0  0.20485512594E+02  0.26924474448E+02  0.29741047431E+02  0.45045681844E+02  0.00000000000E+00 0.  1.
         11    1    3    3    0    0 -0.80330339733E+01 -0.75851244442E+01 -0.72037011132E+01  0.13189278132E+02  0.51100000000E-03 0. -1.
        -11    1    3    3    0    0 -0.11821751971E+01 -0.73626306966E+01 -0.87168653063E+01  0.11471251457E+02  0.51100000000E-03 0.  1.
        -12    1    3    3    0    0 -0.11270303423E+02 -0.11976719307E+02 -0.13820481011E+02  0.21481788566E+02  0.00000000000E+00 0.  1.
</event>
<event>
 7    1  0.1549900E-008  0.4614231E+02  0.7816164E-02  0.1320468E+00
        -11   -1    0    0    0    0  0.00000000000E+00  0.00000000000E+00  0.45593999997E+02  0.45594000000E+02  0.51100000000E-03 0. -1.
         11   -1    0    0    0    0 -0.00000000000E+00 -0.00000000000E+00 -0.45593999997E+02  0.45594000000E+02  0.51100000000E-03 0.  1.
    9900012    2    1    2    0    0 -0.22372055348E+02 -0.11386913066E+02  0.37402451978E+02  0.46142311376E+02  0.99999417722E+01 0.  0.
        -12    1    1    2    0    0  0.22372055348E+02  0.11386913066E+02 -0.37402451978E+02  0.45045688624E+02  0.00000000000E+00 0.  1.
         11    1    3    3    0    0 -0.14857293252E+02 -0.61384864970E+01  0.22980883642E+02  0.28045341725E+02  0.51100000000E-03 0. -1.
        -11    1    3    3    0    0 -0.20843619863E+01 -0.50757161699E+01  0.68174035236E+01  0.87512542297E+01  0.51100000000E-03 0.  1.
        -12    1    3    3    0    0 -0.54304001099E+01 -0.17271039933E+00  0.76041648125E+01  0.93457154210E+01  0.00000000000E+00 0.  1.
</event>
<event>
 7    1  0.1549900E-008  0.4614232E+02  0.7816164E-02  0.1320468E+00
        -11   -1    0    0    0    0  0.00000000000E+00  0.00000000000E+00  0.45593999997E+02  0.45594000000E+02  0.51100000000E-03 0. -1.
         11   -1    0    0    0    0 -0.00000000000E+00 -0.00000000000E+00 -0.45593999997E+02  0.45594000000E+02  0.51100000000E-03 0.  1.
    9900012    2    1    2    0    0 -0.58552626782E+01  0.32881899294E+02  0.30225983472E+02  0.46142317864E+02  0.10000000942E+02 0.  0.
        -12    1    1    2    0    0  0.58552626782E+01 -0.32881899294E+02 -0.30225983472E+02  0.45045682136E+02  0.00000000000E+00 0.  1.
         11    1    3    3    0    0  0.78095860199E+00  0.50017866518E+01  0.14054396815E+01  0.52538582972E+01  0.51100000000E-03 0. -1.
        -11    1    3    3    0    0 -0.43435657109E+01  0.24003305866E+02  0.25532719552E+02  0.35312108739E+02  0.51100000000E-03 0.  1.
        -12    1    3    3    0    0 -0.22926555693E+01  0.38768067763E+01  0.32878242383E+01  0.55763508285E+01  0.00000000000E+00 0.  1.
</event>
<event>
 7    1  0.1549900E-008  0.4614232E+02  0.7816164E-02  0.1320468E+00
        -11   -1    0    0    0    0  0.00000000000E+00  0.00000000000E+00  0.45593999997E+02  0.45594000000E+02  0.51100000000E-03 0.  1.
         11   -1    0    0    0    0 -0.00000000000E+00 -0.00000000000E+00 -0.45593999997E+02  0.45594000000E+02  0.51100000000E-03 0. -1.
    9900012    2    1    2    0    0  0.26751534985E+02 -0.54522791118E+01 -0.35829340012E+02  0.46142316775E+02  0.99999910035E+01 0.  0.
        -12    1    1    2    0    0 -0.26751534985E+02  0.54522791118E+01  0.35829340012E+02  0.45045683225E+02  0.00000000000E+00 0.  1.
         11    1    3    3    0    0  0.11506065002E+02  0.10384576125E+01 -0.19747601110E+02  0.22878716657E+02  0.51100000000E-03 0. -1.
        -11    1    3    3    0    0  0.30044298087E+01 -0.21119794208E+01 -0.48470872047E+01  0.60812260426E+01  0.51100000000E-03 0.  1.
         12    1    3    3    0    0  0.12241040175E+02 -0.43787573036E+01 -0.11234651697E+02  0.17182374074E+02  0.00000000000E+00 0. -1.
</event>
<event>
 7    1  0.1549900E-008  0.4614231E+02  0.7816164E-02  0.1320468E+00
        -11   -1    0    0    0    0  0.00000000000E+00  0.00000000000E+00  0.45593999997E+02  0.45594000000E+02  0.51100000000E-03 0. -1.
         11   -1    0    0    0    0 -0.00000000000E+00 -0.00000000000E+00 -0.45593999997E+02  0.45594000000E+02  0.51100000000E-03 0.  1.
    9900012    2    1    2    0    0 -0.14146130526E+02 -0.39532416917E+02  0.16315293466E+02  0.46142314335E+02  0.99999687609E+01 0.  0.
        -12    1    1    2    0    0  0.14146130526E+02  0.39532416917E+02 -0.16315293466E+02  0.45045685665E+02  0.00000000000E+00 0.  1.
         11    1    3    3    0    0 -0.52508645071E+01 -0.13562876791E+02  0.14618501698E+01  0.14617120479E+02  0.51100000000E-03 0. -1.
        -11    1    3    3    0    0 -0.11477946302E+00  0.57097153672E-01 -0.17338900025E+00  0.21563491512E+00  0.51100000000E-03 0.  1.
         12    1    3    3    0    0 -0.87804865554E+01 -0.26026637279E+02  0.15026832296E+02  0.31309558941E+02  0.00000000000E+00 0. -1.
</event>
<event>
 7    1  0.1549900E-008  0.4614232E+02  0.7816164E-02  0.1320468E+00
        -11   -1    0    0    0    0  0.00000000000E+00  0.00000000000E+00  0.45593999997E+02  0.45594000000E+02  0.51100000000E-03 0.  1.
         11   -1    0    0    0    0 -0.00000000000E+00 -0.00000000000E+00 -0.45593999997E+02  0.45594000000E+02  0.51100000000E-03 0. -1.
    9900012    2    1    2    0    0 -0.35380672180E+02 -0.13562408825E+01 -0.27847479835E+02  0.46142317783E+02  0.10000000197E+02 0.  0.
        -12    1    1    2    0    0  0.35380672180E+02  0.13562408825E+01  0.27847479835E+02  0.45045682217E+02  0.00000000000E+00 0.  1.
         11    1    3    3    0    0 -0.28759164156E+02 -0.37422406810E+01 -0.20487859451E+02  0.35508397224E+02  0.51100000000E-03 0. -1.
        -11    1    3    3    0    0 -0.60321743007E+01  0.16015326245E+01 -0.73636483576E+01  0.96527380021E+01  0.51100000000E-03 0.  1.
         12    1    3    3    0    0 -0.58933372349E+00  0.78446717412E+00  0.40279737096E-02  0.98118255665E+00  0.00000000000E+00 0. -1.
</event>
<event>
 7    1  0.1549900E-008  0.4614232E+02  0.7816164E-02  0.1320468E+00
        -11   -1    0    0    0    0  0.00000000000E+00  0.00000000000E+00  0.45593999997E+02  0.45594000000E+02  0.51100000000E-03 0. -1.
         11   -1    0    0    0    0 -0.00000000000E+00 -0.00000000000E+00 -0.45593999997E+02  0.45594000000E+02  0.51100000000E-03 0.  1.
    9900012    2    1    2    0    0  0.11101504183E+02 -0.20291493019E+02  0.38653918585E+02  0.46142317565E+02  0.99999982138E+01 0.  0.
        -12    1    1    2    0    0 -0.11101504183E+02  0.20291493019E+02 -0.38653918585E+02  0.45045682435E+02  0.00000000000E+00 0.  1.
         11    1    3    3    0    0  0.58522797710E+01 -0.82373043187E+01  0.15545762800E+02  0.18541119229E+02  0.51100000000E-03 0. -1.
        -11    1    3    3    0    0  0.57079938192E+01 -0.42074586279E+01  0.90776532637E+01  0.11519014306E+02  0.51100000000E-03 0.  1.
         12    1    3    3    0    0 -0.45876940749E+00 -0.78467300728E+01  0.14030502521E+02  0.16082184031E+02  0.00000000000E+00 0. -1.
</event>
<event>
 7    1  0.1549900E-008  0.4614232E+02  0.7816164E-02  0.1320468E+00
        -11   -1    0    0    0    0  0.00000000000E+00  0.00000000000E+00  0.45593999997E+02  0.45594000000E+02  0.51100000000E-03 0.  1.
         11   -1    0    0    0    0 -0.00000000000E+00 -0.00000000000E+00 -0.45593999997E+02  0.45594000000E+02  0.51100000000E-03 0. -1.
    9900012    2    1    2    0    0 -0.37831180271E+02  0.23984580925E+02  0.47597534914E+01  0.46142316787E+02  0.99999911165E+01 0.  0.
        -12    1    1    2    0    0  0.37831180271E+02 -0.23984580925E+02 -0.47597534914E+01  0.45045683213E+02  0.00000000000E+00 0.  1.
         11    1    3    3    0    0 -0.86048797996E+01  0.57076627273E+01  0.63848102924E+00  0.10345483481E+02  0.51100000000E-03 0. -1.
        -11    1    3    3    0    0 -0.10126448532E+02  0.32028227559E+01  0.43160022814E+01  0.11464332053E+02  0.51100000000E-03 0.  1.
        -12    1    3    3    0    0 -0.19099851939E+02  0.15074095442E+02 -0.19472981928E+00  0.24332501252E+02  0.00000000000E+00 0.  1.
</event>
<event>
 7    1  0.1549900E-008  0.4614232E+02  0.7816164E-02  0.1320468E+00
        -11   -1    0    0    0    0  0.00000000000E+00  0.00000000000E+00  0.45593999997E+02  0.45594000000E+02  0.51100000000E-03 0.  1.
         11   -1    0    0    0    0 -0.00000000000E+00 -0.00000000000E+00 -0.45593999997E+02  0.45594000000E+02  0.51100000000E-03 0. -1.
    9900012    2    1    2    0    0  0.44259604977E+01  0.61038520086E+00 -0.44823565118E+02  0.46142315564E+02  0.99999799650E+01 0.  0.
        -12    1    1    2    0    0 -0.44259604977E+01 -0.61038520086E+00  0.44823565118E+02  0.45045684436E+02  0.00000000000E+00 0.  1.
         11    1    3    3    0    0 -0.72351813052E+00 -0.31773635347E+01 -0.10675477521E+02  0.11161762320E+02  0.51100000000E-03 0. -1.
        -11    1    3    3    0    0  0.33637058131E+01  0.14309880882E+00 -0.19114866167E+02  0.19409098457E+02  0.51100000000E-03 0.  1.
        -12    1    3    3    0    0  0.17857728151E+01  0.36446499268E+01 -0.15033221430E+02  0.15571454787E+02  0.00000000000E+00 0.  1.
</event>
<event>
 7    1  0.1549900E-008  0.4614232E+02  0.7816164E-02  0.1320468E+00
        -11   -1    0    0    0    0  0.00000000000E+00  0.00000000000E+00  0.45593999997E+02  0.45594000000E+02  0.51100000000E-03 0.  1.
         11   -1    0    0    0    0 -0.00000000000E+00 -0.00000000000E+00 -0.45593999997E+02  0.45594000000E+02  0.51100000000E-03 0. -1.
    9900012    2    1    2    0    0  0.95772208036E+00 -0.39046430160E+02  0.22440422152E+02  0.46142317785E+02  0.10000000220E+02 0.  0.
        -12    1    1    2    0    0 -0.95772208036E+00  0.39046430160E+02 -0.22440422152E+02  0.45045682215E+02  0.00000000000E+00 0.  1.
         11    1    3    3    0    0 -0.10893549295E+01 -0.81171428776E+01  0.19473847775E+01  0.84182545929E+01  0.51100000000E-03 0. -1.
        -11    1    3    3    0    0  0.21326068495E+01 -0.18270628755E+02  0.84170092871E+01  0.20228938001E+02  0.51100000000E-03 0.  1.
        -12    1    3    3    0    0 -0.85529839571E-01 -0.12658658528E+02  0.12076028088E+02  0.17495125191E+02  0.00000000000E+00 0.  1.
</event>
<event>
 7    1  0.1549900E-008  0.4614232E+02  0.7816164E-02  0.1320468E+00
        -11   -1    0    0    0    0  0.00000000000E+00  0.00000000000E+00  0.45593999997E+02  0.45594000000E+02  0.51100000000E-03 0.  1.
         11   -1    0    0    0    0 -0.00000000000E+00 -0.00000000000E+00 -0.45593999997E+02  0.45594000000E+02  0.51100000000E-03 0. -1.
    9900012    2    1    2    0    0 -0.49715997091E+01 -0.95148945874E+01 -0.43747726451E+02  0.46142316607E+02  0.99999894769E+01 0.  0.
        -12    1    1    2    0    0  0.49715997091E+01  0.95148945874E+01  0.43747726451E+02  0.45045683393E+02  0.00000000000E+00 0.  1.
         11    1    3    3    0    0 -0.65256669790E+00 -0.27446600364E+01 -0.62787655712E+01  0.68834511235E+01  0.51100000000E-03 0. -1.
        -11    1    3    3    0    0  0.23013244506E+01 -0.38449961520E+01 -0.14411386653E+02  0.15091989768E+02  0.51100000000E-03 0.  1.
         12    1    3    3    0    0 -0.66203574618E+01 -0.29252383991E+01 -0.23057574227E+02  0.24166875716E+02  0.00000000000E+00 0. -1.
</event>
<event>
 7    1  0.1549900E-008  0.4614232E+02  0.7816164E-02  0.1320468E+00
        -11   -1    0    0    0    0  0.00000000000E+00  0.00000000000E+00  0.45593999997E+02  0.45594000000E+02  0.51100000000E-03 0.  1.
         11   -1    0    0    0    0 -0.00000000000E+00 -0.00000000000E+00 -0.45593999997E+02  0.45594000000E+02  0.51100000000E-03 0. -1.
    9900012    2    1    2    0    0  0.41758229423E+02  0.48720056242E+01 -0.16174893671E+02  0.46142319313E+02  0.10000014149E+02 0.  0.
        -12    1    1    2    0    0 -0.41758229423E+02 -0.48720056242E+01  0.16174893671E+02  0.45045680687E+02  0.00000000000E+00 0.  1.
         11    1    3    3    0    0  0.27056156051E+02  0.63127100575E+01 -0.71714663036E+01  0.28693480405E+02  0.51100000000E-03 0. -1.
        -11    1    3    3    0    0  0.11365056618E+02 -0.33057976257E+00 -0.75213397203E+01  0.13632473963E+02  0.51100000000E-03 0.  1.
         12    1    3    3    0    0  0.33370167536E+01 -0.11101246708E+01 -0.14820876466E+01  0.38163649446E+01  0.00000000000E+00 0. -1.
</event>
<event>
 7    1  0.1549900E-008  0.4614232E+02  0.7816164E-02  0.1320468E+00
        -11   -1    0    0    0    0  0.00000000000E+00  0.00000000000E+00  0.45593999997E+02  0.45594000000E+02  0.51100000000E-03 0.  1.
         11   -1    0    0    0    0 -0.00000000000E+00 -0.00000000000E+00 -0.45593999997E+02  0.45594000000E+02  0.51100000000E-03 0. -1.
    9900012    2    1    2    0    0 -0.30107394557E+02 -0.21643923681E+02 -0.25577312725E+02  0.46142316904E+02  0.99999921861E+01 0.  0.
        -12    1    1    2    0    0  0.30107394557E+02  0.21643923681E+02  0.25577312725E+02  0.45045683096E+02  0.00000000000E+00 0.  1.
         11    1    3    3    0    0 -0.73208857110E+01 -0.12204517325E+01 -0.73502409793E+01  0.10445616915E+02  0.51100000000E-03 0. -1.
        -11    1    3    3    0    0 -0.15384077394E+02 -0.12267297886E+02 -0.11865000955E+02  0.22976829255E+02  0.51100000000E-03 0.  1.
         12    1    3    3    0    0 -0.74024314517E+01 -0.81561740629E+01 -0.63620707910E+01  0.12719870734E+02  0.00000000000E+00 0. -1.
</event>
<event>
 7    1  0.1549900E-008  0.4614232E+02  0.7816164E-02  0.1320468E+00
        -11   -1    0    0    0    0  0.00000000000E+00  0.00000000000E+00  0.45593999997E+02  0.45594000000E+02  0.51100000000E-03 0.  1.
         11   -1    0    0    0    0 -0.00000000000E+00 -0.00000000000E+00 -0.45593999997E+02  0.45594000000E+02  0.51100000000E-03 0. -1.
    9900012    2    1    2    0    0 -0.19932591922E+02  0.31110447855E+02 -0.25767139790E+02  0.46142315641E+02  0.99999806642E+01 0.  0.
        -12    1    1    2    0    0  0.19932591922E+02 -0.31110447855E+02  0.25767139790E+02  0.45045684359E+02  0.00000000000E+00 0.  1.
         11    1    3    3    0    0 -0.78637380729E+01  0.90402413564E+01 -0.10510068492E+02  0.15938189365E+02  0.51100000000E-03 0. -1.
        -11    1    3    3    0    0 -0.33959822974E+00 -0.49640688748E+00 -0.60274830244E+00  0.85150016605E+00  0.51100000000E-03 0.  1.
         12    1    3    3    0    0 -0.11729255619E+02  0.22566613386E+02 -0.14654322995E+02  0.29352626110E+02  0.00000000000E+00 0. -1.
</event>
<event>
 7    1  0.1549900E-008  0.4614232E+02  0.7816164E-02  0.1320468E+00
        -11   -1    0    0    0    0  0.00000000000E+00  0.00000000000E+00  0.45593999997E+02  0.45594000000E+02  0.51100000000E-03 0.  1.
         11   -1    0    0    0    0 -0.00000000000E+00 -0.00000000000E+00 -0.45593999997E+02  0.45594000000E+02  0.51100000000E-03 0. -1.
    9900012    2    1    2    0    0  0.17434534458E+02 -0.26541251984E+01 -0.41450043067E+02  0.46142318269E+02  0.10000004632E+02 0.  0.
        -12    1    1    2    0    0 -0.17434534458E+02  0.26541251984E+01  0.41450043067E+02  0.45045681731E+02  0.00000000000E+00 0.  1.
         11    1    3    3    0    0  0.94463268026E+01 -0.39700888134E+01 -0.28805113239E+02  0.30573342052E+02  0.51100000000E-03 0. -1.
        -11    1    3    3    0    0  0.71454383276E+01  0.12943560826E+01 -0.78229543354E+01  0.10673858785E+02  0.51100000000E-03 0.  1.
        -12    1    3    3    0    0  0.84276932818E+00  0.21607532422E-01 -0.48219754926E+01  0.48951174325E+01  0.00000000000E+00 0.  1.
</event>
<event>
 7    1  0.1549900E-008  0.4614231E+02  0.7816164E-02  0.1320468E+00
        -11   -1    0    0    0    0  0.00000000000E+00  0.00000000000E+00  0.45593999997E+02  0.45594000000E+02  0.51100000000E-03 0. -1.
         11   -1    0    0    0    0 -0.00000000000E+00 -0.00000000000E+00 -0.45593999997E+02  0.45594000000E+02  0.51100000000E-03 0.  1.
    9900012    2    1    2    0    0 -0.37607207945E+02 -0.15736971767E+02  0.19161407062E+02  0.46142313298E+02  0.99999593048E+01 0.  0.
        -12    1    1    2    0    0  0.37607207945E+02  0.15736971767E+02 -0.19161407062E+02  0.45045686702E+02  0.00000000000E+00 0.  1.
         11    1    3    3    0    0 -0.11758509856E+02 -0.22499280010E+01  0.63228294860E+01  0.13538940247E+02  0.51100000000E-03 0. -1.
        -11    1    3    3    0    0 -0.85733514881E+01 -0.11378347318E+01  0.26156454035E+01  0.90354094957E+01  0.51100000000E-03 0.  1.
        -12    1    3    3    0    0 -0.17275346601E+02 -0.12349209034E+02  0.10222932173E+02  0.23567963556E+02  0.00000000000E+00 0.  1.
</event>
<event>
 7    1  0.1549900E-008  0.4614232E+02  0.7816164E-02  0.1320468E+00
        -11   -1    0    0    0    0  0.00000000000E+00  0.00000000000E+00  0.45593999997E+02  0.45594000000E+02  0.51100000000E-03 0. -1.
         11   -1    0    0    0    0 -0.00000000000E+00 -0.00000000000E+00 -0.45593999997E+02  0.45594000000E+02  0.51100000000E-03 0.  1.
    9900012    2    1    2    0    0  0.27367199034E+02 -0.20618670637E+02  0.29240728657E+02  0.46142319028E+02  0.10000011554E+02 0.  0.
        -12    1    1    2    0    0 -0.27367199034E+02  0.20618670637E+02 -0.29240728657E+02  0.45045680972E+02  0.00000000000E+00 0.  1.
         11    1    3    3    0    0  0.69011959716E+01 -0.23194497868E+01  0.24049341622E+01  0.76674677527E+01  0.51100000000E-03 0. -1.
        -11    1    3    3    0    0  0.10705376595E+02 -0.11257414424E+02  0.15210318018E+02  0.21741394666E+02  0.51100000000E-03 0.  1.
         12    1    3    3    0    0  0.97606264666E+01 -0.70418064267E+01  0.11625476477E+02  0.16733456609E+02  0.00000000000E+00 0. -1.
</event>
<event>
 7    1  0.1549900E-008  0.4614232E+02  0.7816164E-02  0.1320468E+00
        -11   -1    0    0    0    0  0.00000000000E+00  0.00000000000E+00  0.45593999997E+02  0.45594000000E+02  0.51100000000E-03 0.  1.
         11   -1    0    0    0    0 -0.00000000000E+00 -0.00000000000E+00 -0.45593999997E+02  0.45594000000E+02  0.51100000000E-03 0. -1.
    9900012    2    1    2    0    0 -0.18246970573E+02 -0.32463676868E+02 -0.25343070100E+02  0.46142318153E+02  0.10000003576E+02 0.  0.
        -12    1    1    2    0    0  0.18246970573E+02  0.32463676868E+02  0.25343070100E+02  0.45045681847E+02  0.00000000000E+00 0.  1.
         11    1    3    3    0    0 -0.12651873401E+02 -0.23099190506E+02 -0.17218115327E+02  0.31465949823E+02  0.51100000000E-03 0. -1.
        -11    1    3    3    0    0 -0.25928184949E+01 -0.63938634515E+01 -0.19045642816E+01  0.71576227162E+01  0.51100000000E-03 0.  1.
        -12    1    3    3    0    0 -0.30022786769E+01 -0.29706229105E+01 -0.62203904922E+01  0.75187456138E+01  0.00000000000E+00 0.  1.
</event>
<event>
 7    1  0.1549900E-008  0.4614232E+02  0.7816164E-02  0.1320468E+00
        -11   -1    0    0    0    0  0.00000000000E+00  0.00000000000E+00  0.45593999997E+02  0.45594000000E+02  0.51100000000E-03 0. -1.
         11   -1    0    0    0    0 -0.00000000000E+00 -0.00000000000E+00 -0.45593999997E+02  0.45594000000E+02  0.51100000000E-03 0.  1.
    9900012    2    1    2    0    0  0.59174641857E+01 -0.34540872659E+02  0.28302389647E+02  0.46142317341E+02  0.99999961702E+01 0.  0.
        -12    1    1    2    0    0 -0.59174641857E+01  0.34540872659E+02 -0.28302389647E+02  0.45045682659E+02  0.00000000000E+00 0.  1.
         11    1    3    3    0    0  0.29584559872E+01 -0.53259786614E+01  0.55661894445E+01  0.82523315325E+01  0.51100000000E-03 0. -1.
        -11    1    3    3    0    0  0.26990606553E+01 -0.23934842553E+02  0.14534098477E+02  0.28131861568E+02  0.51100000000E-03 0.  1.
         12    1    3    3    0    0  0.25994754315E+00 -0.52800514452E+01  0.82021017253E+01  0.97581242409E+01  0.00000000000E+00 0. -1.
</event>
<event>
 7    1  0.1549900E-008  0.4614232E+02  0.7816164E-02  0.1320468E+00
        -11   -1    0    0    0    0  0.00000000000E+00  0.00000000000E+00  0.45593999997E+02  0.45594000000E+02  0.51100000000E-03 0. -1.
         11   -1    0    0    0    0 -0.00000000000E+00 -0.00000000000E+00 -0.45593999997E+02  0.45594000000E+02  0.51100000000E-03 0.  1.
    9900012    2    1    2    0    0 -0.34571712709E+02 -0.71306570869E+01  0.27983278634E+02  0.46142317929E+02  0.10000001529E+02 0.  0.
        -12    1    1    2    0    0  0.34571712709E+02  0.71306570869E+01 -0.27983278634E+02  0.45045682071E+02  0.00000000000E+00 0.  1.
         11    1    3    3    0    0 -0.21570458045E+02 -0.22372352013E+01  0.16107203101E+02  0.27013549815E+02  0.51100000000E-03 0. -1.
        -11    1    3    3    0    0 -0.47024352884E+01 -0.34456201546E+01  0.78875728907E+01  0.98081090052E+01  0.51100000000E-03 0.  1.
         12    1    3    3    0    0 -0.82988193759E+01 -0.14478017310E+01  0.39885026422E+01  0.93206591083E+01  0.00000000000E+00 0. -1.
</event>
<event>
 7    1  0.1549900E-008  0.4614232E+02  0.7816164E-02  0.1320468E+00
        -11   -1    0    0    0    0  0.00000000000E+00  0.00000000000E+00  0.45593999997E+02  0.45594000000E+02  0.51100000000E-03 0.  1.
         11   -1    0    0    0    0 -0.00000000000E+00 -0.00000000000E+00 -0.45593999997E+02  0.45594000000E+02  0.51100000000E-03 0. -1.
    9900012    2    1    2    0    0  0.16115929744E+02  0.13608463561E+02 -0.39802010006E+02  0.46142317937E+02  0.10000001600E+02 0.  0.
        -12    1    1    2    0    0 -0.16115929744E+02 -0.13608463561E+02  0.39802010006E+02  0.45045682063E+02  0.00000000000E+00 0.  1.
         11    1    3    3    0    0  0.76037962311E+01  0.71553470189E+01 -0.22913170446E+02  0.25179954095E+02  0.51100000000E-03 0. -1.
        -11    1    3    3    0    0  0.32950263676E+01  0.37350973067E+01 -0.28445674345E+01  0.57358272991E+01  0.51100000000E-03 0.  1.
        -12    1    3    3    0    0  0.52171071452E+01  0.27180192357E+01 -0.14044272126E+02  0.15226536542E+02  0.00000000000E+00 0.  1.
</event>
<event>
 7    1  0.1549900E-008  0.4614232E+02  0.7816164E-02  0.1320468E+00
        -11   -1    0    0    0    0  0.00000000000E+00  0.00000000000E+00  0.45593999997E+02  0.45594000000E+02  0.51100000000E-03 0.  1.
         11   -1    0    0    0    0 -0.00000000000E+00 -0.00000000000E+00 -0.45593999997E+02  0.45594000000E+02  0.51100000000E-03 0. -1.
    9900012    2    1    2    0    0  0.81824742708E+01 -0.89627998198E+01 -0.43380050488E+02  0.46142318230E+02  0.10000004271E+02 0.  0.
        -12    1    1    2    0    0 -0.81824742708E+01  0.89627998198E+01  0.43380050488E+02  0.45045681770E+02  0.00000000000E+00 0.  1.
         11    1    3    3    0    0  0.13304994639E+01  0.99651352968E+00 -0.79616801423E+01  0.81333645552E+01  0.51100000000E-03 0. -1.
        -11    1    3    3    0    0  0.31743546879E+00  0.98207546210E+00 -0.22086984370E+01  0.24379471973E+01  0.51100000000E-03 0.  1.
         12    1    3    3    0    0  0.65345393382E+01 -0.10941388812E+02 -0.33209671909E+02  0.35571006477E+02  0.00000000000E+00 0. -1.
</event>
<event>
 7    1  0.1549900E-008  0.4614232E+02  0.7816164E-02  0.1320468E+00
        -11   -1    0    0    0    0  0.00000000000E+00  0.00000000000E+00  0.45593999997E+02  0.45594000000E+02  0.51100000000E-03 0.  1.
         11   -1    0    0    0    0 -0.00000000000E+00 -0.00000000000E+00 -0.45593999997E+02  0.45594000000E+02  0.51100000000E-03 0. -1.
    9900012    2    1    2    0    0  0.34011942351E+02 -0.18358441713E+02 -0.23135883527E+02  0.46142315287E+02  0.99999774432E+01 0.  0.
        -12    1    1    2    0    0 -0.34011942351E+02  0.18358441713E+02  0.23135883527E+02  0.45045684713E+02  0.00000000000E+00 0.  1.
         11    1    3    3    0    0  0.60234413503E+01 -0.47409699561E+01 -0.13972044520E+01  0.77917149824E+01  0.51100000000E-03 0. -1.
        -11    1    3    3    0    0  0.12718737137E+02 -0.40430082162E+01 -0.70114484964E+01  0.15075563010E+02  0.51100000000E-03 0.  1.
         12    1    3    3    0    0  0.15269763864E+02 -0.95744635410E+01 -0.14727230579E+02  0.23275037295E+02  0.00000000000E+00 0. -1.
</event>
<event>
 7    1  0.1549900E-008  0.4614232E+02  0.7816164E-02  0.1320468E+00
        -11   -1    0    0    0    0  0.00000000000E+00  0.00000000000E+00  0.45593999997E+02  0.45594000000E+02  0.51100000000E-03 0. -1.
         11   -1    0    0    0    0 -0.00000000000E+00 -0.00000000000E+00 -0.45593999997E+02  0.45594000000E+02  0.51100000000E-03 0.  1.
    9900012    2    1    2    0    0  0.37290450208E+02  0.11542384188E+02  0.22479077741E+02  0.46142320457E+02  0.10000024579E+02 0.  0.
        -12    1    1    2    0    0 -0.37290450208E+02 -0.11542384188E+02 -0.22479077741E+02  0.45045679543E+02  0.00000000000E+00 0.  1.
         11    1    3    3    0    0  0.26128317929E+02  0.77233314228E+01  0.10420641042E+02  0.29170680590E+02  0.51100000000E-03 0. -1.
        -11    1    3    3    0    0  0.46117580191E+01  0.11850816803E+01  0.60634657094E+01  0.77096269226E+01  0.51100000000E-03 0.  1.
         12    1    3    3    0    0  0.65503742594E+01  0.26339710851E+01  0.59949709895E+01  0.92620129443E+01  0.00000000000E+00 0. -1.
</event>
<event>
 7    1  0.1549900E-008  0.4614232E+02  0.7816164E-02  0.1320468E+00
        -11   -1    0    0    0    0  0.00000000000E+00  0.00000000000E+00  0.45593999997E+02  0.45594000000E+02  0.51100000000E-03 0.  1.
         11   -1    0    0    0    0 -0.00000000000E+00 -0.00000000000E+00 -0.45593999997E+02  0.45594000000E+02  0.51100000000E-03 0. -1.
    9900012    2    1    2    0    0 -0.31254022225E+02 -0.20218942078E+02 -0.25367184494E+02  0.46142316820E+02  0.99999914184E+01 0.  0.
        -12    1    1    2    0    0  0.31254022225E+02  0.20218942078E+02  0.25367184494E+02  0.45045683180E+02  0.00000000000E+00 0.  1.
         11    1    3    3    0    0 -0.11933547678E+02 -0.94869952460E+01 -0.64423916884E+01  0.16550439568E+02  0.51100000000E-03 0.  1.
        -11    1    3    3    0    0 -0.16580202381E+02 -0.81673904971E+01 -0.17832979357E+02  0.25683156573E+02  0.51100000000E-03 0. -1.
         12    1    3    3    0    0 -0.27402721657E+01 -0.25645563351E+01 -0.10918134486E+01  0.39087206787E+01  0.00000000000E+00 0. -1.
</event>
<event>
 7    1  0.1549900E-008  0.4614232E+02  0.7816164E-02  0.1320468E+00
        -11   -1    0    0    0    0  0.00000000000E+00  0.00000000000E+00  0.45593999997E+02  0.45594000000E+02  0.51100000000E-03 0.  1.
         11   -1    0    0    0    0 -0.00000000000E+00 -0.00000000000E+00 -0.45593999997E+02  0.45594000000E+02  0.51100000000E-03 0. -1.
    9900012    2    1    2    0    0 -0.30277426152E+02  0.12505609655E+02 -0.30919260755E+02  0.46142317711E+02  0.99999995440E+01 0.  0.
        -12    1    1    2    0    0  0.30277426152E+02 -0.12505609655E+02  0.30919260755E+02  0.45045682289E+02  0.00000000000E+00 0.  1.
         11    1    3    3    0    0 -0.15290072678E+02  0.75236557181E+01 -0.16707859217E+02  0.23865126812E+02  0.51100000000E-03 0. -1.
        -11    1    3    3    0    0 -0.13408292843E+02  0.55681591477E+01 -0.96976623698E+01  0.17459420637E+02  0.51100000000E-03 0.  1.
        -12    1    3    3    0    0 -0.15790606309E+01 -0.58620521127E+00 -0.45137391683E+01  0.48177702628E+01  0.00000000000E+00 0.  1.
</event>
<event>
 7    1  0.1549900E-008  0.4614232E+02  0.7816164E-02  0.1320468E+00
        -11   -1    0    0    0    0  0.00000000000E+00  0.00000000000E+00  0.45593999997E+02  0.45594000000E+02  0.51100000000E-03 0.  1.
         11   -1    0    0    0    0 -0.00000000000E+00 -0.00000000000E+00 -0.45593999997E+02  0.45594000000E+02  0.51100000000E-03 0. -1.
    9900012    2    1    2    0    0  0.42589387066E+00  0.23864421251E+02 -0.38202375812E+02  0.46142317577E+02  0.99999983251E+01 0.  0.
        -12    1    1    2    0    0 -0.42589387066E+00 -0.23864421251E+02  0.38202375812E+02  0.45045682423E+02  0.00000000000E+00 0.  1.
         11    1    3    3    0    0 -0.54400349798E+00  0.82271996178E+01 -0.14458288811E+02  0.16644064076E+02  0.51100000000E-03 0. -1.
        -11    1    3    3    0    0  0.26483213588E+01  0.14280088176E+02 -0.23025549141E+02  0.27223343620E+02  0.51100000000E-03 0.  1.
        -12    1    3    3    0    0 -0.16784239901E+01  0.13571334578E+01 -0.71853785883E+00  0.22749098812E+01  0.00000000000E+00 0.  1.
</event>
<event>
 7    1  0.1549900E-008  0.4614232E+02  0.7816164E-02  0.1320468E+00
        -11   -1    0    0    0    0  0.00000000000E+00  0.00000000000E+00  0.45593999997E+02  0.45594000000E+02  0.51100000000E-03 0. -1.
         11   -1    0    0    0    0 -0.00000000000E+00 -0.00000000000E+00 -0.45593999997E+02  0.45594000000E+02  0.51100000000E-03 0.  1.
    9900012    2    1    2    0    0 -0.43538392606E+02  0.63303269642E+00  0.11537810932E+02  0.46142318273E+02  0.10000004671E+02 0.  0.
        -12    1    1    2    0    0  0.43538392606E+02 -0.63303269642E+00 -0.11537810932E+02  0.45045681727E+02  0.00000000000E+00 0.  1.
         11    1    3    3    0    0 -0.17167816750E+02  0.23932183318E+01  0.58759149859E+01  0.18302672021E+02  0.51100000000E-03 0. -1.
        -11    1    3    3    0    0 -0.46143464635E+01  0.22517638662E+01  0.11191402547E+01  0.52550079890E+01  0.51100000000E-03 0.  1.
        -12    1    3    3    0    0 -0.21756229393E+02 -0.40119495016E+01  0.45427556915E+01  0.22584638263E+02  0.00000000000E+00 0.  1.
</event>
<event>
 7    1  0.1549900E-008  0.4614232E+02  0.7816164E-02  0.1320468E+00
        -11   -1    0    0    0    0  0.00000000000E+00  0.00000000000E+00  0.45593999997E+02  0.45594000000E+02  0.51100000000E-03 0. -1.
         11   -1    0    0    0    0 -0.00000000000E+00 -0.00000000000E+00 -0.45593999997E+02  0.45594000000E+02  0.51100000000E-03 0.  1.
    9900012    2    1    2    0    0  0.61008801341E+01  0.25594666790E+02  0.36562354739E+02  0.46142317736E+02  0.99999997753E+01 0.  0.
        -12    1    1    2    0    0 -0.61008801341E+01 -0.25594666790E+02 -0.36562354739E+02  0.45045682264E+02  0.00000000000E+00 0.  1.
         11    1    3    3    0    0  0.77539551483E+01  0.18589602011E+02  0.26899709317E+02  0.33604932450E+02  0.51100000000E-03 0. -1.
        -11    1    3    3    0    0 -0.48911497338E+00  0.64659457444E+00  0.35478737992E+01  0.36393305370E+01  0.51100000000E-03 0.  1.
         12    1    3    3    0    0 -0.11639600409E+01  0.63584702053E+01  0.61147716226E+01  0.88980547495E+01  0.00000000000E+00 0. -1.
</event>
<event>
 7    1  0.1549900E-008  0.4614232E+02  0.7816164E-02  0.1320468E+00
        -11   -1    0    0    0    0  0.00000000000E+00  0.00000000000E+00  0.45593999997E+02  0.45594000000E+02  0.51100000000E-03 0.  1.
         11   -1    0    0    0    0 -0.00000000000E+00 -0.00000000000E+00 -0.45593999997E+02  0.45594000000E+02  0.51100000000E-03 0. -1.
    9900012    2    1    2    0    0  0.44263650634E+02  0.82582432110E+01 -0.12822396986E+01  0.46142317776E+02  0.10000000135E+02 0.  0.
        -12    1    1    2    0    0 -0.44263650634E+02 -0.82582432110E+01  0.12822396986E+01  0.45045682224E+02  0.00000000000E+00 0.  1.
         11    1    3    3    0    0  0.26900432753E+01 -0.51174499538E+00 -0.33940062637E+00  0.27592406219E+01  0.51100000000E-03 0. -1.
        -11    1    3    3    0    0  0.26392020080E+02  0.28247907529E+01  0.26911243931E+01  0.26678836509E+02  0.51100000000E-03 0.  1.
        -12    1    3    3    0    0  0.15181587278E+02  0.59451974536E+01 -0.36339634653E+01  0.16704240645E+02  0.00000000000E+00 0.  1.
</event>
<event>
 7    1  0.1549900E-008  0.4614232E+02  0.7816164E-02  0.1320468E+00
        -11   -1    0    0    0    0  0.00000000000E+00  0.00000000000E+00  0.45593999997E+02  0.45594000000E+02  0.51100000000E-03 0. -1.
         11   -1    0    0    0    0 -0.00000000000E+00 -0.00000000000E+00 -0.45593999997E+02  0.45594000000E+02  0.51100000000E-03 0.  1.
    9900012    2    1    2    0    0  0.11710985829E+01 -0.44434438854E+02 -0.73022255772E+01  0.46142319557E+02  0.10000016379E+02 0.  0.
        -12    1    1    2    0    0 -0.11710985829E+01  0.44434438854E+02  0.73022255772E+01  0.45045680443E+02  0.00000000000E+00 0.  1.
         11    1    3    3    0    0  0.22676644194E+01 -0.12593765899E+02 -0.37084278193E+01  0.13322825473E+02  0.51100000000E-03 0.  1.
        -11    1    3    3    0    0 -0.13536877587E+00 -0.89169501986E+01 -0.42222975350E+01  0.98670219563E+01  0.51100000000E-03 0. -1.
         12    1    3    3    0    0 -0.96119706072E+00 -0.22923722756E+02  0.62849977712E+00  0.22952472128E+02  0.00000000000E+00 0. -1.
</event>
<event>
 7    1  0.1549900E-008  0.4614232E+02  0.7816164E-02  0.1320468E+00
        -11   -1    0    0    0    0  0.00000000000E+00  0.00000000000E+00  0.45593999997E+02  0.45594000000E+02  0.51100000000E-03 0.  1.
         11   -1    0    0    0    0 -0.00000000000E+00 -0.00000000000E+00 -0.45593999997E+02  0.45594000000E+02  0.51100000000E-03 0. -1.
    9900012    2    1    2    0    0  0.27748733253E+01  0.17803457593E+01 -0.44924869993E+02  0.46142317667E+02  0.99999991418E+01 0.  0.
        -12    1    1    2    0    0 -0.27748733253E+01 -0.17803457593E+01  0.44924869993E+02  0.45045682333E+02  0.00000000000E+00 0.  1.
         11    1    3    3    0    0  0.11035840383E+01 -0.12037729667E+01 -0.98914858151E+01  0.10025390714E+02  0.51100000000E-03 0. -1.
        -11    1    3    3    0    0 -0.11422300765E+01  0.23716252174E+01 -0.31557306128E+01  0.41094928740E+01  0.51100000000E-03 0.  1.
        -12    1    3    3    0    0  0.28135193635E+01  0.61249350857E+00 -0.31877653565E+02  0.32007434079E+02  0.00000000000E+00 0.  1.
</event>
<event>
 7    1  0.1549900E-008  0.4614232E+02  0.7816164E-02  0.1320468E+00
        -11   -1    0    0    0    0  0.00000000000E+00  0.00000000000E+00  0.45593999997E+02  0.45594000000E+02  0.51100000000E-03 0. -1.
         11   -1    0    0    0    0 -0.00000000000E+00 -0.00000000000E+00 -0.45593999997E+02  0.45594000000E+02  0.51100000000E-03 0.  1.
    9900012    2    1    2    0    0 -0.35845497363E+02  0.64259678088E+01  0.26512653126E+02  0.46142317418E+02  0.99999968730E+01 0.  0.
        -12    1    1    2    0    0  0.35845497363E+02 -0.64259678088E+01 -0.26512653126E+02  0.45045682582E+02  0.00000000000E+00 0.  1.
         11    1    3    3    0    0 -0.18386153997E+02  0.10754917296E+01  0.13510003532E+02  0.22841355848E+02  0.51100000000E-03 0. -1.
        -11    1    3    3    0    0 -0.17957116465E+02  0.53565940865E+01  0.12213277283E+02  0.22367728410E+02  0.51100000000E-03 0.  1.
         12    1    3    3    0    0  0.49777309896E+00 -0.61180073712E-02  0.78937231032E+00  0.93323316077E+00  0.00000000000E+00 0. -1.
</event>
<event>
 7    1  0.1549900E-008  0.4614232E+02  0.7816164E-02  0.1320468E+00
        -11   -1    0    0    0    0  0.00000000000E+00  0.00000000000E+00  0.45593999997E+02  0.45594000000E+02  0.51100000000E-03 0.  1.
         11   -1    0    0    0    0 -0.00000000000E+00 -0.00000000000E+00 -0.45593999997E+02  0.45594000000E+02  0.51100000000E-03 0. -1.
    9900012    2    1    2    0    0  0.41721047404E+02 -0.82534916806E+01  0.14844111399E+02  0.46142316915E+02  0.99999922812E+01 0.  0.
        -12    1    1    2    0    0 -0.41721047404E+02  0.82534916806E+01 -0.14844111399E+02  0.45045683085E+02  0.00000000000E+00 0.  1.
         11    1    3    3    0    0  0.82874242490E+01 -0.22385657354E+01 -0.48004584476E+00  0.85978498190E+01  0.51100000000E-03 0. -1.
        -11    1    3    3    0    0  0.76982952165E+01 -0.21240233785E+00  0.51737877155E+01  0.92777660878E+01  0.51100000000E-03 0.  1.
         12    1    3    3    0    0  0.25735327938E+02 -0.58025236074E+01  0.10150369528E+02  0.28266701008E+02  0.00000000000E+00 0. -1.
</event>
<event>
 7    1  0.1549900E-008  0.4614232E+02  0.7816164E-02  0.1320468E+00
        -11   -1    0    0    0    0  0.00000000000E+00  0.00000000000E+00  0.45593999997E+02  0.45594000000E+02  0.51100000000E-03 0.  1.
         11   -1    0    0    0    0 -0.00000000000E+00 -0.00000000000E+00 -0.45593999997E+02  0.45594000000E+02  0.51100000000E-03 0. -1.
    9900012    2    1    2    0    0 -0.14529239153E+02 -0.46064256642E+00 -0.42635694685E+02  0.46142318263E+02  0.10000004575E+02 0.  0.
        -12    1    1    2    0    0  0.14529239153E+02  0.46064256642E+00  0.42635694685E+02  0.45045681737E+02  0.00000000000E+00 0.  1.
         11    1    3    3    0    0 -0.94657911263E+01 -0.15642987429E+01 -0.14093995300E+02  0.17049602224E+02  0.51100000000E-03 0. -1.
        -11    1    3    3    0    0 -0.21085214842E+01 -0.63774628809E+00 -0.11599875564E+02  0.11807188341E+02  0.51100000000E-03 0.  1.
         12    1    3    3    0    0 -0.29549265425E+01  0.17414024645E+01 -0.16941823821E+02  0.17285527698E+02  0.00000000000E+00 0. -1.
</event>
<event>
 7    1  0.1737749E-008  0.4614232E+02  0.7816164E-02  0.1320468E+00
        -11   -1    0    0    0    0  0.00000000000E+00  0.00000000000E+00  0.45593999997E+02  0.45594000000E+02  0.51100000000E-03 0.  1.
         11   -1    0    0    0    0 -0.00000000000E+00 -0.00000000000E+00 -0.45593999997E+02  0.45594000000E+02  0.51100000000E-03 0. -1.
    9900012    2    1    2    0    0  0.31256176382E+02  0.30411747748E+02 -0.11282304334E+02  0.46142319250E+02  0.10000013577E+02 0.  0.
        -12    1    1    2    0    0 -0.31256176382E+02 -0.30411747748E+02  0.11282304334E+02  0.45045680750E+02  0.00000000000E+00 0.  1.
         11    1    3    3    0    0  0.11008687074E+02  0.95090039768E+01 -0.73897266649E+01  0.16316262077E+02  0.51100000000E-03 0. -1.
        -11    1    3    3    0    0 -0.21574093478E+00  0.84786039357E+00 -0.39967836146E+00  0.96184949533E+00  0.51100000000E-03 0.  1.
         12    1    3    3    0    0  0.20463230243E+02  0.20054883378E+02 -0.34928993077E+01  0.28864207678E+02  0.00000000000E+00 0. -1.
</event>
<event>
 7    1  0.1549900E-008  0.4614232E+02  0.7816164E-02  0.1320468E+00
        -11   -1    0    0    0    0  0.00000000000E+00  0.00000000000E+00  0.45593999997E+02  0.45594000000E+02  0.51100000000E-03 0. -1.
         11   -1    0    0    0    0 -0.00000000000E+00 -0.00000000000E+00 -0.45593999997E+02  0.45594000000E+02  0.51100000000E-03 0.  1.
    9900012    2    1    2    0    0 -0.30656898596E+02  0.29160611069E+02 -0.15457258396E+02  0.46142317559E+02  0.99999981550E+01 0.  0.
        -12    1    1    2    0    0  0.30656898596E+02 -0.29160611069E+02  0.15457258396E+02  0.45045682441E+02  0.00000000000E+00 0.  1.
         11    1    3    3    0    0 -0.24147833486E+02  0.23651600944E+02 -0.14827301528E+02  0.36910228395E+02  0.51100000000E-03 0. -1.
        -11    1    3    3    0    0 -0.46798251284E-01  0.13885430589E+01  0.51737893710E+00  0.14825394188E+01  0.51100000000E-03 0.  1.
        -12    1    3    3    0    0 -0.64622668596E+01  0.41204670658E+01 -0.11473358049E+01  0.77495497452E+01  0.00000000000E+00 0.  1.
</event>
<event>
 7    1  0.1549900E-008  0.4614232E+02  0.7816164E-02  0.1320468E+00
        -11   -1    0    0    0    0  0.00000000000E+00  0.00000000000E+00  0.45593999997E+02  0.45594000000E+02  0.51100000000E-03 0. -1.
         11   -1    0    0    0    0 -0.00000000000E+00 -0.00000000000E+00 -0.45593999997E+02  0.45594000000E+02  0.51100000000E-03 0.  1.
    9900012    2    1    2    0    0 -0.17908991519E+01 -0.41739138984E+02  0.16844890822E+02  0.46142318856E+02  0.10000009981E+02 0.  0.
        -12    1    1    2    0    0  0.17908991519E+01  0.41739138984E+02 -0.16844890822E+02  0.45045681144E+02  0.00000000000E+00 0.  1.
         11    1    3    3    0    0 -0.17583673029E+01 -0.27311149932E+01 -0.95287510570E-01  0.32496037679E+01  0.51100000000E-03 0.  1.
        -11    1    3    3    0    0 -0.22453679567E+01 -0.31298831776E+02  0.13792013013E+02  0.34276495897E+02  0.51100000000E-03 0. -1.
        -12    1    3    3    0    0  0.22128361077E+01 -0.77091922155E+01  0.31481653201E+01  0.86162191905E+01  0.00000000000E+00 0.  1.
</event>
<event>
 7    1  0.1549900E-008  0.4614232E+02  0.7816164E-02  0.1320468E+00
        -11   -1    0    0    0    0  0.00000000000E+00  0.00000000000E+00  0.45593999997E+02  0.45594000000E+02  0.51100000000E-03 0.  1.
         11   -1    0    0    0    0 -0.00000000000E+00 -0.00000000000E+00 -0.45593999997E+02  0.45594000000E+02  0.51100000000E-03 0. -1.
    9900012    2    1    2    0    0  0.21886115665E+02  0.27500472053E+02 -0.28175086208E+02  0.46142317578E+02  0.99999983294E+01 0.  0.
        -12    1    1    2    0    0 -0.21886115665E+02 -0.27500472053E+02  0.28175086208E+02  0.45045682422E+02  0.00000000000E+00 0.  1.
         11    1    3    3    0    0  0.76205027493E+01  0.14887266076E+02 -0.17754667364E+02  0.24391206753E+02  0.51100000000E-03 0. -1.
        -11    1    3    3    0    0  0.13316461806E+02  0.11883034981E+02 -0.93673571348E+01  0.20156439550E+02  0.51100000000E-03 0.  1.
        -12    1    3    3    0    0  0.94915110935E+00  0.73017099577E+00 -0.10530617092E+01  0.15946712749E+01  0.00000000000E+00 0.  1.
</event>
<event>
 7    1  0.1549900E-008  0.4614231E+02  0.7816164E-02  0.1320468E+00
        -11   -1    0    0    0    0  0.00000000000E+00  0.00000000000E+00  0.45593999997E+02  0.45594000000E+02  0.51100000000E-03 0.  1.
         11   -1    0    0    0    0 -0.00000000000E+00 -0.00000000000E+00 -0.45593999997E+02  0.45594000000E+02  0.51100000000E-03 0. -1.
    9900012    2    1    2    0    0 -0.32816432161E+02  0.33586093101E+00 -0.30855842930E+02  0.46142311358E+02  0.99999416067E+01 0.  0.
        -12    1    1    2    0    0  0.32816432161E+02 -0.33586093101E+00  0.30855842930E+02  0.45045688642E+02  0.00000000000E+00 0.  1.
         11    1    3    3    0    0 -0.18864121478E+02  0.35182719508E+00 -0.16705810924E+02  0.25200455956E+02  0.51100000000E-03 0. -1.
        -11    1    3    3    0    0 -0.24361647201E+01 -0.23392712069E+01 -0.15550337209E+01  0.37182278652E+01  0.51100000000E-03 0.  1.
        -12    1    3    3    0    0 -0.11516145963E+02  0.23233049429E+01 -0.12594998286E+02  0.17223627536E+02  0.00000000000E+00 0.  1.
</event>
<event>
 7    1  0.1549900E-008  0.4614232E+02  0.7816164E-02  0.1320468E+00
        -11   -1    0    0    0    0  0.00000000000E+00  0.00000000000E+00  0.45593999997E+02  0.45594000000E+02  0.51100000000E-03 0. -1.
         11   -1    0    0    0    0 -0.00000000000E+00 -0.00000000000E+00 -0.45593999997E+02  0.45594000000E+02  0.51100000000E-03 0.  1.
    9900012    2    1    2    0    0  0.11149683626E+02  0.28412559463E+02  0.33128906764E+02  0.46142318258E+02  0.10000004532E+02 0.  0.
        -12    1    1    2    0    0 -0.11149683626E+02 -0.28412559463E+02 -0.33128906764E+02  0.45045681742E+02  0.00000000000E+00 0.  1.
         11    1    3    3    0    0 -0.44699711484E-01  0.13189912529E+02  0.14007618162E+02  0.19240300346E+02  0.51100000000E-03 0. -1.
        -11    1    3    3    0    0  0.10752181591E+02  0.14871379461E+02  0.18672059248E+02  0.26180395965E+02  0.51100000000E-03 0.  1.
        -12    1    3    3    0    0  0.44220174578E+00  0.35126747275E+00  0.44922935462E+00  0.72162194704E+00  0.00000000000E+00 0.  1.
</event>
<event>
 7    1  0.1549900E-008  0.4614232E+02  0.7816164E-02  0.1320468E+00
        -11   -1    0    0    0    0  0.00000000000E+00  0.00000000000E+00  0.45593999997E+02  0.45594000000E+02  0.51100000000E-03 0.  1.
         11   -1    0    0    0    0 -0.00000000000E+00 -0.00000000000E+00 -0.45593999997E+02  0.45594000000E+02  0.51100000000E-03 0. -1.
    9900012    2    1    2    0    0  0.35602038444E+02  0.21877020066E+02 -0.16822724795E+02  0.46142320764E+02  0.10000027379E+02 0.  0.
        -12    1    1    2    0    0 -0.35602038444E+02 -0.21877020066E+02  0.16822724795E+02  0.45045679236E+02  0.00000000000E+00 0.  1.
         11    1    3    3    0    0  0.16466891993E+02  0.71419372792E+01 -0.37571863814E+01  0.18338000158E+02  0.51100000000E-03 0. -1.
        -11    1    3    3    0    0  0.40708325127E+01  0.40429203529E+01 -0.51393005980E+01  0.77025510854E+01  0.51100000000E-03 0.  1.
        -12    1    3    3    0    0  0.15064313938E+02  0.10692162434E+02 -0.79262378157E+01  0.20101769520E+02  0.00000000000E+00 0.  1.
</event>
<event>
 7    1  0.1549900E-008  0.4614232E+02  0.7816164E-02  0.1320468E+00
        -11   -1    0    0    0    0  0.00000000000E+00  0.00000000000E+00  0.45593999997E+02  0.45594000000E+02  0.51100000000E-03 0.  1.
         11   -1    0    0    0    0 -0.00000000000E+00 -0.00000000000E+00 -0.45593999997E+02  0.45594000000E+02  0.51100000000E-03 0. -1.
    9900012    2    1    2    0    0 -0.16777731971E+02  0.21173901487E+02 -0.36045625412E+02  0.46142317570E+02  0.99999982575E+01 0.  0.
        -12    1    1    2    0    0  0.16777731971E+02 -0.21173901487E+02  0.36045625412E+02  0.45045682430E+02  0.00000000000E+00 0.  1.
         11    1    3    3    0    0 -0.12225829211E+02  0.10593412044E+02 -0.25382997377E+02  0.30099631804E+02  0.51100000000E-03 0. -1.
        -11    1    3    3    0    0 -0.50139976957E+01  0.10211076745E+02 -0.10318274355E+02  0.15358158975E+02  0.51100000000E-03 0.  1.
        -12    1    3    3    0    0  0.46209493557E+00  0.36941269825E+00 -0.34435367997E+00  0.68452679131E+00  0.00000000000E+00 0.  1.
</event>
<event>
 7    1  0.1549900E-008  0.4614232E+02  0.7816164E-02  0.1320468E+00
        -11   -1    0    0    0    0  0.00000000000E+00  0.00000000000E+00  0.45593999997E+02  0.45594000000E+02  0.51100000000E-03 0.  1.
         11   -1    0    0    0    0 -0.00000000000E+00 -0.00000000000E+00 -0.45593999997E+02  0.45594000000E+02  0.51100000000E-03 0. -1.
    9900012    2    1    2    0    0  0.41557339234E+02 -0.17161051270E+02 -0.27566910008E+01  0.46142317963E+02  0.10000001843E+02 0.  0.
        -12    1    1    2    0    0 -0.41557339234E+02  0.17161051270E+02  0.27566910008E+01  0.45045682037E+02  0.00000000000E+00 0.  1.
         11    1    3    3    0    0  0.96715866033E+01 -0.59728629422E+01  0.29381685947E+01  0.11740848100E+02  0.51100000000E-03 0. -1.
        -11    1    3    3    0    0  0.24182320896E+02 -0.79701076310E+01 -0.30497531373E+01  0.25643873616E+02  0.51100000000E-03 0.  1.
         12    1    3    3    0    0  0.77034317340E+01 -0.32180806971E+01 -0.26451064581E+01  0.87575962472E+01  0.00000000000E+00 0. -1.
</event>
<event>
 7    1  0.1549900E-008  0.4614232E+02  0.7816164E-02  0.1320468E+00
        -11   -1    0    0    0    0  0.00000000000E+00  0.00000000000E+00  0.45593999997E+02  0.45594000000E+02  0.51100000000E-03 0.  1.
         11   -1    0    0    0    0 -0.00000000000E+00 -0.00000000000E+00 -0.45593999997E+02  0.45594000000E+02  0.51100000000E-03 0. -1.
    9900012    2    1    2    0    0 -0.37845097750E+02 -0.24132537282E+02  0.38056205018E+01  0.46142317335E+02  0.99999961124E+01 0.  0.
        -12    1    1    2    0    0  0.37845097750E+02  0.24132537282E+02 -0.38056205018E+01  0.45045682665E+02  0.00000000000E+00 0.  1.
         11    1    3    3    0    0 -0.11393453107E+02 -0.66407059959E+01  0.20644856497E+01  0.13348102902E+02  0.51100000000E-03 0. -1.
        -11    1    3    3    0    0 -0.12675525215E+02 -0.10119942558E+02  0.47106178333E+01  0.16889999925E+02  0.51100000000E-03 0.  1.
        -12    1    3    3    0    0 -0.13776119428E+02 -0.73718887282E+01 -0.29694829812E+01  0.15904214507E+02  0.00000000000E+00 0.  1.
</event>
<event>
 7    1  0.1549900E-008  0.4614232E+02  0.7816164E-02  0.1320468E+00
        -11   -1    0    0    0    0  0.00000000000E+00  0.00000000000E+00  0.45593999997E+02  0.45594000000E+02  0.51100000000E-03 0.  1.
         11   -1    0    0    0    0 -0.00000000000E+00 -0.00000000000E+00 -0.45593999997E+02  0.45594000000E+02  0.51100000000E-03 0. -1.
    9900012    2    1    2    0    0 -0.13078358621E+02  0.34457196881E+02 -0.25899259012E+02  0.46142317648E+02  0.99999989720E+01 0.  0.
        -12    1    1    2    0    0  0.13078358621E+02 -0.34457196881E+02  0.25899259012E+02  0.45045682352E+02  0.00000000000E+00 0.  1.
         11    1    3    3    0    0 -0.82469388621E+01  0.25975072003E+02 -0.13999050571E+02  0.30638044704E+02  0.51100000000E-03 0. -1.
        -11    1    3    3    0    0 -0.19780632025E+00 -0.15677725712E-01 -0.56540877367E+00  0.59921655007E+00  0.51100000000E-03 0.  1.
         12    1    3    3    0    0 -0.46336134383E+01  0.84978026039E+01 -0.11334799668E+02  0.14905056394E+02  0.00000000000E+00 0. -1.
</event>
<event>
 7    1  0.1549900E-008  0.4614232E+02  0.7816164E-02  0.1320468E+00
        -11   -1    0    0    0    0  0.00000000000E+00  0.00000000000E+00  0.45593999997E+02  0.45594000000E+02  0.51100000000E-03 0.  1.
         11   -1    0    0    0    0 -0.00000000000E+00 -0.00000000000E+00 -0.45593999997E+02  0.45594000000E+02  0.51100000000E-03 0. -1.
    9900012    2    1    2    0    0 -0.21173707045E+02  0.12857625843E+02 -0.37622721075E+02  0.46142317039E+02  0.99999934158E+01 0.  0.
        -12    1    1    2    0    0  0.21173707045E+02 -0.12857625843E+02  0.37622721075E+02  0.45045682961E+02  0.00000000000E+00 0.  1.
         11    1    3    3    0    0 -0.12607412832E+02  0.12255425913E+02 -0.20847404140E+02  0.27271900966E+02  0.51100000000E-03 0. -1.
        -11    1    3    3    0    0 -0.59527736117E+01 -0.24412361791E-01 -0.11397723203E+02  0.12858623725E+02  0.51100000000E-03 0.  1.
         12    1    3    3    0    0 -0.26135206007E+01  0.62661229195E+00 -0.53775937315E+01  0.60117923481E+01  0.00000000000E+00 0. -1.
</event>
<event>
 7    1  0.1549900E-008  0.4614232E+02  0.7816164E-02  0.1320468E+00
        -11   -1    0    0    0    0  0.00000000000E+00  0.00000000000E+00  0.45593999997E+02  0.45594000000E+02  0.51100000000E-03 0.  1.
         11   -1    0    0    0    0 -0.00000000000E+00 -0.00000000000E+00 -0.45593999997E+02  0.45594000000E+02  0.51100000000E-03 0. -1.
    9900012    2    1    2    0    0 -0.15774861787E+02 -0.39257554681E+02  0.15463231814E+02  0.46142318719E+02  0.10000008733E+02 0.  0.
        -12    1    1    2    0    0  0.15774861787E+02  0.39257554681E+02 -0.15463231814E+02  0.45045681281E+02  0.00000000000E+00 0.  1.
         11    1    3    3    0    0 -0.63937575856E+01 -0.25525615247E+02  0.60837559001E+01  0.27008318273E+02  0.51100000000E-03 0. -1.
        -11    1    3    3    0    0 -0.56037991691E+01 -0.85711646973E+01  0.51121673383E+01  0.11445596732E+02  0.51100000000E-03 0.  1.
         12    1    3    3    0    0 -0.37773050326E+01 -0.51607747368E+01  0.42673085752E+01  0.76884037140E+01  0.00000000000E+00 0. -1.
</event>
<event>
 7    1  0.1549900E-008  0.4614232E+02  0.7816164E-02  0.1320468E+00
        -11   -1    0    0    0    0  0.00000000000E+00  0.00000000000E+00  0.45593999997E+02  0.45594000000E+02  0.51100000000E-03 0. -1.
         11   -1    0    0    0    0 -0.00000000000E+00 -0.00000000000E+00 -0.45593999997E+02  0.45594000000E+02  0.51100000000E-03 0.  1.
    9900012    2    1    2    0    0  0.40172822476E+02 -0.10903563651E+02 -0.17215404131E+02  0.46142317572E+02  0.99999982780E+01 0.  0.
        -12    1    1    2    0    0 -0.40172822476E+02  0.10903563651E+02  0.17215404131E+02  0.45045682428E+02  0.00000000000E+00 0.  1.
         11    1    3    3    0    0  0.26815608486E+02 -0.95091980928E+01 -0.14755174134E+02  0.32050224193E+02  0.51100000000E-03 0. -1.
        -11    1    3    3    0    0  0.65710551851E+01  0.83522478991E+00 -0.30479612502E+00  0.66309326368E+01  0.51100000000E-03 0.  1.
        -12    1    3    3    0    0  0.67861588054E+01 -0.22295903482E+01 -0.21554338721E+01  0.74611607428E+01  0.00000000000E+00 0.  1.
</event>
<event>
 7    1  0.1549900E-008  0.4614232E+02  0.7816164E-02  0.1320468E+00
        -11   -1    0    0    0    0  0.00000000000E+00  0.00000000000E+00  0.45593999997E+02  0.45594000000E+02  0.51100000000E-03 0. -1.
         11   -1    0    0    0    0 -0.00000000000E+00 -0.00000000000E+00 -0.45593999997E+02  0.45594000000E+02  0.51100000000E-03 0.  1.
    9900012    2    1    2    0    0  0.19409246296E+02  0.66132357267E+01  0.40108100724E+02  0.46142317940E+02  0.10000001636E+02 0.  0.
        -12    1    1    2    0    0 -0.19409246296E+02 -0.66132357267E+01 -0.40108100724E+02  0.45045682060E+02  0.00000000000E+00 0.  1.
         11    1    3    3    0    0  0.18003870374E+02  0.69797848549E+01  0.33519758448E+02  0.38683729807E+02  0.51100000000E-03 0. -1.
        -11    1    3    3    0    0  0.15493681663E+01  0.70558450218E+00  0.59797596451E+01  0.62173882683E+01  0.51100000000E-03 0.  1.
         12    1    3    3    0    0 -0.14399224503E+00 -0.10721336304E+01  0.60858263068E+00  0.12411998656E+01  0.00000000000E+00 0. -1.
</event>
<event>
 7    1  0.1549900E-008  0.4614232E+02  0.7816164E-02  0.1320468E+00
        -11   -1    0    0    0    0  0.00000000000E+00  0.00000000000E+00  0.45593999997E+02  0.45594000000E+02  0.51100000000E-03 0.  1.
         11   -1    0    0    0    0 -0.00000000000E+00 -0.00000000000E+00 -0.45593999997E+02  0.45594000000E+02  0.51100000000E-03 0. -1.
    9900012    2    1    2    0    0 -0.34533537703E+02  0.20631461046E+02 -0.20270449635E+02  0.46142317193E+02  0.99999948187E+01 0.  0.
        -12    1    1    2    0    0  0.34533537703E+02 -0.20631461046E+02  0.20270449635E+02  0.45045682807E+02  0.00000000000E+00 0.  1.
         11    1    3    3    0    0 -0.11077059685E+02  0.33006718767E+01 -0.70985266721E+01  0.13564098469E+02  0.51100000000E-03 0.  1.
        -11    1    3    3    0    0 -0.21209700540E+02  0.14170883153E+02 -0.13155940745E+02  0.28700942554E+02  0.51100000000E-03 0. -1.
        -12    1    3    3    0    0 -0.22467774779E+01  0.31599060162E+01 -0.15982217343E-01  0.38772761699E+01  0.00000000000E+00 0.  1.
</event>
<event>
 7    1  0.1549900E-008  0.4614232E+02  0.7816164E-02  0.1320468E+00
        -11   -1    0    0    0    0  0.00000000000E+00  0.00000000000E+00  0.45593999997E+02  0.45594000000E+02  0.51100000000E-03 0.  1.
         11   -1    0    0    0    0 -0.00000000000E+00 -0.00000000000E+00 -0.45593999997E+02  0.45594000000E+02  0.51100000000E-03 0. -1.
    9900012    2    1    2    0    0  0.31935685433E+01 -0.27465691868E+02 -0.35560517904E+02  0.46142317150E+02  0.99999944288E+01 0.  0.
        -12    1    1    2    0    0 -0.31935685433E+01  0.27465691868E+02  0.35560517904E+02  0.45045682850E+02  0.00000000000E+00 0.  1.
         11    1    3    3    0    0  0.23878888644E+01 -0.18980903138E+02 -0.20598900660E+02  0.28112122044E+02  0.51100000000E-03 0. -1.
        -11    1    3    3    0    0  0.20587859363E+01 -0.69926172241E+00 -0.33708136423E+01  0.40112281610E+01  0.51100000000E-03 0.  1.
        -12    1    3    3    0    0 -0.12531062574E+01 -0.77855270078E+01 -0.11590803601E+02  0.14018966945E+02  0.00000000000E+00 0.  1.
</event>
<event>
 7    1  0.1549900E-008  0.4614232E+02  0.7816164E-02  0.1320468E+00
        -11   -1    0    0    0    0  0.00000000000E+00  0.00000000000E+00  0.45593999997E+02  0.45594000000E+02  0.51100000000E-03 0. -1.
         11   -1    0    0    0    0 -0.00000000000E+00 -0.00000000000E+00 -0.45593999997E+02  0.45594000000E+02  0.51100000000E-03 0.  1.
    9900012    2    1    2    0    0  0.23862959610E+02  0.96444326739E+01  0.36968332274E+02  0.46142317476E+02  0.99999973966E+01 0.  0.
        -12    1    1    2    0    0 -0.23862959610E+02 -0.96444326739E+01 -0.36968332274E+02  0.45045682524E+02  0.00000000000E+00 0.  1.
         11    1    3    3    0    0 -0.40114385509E-01  0.21296856602E+00  0.26123448029E+01  0.26213184477E+01  0.51100000000E-03 0. -1.
        -11    1    3    3    0    0  0.96996184732E+01  0.22853219376E+00  0.10837764163E+02  0.14546200803E+02  0.51100000000E-03 0.  1.
        -12    1    3    3    0    0  0.14203455522E+02  0.92029319141E+01  0.23518223308E+02  0.28974798224E+02  0.00000000000E+00 0.  1.
</event>
<event>
 7    1  0.1788643E-008  0.4614232E+02  0.7816164E-02  0.1320468E+00
        -11   -1    0    0    0    0  0.00000000000E+00  0.00000000000E+00  0.45593999997E+02  0.45594000000E+02  0.51100000000E-03 0.  1.
         11   -1    0    0    0    0 -0.00000000000E+00 -0.00000000000E+00 -0.45593999997E+02  0.45594000000E+02  0.51100000000E-03 0. -1.
    9900012    2    1    2    0    0  0.85101209684E+01  0.44160678584E+02 -0.25545798204E+01  0.46142316855E+02  0.99999917411E+01 0.  0.
        -12    1    1    2    0    0 -0.85101209684E+01 -0.44160678584E+02  0.25545798204E+01  0.45045683145E+02  0.00000000000E+00 0.  1.
         11    1    3    3    0    0  0.21590438662E+01  0.31796120663E+01  0.14756881901E+01  0.41169235121E+01  0.51100000000E-03 0. -1.
        -11    1    3    3    0    0  0.88361081519E+00  0.61620567710E+01 -0.26129741347E+01  0.67512477226E+01  0.51100000000E-03 0.  1.
         12    1    3    3    0    0  0.54674662869E+01  0.34819009747E+02 -0.14172938759E+01  0.35274145621E+02  0.00000000000E+00 0. -1.
</event>
<event>
 7    1  0.1549900E-008  0.4614232E+02  0.7816164E-02  0.1320468E+00
        -11   -1    0    0    0    0  0.00000000000E+00  0.00000000000E+00  0.45593999997E+02  0.45594000000E+02  0.51100000000E-03 0.  1.
         11   -1    0    0    0    0 -0.00000000000E+00 -0.00000000000E+00 -0.45593999997E+02  0.45594000000E+02  0.51100000000E-03 0. -1.
    9900012    2    1    2    0    0 -0.49022996847E+01  0.70129418370E+01 -0.44225553806E+02  0.46142317579E+02  0.99999983353E+01 0.  0.
        -12    1    1    2    0    0  0.49022996847E+01 -0.70129418370E+01  0.44225553806E+02  0.45045682421E+02  0.00000000000E+00 0.  1.
         11    1    3    3    0    0 -0.63543729682E+01  0.68556411060E+01 -0.31727463070E+02  0.33075818719E+02  0.51100000000E-03 0. -1.
        -11    1    3    3    0    0  0.19695050603E+01 -0.16920618218E+00 -0.12246404663E+02  0.12404918715E+02  0.51100000000E-03 0.  1.
        -12    1    3    3    0    0 -0.51743177676E+00  0.32650691309E+00 -0.25168607254E+00  0.66158014405E+00  0.00000000000E+00 0.  1.
</event>
<event>
 7    1  0.1549900E-008  0.4614232E+02  0.7816164E-02  0.1320468E+00
        -11   -1    0    0    0    0  0.00000000000E+00  0.00000000000E+00  0.45593999997E+02  0.45594000000E+02  0.51100000000E-03 0.  1.
         11   -1    0    0    0    0 -0.00000000000E+00 -0.00000000000E+00 -0.45593999997E+02  0.45594000000E+02  0.51100000000E-03 0. -1.
    9900012    2    1    2    0    0 -0.10540005381E+02  0.42062165343E+02 -0.12198198322E+02  0.46142317531E+02  0.99999979047E+01 0.  0.
        -12    1    1    2    0    0  0.10540005381E+02 -0.42062165343E+02  0.12198198322E+02  0.45045682469E+02  0.00000000000E+00 0.  1.
         11    1    3    3    0    0 -0.65547131840E+01  0.20420750868E+02 -0.70811168441E+01  0.22585693414E+02  0.51100000000E-03 0. -1.
        -11    1    3    3    0    0 -0.36084112323E+01  0.89335681241E+01 -0.49726981689E+01  0.10842370515E+02  0.51100000000E-03 0.  1.
         12    1    3    3    0    0 -0.37688096465E+00  0.12707846350E+02 -0.14438330888E+00  0.12714253603E+02  0.00000000000E+00 0. -1.
</event>
<event>
 7    1  0.1549900E-008  0.4614232E+02  0.7816164E-02  0.1320468E+00
        -11   -1    0    0    0    0  0.00000000000E+00  0.00000000000E+00  0.45593999997E+02  0.45594000000E+02  0.51100000000E-03 0.  1.
         11   -1    0    0    0    0 -0.00000000000E+00 -0.00000000000E+00 -0.45593999997E+02  0.45594000000E+02  0.51100000000E-03 0. -1.
    9900012    2    1    2    0    0  0.69055124786E+01 -0.96615320543E+01 -0.43452066918E+02  0.46142318479E+02  0.10000006544E+02 0.  0.
        -12    1    1    2    0    0 -0.69055124786E+01  0.96615320543E+01  0.43452066918E+02  0.45045681521E+02  0.00000000000E+00 0.  1.
         11    1    3    3    0    0  0.31342445235E+01 -0.88337179478E+00 -0.91658497017E+01  0.97271082792E+01  0.51100000000E-03 0. -1.
        -11    1    3    3    0    0 -0.13049848351E+01 -0.22829017600E+01 -0.17690245236E+02  0.17884613573E+02  0.51100000000E-03 0.  1.
        -12    1    3    3    0    0  0.50762527902E+01 -0.64952584995E+01 -0.16595971980E+02  0.18530596627E+02  0.00000000000E+00 0.  1.
</event>
<event>
 7    1  0.1549900E-008  0.4614232E+02  0.7816164E-02  0.1320468E+00
        -11   -1    0    0    0    0  0.00000000000E+00  0.00000000000E+00  0.45593999997E+02  0.45594000000E+02  0.51100000000E-03 0.  1.
         11   -1    0    0    0    0 -0.00000000000E+00 -0.00000000000E+00 -0.45593999997E+02  0.45594000000E+02  0.51100000000E-03 0. -1.
    9900012    2    1    2    0    0 -0.17925092341E+02  0.22179800236E+02 -0.34869198820E+02  0.46142317629E+02  0.99999987920E+01 0.  0.
        -12    1    1    2    0    0  0.17925092341E+02 -0.22179800236E+02  0.34869198820E+02  0.45045682371E+02  0.00000000000E+00 0.  1.
         11    1    3    3    0    0 -0.13083873697E+02  0.11062254057E+02 -0.23404982810E+02  0.29006110327E+02  0.51100000000E-03 0. -1.
        -11    1    3    3    0    0 -0.15332238353E+01  0.11453639577E+01 -0.56031860288E+00  0.19941391933E+01  0.51100000000E-03 0.  1.
         12    1    3    3    0    0 -0.33079948088E+01  0.99721822214E+01 -0.10903897408E+02  0.15142068108E+02  0.00000000000E+00 0. -1.
</event>
<event>
 7    1  0.1549900E-008  0.4614232E+02  0.7816164E-02  0.1320468E+00
        -11   -1    0    0    0    0  0.00000000000E+00  0.00000000000E+00  0.45593999997E+02  0.45594000000E+02  0.51100000000E-03 0.  1.
         11   -1    0    0    0    0 -0.00000000000E+00 -0.00000000000E+00 -0.45593999997E+02  0.45594000000E+02  0.51100000000E-03 0. -1.
    9900012    2    1    2    0    0 -0.34200681947E+02 -0.19280784254E+02 -0.22083436841E+02  0.46142317967E+02  0.10000001880E+02 0.  0.
        -12    1    1    2    0    0  0.34200681947E+02  0.19280784254E+02  0.22083436841E+02  0.45045682033E+02  0.00000000000E+00 0.  1.
         11    1    3    3    0    0 -0.16162702641E+02 -0.54584061922E+01 -0.12548993761E+02  0.21177922454E+02  0.51100000000E-03 0. -1.
        -11    1    3    3    0    0 -0.20611244808E+01 -0.84220725011E+00 -0.21492640508E+01  0.30946540031E+01  0.51100000000E-03 0.  1.
         12    1    3    3    0    0 -0.15976854825E+02 -0.12980170812E+02 -0.73851790293E+01  0.21869741510E+02  0.00000000000E+00 0. -1.
</event>
<event>
 7    1  0.1549900E-008  0.4614232E+02  0.7816164E-02  0.1320468E+00
        -11   -1    0    0    0    0  0.00000000000E+00  0.00000000000E+00  0.45593999997E+02  0.45594000000E+02  0.51100000000E-03 0. -1.
         11   -1    0    0    0    0 -0.00000000000E+00 -0.00000000000E+00 -0.45593999997E+02  0.45594000000E+02  0.51100000000E-03 0.  1.
    9900012    2    1    2    0    0 -0.32494032340E+02  0.13932253681E+02  0.27913146810E+02  0.46142316575E+02  0.99999891873E+01 0.  0.
        -12    1    1    2    0    0  0.32494032340E+02 -0.13932253681E+02 -0.27913146810E+02  0.45045683425E+02  0.00000000000E+00 0.  1.
         11    1    3    3    0    0 -0.48414291440E+01  0.41275686760E+01  0.71221993572E+01  0.95499729464E+01  0.51100000000E-03 0. -1.
        -11    1    3    3    0    0 -0.14364926286E+02  0.21414528247E+01  0.12464922440E+02  0.19139258582E+02  0.51100000000E-03 0.  1.
         12    1    3    3    0    0 -0.13287676911E+02  0.76632321799E+01  0.83260250131E+01  0.17453085047E+02  0.00000000000E+00 0. -1.
</event>
<event>
 7    1  0.1549900E-008  0.4614232E+02  0.7816164E-02  0.1320468E+00
        -11   -1    0    0    0    0  0.00000000000E+00  0.00000000000E+00  0.45593999997E+02  0.45594000000E+02  0.51100000000E-03 0.  1.
         11   -1    0    0    0    0 -0.00000000000E+00 -0.00000000000E+00 -0.45593999997E+02  0.45594000000E+02  0.51100000000E-03 0. -1.
    9900012    2    1    2    0    0  0.17138236947E+02 -0.30687186993E+02 -0.28172520211E+02  0.46142317563E+02  0.99999981963E+01 0.  0.
        -12    1    1    2    0    0 -0.17138236947E+02  0.30687186993E+02  0.28172520211E+02  0.45045682437E+02  0.00000000000E+00 0.  1.
         11    1    3    3    0    0  0.94108521428E+01 -0.12377022336E+02 -0.17605269856E+02  0.23488302342E+02  0.51100000000E-03 0. -1.
        -11    1    3    3    0    0  0.15270804821E+01 -0.58426571121E+01 -0.23103541053E+01  0.64657832690E+01  0.51100000000E-03 0.  1.
         12    1    3    3    0    0  0.62003043223E+01 -0.12467507545E+02 -0.82568962489E+01  0.16188231952E+02  0.00000000000E+00 0. -1.
</event>
<event>
 7    1  0.1549900E-008  0.4614232E+02  0.7816164E-02  0.1320468E+00
        -11   -1    0    0    0    0  0.00000000000E+00  0.00000000000E+00  0.45593999997E+02  0.45594000000E+02  0.51100000000E-03 0. -1.
         11   -1    0    0    0    0 -0.00000000000E+00 -0.00000000000E+00 -0.45593999997E+02  0.45594000000E+02  0.51100000000E-03 0.  1.
    9900012    2    1    2    0    0  0.40215565114E+02 -0.44966048443E+01  0.19788945628E+02  0.46142317614E+02  0.99999986616E+01 0.  0.
        -12    1    1    2    0    0 -0.40215565114E+02  0.44966048443E+01 -0.19788945628E+02  0.45045682386E+02  0.00000000000E+00 0.  1.
         11    1    3    3    0    0  0.18238235825E+02 -0.14287509891E+01  0.35792544591E+01  0.18640966663E+02  0.51100000000E-03 0. -1.
        -11    1    3    3    0    0  0.19578264117E+02 -0.26773587809E+01  0.14009126113E+02  0.24222557474E+02  0.51100000000E-03 0.  1.
         12    1    3    3    0    0  0.23990651716E+01 -0.39049507427E+00  0.22005650557E+01  0.32787934771E+01  0.00000000000E+00 0. -1.
</event>
<event>
 7    1  0.1549900E-008  0.4614232E+02  0.7816164E-02  0.1320468E+00
        -11   -1    0    0    0    0  0.00000000000E+00  0.00000000000E+00  0.45593999997E+02  0.45594000000E+02  0.51100000000E-03 0.  1.
         11   -1    0    0    0    0 -0.00000000000E+00 -0.00000000000E+00 -0.45593999997E+02  0.45594000000E+02  0.51100000000E-03 0. -1.
    9900012    2    1    2    0    0  0.13384361952E+02  0.37484232368E+02 -0.21092764727E+02  0.46142317134E+02  0.99999942814E+01 0.  0.
        -12    1    1    2    0    0 -0.13384361952E+02 -0.37484232368E+02  0.21092764727E+02  0.45045682866E+02  0.00000000000E+00 0.  1.
         11    1    3    3    0    0  0.38737475218E+01  0.13784528394E+02 -0.10383451796E+02  0.17687148282E+02  0.51100000000E-03 0. -1.
        -11    1    3    3    0    0  0.18954474766E+01  0.13508886271E+02 -0.55466868142E+01  0.14725775508E+02  0.51100000000E-03 0.  1.
        -12    1    3    3    0    0  0.76151669532E+01  0.10190817703E+02 -0.51626261165E+01  0.13729393344E+02  0.00000000000E+00 0.  1.
</event>
<event>
 7    1  0.1549900E-008  0.4614232E+02  0.7816164E-02  0.1320468E+00
        -11   -1    0    0    0    0  0.00000000000E+00  0.00000000000E+00  0.45593999997E+02  0.45594000000E+02  0.51100000000E-03 0.  1.
         11   -1    0    0    0    0 -0.00000000000E+00 -0.00000000000E+00 -0.45593999997E+02  0.45594000000E+02  0.51100000000E-03 0. -1.
    9900012    2    1    2    0    0  0.38765404212E+02 -0.15237518182E+02 -0.17151532939E+02  0.46142316453E+02  0.99999880689E+01 0.  0.
        -12    1    1    2    0    0 -0.38765404212E+02  0.15237518182E+02  0.17151532939E+02  0.45045683547E+02  0.00000000000E+00 0.  1.
         11    1    3    3    0    0  0.30286455415E+02 -0.13094744417E+02 -0.14564340677E+02  0.36067460856E+02  0.51100000000E-03 0. -1.
        -11    1    3    3    0    0  0.65742297922E+01 -0.75007915223E+00 -0.59709056863E-01  0.66171505596E+01  0.51100000000E-03 0.  1.
         12    1    3    3    0    0  0.19047190046E+01 -0.13926946126E+01 -0.25274832057E+01  0.34577050374E+01  0.00000000000E+00 0. -1.
</event>
<event>
 7    1  0.1549900E-008  0.4614232E+02  0.7816164E-02  0.1320468E+00
        -11   -1    0    0    0    0  0.00000000000E+00  0.00000000000E+00  0.45593999997E+02  0.45594000000E+02  0.51100000000E-03 0.  1.
         11   -1    0    0    0    0 -0.00000000000E+00 -0.00000000000E+00 -0.45593999997E+02  0.45594000000E+02  0.51100000000E-03 0. -1.
    9900012    2    1    2    0    0  0.19557993759E+02  0.11342658585E+02 -0.38960780466E+02  0.46142318318E+02  0.10000005080E+02 0.  0.
        -12    1    1    2    0    0 -0.19557993759E+02 -0.11342658585E+02  0.38960780466E+02  0.45045681682E+02  0.00000000000E+00 0.  1.
         11    1    3    3    0    0  0.13033968371E+02  0.60868495504E+01 -0.18525159637E+02  0.23454543457E+02  0.51100000000E-03 0. -1.
        -11    1    3    3    0    0  0.19247189871E+01 -0.93672013036E+00 -0.45534311227E+01  0.50314732467E+01  0.51100000000E-03 0.  1.
        -12    1    3    3    0    0  0.45993064008E+01  0.61925291645E+01 -0.15882189707E+02  0.17656301614E+02  0.00000000000E+00 0.  1.
</event>
<event>
 7    1  0.1549900E-008  0.4614232E+02  0.7816164E-02  0.1320468E+00
        -11   -1    0    0    0    0  0.00000000000E+00  0.00000000000E+00  0.45593999997E+02  0.45594000000E+02  0.51100000000E-03 0. -1.
         11   -1    0    0    0    0 -0.00000000000E+00 -0.00000000000E+00 -0.45593999997E+02  0.45594000000E+02  0.51100000000E-03 0.  1.
    9900012    2    1    2    0    0 -0.40255310419E+02 -0.13748584669E+02 -0.14818904473E+02  0.46142317331E+02  0.99999960822E+01 0.  0.
        -12    1    1    2    0    0  0.40255310419E+02  0.13748584669E+02  0.14818904473E+02  0.45045682669E+02  0.00000000000E+00 0.  1.
         11    1    3    3    0    0 -0.25613947082E+02 -0.63565476208E+01 -0.65693354924E+01  0.27196252533E+02  0.51100000000E-03 0. -1.
        -11    1    3    3    0    0 -0.94089399990E+01 -0.56080293150E+01 -0.77031788706E+01  0.13390933861E+02  0.51100000000E-03 0.  1.
         12    1    3    3    0    0 -0.52324233376E+01 -0.17840077329E+01 -0.54639010997E+00  0.55551309370E+01  0.00000000000E+00 0. -1.
</event>
<event>
 7    1  0.1549900E-008  0.4614231E+02  0.7816164E-02  0.1320468E+00
        -11   -1    0    0    0    0  0.00000000000E+00  0.00000000000E+00  0.45593999997E+02  0.45594000000E+02  0.51100000000E-03 0.  1.
         11   -1    0    0    0    0 -0.00000000000E+00 -0.00000000000E+00 -0.45593999997E+02  0.45594000000E+02  0.51100000000E-03 0. -1.
    9900012    2    1    2    0    0  0.20888914466E+02  0.24897915966E+02 -0.31190719763E+02  0.46142312455E+02  0.99999516181E+01 0.  0.
        -12    1    1    2    0    0 -0.20888914466E+02 -0.24897915966E+02  0.31190719763E+02  0.45045687545E+02  0.00000000000E+00 0.  1.
         11    1    3    3    0    0  0.93443735517E+01  0.10275169149E+02 -0.15781871954E+02  0.21022937491E+02  0.51100000000E-03 0. -1.
        -11    1    3    3    0    0  0.16449392827E+01  0.69523495673E+01 -0.72141354610E+01  0.10153065570E+02  0.51100000000E-03 0.  1.
        -12    1    3    3    0    0  0.98996016318E+01  0.76703972488E+01 -0.81947123484E+01  0.14966309395E+02  0.00000000000E+00 0.  1.
</event>
<event>
 7    1  0.1549900E-008  0.4614232E+02  0.7816164E-02  0.1320468E+00
        -11   -1    0    0    0    0  0.00000000000E+00  0.00000000000E+00  0.45593999997E+02  0.45594000000E+02  0.51100000000E-03 0.  1.
         11   -1    0    0    0    0 -0.00000000000E+00 -0.00000000000E+00 -0.45593999997E+02  0.45594000000E+02  0.51100000000E-03 0. -1.
    9900012    2    1    2    0    0  0.81985042588E+01  0.19367109253E+02 -0.39834820167E+02  0.46142319956E+02  0.10000020012E+02 0.  0.
        -12    1    1    2    0    0 -0.81985042588E+01 -0.19367109253E+02  0.39834820167E+02  0.45045680044E+02  0.00000000000E+00 0.  1.
         11    1    3    3    0    0  0.27079902888E+01  0.15232403716E+02 -0.24393503286E+02  0.28886023215E+02  0.51100000000E-03 0. -1.
        -11    1    3    3    0    0  0.22679721720E+01  0.63672410271E-01 -0.28955506562E+01  0.36785820383E+01  0.51100000000E-03 0.  1.
         12    1    3    3    0    0  0.32225417980E+01  0.40710331267E+01 -0.12545766225E+02  0.13577714702E+02  0.00000000000E+00 0. -1.
</event>
<event>
 7    1  0.1549900E-008  0.4614232E+02  0.7816164E-02  0.1320468E+00
        -11   -1    0    0    0    0  0.00000000000E+00  0.00000000000E+00  0.45593999997E+02  0.45594000000E+02  0.51100000000E-03 0.  1.
         11   -1    0    0    0    0 -0.00000000000E+00 -0.00000000000E+00 -0.45593999997E+02  0.45594000000E+02  0.51100000000E-03 0. -1.
    9900012    2    1    2    0    0 -0.19243348555E+01 -0.42936232486E+02 -0.13486674814E+02  0.46142317385E+02  0.99999965672E+01 0.  0.
        -12    1    1    2    0    0  0.19243348555E+01  0.42936232486E+02  0.13486674814E+02  0.45045682615E+02  0.00000000000E+00 0.  1.
         11    1    3    3    0    0 -0.41304492399E+01 -0.32558376045E+02 -0.10159050758E+02  0.34355709485E+02  0.51100000000E-03 0. -1.
        -11    1    3    3    0    0 -0.13969428828E+00 -0.70987384628E+01 -0.31029736029E+01  0.77485513291E+01  0.51100000000E-03 0.  1.
         12    1    3    3    0    0  0.23458086727E+01 -0.32791179784E+01 -0.22465045247E+00  0.40380565710E+01  0.00000000000E+00 0. -1.
</event>
<event>
 7    1  0.1549900E-008  0.4614232E+02  0.7816164E-02  0.1320468E+00
        -11   -1    0    0    0    0  0.00000000000E+00  0.00000000000E+00  0.45593999997E+02  0.45594000000E+02  0.51100000000E-03 0. -1.
         11   -1    0    0    0    0 -0.00000000000E+00 -0.00000000000E+00 -0.45593999997E+02  0.45594000000E+02  0.51100000000E-03 0.  1.
    9900012    2    1    2    0    0 -0.26117741702E+02  0.30118989825E+02 -0.20971968952E+02  0.46142318060E+02  0.10000002728E+02 0.  0.
        -12    1    1    2    0    0  0.26117741702E+02 -0.30118989825E+02  0.20971968952E+02  0.45045681940E+02  0.00000000000E+00 0.  1.
         11    1    3    3    0    0 -0.16672437716E+02  0.12388704465E+02 -0.12561470994E+02  0.24274281277E+02  0.51100000000E-03 0.  1.
        -11    1    3    3    0    0 -0.36068941819E+01  0.66228099965E+01 -0.21338859473E+01  0.78373954465E+01  0.51100000000E-03 0. -1.
         12    1    3    3    0    0 -0.58384098047E+01  0.11107475363E+02 -0.62766120108E+01  0.14030641337E+02  0.00000000000E+00 0. -1.
</event>
<event>
 7    1  0.1549900E-008  0.4614232E+02  0.7816164E-02  0.1320468E+00
        -11   -1    0    0    0    0  0.00000000000E+00  0.00000000000E+00  0.45593999997E+02  0.45594000000E+02  0.51100000000E-03 0. -1.
         11   -1    0    0    0    0 -0.00000000000E+00 -0.00000000000E+00 -0.45593999997E+02  0.45594000000E+02  0.51100000000E-03 0.  1.
    9900012    2    1    2    0    0  0.43848425050E+02 -0.98690518430E+01 -0.30051507347E+01  0.46142317692E+02  0.99999993671E+01 0.  0.
        -12    1    1    2    0    0 -0.43848425050E+02  0.98690518430E+01  0.30051507347E+01  0.45045682308E+02  0.00000000000E+00 0.  1.
         11    1    3    3    0    0  0.88712622013E+01  0.63870136815E+00  0.10409422088E+01  0.89549312351E+01  0.51100000000E-03 0. -1.
        -11    1    3    3    0    0  0.59009276732E+01 -0.38670903095E+01 -0.17815208994E+01  0.72766167855E+01  0.51100000000E-03 0.  1.
        -12    1    3    3    0    0  0.29076235176E+02 -0.66406629017E+01 -0.22645720441E+01  0.29910769671E+02  0.00000000000E+00 0.  1.
</event>
<event>
 7    1  0.1549900E-008  0.4614232E+02  0.7816164E-02  0.1320468E+00
        -11   -1    0    0    0    0  0.00000000000E+00  0.00000000000E+00  0.45593999997E+02  0.45594000000E+02  0.51100000000E-03 0. -1.
         11   -1    0    0    0    0 -0.00000000000E+00 -0.00000000000E+00 -0.45593999997E+02  0.45594000000E+02  0.51100000000E-03 0.  1.
    9900012    2    1    2    0    0  0.40809378194E+02  0.18408666616E+02 -0.49829032103E+01  0.46142315639E+02  0.99999806446E+01 0.  0.
        -12    1    1    2    0    0 -0.40809378194E+02 -0.18408666616E+02  0.49829032103E+01  0.45045684361E+02  0.00000000000E+00 0.  1.
         11    1    3    3    0    0  0.24302311743E+02  0.13497360228E+02 -0.59026883291E+01  0.28418705441E+02  0.51100000000E-03 0.  1.
        -11    1    3    3    0    0  0.14747661667E+02  0.42039086783E+01  0.21176604388E+01  0.15480660801E+02  0.51100000000E-03 0. -1.
        -12    1    3    3    0    0  0.17594047841E+01  0.70739770937E+00 -0.11978753200E+01  0.22429493966E+01  0.00000000000E+00 0.  1.
</event>
<event>
 7    1  0.1549900E-008  0.4614232E+02  0.7816164E-02  0.1320468E+00
        -11   -1    0    0    0    0  0.00000000000E+00  0.00000000000E+00  0.45593999997E+02  0.45594000000E+02  0.51100000000E-03 0. -1.
         11   -1    0    0    0    0 -0.00000000000E+00 -0.00000000000E+00 -0.45593999997E+02  0.45594000000E+02  0.51100000000E-03 0.  1.
    9900012    2    1    2    0    0  0.77487995241E+01 -0.73507119722E+01  0.43761125195E+02  0.46142323860E+02  0.10000055617E+02 0.  0.
        -12    1    1    2    0    0 -0.77487995241E+01  0.73507119722E+01 -0.43761125195E+02  0.45045676140E+02  0.00000000000E+00 0.  1.
         11    1    3    3    0    0  0.85646061947E+00  0.17405738034E+01  0.72639900868E+01  0.75185553267E+01  0.51100000000E-03 0. -1.
        -11    1    3    3    0    0  0.42840860261E+01 -0.41499313904E+01  0.26579173424E+02  0.27240186927E+02  0.51100000000E-03 0.  1.
        -12    1    3    3    0    0  0.26082528786E+01 -0.49413543852E+01  0.99179616837E+01  0.11383581607E+02  0.00000000000E+00 0.  1.
</event>
<event>
 7    1  0.1549900E-008  0.4614232E+02  0.7816164E-02  0.1320468E+00
        -11   -1    0    0    0    0  0.00000000000E+00  0.00000000000E+00  0.45593999997E+02  0.45594000000E+02  0.51100000000E-03 0.  1.
         11   -1    0    0    0    0 -0.00000000000E+00 -0.00000000000E+00 -0.45593999997E+02  0.45594000000E+02  0.51100000000E-03 0. -1.
    9900012    2    1    2    0    0 -0.10963713410E+02  0.98155142035E+01 -0.42574243094E+02  0.46142317567E+02  0.99999982277E+01 0.  0.
        -12    1    1    2    0    0  0.10963713410E+02 -0.98155142035E+01  0.42574243094E+02  0.45045682433E+02  0.00000000000E+00 0.  1.
         11    1    3    3    0    0 -0.82122530938E+01  0.38557419779E+01 -0.20623458345E+02  0.22530754126E+02  0.51100000000E-03 0. -1.
        -11    1    3    3    0    0 -0.20468144345E+01  0.26364722031E+01 -0.34456349097E+01  0.47971694987E+01  0.51100000000E-03 0.  1.
        -12    1    3    3    0    0 -0.70464588221E+00  0.33233000225E+01 -0.18505149839E+02  0.18814393943E+02  0.00000000000E+00 0.  1.
</event>
<event>
 7    1  0.1549900E-008  0.4614232E+02  0.7816164E-02  0.1320468E+00
        -11   -1    0    0    0    0  0.00000000000E+00  0.00000000000E+00  0.45593999997E+02  0.45594000000E+02  0.51100000000E-03 0.  1.
         11   -1    0    0    0    0 -0.00000000000E+00 -0.00000000000E+00 -0.45593999997E+02  0.45594000000E+02  0.51100000000E-03 0. -1.
    9900012    2    1    2    0    0 -0.15689633918E+02 -0.43786536936E+01 -0.41997336087E+02  0.46142318086E+02  0.10000002967E+02 0.  0.
        -12    1    1    2    0    0  0.15689633918E+02  0.43786536936E+01  0.41997336087E+02  0.45045681914E+02  0.00000000000E+00 0.  1.
         11    1    3    3    0    0 -0.21285735666E+00  0.18039698074E+01 -0.40769517389E+01  0.44633116699E+01  0.51100000000E-03 0.  1.
        -11    1    3    3    0    0 -0.11001026175E+02 -0.52378996432E+01 -0.31674487446E+02  0.33937167307E+02  0.51100000000E-03 0. -1.
         12    1    3    3    0    0 -0.44757503869E+01 -0.94472385783E+00 -0.62458969018E+01  0.77418391098E+01  0.00000000000E+00 0. -1.
</event>
<event>
 7    1  0.1549900E-008  0.4614232E+02  0.7816164E-02  0.1320468E+00
        -11   -1    0    0    0    0  0.00000000000E+00  0.00000000000E+00  0.45593999997E+02  0.45594000000E+02  0.51100000000E-03 0.  1.
         11   -1    0    0    0    0 -0.00000000000E+00 -0.00000000000E+00 -0.45593999997E+02  0.45594000000E+02  0.51100000000E-03 0. -1.
    9900012    2    1    2    0    0  0.89751634078E+01  0.25321907922E+02 -0.36157446767E+02  0.46142317236E+02  0.99999952084E+01 0.  0.
        -12    1    1    2    0    0 -0.89751634078E+01 -0.25321907922E+02  0.36157446767E+02  0.45045682764E+02  0.00000000000E+00 0.  1.
         11    1    3    3    0    0  0.33946123596E+01  0.70272607407E+01 -0.10292689641E+02  0.12916859018E+02  0.51100000000E-03 0. -1.
        -11    1    3    3    0    0  0.50221984265E+01  0.11803314718E+02 -0.10642313481E+02  0.16667319876E+02  0.51100000000E-03 0.  1.
        -12    1    3    3    0    0  0.55835262164E+00  0.64913324633E+01 -0.15222443646E+02  0.16558138342E+02  0.00000000000E+00 0.  1.
</event>
<event>
 7    1  0.1549900E-008  0.4614232E+02  0.7816164E-02  0.1320468E+00
        -11   -1    0    0    0    0  0.00000000000E+00  0.00000000000E+00  0.45593999997E+02  0.45594000000E+02  0.51100000000E-03 0.  1.
         11   -1    0    0    0    0 -0.00000000000E+00 -0.00000000000E+00 -0.45593999997E+02  0.45594000000E+02  0.51100000000E-03 0. -1.
    9900012    2    1    2    0    0  0.15139589600E+02 -0.23296435420E+02 -0.35456765961E+02  0.46142319530E+02  0.10000016133E+02 0.  0.
        -12    1    1    2    0    0 -0.15139589600E+02  0.23296435420E+02  0.35456765961E+02  0.45045680470E+02  0.00000000000E+00 0.  1.
         11    1    3    3    0    0  0.13083520261E+02 -0.21083167878E+02 -0.33724898323E+02  0.41869406939E+02  0.51100000000E-03 0. -1.
        -11    1    3    3    0    0  0.56410349899E+00  0.34664331737E+00 -0.10357382496E+01  0.12292795979E+01  0.51100000000E-03 0.  1.
         12    1    3    3    0    0  0.14919658400E+01 -0.25599108595E+01 -0.69612938823E+00  0.30436329939E+01  0.00000000000E+00 0. -1.
</event>
<event>
 7    1  0.1549900E-008  0.4614232E+02  0.7816164E-02  0.1320468E+00
        -11   -1    0    0    0    0  0.00000000000E+00  0.00000000000E+00  0.45593999997E+02  0.45594000000E+02  0.51100000000E-03 0. -1.
         11   -1    0    0    0    0 -0.00000000000E+00 -0.00000000000E+00 -0.45593999997E+02  0.45594000000E+02  0.51100000000E-03 0.  1.
    9900012    2    1    2    0    0  0.14036319529E+02  0.38924121744E+02  0.17804716329E+02  0.46142318264E+02  0.10000004588E+02 0.  0.
        -12    1    1    2    0    0 -0.14036319529E+02 -0.38924121744E+02 -0.17804716329E+02  0.45045681736E+02  0.00000000000E+00 0.  1.
         11    1    3    3    0    0  0.10677968400E+02  0.32497557197E+02  0.11326817061E+02  0.36033415296E+02  0.51100000000E-03 0. -1.
        -11    1    3    3    0    0  0.15166570427E+01  0.54566683183E+01  0.50150372572E+01  0.75647919121E+01  0.51100000000E-03 0.  1.
         12    1    3    3    0    0  0.18416940863E+01  0.96989622929E+00  0.14628620106E+01  0.25441110560E+01  0.00000000000E+00 0. -1.
</event>
<event>
 7    1  0.1549900E-008  0.4614232E+02  0.7816164E-02  0.1320468E+00
        -11   -1    0    0    0    0  0.00000000000E+00  0.00000000000E+00  0.45593999997E+02  0.45594000000E+02  0.51100000000E-03 0.  1.
         11   -1    0    0    0    0 -0.00000000000E+00 -0.00000000000E+00 -0.45593999997E+02  0.45594000000E+02  0.51100000000E-03 0. -1.
    9900012    2    1    2    0    0  0.35279996267E+02  0.27431911069E+02  0.56502708339E+01  0.46142318276E+02  0.10000004693E+02 0.  0.
        -12    1    1    2    0    0 -0.35279996267E+02 -0.27431911069E+02 -0.56502708339E+01  0.45045681724E+02  0.00000000000E+00 0.  1.
         11    1    3    3    0    0  0.69933890212E+01  0.92246877882E+01  0.24466086850E+01  0.11831662990E+02  0.51100000000E-03 0. -1.
        -11    1    3    3    0    0  0.55668195434E+01  0.64478005553E+01 -0.74938151518E-01  0.85187574104E+01  0.51100000000E-03 0.  1.
         12    1    3    3    0    0  0.22719787702E+02  0.11759422726E+02  0.32786003004E+01  0.25791897875E+02  0.00000000000E+00 0. -1.
</event>
<event>
 7    1  0.1549900E-008  0.4614232E+02  0.7816164E-02  0.1320468E+00
        -11   -1    0    0    0    0  0.00000000000E+00  0.00000000000E+00  0.45593999997E+02  0.45594000000E+02  0.51100000000E-03 0.  1.
         11   -1    0    0    0    0 -0.00000000000E+00 -0.00000000000E+00 -0.45593999997E+02  0.45594000000E+02  0.51100000000E-03 0. -1.
    9900012    2    1    2    0    0  0.29031329444E+02 -0.19749701425E+01 -0.34385966396E+02  0.46142320058E+02  0.10000020949E+02 0.  0.
        -12    1    1    2    0    0 -0.29031329444E+02  0.19749701425E+01  0.34385966396E+02  0.45045679942E+02  0.00000000000E+00 0.  1.
         11    1    3    3    0    0  0.21787660376E+02 -0.16673343540E+01 -0.27339340899E+02  0.34998881548E+02  0.51100000000E-03 0. -1.
        -11    1    3    3    0    0 -0.45234959336E+00 -0.22839153656E+00  0.22566030909E+00  0.55471225406E+00  0.51100000000E-03 0.  1.
        -12    1    3    3    0    0  0.76960186619E+01 -0.79244251992E-01 -0.72722858062E+01  0.10588726257E+02  0.00000000000E+00 0.  1.
</event>
<event>
 7    1  0.1549900E-008  0.4614232E+02  0.7816164E-02  0.1320468E+00
        -11   -1    0    0    0    0  0.00000000000E+00  0.00000000000E+00  0.45593999997E+02  0.45594000000E+02  0.51100000000E-03 0.  1.
         11   -1    0    0    0    0 -0.00000000000E+00 -0.00000000000E+00 -0.45593999997E+02  0.45594000000E+02  0.51100000000E-03 0. -1.
    9900012    2    1    2    0    0 -0.41849407935E+01  0.37120213524E+02 -0.25173193095E+02  0.46142316166E+02  0.99999854530E+01 0.  0.
        -12    1    1    2    0    0  0.41849407935E+01 -0.37120213524E+02  0.25173193095E+02  0.45045683834E+02  0.00000000000E+00 0.  1.
         11    1    3    3    0    0 -0.43854462501E+01  0.16402376947E+02 -0.14483781204E+02  0.22317034448E+02  0.51100000000E-03 0. -1.
        -11    1    3    3    0    0  0.18062187848E+01  0.37304111968E+01 -0.29597918886E+01  0.50930111212E+01  0.51100000000E-03 0.  1.
         12    1    3    3    0    0 -0.16057133282E+01  0.16987425380E+02 -0.77296200025E+01  0.18732270597E+02  0.00000000000E+00 0. -1.
</event>
<event>
 7    1  0.1549900E-008  0.4614232E+02  0.7816164E-02  0.1320468E+00
        -11   -1    0    0    0    0  0.00000000000E+00  0.00000000000E+00  0.45593999997E+02  0.45594000000E+02  0.51100000000E-03 0.  1.
         11   -1    0    0    0    0 -0.00000000000E+00 -0.00000000000E+00 -0.45593999997E+02  0.45594000000E+02  0.51100000000E-03 0. -1.
    9900012    2    1    2    0    0 -0.26718022640E+02 -0.35321475266E+02 -0.82252119537E+01  0.46142318071E+02  0.10000002830E+02 0.  0.
        -12    1    1    2    0    0  0.26718022640E+02  0.35321475266E+02  0.82252119537E+01  0.45045681929E+02  0.00000000000E+00 0.  1.
         11    1    3    3    0    0 -0.13049648673E+02 -0.22453111282E+02 -0.64607694451E+01  0.26761484989E+02  0.51100000000E-03 0. -1.
        -11    1    3    3    0    0 -0.21321797210E+00 -0.19708922906E+01 -0.72097630774E-01  0.19837027636E+01  0.51100000000E-03 0.  1.
         12    1    3    3    0    0 -0.13455155995E+02 -0.10897471693E+02 -0.16923448778E+01  0.17397130319E+02  0.00000000000E+00 0. -1.
</event>
<event>
 7    1  0.1549900E-008  0.4614232E+02  0.7816164E-02  0.1320468E+00
        -11   -1    0    0    0    0  0.00000000000E+00  0.00000000000E+00  0.45593999997E+02  0.45594000000E+02  0.51100000000E-03 0. -1.
         11   -1    0    0    0    0 -0.00000000000E+00 -0.00000000000E+00 -0.45593999997E+02  0.45594000000E+02  0.51100000000E-03 0.  1.
    9900012    2    1    2    0    0  0.19761085503E+02  0.10009115251E+02  0.39222832855E+02  0.46142317570E+02  0.99999982607E+01 0.  0.
        -12    1    1    2    0    0 -0.19761085503E+02 -0.10009115251E+02 -0.39222832855E+02  0.45045682430E+02  0.00000000000E+00 0.  1.
         11    1    3    3    0    0  0.79350303153E+01  0.72224240691E+01  0.25975893822E+02  0.28104718032E+02  0.51100000000E-03 0. -1.
        -11    1    3    3    0    0  0.34220242257E+01  0.13505750573E+00  0.34744144248E+01  0.48785291008E+01  0.51100000000E-03 0.  1.
        -12    1    3    3    0    0  0.84040309621E+01  0.26516336765E+01  0.97725246086E+01  0.13159070438E+02  0.00000000000E+00 0.  1.
</event>
<event>
 7    1  0.1549900E-008  0.4614232E+02  0.7816164E-02  0.1320468E+00
        -11   -1    0    0    0    0  0.00000000000E+00  0.00000000000E+00  0.45593999997E+02  0.45594000000E+02  0.51100000000E-03 0. -1.
         11   -1    0    0    0    0 -0.00000000000E+00 -0.00000000000E+00 -0.45593999997E+02  0.45594000000E+02  0.51100000000E-03 0.  1.
    9900012    2    1    2    0    0  0.37604510464E+02  0.24729877760E+02  0.18567331672E+01  0.46142317418E+02  0.99999968670E+01 0.  0.
        -12    1    1    2    0    0 -0.37604510464E+02 -0.24729877760E+02 -0.18567331672E+01  0.45045682582E+02  0.00000000000E+00 0.  1.
         11    1    3    3    0    0  0.19200026506E+02  0.10926323223E+02  0.24386638000E+01  0.22225495234E+02  0.51100000000E-03 0. -1.
        -11    1    3    3    0    0  0.73944857135E+01  0.95660744899E+01 -0.80280543593E+00  0.12117454227E+02  0.51100000000E-03 0.  1.
        -12    1    3    3    0    0  0.11009998245E+02  0.42374800468E+01  0.22087480305E+00  0.11799367957E+02  0.00000000000E+00 0.  1.
</event>
<event>
 7    1  0.1549900E-008  0.4614233E+02  0.7816164E-02  0.1320468E+00
        -11   -1    0    0    0    0  0.00000000000E+00  0.00000000000E+00  0.45593999997E+02  0.45594000000E+02  0.51100000000E-03 0.  1.
         11   -1    0    0    0    0 -0.00000000000E+00 -0.00000000000E+00 -0.45593999997E+02  0.45594000000E+02  0.51100000000E-03 0. -1.
    9900012    2    1    2    0    0 -0.10965397361E+02  0.27598686305E+02 -0.33870122746E+02  0.46142327179E+02  0.10000085877E+02 0.  0.
        -12    1    1    2    0    0  0.10965397361E+02 -0.27598686305E+02  0.33870122746E+02  0.45045672821E+02  0.00000000000E+00 0.  1.
         11    1    3    3    0    0  0.12889227772E+01  0.97055012522E+00 -0.21980910746E+01  0.27267002227E+01  0.51100000000E-03 0. -1.
        -11    1    3    3    0    0 -0.63504098256E+01  0.10436968655E+02 -0.10445393324E+02  0.16073713373E+02  0.51100000000E-03 0.  1.
         12    1    3    3    0    0 -0.59039103124E+01  0.16191167525E+02 -0.21226638348E+02  0.27341913583E+02  0.00000000000E+00 0. -1.
</event>
<event>
 7    1  0.1611978E-008  0.4614232E+02  0.7816164E-02  0.1320468E+00
        -11   -1    0    0    0    0  0.00000000000E+00  0.00000000000E+00  0.45593999997E+02  0.45594000000E+02  0.51100000000E-03 0. -1.
         11   -1    0    0    0    0 -0.00000000000E+00 -0.00000000000E+00 -0.45593999997E+02  0.45594000000E+02  0.51100000000E-03 0.  1.
    9900012    2    1    2    0    0 -0.94565109422E+01 -0.30016029312E+02  0.32229270048E+02  0.46142318046E+02  0.10000002600E+02 0.  0.
        -12    1    1    2    0    0  0.94565109422E+01  0.30016029312E+02 -0.32229270048E+02  0.45045681954E+02  0.00000000000E+00 0.  1.
         11    1    3    3    0    0 -0.86827959288E+01 -0.25054726173E+02  0.25088936860E+02  0.36504588777E+02  0.51100000000E-03 0. -1.
        -11    1    3    3    0    0 -0.19602928897E+01 -0.78063011065E+00  0.26709899863E+01  0.34038682923E+01  0.51100000000E-03 0.  1.
         12    1    3    3    0    0  0.11865778763E+01 -0.41806730283E+01  0.44693432018E+01  0.62338609771E+01  0.00000000000E+00 0. -1.
</event>
<event>
 7    1  0.1549900E-008  0.4614232E+02  0.7816164E-02  0.1320468E+00
        -11   -1    0    0    0    0  0.00000000000E+00  0.00000000000E+00  0.45593999997E+02  0.45594000000E+02  0.51100000000E-03 0.  1.
         11   -1    0    0    0    0 -0.00000000000E+00 -0.00000000000E+00 -0.45593999997E+02  0.45594000000E+02  0.51100000000E-03 0. -1.
    9900012    2    1    2    0    0  0.19678321665E+01  0.44417110997E+02  0.72361212028E+01  0.46142316934E+02  0.99999924619E+01 0.  0.
        -12    1    1    2    0    0 -0.19678321665E+01 -0.44417110997E+02 -0.72361212028E+01  0.45045683066E+02  0.00000000000E+00 0.  1.
         11    1    3    3    0    0  0.15914241955E+01  0.96213642225E+01  0.45399107403E-01  0.97521967685E+01  0.51100000000E-03 0. -1.
        -11    1    3    3    0    0  0.15568646787E+01  0.22231374173E+01 -0.80268843372E+00  0.28302785352E+01  0.51100000000E-03 0.  1.
        -12    1    3    3    0    0 -0.11804567077E+01  0.32572609357E+02  0.79934105292E+01  0.33559841631E+02  0.00000000000E+00 0.  1.
</event>
<event>
 7    1  0.1549900E-008  0.4614232E+02  0.7816164E-02  0.1320468E+00
        -11   -1    0    0    0    0  0.00000000000E+00  0.00000000000E+00  0.45593999997E+02  0.45594000000E+02  0.51100000000E-03 0.  1.
         11   -1    0    0    0    0 -0.00000000000E+00 -0.00000000000E+00 -0.45593999997E+02  0.45594000000E+02  0.51100000000E-03 0. -1.
    9900012    2    1    2    0    0 -0.68377683497E+01 -0.64996129280E+01 -0.44046719836E+02  0.46142316827E+02  0.99999914795E+01 0.  0.
        -12    1    1    2    0    0  0.68377683497E+01  0.64996129280E+01  0.44046719836E+02  0.45045683173E+02  0.00000000000E+00 0.  1.
         11    1    3    3    0    0  0.37951154002E+00 -0.34539791694E+01 -0.78199943393E+01  0.85572374537E+01  0.51100000000E-03 0. -1.
        -11    1    3    3    0    0  0.64081145463E+00 -0.73552542888E-01 -0.10532007969E+02  0.10551741156E+02  0.51100000000E-03 0.  1.
         12    1    3    3    0    0 -0.78580913444E+01 -0.29720812157E+01 -0.25694717528E+02  0.27033338217E+02  0.00000000000E+00 0. -1.
</event>
<event>
 7    1  0.1549900E-008  0.4614232E+02  0.7816164E-02  0.1320468E+00
        -11   -1    0    0    0    0  0.00000000000E+00  0.00000000000E+00  0.45593999997E+02  0.45594000000E+02  0.51100000000E-03 0. -1.
         11   -1    0    0    0    0 -0.00000000000E+00 -0.00000000000E+00 -0.45593999997E+02  0.45594000000E+02  0.51100000000E-03 0.  1.
    9900012    2    1    2    0    0 -0.11640715526E+02 -0.41409780168E+02  0.13373007726E+02  0.46142317774E+02  0.10000000121E+02 0.  0.
        -12    1    1    2    0    0  0.11640715526E+02  0.41409780168E+02 -0.13373007726E+02  0.45045682226E+02  0.00000000000E+00 0.  1.
         11    1    3    3    0    0 -0.50725404731E+01 -0.81531667692E+01  0.12114779624E+01  0.96784541293E+01  0.51100000000E-03 0. -1.
        -11    1    3    3    0    0  0.50820708820E+00 -0.10854518368E+02  0.33239411367E+01  0.11363425029E+02  0.51100000000E-03 0.  1.
         12    1    3    3    0    0 -0.70763821410E+01 -0.22402095030E+02  0.88375886270E+01  0.25100438616E+02  0.00000000000E+00 0. -1.
</event>
<event>
 7    1  0.1549900E-008  0.4614232E+02  0.7816164E-02  0.1320468E+00
        -11   -1    0    0    0    0  0.00000000000E+00  0.00000000000E+00  0.45593999997E+02  0.45594000000E+02  0.51100000000E-03 0.  1.
         11   -1    0    0    0    0 -0.00000000000E+00 -0.00000000000E+00 -0.45593999997E+02  0.45594000000E+02  0.51100000000E-03 0. -1.
    9900012    2    1    2    0    0 -0.36900771882E+02 -0.25354712090E+02 -0.49583325470E+01  0.46142318161E+02  0.10000003646E+02 0.  0.
        -12    1    1    2    0    0  0.36900771882E+02  0.25354712090E+02  0.49583325470E+01  0.45045681839E+02  0.00000000000E+00 0.  1.
         11    1    3    3    0    0 -0.19359732988E+02 -0.80101872696E+01 -0.45706848185E+01  0.21444195519E+02  0.51100000000E-03 0.  1.
        -11    1    3    3    0    0 -0.11958474121E+02 -0.11057379758E+02 -0.24091182410E+00  0.16288916145E+02  0.51100000000E-03 0. -1.
        -12    1    3    3    0    0 -0.55825647730E+01 -0.62871450624E+01 -0.14673590443E+00  0.84092064968E+01  0.00000000000E+00 0.  1.
</event>
<event>
 7    1  0.1549900E-008  0.4614232E+02  0.7816164E-02  0.1320468E+00
        -11   -1    0    0    0    0  0.00000000000E+00  0.00000000000E+00  0.45593999997E+02  0.45594000000E+02  0.51100000000E-03 0.  1.
         11   -1    0    0    0    0 -0.00000000000E+00 -0.00000000000E+00 -0.45593999997E+02  0.45594000000E+02  0.51100000000E-03 0. -1.
    9900012    2    1    2    0    0  0.45549182377E+00  0.57994025671E+01 -0.44668478104E+02  0.46142317864E+02  0.10000000940E+02 0.  0.
        -12    1    1    2    0    0 -0.45549182377E+00 -0.57994025671E+01  0.44668478104E+02  0.45045682136E+02  0.00000000000E+00 0.  1.
         11    1    3    3    0    0 -0.36032794390E+01  0.37093822421E+01 -0.24812505696E+02  0.25345681654E+02  0.51100000000E-03 0. -1.
        -11    1    3    3    0    0  0.18880930079E+01  0.16718348386E+01 -0.36257323113E+01  0.44165441228E+01  0.51100000000E-03 0.  1.
         12    1    3    3    0    0  0.21706782548E+01  0.41818548640E+00 -0.16230240097E+02  0.16380092087E+02  0.00000000000E+00 0. -1.
</event>
<event>
 7    1  0.1549900E-008  0.4614232E+02  0.7816164E-02  0.1320468E+00
        -11   -1    0    0    0    0  0.00000000000E+00  0.00000000000E+00  0.45593999997E+02  0.45594000000E+02  0.51100000000E-03 0. -1.
         11   -1    0    0    0    0 -0.00000000000E+00 -0.00000000000E+00 -0.45593999997E+02  0.45594000000E+02  0.51100000000E-03 0.  1.
    9900012    2    1    2    0    0 -0.26296671956E+02 -0.34161424170E+02 -0.13061220984E+02  0.46142319287E+02  0.10000013918E+02 0.  0.
        -12    1    1    2    0    0  0.26296671956E+02  0.34161424170E+02  0.13061220984E+02  0.45045680713E+02  0.00000000000E+00 0.  1.
         11    1    3    3    0    0 -0.29985116712E+01 -0.43774366451E+01 -0.28890654447E+01  0.60415000810E+01  0.51100000000E-03 0. -1.
        -11    1    3    3    0    0 -0.16802941132E+02 -0.22893879166E+02 -0.11301856755E+02  0.30564693690E+02  0.51100000000E-03 0.  1.
        -12    1    3    3    0    0 -0.64952191529E+01 -0.68901083580E+01  0.11297012159E+01  0.95361255165E+01  0.00000000000E+00 0.  1.
</event>
<event>
 7    1  0.1549900E-008  0.4614232E+02  0.7816164E-02  0.1320468E+00
        -11   -1    0    0    0    0  0.00000000000E+00  0.00000000000E+00  0.45593999997E+02  0.45594000000E+02  0.51100000000E-03 0.  1.
         11   -1    0    0    0    0 -0.00000000000E+00 -0.00000000000E+00 -0.45593999997E+02  0.45594000000E+02  0.51100000000E-03 0. -1.
    9900012    2    1    2    0    0 -0.44684646143E+02  0.54093534648E+01 -0.17705696335E+01  0.46142316271E+02  0.99999864102E+01 0.  0.
        -12    1    1    2    0    0  0.44684646143E+02 -0.54093534648E+01  0.17705696335E+01  0.45045683729E+02  0.00000000000E+00 0.  1.
         11    1    3    3    0    0 -0.13965067612E+02  0.33155470630E+01  0.31141101692E+01  0.14687193338E+02  0.51100000000E-03 0.  1.
        -11    1    3    3    0    0 -0.23649068008E+02  0.32990193428E+01 -0.42643152288E+01  0.24255851478E+02  0.51100000000E-03 0. -1.
        -12    1    3    3    0    0 -0.70705105227E+01 -0.12052129409E+01 -0.62036457387E+00  0.71992714555E+01  0.00000000000E+00 0.  1.
</event>
<event>
 7    1  0.1549900E-008  0.4614232E+02  0.7816164E-02  0.1320468E+00
        -11   -1    0    0    0    0  0.00000000000E+00  0.00000000000E+00  0.45593999997E+02  0.45594000000E+02  0.51100000000E-03 0.  1.
         11   -1    0    0    0    0 -0.00000000000E+00 -0.00000000000E+00 -0.45593999997E+02  0.45594000000E+02  0.51100000000E-03 0. -1.
    9900012    2    1    2    0    0  0.34624819996E+02  0.17881688976E+02 -0.22593815712E+02  0.46142317978E+02  0.10000001978E+02 0.  0.
        -12    1    1    2    0    0 -0.34624819996E+02 -0.17881688976E+02  0.22593815712E+02  0.45045682022E+02  0.00000000000E+00 0.  1.
         11    1    3    3    0    0  0.58273518480E+01  0.26562907770E+01 -0.57916360921E+00  0.64303453251E+01  0.51100000000E-03 0.  1.
        -11    1    3    3    0    0  0.12195133670E+01 -0.34824081924E+00 -0.27648970917E+00  0.12980490518E+01  0.51100000000E-03 0. -1.
         12    1    3    3    0    0  0.27577954781E+02  0.15573639019E+02 -0.21738162394E+02  0.38413923601E+02  0.00000000000E+00 0. -1.
</event>
<event>
 7    1  0.1549900E-008  0.4614232E+02  0.7816164E-02  0.1320468E+00
        -11   -1    0    0    0    0  0.00000000000E+00  0.00000000000E+00  0.45593999997E+02  0.45594000000E+02  0.51100000000E-03 0.  1.
         11   -1    0    0    0    0 -0.00000000000E+00 -0.00000000000E+00 -0.45593999997E+02  0.45594000000E+02  0.51100000000E-03 0. -1.
    9900012    2    1    2    0    0 -0.36311862155E+02 -0.21944074393E+02 -0.15133398235E+02  0.46142317896E+02  0.10000001229E+02 0.  0.
        -12    1    1    2    0    0  0.36311862155E+02  0.21944074393E+02  0.15133398235E+02  0.45045682104E+02  0.00000000000E+00 0.  1.
         11    1    3    3    0    0 -0.60437315586E+01 -0.12948564323E+01 -0.44610752629E+01  0.76226332127E+01  0.51100000000E-03 0. -1.
        -11    1    3    3    0    0 -0.81242417223E+01 -0.82790765507E+01 -0.24483677982E+01  0.11854995455E+02  0.51100000000E-03 0.  1.
         12    1    3    3    0    0 -0.22143888874E+02 -0.12370141410E+02 -0.82239551735E+01  0.26664689228E+02  0.00000000000E+00 0. -1.
</event>
<event>
 7    1  0.1549900E-008  0.4614232E+02  0.7816164E-02  0.1320468E+00
        -11   -1    0    0    0    0  0.00000000000E+00  0.00000000000E+00  0.45593999997E+02  0.45594000000E+02  0.51100000000E-03 0.  1.
         11   -1    0    0    0    0 -0.00000000000E+00 -0.00000000000E+00 -0.45593999997E+02  0.45594000000E+02  0.51100000000E-03 0. -1.
    9900012    2    1    2    0    0 -0.44873959214E+02 -0.20133619559E+01 -0.33745488284E+01  0.46142318501E+02  0.10000006748E+02 0.  0.
        -12    1    1    2    0    0  0.44873959214E+02  0.20133619559E+01  0.33745488284E+01  0.45045681499E+02  0.00000000000E+00 0.  1.
         11    1    3    3    0    0 -0.20957820191E+02 -0.29513959316E+01 -0.42175792956E+01  0.21580753936E+02  0.51100000000E-03 0. -1.
        -11    1    3    3    0    0 -0.31588807623E+01  0.62500982640E+00  0.19638351170E+01  0.37717122877E+01  0.51100000000E-03 0.  1.
         12    1    3    3    0    0 -0.20757258261E+02  0.31302414937E+00 -0.11208046497E+01  0.20789852277E+02  0.00000000000E+00 0. -1.
</event>
<event>
 7    1  0.1549900E-008  0.4614232E+02  0.7816164E-02  0.1320468E+00
        -11   -1    0    0    0    0  0.00000000000E+00  0.00000000000E+00  0.45593999997E+02  0.45594000000E+02  0.51100000000E-03 0. -1.
         11   -1    0    0    0    0 -0.00000000000E+00 -0.00000000000E+00 -0.45593999997E+02  0.45594000000E+02  0.51100000000E-03 0.  1.
    9900012    2    1    2    0    0  0.13406583916E+02 -0.33988238412E+02  0.26347231221E+02  0.46142318346E+02  0.10000005335E+02 0.  0.
        -12    1    1    2    0    0 -0.13406583916E+02  0.33988238412E+02 -0.26347231221E+02  0.45045681654E+02  0.00000000000E+00 0.  1.
         11    1    3    3    0    0  0.10012742884E+02 -0.26203351179E+02  0.18268252561E+02  0.33475359371E+02  0.51100000000E-03 0. -1.
        -11    1    3    3    0    0 -0.10214101986E+01 -0.99622500919E+00  0.34266907698E+00  0.14673668321E+01  0.51100000000E-03 0.  1.
         12    1    3    3    0    0  0.44152512312E+01 -0.67886622231E+01  0.77363095831E+01  0.11199592143E+02  0.00000000000E+00 0. -1.
</event>
<event>
 7    1  0.1549900E-008  0.4614232E+02  0.7816164E-02  0.1320468E+00
        -11   -1    0    0    0    0  0.00000000000E+00  0.00000000000E+00  0.45593999997E+02  0.45594000000E+02  0.51100000000E-03 0.  1.
         11   -1    0    0    0    0 -0.00000000000E+00 -0.00000000000E+00 -0.45593999997E+02  0.45594000000E+02  0.51100000000E-03 0. -1.
    9900012    2    1    2    0    0 -0.14389630727E+02 -0.14117463246E-01 -0.42685496336E+02  0.46142320194E+02  0.10000022181E+02 0.  0.
        -12    1    1    2    0    0  0.14389630727E+02  0.14117463246E-01  0.42685496336E+02  0.45045679806E+02  0.00000000000E+00 0.  1.
         11    1    3    3    0    0 -0.10507165128E+02  0.16735894851E+01 -0.37281255207E+02  0.38769748657E+02  0.51100000000E-03 0. -1.
        -11    1    3    3    0    0  0.24905459206E+00 -0.72079715633E+00 -0.67025582971E+00  0.10152929965E+01  0.51100000000E-03 0.  1.
         12    1    3    3    0    0 -0.41315201901E+01 -0.96690979201E+00 -0.47339852994E+01  0.63572785405E+01  0.00000000000E+00 0. -1.
</event>
<event>
 7    1  0.1549900E-008  0.4614232E+02  0.7816164E-02  0.1320468E+00
        -11   -1    0    0    0    0  0.00000000000E+00  0.00000000000E+00  0.45593999997E+02  0.45594000000E+02  0.51100000000E-03 0.  1.
         11   -1    0    0    0    0 -0.00000000000E+00 -0.00000000000E+00 -0.45593999997E+02  0.45594000000E+02  0.51100000000E-03 0. -1.
    9900012    2    1    2    0    0 -0.34004250466E+02 -0.13002404568E+02 -0.26528511913E+02  0.46142317425E+02  0.99999969375E+01 0.  0.
        -12    1    1    2    0    0  0.34004250466E+02  0.13002404568E+02  0.26528511913E+02  0.45045682575E+02  0.00000000000E+00 0.  1.
         11    1    3    3    0    0 -0.14885786211E+02 -0.78682352204E+01 -0.15068701276E+02  0.22595608312E+02  0.51100000000E-03 0. -1.
        -11    1    3    3    0    0 -0.18925907040E+02 -0.52480513998E+01 -0.99430643587E+01  0.22013553322E+02  0.51100000000E-03 0.  1.
        -12    1    3    3    0    0 -0.19255721457E+00  0.11388205234E+00 -0.15167462790E+01  0.15331557904E+01  0.00000000000E+00 0.  1.
</event>
<event>
 7    1  0.1549900E-008  0.4614231E+02  0.7816164E-02  0.1320468E+00
        -11   -1    0    0    0    0  0.00000000000E+00  0.00000000000E+00  0.45593999997E+02  0.45594000000E+02  0.51100000000E-03 0.  1.
         11   -1    0    0    0    0 -0.00000000000E+00 -0.00000000000E+00 -0.45593999997E+02  0.45594000000E+02  0.51100000000E-03 0. -1.
    9900012    2    1    2    0    0  0.10007127758E+02 -0.13780655417E+02 -0.41702099120E+02  0.46142310520E+02  0.99999339694E+01 0.  0.
        -12    1    1    2    0    0 -0.10007127758E+02  0.13780655417E+02  0.41702099120E+02  0.45045689480E+02  0.00000000000E+00 0.  1.
         11    1    3    3    0    0  0.66636546030E+01 -0.37249641631E+01 -0.11495457123E+02  0.13799463229E+02  0.51100000000E-03 0. -1.
        -11    1    3    3    0    0  0.43312070990E+01 -0.90479071945E+01 -0.24722462418E+02  0.26680032380E+02  0.51100000000E-03 0.  1.
         12    1    3    3    0    0 -0.98773394407E+00 -0.10077840597E+01 -0.54841795793E+01  0.56628149107E+01  0.00000000000E+00 0. -1.
</event>
<event>
 7    1  0.1549900E-008  0.4614232E+02  0.7816164E-02  0.1320468E+00
        -11   -1    0    0    0    0  0.00000000000E+00  0.00000000000E+00  0.45593999997E+02  0.45594000000E+02  0.51100000000E-03 0. -1.
         11   -1    0    0    0    0 -0.00000000000E+00 -0.00000000000E+00 -0.45593999997E+02  0.45594000000E+02  0.51100000000E-03 0.  1.
    9900012    2    1    2    0    0 -0.57443093304E+00  0.86584776529E+01  0.44201971686E+02  0.46142317553E+02  0.99999981048E+01 0.  0.
        -12    1    1    2    0    0  0.57443093304E+00 -0.86584776529E+01 -0.44201971686E+02  0.45045682447E+02  0.00000000000E+00 0.  1.
         11    1    3    3    0    0 -0.38714014219E+01  0.53542309783E+01  0.16785927437E+02  0.18039481659E+02  0.51100000000E-03 0.  1.
        -11    1    3    3    0    0  0.30361354810E+01  0.39897490171E+01  0.26255884542E+02  0.26730276639E+02  0.51100000000E-03 0. -1.
        -12    1    3    3    0    0  0.26083500788E+00 -0.68550234248E+00  0.11601597075E+01  0.13725592555E+01  0.00000000000E+00 0.  1.
</event>
<event>
 7    1  0.1549900E-008  0.4614232E+02  0.7816164E-02  0.1320468E+00
        -11   -1    0    0    0    0  0.00000000000E+00  0.00000000000E+00  0.45593999997E+02  0.45594000000E+02  0.51100000000E-03 0.  1.
         11   -1    0    0    0    0 -0.00000000000E+00 -0.00000000000E+00 -0.45593999997E+02  0.45594000000E+02  0.51100000000E-03 0. -1.
    9900012    2    1    2    0    0  0.38817814091E+02 -0.22832690810E+02  0.97933963071E+00  0.46142316893E+02  0.99999920883E+01 0.  0.
        -12    1    1    2    0    0 -0.38817814091E+02  0.22832690810E+02 -0.97933963071E+00  0.45045683107E+02  0.00000000000E+00 0.  1.
         11    1    3    3    0    0  0.44679910604E+01  0.73019503200E-01  0.11472807499E+01  0.46135159416E+01  0.51100000000E-03 0.  1.
        -11    1    3    3    0    0  0.14277725610E+02 -0.91467125732E+01 -0.22492313221E+01  0.17104819242E+02  0.51100000000E-03 0. -1.
        -12    1    3    3    0    0  0.20072097420E+02 -0.13758997740E+02  0.20812902029E+01  0.24423981710E+02  0.00000000000E+00 0.  1.
</event>
<event>
 7    1  0.1549900E-008  0.4614232E+02  0.7816164E-02  0.1320468E+00
        -11   -1    0    0    0    0  0.00000000000E+00  0.00000000000E+00  0.45593999997E+02  0.45594000000E+02  0.51100000000E-03 0.  1.
         11   -1    0    0    0    0 -0.00000000000E+00 -0.00000000000E+00 -0.45593999997E+02  0.45594000000E+02  0.51100000000E-03 0. -1.
    9900012    2    1    2    0    0  0.22023455141E+02 -0.36745177506E+02 -0.13923817543E+02  0.46142319394E+02  0.10000014887E+02 0.  0.
        -12    1    1    2    0    0 -0.22023455141E+02  0.36745177506E+02  0.13923817543E+02  0.45045680606E+02  0.00000000000E+00 0.  1.
         11    1    3    3    0    0  0.12751267702E+02 -0.24267609125E+02 -0.62688336281E+01  0.28121343424E+02  0.51100000000E-03 0.  1.
        -11    1    3    3    0    0  0.47510223560E+01 -0.75989905001E+01 -0.69326892307E+01  0.11330447929E+02  0.51100000000E-03 0. -1.
        -12    1    3    3    0    0  0.45211650826E+01 -0.48785778813E+01 -0.72229468456E+00  0.66905280404E+01  0.00000000000E+00 0.  1.
</event>
<event>
 7    1  0.1549900E-008  0.4614232E+02  0.7816164E-02  0.1320468E+00
        -11   -1    0    0    0    0  0.00000000000E+00  0.00000000000E+00  0.45593999997E+02  0.45594000000E+02  0.51100000000E-03 0. -1.
         11   -1    0    0    0    0 -0.00000000000E+00 -0.00000000000E+00 -0.45593999997E+02  0.45594000000E+02  0.51100000000E-03 0.  1.
    9900012    2    1    2    0    0  0.33294749191E+02 -0.30159105556E+02  0.33168826867E+01  0.46142315608E+02  0.99999803651E+01 0.  0.
        -12    1    1    2    0    0 -0.33294749191E+02  0.30159105556E+02 -0.33168826867E+01  0.45045684392E+02  0.00000000000E+00 0.  1.
         11    1    3    3    0    0  0.83398485497E+00 -0.22579903312E+01 -0.80507226663E+00  0.25381474917E+01  0.51100000000E-03 0. -1.
        -11    1    3    3    0    0  0.13378003191E+02 -0.86242403751E+01  0.42674716860E+01  0.16479071766E+02  0.51100000000E-03 0.  1.
        -12    1    3    3    0    0  0.19082761145E+02 -0.19276874849E+02 -0.14551673276E+00  0.27125096350E+02  0.00000000000E+00 0.  1.
</event>
<event>
 7    1  0.1549900E-008  0.4614232E+02  0.7816164E-02  0.1320468E+00
        -11   -1    0    0    0    0  0.00000000000E+00  0.00000000000E+00  0.45593999997E+02  0.45594000000E+02  0.51100000000E-03 0. -1.
         11   -1    0    0    0    0 -0.00000000000E+00 -0.00000000000E+00 -0.45593999997E+02  0.45594000000E+02  0.51100000000E-03 0.  1.
    9900012    2    1    2    0    0  0.98377364838E+01 -0.36183740444E+02  0.24961356839E+02  0.46142318000E+02  0.10000002177E+02 0.  0.
        -12    1    1    2    0    0 -0.98377364838E+01  0.36183740444E+02 -0.24961356839E+02  0.45045682000E+02  0.00000000000E+00 0.  1.
         11    1    3    3    0    0 -0.13038733419E+01 -0.95256336389E+00  0.10842063495E+01  0.19449849160E+01  0.51100000000E-03 0. -1.
        -11    1    3    3    0    0  0.54773867511E+01 -0.12220191046E+02  0.70596685471E+01  0.15138485892E+02  0.51100000000E-03 0.  1.
         12    1    3    3    0    0  0.56642230746E+01 -0.23010986033E+02  0.16817481942E+02  0.29058847192E+02  0.00000000000E+00 0. -1.
</event>
<event>
 7    1  0.1549900E-008  0.4614232E+02  0.7816164E-02  0.1320468E+00
        -11   -1    0    0    0    0  0.00000000000E+00  0.00000000000E+00  0.45593999997E+02  0.45594000000E+02  0.51100000000E-03 0.  1.
         11   -1    0    0    0    0 -0.00000000000E+00 -0.00000000000E+00 -0.45593999997E+02  0.45594000000E+02  0.51100000000E-03 0. -1.
    9900012    2    1    2    0    0 -0.34058682035E+01  0.28329743043E+02 -0.34855977737E+02  0.46142318041E+02  0.10000002555E+02 0.  0.
        -12    1    1    2    0    0  0.34058682035E+01 -0.28329743043E+02  0.34855977737E+02  0.45045681959E+02  0.00000000000E+00 0.  1.
         11    1    3    3    0    0 -0.37350552393E+01  0.17840419450E+02 -0.23254762248E+02  0.29546830139E+02  0.51100000000E-03 0. -1.
        -11    1    3    3    0    0  0.12348399673E+01 -0.87825392485E-01 -0.14599127186E+01  0.19141286403E+01  0.51100000000E-03 0.  1.
        -12    1    3    3    0    0 -0.90565293144E+00  0.10577148986E+02 -0.10141302771E+02  0.14681359262E+02  0.00000000000E+00 0.  1.
</event>
<event>
 7    1  0.1549900E-008  0.4614233E+02  0.7816164E-02  0.1320468E+00
        -11   -1    0    0    0    0  0.00000000000E+00  0.00000000000E+00  0.45593999997E+02  0.45594000000E+02  0.51100000000E-03 0.  1.
         11   -1    0    0    0    0 -0.00000000000E+00 -0.00000000000E+00 -0.45593999997E+02  0.45594000000E+02  0.51100000000E-03 0. -1.
    9900012    2    1    2    0    0 -0.10208079833E+02 -0.33162210125E+02 -0.28725867571E+02  0.46142328266E+02  0.10000095791E+02 0.  0.
        -12    1    1    2    0    0  0.10208079833E+02  0.33162210125E+02  0.28725867571E+02  0.45045671734E+02  0.00000000000E+00 0.  1.
         11    1    3    3    0    0 -0.66808496492E+01 -0.21309607214E+02 -0.16348251249E+02  0.27676676658E+02  0.51100000000E-03 0. -1.
        -11    1    3    3    0    0 -0.20330561241E+01 -0.29855618658E+01 -0.72858405949E+01  0.81320581831E+01  0.51100000000E-03 0.  1.
        -12    1    3    3    0    0 -0.14941740601E+01 -0.88670410454E+01 -0.50917757273E+01  0.10333593425E+02  0.00000000000E+00 0.  1.
</event>
<event>
 7    1  0.1549900E-008  0.4614232E+02  0.7816164E-02  0.1320468E+00
        -11   -1    0    0    0    0  0.00000000000E+00  0.00000000000E+00  0.45593999997E+02  0.45594000000E+02  0.51100000000E-03 0.  1.
         11   -1    0    0    0    0 -0.00000000000E+00 -0.00000000000E+00 -0.45593999997E+02  0.45594000000E+02  0.51100000000E-03 0. -1.
    9900012    2    1    2    0    0  0.17618106214E+02 -0.82625959727E+00 -0.41449156298E+02  0.46142323966E+02  0.10000056583E+02 0.  0.
        -12    1    1    2    0    0 -0.17618106214E+02  0.82625959727E+00  0.41449156298E+02  0.45045676034E+02  0.00000000000E+00 0.  1.
         11    1    3    3    0    0  0.92693984742E+01 -0.61663388772E+00 -0.25587980707E+02  0.27222173726E+02  0.51100000000E-03 0. -1.
        -11    1    3    3    0    0  0.17276077246E+01 -0.17430265564E+01 -0.11402682398E+01  0.27061008751E+01  0.51100000000E-03 0.  1.
         12    1    3    3    0    0  0.66211000157E+01  0.15334008468E+01 -0.14720907351E+02  0.16214049365E+02  0.00000000000E+00 0. -1.
</event>
<event>
 7    1  0.1549900E-008  0.4614232E+02  0.7816164E-02  0.1320468E+00
        -11   -1    0    0    0    0  0.00000000000E+00  0.00000000000E+00  0.45593999997E+02  0.45594000000E+02  0.51100000000E-03 0.  1.
         11   -1    0    0    0    0 -0.00000000000E+00 -0.00000000000E+00 -0.45593999997E+02  0.45594000000E+02  0.51100000000E-03 0. -1.
    9900012    2    1    2    0    0  0.67506174093E+01  0.26713559425E+02 -0.35636055850E+02  0.46142316865E+02  0.99999918295E+01 0.  0.
        -12    1    1    2    0    0 -0.67506174093E+01 -0.26713559425E+02  0.35636055850E+02  0.45045683135E+02  0.00000000000E+00 0.  1.
         11    1    3    3    0    0  0.48675997948E+01  0.24228911725E+02 -0.26243112075E+02  0.36047671531E+02  0.51100000000E-03 0. -1.
        -11    1    3    3    0    0  0.19293024395E+01  0.10906380486E+01 -0.46547114088E+01  0.51553892013E+01  0.51100000000E-03 0.  1.
         12    1    3    3    0    0 -0.46284825048E-01  0.13940096510E+01 -0.47382323661E+01  0.49392561330E+01  0.00000000000E+00 0. -1.
</event>
<event>
 7    1  0.1549900E-008  0.4614232E+02  0.7816164E-02  0.1320468E+00
        -11   -1    0    0    0    0  0.00000000000E+00  0.00000000000E+00  0.45593999997E+02  0.45594000000E+02  0.51100000000E-03 0.  1.
         11   -1    0    0    0    0 -0.00000000000E+00 -0.00000000000E+00 -0.45593999997E+02  0.45594000000E+02  0.51100000000E-03 0. -1.
    9900012    2    1    2    0    0 -0.18262787367E+02 -0.38573414653E+02 -0.14410941201E+02  0.46142323773E+02  0.10000054824E+02 0.  0.
        -12    1    1    2    0    0  0.18262787367E+02  0.38573414653E+02  0.14410941201E+02  0.45045676227E+02  0.00000000000E+00 0.  1.
         11    1    3    3    0    0 -0.11309343428E+02 -0.26462192946E+02 -0.88337838034E+01  0.30102900871E+02  0.51100000000E-03 0. -1.
        -11    1    3    3    0    0 -0.50912038585E+01 -0.67794107761E+01 -0.57952051961E+00  0.84980357432E+01  0.51100000000E-03 0.  1.
        -12    1    3    3    0    0 -0.18622400802E+01 -0.53318109312E+01 -0.49976368782E+01  0.75413871594E+01  0.00000000000E+00 0.  1.
</event>
<event>
 7    1  0.1549900E-008  0.4614232E+02  0.7816164E-02  0.1320468E+00
        -11   -1    0    0    0    0  0.00000000000E+00  0.00000000000E+00  0.45593999997E+02  0.45594000000E+02  0.51100000000E-03 0.  1.
         11   -1    0    0    0    0 -0.00000000000E+00 -0.00000000000E+00 -0.45593999997E+02  0.45594000000E+02  0.51100000000E-03 0. -1.
    9900012    2    1    2    0    0 -0.42279258540E+02 -0.10624788331E+02 -0.11344229329E+02  0.46142319088E+02  0.10000012101E+02 0.  0.
        -12    1    1    2    0    0  0.42279258540E+02  0.10624788331E+02  0.11344229329E+02  0.45045680912E+02  0.00000000000E+00 0.  1.
         11    1    3    3    0    0 -0.24268881279E+02 -0.69121047348E+01 -0.46121770703E+01  0.25652055824E+02  0.51100000000E-03 0. -1.
        -11    1    3    3    0    0 -0.10104645325E+02 -0.13104843343E+01 -0.67596234715E+01  0.12227580957E+02  0.51100000000E-03 0.  1.
        -12    1    3    3    0    0 -0.79057319354E+01 -0.24021992621E+01  0.27571212494E-01  0.82626823067E+01  0.00000000000E+00 0.  1.
</event>
<event>
 7    1  0.1549900E-008  0.4614232E+02  0.7816164E-02  0.1320468E+00
        -11   -1    0    0    0    0  0.00000000000E+00  0.00000000000E+00  0.45593999997E+02  0.45594000000E+02  0.51100000000E-03 0.  1.
         11   -1    0    0    0    0 -0.00000000000E+00 -0.00000000000E+00 -0.45593999997E+02  0.45594000000E+02  0.51100000000E-03 0. -1.
    9900012    2    1    2    0    0  0.21836985962E+02 -0.18450993520E+02 -0.34811210277E+02  0.46142317868E+02  0.10000000978E+02 0.  0.
        -12    1    1    2    0    0 -0.21836985962E+02  0.18450993520E+02  0.34811210277E+02  0.45045682132E+02  0.00000000000E+00 0.  1.
         11    1    3    3    0    0  0.66909660116E+01 -0.32241913554E+01 -0.13304320478E+02  0.15237105358E+02  0.51100000000E-03 0.  1.
        -11    1    3    3    0    0  0.35568183398E+00 -0.13154595681E+01 -0.49304369290E-01  0.13635888766E+01  0.51100000000E-03 0. -1.
         12    1    3    3    0    0  0.14790338117E+02 -0.13911342596E+02 -0.21457585429E+02  0.29541623633E+02  0.00000000000E+00 0. -1.
</event>
<event>
 7    1  0.1549900E-008  0.4614232E+02  0.7816164E-02  0.1320468E+00
        -11   -1    0    0    0    0  0.00000000000E+00  0.00000000000E+00  0.45593999997E+02  0.45594000000E+02  0.51100000000E-03 0.  1.
         11   -1    0    0    0    0 -0.00000000000E+00 -0.00000000000E+00 -0.45593999997E+02  0.45594000000E+02  0.51100000000E-03 0. -1.
    9900012    2    1    2    0    0 -0.44763601296E+02  0.40851870791E+01 -0.29401905676E+01  0.46142317909E+02  0.10000001353E+02 0.  0.
        -12    1    1    2    0    0  0.44763601296E+02 -0.40851870791E+01  0.29401905676E+01  0.45045682091E+02  0.00000000000E+00 0.  1.
         11    1    3    3    0    0 -0.30817484582E+02  0.17586652818E+01 -0.13426735486E+01  0.30896812653E+02  0.51100000000E-03 0. -1.
        -11    1    3    3    0    0 -0.80641054742E+01  0.28526663008E+01 -0.31896549330E+01  0.91291511640E+01  0.51100000000E-03 0.  1.
         12    1    3    3    0    0 -0.58820112389E+01 -0.52614450352E+00  0.15921379139E+01  0.61163540930E+01  0.00000000000E+00 0. -1.
</event>
<event>
 7    1  0.1549900E-008  0.4614232E+02  0.7816164E-02  0.1320468E+00
        -11   -1    0    0    0    0  0.00000000000E+00  0.00000000000E+00  0.45593999997E+02  0.45594000000E+02  0.51100000000E-03 0.  1.
         11   -1    0    0    0    0 -0.00000000000E+00 -0.00000000000E+00 -0.45593999997E+02  0.45594000000E+02  0.51100000000E-03 0. -1.
    9900012    2    1    2    0    0 -0.30732376285E+02 -0.17929503440E+02  0.27625487155E+02  0.46142316675E+02  0.99999900916E+01 0.  0.
        -12    1    1    2    0    0  0.30732376285E+02  0.17929503440E+02 -0.27625487155E+02  0.45045683325E+02  0.00000000000E+00 0.  1.
         11    1    3    3    0    0 -0.13279966584E+02 -0.51197642418E+01  0.81144204615E+01  0.16383324389E+02  0.51100000000E-03 0. -1.
        -11    1    3    3    0    0 -0.30727818655E+01 -0.15056429872E+01  0.63901978869E+01  0.72486949511E+01  0.51100000000E-03 0.  1.
         12    1    3    3    0    0 -0.14379627836E+02 -0.11304096211E+02  0.13120868806E+02  0.22510297334E+02  0.00000000000E+00 0. -1.
</event>
<event>
 7    1  0.1549900E-008  0.4614232E+02  0.7816164E-02  0.1320468E+00
        -11   -1    0    0    0    0  0.00000000000E+00  0.00000000000E+00  0.45593999997E+02  0.45594000000E+02  0.51100000000E-03 0.  1.
         11   -1    0    0    0    0 -0.00000000000E+00 -0.00000000000E+00 -0.45593999997E+02  0.45594000000E+02  0.51100000000E-03 0. -1.
    9900012    2    1    2    0    0 -0.15362012042E+02 -0.11371382486E+02 -0.40789872777E+02  0.46142317912E+02  0.10000001378E+02 0.  0.
        -12    1    1    2    0    0  0.15362012042E+02  0.11371382486E+02  0.40789872777E+02  0.45045682088E+02  0.00000000000E+00 0.  1.
         11    1    3    3    0    0 -0.11327003369E+02 -0.50654643891E+01 -0.21348242380E+02  0.24692253599E+02  0.51100000000E-03 0. -1.
        -11    1    3    3    0    0 -0.68195497015E+00 -0.49681582213E+01 -0.79018924182E+01  0.93588227221E+01  0.51100000000E-03 0.  1.
         12    1    3    3    0    0 -0.33530537035E+01 -0.13377598752E+01 -0.11539737978E+02  0.12091241592E+02  0.00000000000E+00 0. -1.
</event>
<event>
 7    1  0.1549900E-008  0.4614232E+02  0.7816164E-02  0.1320468E+00
        -11   -1    0    0    0    0  0.00000000000E+00  0.00000000000E+00  0.45593999997E+02  0.45594000000E+02  0.51100000000E-03 0.  1.
         11   -1    0    0    0    0 -0.00000000000E+00 -0.00000000000E+00 -0.45593999997E+02  0.45594000000E+02  0.51100000000E-03 0. -1.
    9900012    2    1    2    0    0 -0.17671334968E+02  0.33651630207E+02 -0.24174472826E+02  0.46142318391E+02  0.10000005747E+02 0.  0.
        -12    1    1    2    0    0  0.17671334968E+02 -0.33651630207E+02  0.24174472826E+02  0.45045681609E+02  0.00000000000E+00 0.  1.
         11    1    3    3    0    0 -0.26831233734E+01  0.60096124480E+01 -0.53391571147E+01  0.84747384484E+01  0.51100000000E-03 0. -1.
        -11    1    3    3    0    0 -0.15167646733E+02  0.26482225058E+02 -0.19596930388E+02  0.36268518475E+02  0.51100000000E-03 0.  1.
        -12    1    3    3    0    0  0.17943513784E+00  0.11597927006E+01  0.76161467617E+00  0.13990614683E+01  0.00000000000E+00 0.  1.
</event>
<event>
 7    1  0.1549900E-008  0.4614232E+02  0.7816164E-02  0.1320468E+00
        -11   -1    0    0    0    0  0.00000000000E+00  0.00000000000E+00  0.45593999997E+02  0.45594000000E+02  0.51100000000E-03 0.  1.
         11   -1    0    0    0    0 -0.00000000000E+00 -0.00000000000E+00 -0.45593999997E+02  0.45594000000E+02  0.51100000000E-03 0. -1.
    9900012    2    1    2    0    0  0.77417109873E+01  0.37352177844E+01 -0.44217957415E+02  0.46142315425E+02  0.99999786945E+01 0.  0.
        -12    1    1    2    0    0 -0.77417109873E+01 -0.37352177844E+01  0.44217957415E+02  0.45045684575E+02  0.00000000000E+00 0.  1.
         11    1    3    3    0    0  0.86882587701E+01  0.16110149106E+01 -0.27427231552E+02  0.28815520824E+02  0.51100000000E-03 0. -1.
        -11    1    3    3    0    0 -0.11708132633E+01  0.98949187344E+00 -0.15569397370E+02  0.15644680649E+02  0.51100000000E-03 0.  1.
         12    1    3    3    0    0  0.22426548043E+00  0.11347110003E+01 -0.12213284929E+01  0.16821139520E+01  0.00000000000E+00 0. -1.
</event>
<event>
 7    1  0.1549900E-008  0.4614232E+02  0.7816164E-02  0.1320468E+00
        -11   -1    0    0    0    0  0.00000000000E+00  0.00000000000E+00  0.45593999997E+02  0.45594000000E+02  0.51100000000E-03 0.  1.
         11   -1    0    0    0    0 -0.00000000000E+00 -0.00000000000E+00 -0.45593999997E+02  0.45594000000E+02  0.51100000000E-03 0. -1.
    9900012    2    1    2    0    0 -0.21304793667E+02  0.37136818528E+02  0.14002713048E+02  0.46142317673E+02  0.99999991961E+01 0.  0.
        -12    1    1    2    0    0  0.21304793667E+02 -0.37136818528E+02 -0.14002713048E+02  0.45045682327E+02  0.00000000000E+00 0.  1.
         11    1    3    3    0    0 -0.10459684501E+02  0.15677523864E+02  0.57174982043E+01  0.19694657659E+02  0.51100000000E-03 0. -1.
        -11    1    3    3    0    0 -0.97776724690E+01  0.21682885918E+02  0.70682440804E+01  0.24813514368E+02  0.51100000000E-03 0.  1.
        -12    1    3    3    0    0 -0.10674366972E+01 -0.22359125342E+00  0.12169707635E+01  0.16341456454E+01  0.00000000000E+00 0.  1.
</event>
<event>
 7    1  0.1549900E-008  0.4614232E+02  0.7816164E-02  0.1320468E+00
        -11   -1    0    0    0    0  0.00000000000E+00  0.00000000000E+00  0.45593999997E+02  0.45594000000E+02  0.51100000000E-03 0. -1.
         11   -1    0    0    0    0 -0.00000000000E+00 -0.00000000000E+00 -0.45593999997E+02  0.45594000000E+02  0.51100000000E-03 0.  1.
    9900012    2    1    2    0    0  0.58237017079E+01  0.69723992683E+01  0.44120104903E+02  0.46142317523E+02  0.99999978305E+01 0.  0.
        -12    1    1    2    0    0 -0.58237017079E+01 -0.69723992683E+01 -0.44120104903E+02  0.45045682477E+02  0.00000000000E+00 0.  1.
         11    1    3    3    0    0  0.40419235850E+01  0.66317221536E+01  0.16730166227E+02  0.18444927412E+02  0.51100000000E-03 0.  1.
        -11    1    3    3    0    0  0.15673215005E+01  0.14339741020E+01  0.24624432679E+02  0.24715894955E+02  0.51100000000E-03 0. -1.
        -12    1    3    3    0    0  0.21445662238E+00 -0.10932969873E+01  0.27655059974E+01  0.29814951563E+01  0.00000000000E+00 0.  1.
</event>
<event>
 7    1  0.1549900E-008  0.4614232E+02  0.7816164E-02  0.1320468E+00
        -11   -1    0    0    0    0  0.00000000000E+00  0.00000000000E+00  0.45593999997E+02  0.45594000000E+02  0.51100000000E-03 0.  1.
         11   -1    0    0    0    0 -0.00000000000E+00 -0.00000000000E+00 -0.45593999997E+02  0.45594000000E+02  0.51100000000E-03 0. -1.
    9900012    2    1    2    0    0  0.44119110941E+02 -0.39069018448E+01  0.82069338803E+01  0.46142316567E+02  0.99999891108E+01 0.  0.
        -12    1    1    2    0    0 -0.44119110941E+02  0.39069018448E+01 -0.82069338803E+01  0.45045683433E+02  0.00000000000E+00 0.  1.
         11    1    3    3    0    0  0.32514756865E+02 -0.21158790455E+01  0.50388554375E+01  0.32970842005E+02  0.51100000000E-03 0. -1.
        -11    1    3    3    0    0  0.33119212648E+01 -0.28722305567E+01  0.15765116516E+01  0.46587466215E+01  0.51100000000E-03 0.  1.
         12    1    3    3    0    0  0.82924328110E+01  0.10812077573E+01  0.15915667912E+01  0.85127279405E+01  0.00000000000E+00 0. -1.
</event>
<event>
 7    1  0.1549900E-008  0.4614232E+02  0.7816164E-02  0.1320468E+00
        -11   -1    0    0    0    0  0.00000000000E+00  0.00000000000E+00  0.45593999997E+02  0.45594000000E+02  0.51100000000E-03 0.  1.
         11   -1    0    0    0    0 -0.00000000000E+00 -0.00000000000E+00 -0.45593999997E+02  0.45594000000E+02  0.51100000000E-03 0. -1.
    9900012    2    1    2    0    0 -0.14040308434E+02  0.11098572155E+02 -0.41337693938E+02  0.46142317577E+02  0.99999983218E+01 0.  0.
        -12    1    1    2    0    0  0.14040308434E+02 -0.11098572155E+02  0.41337693938E+02  0.45045682423E+02  0.00000000000E+00 0.  1.
         11    1    3    3    0    0 -0.10893395720E+02  0.69068733105E+01 -0.20844585392E+02  0.24512603078E+02  0.51100000000E-03 0. -1.
        -11    1    3    3    0    0 -0.17411641397E+01  0.49049410841E+01 -0.13681456826E+02  0.14638044977E+02  0.51100000000E-03 0.  1.
        -12    1    3    3    0    0 -0.14057485748E+01 -0.71324224002E+00 -0.68116517201E+01  0.69916695220E+01  0.00000000000E+00 0.  1.
</event>
<event>
 7    1  0.1549900E-008  0.4614231E+02  0.7816164E-02  0.1320468E+00
        -11   -1    0    0    0    0  0.00000000000E+00  0.00000000000E+00  0.45593999997E+02  0.45594000000E+02  0.51100000000E-03 0.  1.
         11   -1    0    0    0    0 -0.00000000000E+00 -0.00000000000E+00 -0.45593999997E+02  0.45594000000E+02  0.51100000000E-03 0. -1.
    9900012    2    1    2    0    0 -0.44728317293E-01  0.14409732061E+02 -0.42678699126E+02  0.46142314993E+02  0.99999747565E+01 0.  0.
        -12    1    1    2    0    0  0.44728317293E-01 -0.14409732061E+02  0.42678699126E+02  0.45045685007E+02  0.00000000000E+00 0.  1.
         11    1    3    3    0    0 -0.17798678999E+01  0.63699147532E+01 -0.12015537780E+02  0.13715571155E+02  0.51100000000E-03 0. -1.
        -11    1    3    3    0    0 -0.12985532019E+01 -0.28051442681E+00 -0.18113242414E+01  0.22462912835E+01  0.51100000000E-03 0.  1.
        -12    1    3    3    0    0  0.30336927845E+01  0.83203317345E+01 -0.28851837104E+02  0.30180452554E+02  0.00000000000E+00 0.  1.
</event>
<event>
 7    1  0.1549900E-008  0.4614231E+02  0.7816164E-02  0.1320468E+00
        -11   -1    0    0    0    0  0.00000000000E+00  0.00000000000E+00  0.45593999997E+02  0.45594000000E+02  0.51100000000E-03 0.  1.
         11   -1    0    0    0    0 -0.00000000000E+00 -0.00000000000E+00 -0.45593999997E+02  0.45594000000E+02  0.51100000000E-03 0. -1.
    9900012    2    1    2    0    0 -0.24674633804E+02 -0.76883910756E+01 -0.36893968533E+02  0.46142314027E+02  0.99999659452E+01 0.  0.
        -12    1    1    2    0    0  0.24674633804E+02  0.76883910756E+01  0.36893968533E+02  0.45045685973E+02  0.00000000000E+00 0.  1.
         11    1    3    3    0    0 -0.20307886504E+02 -0.87778190205E+01 -0.26900362177E+02  0.34829439365E+02  0.51100000000E-03 0. -1.
        -11    1    3    3    0    0 -0.32275714636E+01  0.10293450633E+01 -0.94699436883E+01  0.10057663870E+02  0.51100000000E-03 0.  1.
         12    1    3    3    0    0 -0.11391758363E+01  0.60082881596E-01 -0.52366266832E+00  0.12552107906E+01  0.00000000000E+00 0. -1.
</event>
<event>
 7    1  0.1549900E-008  0.4614232E+02  0.7816164E-02  0.1320468E+00
        -11   -1    0    0    0    0  0.00000000000E+00  0.00000000000E+00  0.45593999997E+02  0.45594000000E+02  0.51100000000E-03 0.  1.
         11   -1    0    0    0    0 -0.00000000000E+00 -0.00000000000E+00 -0.45593999997E+02  0.45594000000E+02  0.51100000000E-03 0. -1.
    9900012    2    1    2    0    0 -0.32758998816E+02  0.28776600153E+02 -0.11307906863E+02  0.46142317882E+02  0.10000001106E+02 0.  0.
        -12    1    1    2    0    0  0.32758998816E+02 -0.28776600153E+02  0.11307906863E+02  0.45045682118E+02  0.00000000000E+00 0.  1.
         11    1    3    3    0    0 -0.41512453637E+01  0.23397731728E+01 -0.35660043413E+01  0.59517866051E+01  0.51100000000E-03 0. -1.
        -11    1    3    3    0    0 -0.23757808783E+01  0.49648250856E+01 -0.50286962918E+00  0.55269070046E+01  0.51100000000E-03 0.  1.
         12    1    3    3    0    0 -0.26231972574E+02  0.21472001895E+02 -0.72390328925E+01  0.34663624273E+02  0.00000000000E+00 0. -1.
</event>
<event>
 7    1  0.1549900E-008  0.4614232E+02  0.7816164E-02  0.1320468E+00
        -11   -1    0    0    0    0  0.00000000000E+00  0.00000000000E+00  0.45593999997E+02  0.45594000000E+02  0.51100000000E-03 0.  1.
         11   -1    0    0    0    0 -0.00000000000E+00 -0.00000000000E+00 -0.45593999997E+02  0.45594000000E+02  0.51100000000E-03 0. -1.
    9900012    2    1    2    0    0  0.40006172232E+02  0.18886693088E+02 -0.84801255416E+01  0.46142317392E+02  0.99999966353E+01 0.  0.
        -12    1    1    2    0    0 -0.40006172232E+02 -0.18886693088E+02  0.84801255416E+01  0.45045682608E+02  0.00000000000E+00 0.  1.
         11    1    3    3    0    0  0.23642855725E+02  0.74073530127E+01 -0.10939085311E+01  0.24800204467E+02  0.51100000000E-03 0. -1.
        -11    1    3    3    0    0  0.10501899264E+02  0.70021847028E+01 -0.41421116795E+01  0.13284485997E+02  0.51100000000E-03 0.  1.
         12    1    3    3    0    0  0.58614172426E+01  0.44771553722E+01 -0.32441053310E+01  0.80576269284E+01  0.00000000000E+00 0. -1.
</event>
<event>
 7    1  0.1549900E-008  0.4614232E+02  0.7816164E-02  0.1320468E+00
        -11   -1    0    0    0    0  0.00000000000E+00  0.00000000000E+00  0.45593999997E+02  0.45594000000E+02  0.51100000000E-03 0.  1.
         11   -1    0    0    0    0 -0.00000000000E+00 -0.00000000000E+00 -0.45593999997E+02  0.45594000000E+02  0.51100000000E-03 0. -1.
    9900012    2    1    2    0    0  0.17678304944E+01  0.12517206045E+02 -0.43235493798E+02  0.46142316569E+02  0.99999891261E+01 0.  0.
        -12    1    1    2    0    0 -0.17678304944E+01 -0.12517206045E+02  0.43235493798E+02  0.45045683431E+02  0.00000000000E+00 0.  1.
         11    1    3    3    0    0  0.36493458431E+01  0.48155769372E+01 -0.27988485184E+02  0.28633246575E+02  0.51100000000E-03 0. -1.
        -11    1    3    3    0    0 -0.21107456701E+01  0.60928296780E+01 -0.91135623662E+01  0.11163997493E+02  0.51100000000E-03 0.  1.
        -12    1    3    3    0    0  0.22923032150E+00  0.16087994302E+01 -0.61334462482E+01  0.63450724997E+01  0.00000000000E+00 0.  1.
</event>
<event>
 7    1  0.1549900E-008  0.4614232E+02  0.7816164E-02  0.1320468E+00
        -11   -1    0    0    0    0  0.00000000000E+00  0.00000000000E+00  0.45593999997E+02  0.45594000000E+02  0.51100000000E-03 0.  1.
         11   -1    0    0    0    0 -0.00000000000E+00 -0.00000000000E+00 -0.45593999997E+02  0.45594000000E+02  0.51100000000E-03 0. -1.
    9900012    2    1    2    0    0 -0.44239830877E+02 -0.53675804903E+01 -0.65680958347E+01  0.46142318306E+02  0.10000004969E+02 0.  0.
        -12    1    1    2    0    0  0.44239830877E+02  0.53675804903E+01  0.65680958347E+01  0.45045681694E+02  0.00000000000E+00 0.  1.
         11    1    3    3    0    0 -0.22731187791E+02 -0.42249142074E+01 -0.14087477688E+01  0.23163362644E+02  0.51100000000E-03 0. -1.
        -11    1    3    3    0    0 -0.11030137361E+02 -0.23657888469E+01 -0.52175441114E+01  0.12429145340E+02  0.51100000000E-03 0.  1.
        -12    1    3    3    0    0 -0.10478505726E+02  0.12231225640E+01  0.58196045527E-01  0.10549810322E+02  0.00000000000E+00 0.  1.
</event>
<event>
 7    1  0.1549900E-008  0.4614232E+02  0.7816164E-02  0.1320468E+00
        -11   -1    0    0    0    0  0.00000000000E+00  0.00000000000E+00  0.45593999997E+02  0.45594000000E+02  0.51100000000E-03 0.  1.
         11   -1    0    0    0    0 -0.00000000000E+00 -0.00000000000E+00 -0.45593999997E+02  0.45594000000E+02  0.51100000000E-03 0. -1.
    9900012    2    1    2    0    0  0.11174204434E+02  0.36240175133E+02 -0.24308439916E+02  0.46142318858E+02  0.10000009999E+02 0.  0.
        -12    1    1    2    0    0 -0.11174204434E+02 -0.36240175133E+02  0.24308439916E+02  0.45045681142E+02  0.00000000000E+00 0.  1.
         11    1    3    3    0    0  0.14987965312E+01  0.68046315323E+00  0.19981836748E+00  0.16581160352E+01  0.51100000000E-03 0. -1.
        -11    1    3    3    0    0  0.46349309649E+01  0.24961851237E+02 -0.16765419314E+02  0.30424593461E+02  0.51100000000E-03 0.  1.
         12    1    3    3    0    0  0.50404769375E+01  0.10597860744E+02 -0.77428389698E+01  0.14059609362E+02  0.00000000000E+00 0. -1.
</event>
<event>
 7    1  0.1549900E-008  0.4614232E+02  0.7816164E-02  0.1320468E+00
        -11   -1    0    0    0    0  0.00000000000E+00  0.00000000000E+00  0.45593999997E+02  0.45594000000E+02  0.51100000000E-03 0.  1.
         11   -1    0    0    0    0 -0.00000000000E+00 -0.00000000000E+00 -0.45593999997E+02  0.45594000000E+02  0.51100000000E-03 0. -1.
    9900012    2    1    2    0    0 -0.28031093233E+01 -0.27018658000E+02 -0.35933933777E+02  0.46142324306E+02  0.10000059685E+02 0.  0.
        -12    1    1    2    0    0  0.28031093233E+01  0.27018658000E+02  0.35933933777E+02  0.45045675694E+02  0.00000000000E+00 0.  1.
         11    1    3    3    0    0  0.22254571226E+01 -0.30960017580E+01 -0.31429513765E+01  0.49412579275E+01  0.51100000000E-03 0.  1.
        -11    1    3    3    0    0 -0.59623035587E+01 -0.21860922082E+02 -0.30295554756E+02  0.37832124131E+02  0.51100000000E-03 0. -1.
         12    1    3    3    0    0  0.93373711269E+00 -0.20617341598E+01 -0.24954276449E+01  0.33689422483E+01  0.00000000000E+00 0. -1.
</event>
<event>
 7    1  0.1549900E-008  0.4614232E+02  0.7816164E-02  0.1320468E+00
        -11   -1    0    0    0    0  0.00000000000E+00  0.00000000000E+00  0.45593999997E+02  0.45594000000E+02  0.51100000000E-03 0.  1.
         11   -1    0    0    0    0 -0.00000000000E+00 -0.00000000000E+00 -0.45593999997E+02  0.45594000000E+02  0.51100000000E-03 0. -1.
    9900012    2    1    2    0    0 -0.13072683123E+02  0.27942647928E+02 -0.32824179699E+02  0.46142318851E+02  0.10000009937E+02 0.  0.
        -12    1    1    2    0    0  0.13072683123E+02 -0.27942647928E+02  0.32824179699E+02  0.45045681149E+02  0.00000000000E+00 0.  1.
         11    1    3    3    0    0 -0.67250759099E+01  0.15408898760E+02 -0.19990720627E+02  0.26120676072E+02  0.51100000000E-03 0. -1.
        -11    1    3    3    0    0  0.40749637822E+00  0.27880289122E+01 -0.40978026079E+00  0.28472932123E+01  0.51100000000E-03 0.  1.
         12    1    3    3    0    0 -0.67551035917E+01  0.97457202553E+01 -0.12423678812E+02  0.17174349567E+02  0.00000000000E+00 0. -1.
</event>
<event>
 7    1  0.1549900E-008  0.4614232E+02  0.7816164E-02  0.1320468E+00
        -11   -1    0    0    0    0  0.00000000000E+00  0.00000000000E+00  0.45593999997E+02  0.45594000000E+02  0.51100000000E-03 0.  1.
         11   -1    0    0    0    0 -0.00000000000E+00 -0.00000000000E+00 -0.45593999997E+02  0.45594000000E+02  0.51100000000E-03 0. -1.
    9900012    2    1    2    0    0  0.20924359542E+02 -0.29687461892E+02 -0.26644688988E+02  0.46142315777E+02  0.99999819056E+01 0.  0.
        -12    1    1    2    0    0 -0.20924359542E+02  0.29687461892E+02  0.26644688988E+02  0.45045684223E+02  0.00000000000E+00 0.  1.
         11    1    3    3    0    0 -0.31702633557E-01 -0.32575315878E+01 -0.32301934015E+01  0.45876646319E+01  0.51100000000E-03 0. -1.
        -11    1    3    3    0    0  0.79838652592E+01 -0.84282208761E+01 -0.11621504403E+02  0.16426697065E+02  0.51100000000E-03 0.  1.
         12    1    3    3    0    0  0.12972196917E+02 -0.18001709428E+02 -0.11792991184E+02  0.25127954080E+02  0.00000000000E+00 0. -1.
</event>
<event>
 7    1  0.1549900E-008  0.4614232E+02  0.7816164E-02  0.1320468E+00
        -11   -1    0    0    0    0  0.00000000000E+00  0.00000000000E+00  0.45593999997E+02  0.45594000000E+02  0.51100000000E-03 0. -1.
         11   -1    0    0    0    0 -0.00000000000E+00 -0.00000000000E+00 -0.45593999997E+02  0.45594000000E+02  0.51100000000E-03 0.  1.
    9900012    2    1    2    0    0 -0.24928954277E+02 -0.22391223790E+02  0.30104714866E+02  0.46142317396E+02  0.99999966666E+01 0.  0.
        -12    1    1    2    0    0  0.24928954277E+02  0.22391223790E+02 -0.30104714866E+02  0.45045682604E+02  0.00000000000E+00 0.  1.
         11    1    3    3    0    0 -0.35376172083E+01 -0.41973232375E+00  0.50156723498E+01  0.61520630782E+01  0.51100000000E-03 0. -1.
        -11    1    3    3    0    0 -0.12384544990E+02 -0.13592198658E+02  0.11635581653E+02  0.21760321221E+02  0.51100000000E-03 0.  1.
         12    1    3    3    0    0 -0.90067920788E+01 -0.83792928079E+01  0.13453460863E+02  0.18229933097E+02  0.00000000000E+00 0. -1.
</event>
<event>
 7    1  0.1549900E-008  0.4614232E+02  0.7816164E-02  0.1320468E+00
        -11   -1    0    0    0    0  0.00000000000E+00  0.00000000000E+00  0.45593999997E+02  0.45594000000E+02  0.51100000000E-03 0. -1.
         11   -1    0    0    0    0 -0.00000000000E+00 -0.00000000000E+00 -0.45593999997E+02  0.45594000000E+02  0.51100000000E-03 0.  1.
    9900012    2    1    2    0    0 -0.33355872655E+02 -0.12801667655E+02  0.27433857220E+02  0.46142318106E+02  0.10000003143E+02 0.  0.
        -12    1    1    2    0    0  0.33355872655E+02  0.12801667655E+02 -0.27433857220E+02  0.45045681894E+02  0.00000000000E+00 0.  1.
         11    1    3    3    0    0 -0.19617048186E+02 -0.61198940314E+01  0.16005184523E+02  0.26047026978E+02  0.51100000000E-03 0. -1.
        -11    1    3    3    0    0 -0.18015257585E+01 -0.52618362676E+00 -0.69546141020E+00  0.20015072075E+01  0.51100000000E-03 0.  1.
        -12    1    3    3    0    0 -0.11937298710E+02 -0.61555899965E+01  0.12124134107E+02  0.18093783920E+02  0.00000000000E+00 0.  1.
</event>
<event>
 7    1  0.1549900E-008  0.4614232E+02  0.7816164E-02  0.1320468E+00
        -11   -1    0    0    0    0  0.00000000000E+00  0.00000000000E+00  0.45593999997E+02  0.45594000000E+02  0.51100000000E-03 0.  1.
         11   -1    0    0    0    0 -0.00000000000E+00 -0.00000000000E+00 -0.45593999997E+02  0.45594000000E+02  0.51100000000E-03 0. -1.
    9900012    2    1    2    0    0  0.20734757222E+02 -0.16925389555E+02 -0.36231402216E+02  0.46142317907E+02  0.10000001333E+02 0.  0.
        -12    1    1    2    0    0 -0.20734757222E+02  0.16925389555E+02  0.36231402216E+02  0.45045682093E+02  0.00000000000E+00 0.  1.
         11    1    3    3    0    0  0.32033281355E+01 -0.39978287981E+01 -0.24308965286E+01  0.56703795672E+01  0.51100000000E-03 0.  1.
        -11    1    3    3    0    0  0.10181241013E+02 -0.49493420003E+01 -0.19090062680E+02  0.22194236823E+02  0.51100000000E-03 0. -1.
        -12    1    3    3    0    0  0.73501880741E+01 -0.79782187570E+01 -0.14710443008E+02  0.18277701517E+02  0.00000000000E+00 0.  1.
</event>
<event>
 7    1  0.1549900E-008  0.4614232E+02  0.7816164E-02  0.1320468E+00
        -11   -1    0    0    0    0  0.00000000000E+00  0.00000000000E+00  0.45593999997E+02  0.45594000000E+02  0.51100000000E-03 0. -1.
         11   -1    0    0    0    0 -0.00000000000E+00 -0.00000000000E+00 -0.45593999997E+02  0.45594000000E+02  0.51100000000E-03 0.  1.
    9900012    2    1    2    0    0  0.30851061120E+02  0.11674552067E+02  0.30676217327E+02  0.46142318212E+02  0.10000004114E+02 0.  0.
        -12    1    1    2    0    0 -0.30851061120E+02 -0.11674552067E+02 -0.30676217327E+02  0.45045681788E+02  0.00000000000E+00 0.  1.
         11    1    3    3    0    0  0.24321434976E+02  0.10123700482E+02  0.24848121565E+02  0.36213956651E+02  0.51100000000E-03 0. -1.
        -11    1    3    3    0    0  0.20124009115E+01 -0.15047476688E+01  0.24716189430E+01  0.35246167786E+01  0.51100000000E-03 0.  1.
        -12    1    3    3    0    0  0.45172252326E+01  0.30555992542E+01  0.33564768195E+01  0.64037447829E+01  0.00000000000E+00 0.  1.
</event>
<event>
 7    1  0.1549900E-008  0.4614232E+02  0.7816164E-02  0.1320468E+00
        -11   -1    0    0    0    0  0.00000000000E+00  0.00000000000E+00  0.45593999997E+02  0.45594000000E+02  0.51100000000E-03 0. -1.
         11   -1    0    0    0    0 -0.00000000000E+00 -0.00000000000E+00 -0.45593999997E+02  0.45594000000E+02  0.51100000000E-03 0.  1.
    9900012    2    1    2    0    0  0.37608452208E+02  0.24614318030E+02 -0.29754444684E+01  0.46142316530E+02  0.99999887701E+01 0.  0.
        -12    1    1    2    0    0 -0.37608452208E+02 -0.24614318030E+02  0.29754444684E+01  0.45045683470E+02  0.00000000000E+00 0.  1.
         11    1    3    3    0    0  0.14960334926E+02  0.12727738631E+02  0.40493723081E+00  0.19646142781E+02  0.51100000000E-03 0. -1.
        -11    1    3    3    0    0  0.14461007274E+02  0.46687451781E+01 -0.48296045157E+00  0.15203656270E+02  0.51100000000E-03 0.  1.
        -12    1    3    3    0    0  0.81871100078E+01  0.72178342205E+01 -0.28974212476E+01  0.11292517478E+02  0.00000000000E+00 0.  1.
</event>
<event>
 7    1  0.1549900E-008  0.4614232E+02  0.7816164E-02  0.1320468E+00
        -11   -1    0    0    0    0  0.00000000000E+00  0.00000000000E+00  0.45593999997E+02  0.45594000000E+02  0.51100000000E-03 0.  1.
         11   -1    0    0    0    0 -0.00000000000E+00 -0.00000000000E+00 -0.45593999997E+02  0.45594000000E+02  0.51100000000E-03 0. -1.
    9900012    2    1    2    0    0  0.56859677032E+01 -0.40961476404E+02 -0.17858915368E+02  0.46142316122E+02  0.99999850524E+01 0.  0.
        -12    1    1    2    0    0 -0.56859677032E+01  0.40961476404E+02  0.17858915368E+02  0.45045683878E+02  0.00000000000E+00 0.  1.
         11    1    3    3    0    0  0.51291302066E+01 -0.14853186851E+02 -0.82909428401E+01  0.17766960059E+02  0.51100000000E-03 0. -1.
        -11    1    3    3    0    0 -0.15350921948E+01 -0.21500046500E+02 -0.86818110586E+01  0.23237520329E+02  0.51100000000E-03 0.  1.
         12    1    3    3    0    0  0.20919296914E+01 -0.46082430540E+01 -0.88616146893E+00  0.51378357338E+01  0.00000000000E+00 0. -1.
</event>
<event>
 7    1  0.1549900E-008  0.4614232E+02  0.7816164E-02  0.1320468E+00
        -11   -1    0    0    0    0  0.00000000000E+00  0.00000000000E+00  0.45593999997E+02  0.45594000000E+02  0.51100000000E-03 0.  1.
         11   -1    0    0    0    0 -0.00000000000E+00 -0.00000000000E+00 -0.45593999997E+02  0.45594000000E+02  0.51100000000E-03 0. -1.
    9900012    2    1    2    0    0  0.11781453115E+02  0.42713602882E+02 -0.81153594119E+01  0.46142316888E+02  0.99999920350E+01 0.  0.
        -12    1    1    2    0    0 -0.11781453115E+02 -0.42713602882E+02  0.81153594119E+01  0.45045683112E+02  0.00000000000E+00 0.  1.
         11    1    3    3    0    0  0.35761598044E+01  0.98754965593E+01 -0.57168749598E+01  0.11958135758E+02  0.51100000000E-03 0. -1.
        -11    1    3    3    0    0  0.28968018550E+01  0.13457437549E+02  0.10097046799E+01  0.13802666053E+02  0.51100000000E-03 0.  1.
         12    1    3    3    0    0  0.53084914553E+01  0.19380668774E+02 -0.34081891320E+01  0.20381515077E+02  0.00000000000E+00 0. -1.
</event>
<event>
 7    1  0.1549900E-008  0.4614232E+02  0.7816164E-02  0.1320468E+00
        -11   -1    0    0    0    0  0.00000000000E+00  0.00000000000E+00  0.45593999997E+02  0.45594000000E+02  0.51100000000E-03 0. -1.
         11   -1    0    0    0    0 -0.00000000000E+00 -0.00000000000E+00 -0.45593999997E+02  0.45594000000E+02  0.51100000000E-03 0.  1.
    9900012    2    1    2    0    0  0.10055794173E+02 -0.34695649296E+02  0.26911083932E+02  0.46142317467E+02  0.99999973139E+01 0.  0.
        -12    1    1    2    0    0 -0.10055794173E+02  0.34695649296E+02 -0.26911083932E+02  0.45045682533E+02  0.00000000000E+00 0.  1.
         11    1    3    3    0    0  0.71535868524E+01 -0.14841343521E+02  0.12199309920E+02  0.20500303538E+02  0.51100000000E-03 0. -1.
        -11    1    3    3    0    0 -0.16361930454E+00  0.28020696284E+00 -0.21665682606E+00  0.39016363265E+00  0.51100000000E-03 0.  1.
         12    1    3    3    0    0  0.30658266248E+01 -0.20134512738E+02  0.14928430838E+02  0.25251850296E+02  0.00000000000E+00 0. -1.
</event>
<event>
 7    1  0.1549900E-008  0.4614232E+02  0.7816164E-02  0.1320468E+00
        -11   -1    0    0    0    0  0.00000000000E+00  0.00000000000E+00  0.45593999997E+02  0.45594000000E+02  0.51100000000E-03 0. -1.
         11   -1    0    0    0    0 -0.00000000000E+00 -0.00000000000E+00 -0.45593999997E+02  0.45594000000E+02  0.51100000000E-03 0.  1.
    9900012    2    1    2    0    0  0.17919459968E+02  0.34536006309E+01  0.41183480354E+02  0.46142318110E+02  0.10000003181E+02 0.  0.
        -12    1    1    2    0    0 -0.17919459968E+02 -0.34536006309E+01 -0.41183480354E+02  0.45045681890E+02  0.00000000000E+00 0.  1.
         11    1    3    3    0    0  0.11323214151E+01 -0.17284259103E+00  0.42982656534E-01  0.11462434812E+01  0.51100000000E-03 0. -1.
        -11    1    3    3    0    0  0.58909031238E+01  0.10922431850E+01  0.78431896909E+01  0.98697193262E+01  0.51100000000E-03 0.  1.
         12    1    3    3    0    0  0.10896235429E+02  0.25342000369E+01  0.33297308007E+02  0.35126355303E+02  0.00000000000E+00 0. -1.
</event>
<event>
 7    1  0.1549900E-008  0.4614232E+02  0.7816164E-02  0.1320468E+00
        -11   -1    0    0    0    0  0.00000000000E+00  0.00000000000E+00  0.45593999997E+02  0.45594000000E+02  0.51100000000E-03 0.  1.
         11   -1    0    0    0    0 -0.00000000000E+00 -0.00000000000E+00 -0.45593999997E+02  0.45594000000E+02  0.51100000000E-03 0. -1.
    9900012    2    1    2    0    0  0.61185265002E+01 -0.32062930166E+02 -0.31042637941E+02  0.46142320655E+02  0.10000026384E+02 0.  0.
        -12    1    1    2    0    0 -0.61185265002E+01  0.32062930166E+02  0.31042637941E+02  0.45045679345E+02  0.00000000000E+00 0.  1.
         11    1    3    3    0    0  0.53657059351E+01 -0.13961995380E+02 -0.11334077920E+02  0.18766710893E+02  0.51100000000E-03 0. -1.
        -11    1    3    3    0    0  0.95980765622E+00 -0.16769468488E+02 -0.15142410245E+02  0.22614793662E+02  0.51100000000E-03 0.  1.
        -12    1    3    3    0    0 -0.20698709113E+00 -0.13314662986E+01 -0.45661497755E+01  0.47608160995E+01  0.00000000000E+00 0.  1.
</event>
<event>
 7    1  0.1549900E-008  0.4614232E+02  0.7816164E-02  0.1320468E+00
        -11   -1    0    0    0    0  0.00000000000E+00  0.00000000000E+00  0.45593999997E+02  0.45594000000E+02  0.51100000000E-03 0. -1.
         11   -1    0    0    0    0 -0.00000000000E+00 -0.00000000000E+00 -0.45593999997E+02  0.45594000000E+02  0.51100000000E-03 0.  1.
    9900012    2    1    2    0    0 -0.20422579610E+02  0.30921459975E+02  0.25610446232E+02  0.46142318729E+02  0.10000008829E+02 0.  0.
        -12    1    1    2    0    0  0.20422579610E+02 -0.30921459975E+02 -0.25610446232E+02  0.45045681271E+02  0.00000000000E+00 0.  1.
         11    1    3    3    0    0 -0.79808505798E+01  0.68010907143E+01  0.69595887972E+01  0.12585097829E+02  0.51100000000E-03 0. -1.
        -11    1    3    3    0    0 -0.55652134055E+01  0.62231258658E+01  0.82841222383E+01  0.11761189451E+02  0.51100000000E-03 0.  1.
        -12    1    3    3    0    0 -0.68765156249E+01  0.17897243395E+02  0.10366735197E+02  0.21796031449E+02  0.00000000000E+00 0.  1.
</event>
<event>
 7    1  0.1549900E-008  0.4614232E+02  0.7816164E-02  0.1320468E+00
        -11   -1    0    0    0    0  0.00000000000E+00  0.00000000000E+00  0.45593999997E+02  0.45594000000E+02  0.51100000000E-03 0.  1.
         11   -1    0    0    0    0 -0.00000000000E+00 -0.00000000000E+00 -0.45593999997E+02  0.45594000000E+02  0.51100000000E-03 0. -1.
    9900012    2    1    2    0    0 -0.25233306578E+02  0.11636662210E+01 -0.37296636584E+02  0.46142323399E+02  0.10000051414E+02 0.  0.
        -12    1    1    2    0    0  0.25233306578E+02 -0.11636662210E+01  0.37296636584E+02  0.45045676601E+02  0.00000000000E+00 0.  1.
         11    1    3    3    0    0 -0.75526559695E+01 -0.91123066475E+00 -0.15565292812E+02  0.17324875009E+02  0.51100000000E-03 0. -1.
        -11    1    3    3    0    0 -0.89548865873E+01  0.36505792130E+01 -0.84148440353E+01  0.12818982907E+02  0.51100000000E-03 0.  1.
        -12    1    3    3    0    0 -0.87257640215E+01 -0.15756823272E+01 -0.13316499737E+02  0.15998465483E+02  0.00000000000E+00 0.  1.
</event>
<event>
 7    1  0.1549900E-008  0.4614232E+02  0.7816164E-02  0.1320468E+00
        -11   -1    0    0    0    0  0.00000000000E+00  0.00000000000E+00  0.45593999997E+02  0.45594000000E+02  0.51100000000E-03 0. -1.
         11   -1    0    0    0    0 -0.00000000000E+00 -0.00000000000E+00 -0.45593999997E+02  0.45594000000E+02  0.51100000000E-03 0.  1.
    9900012    2    1    2    0    0  0.40747959481E+02  0.77736263559E+01 -0.17558134116E+02  0.46142317163E+02  0.99999945486E+01 0.  0.
        -12    1    1    2    0    0 -0.40747959481E+02 -0.77736263559E+01  0.17558134116E+02  0.45045682837E+02  0.00000000000E+00 0.  1.
         11    1    3    3    0    0  0.27656913139E+02  0.41405873179E+01 -0.11472900925E+02  0.30227086588E+02  0.51100000000E-03 0. -1.
        -11    1    3    3    0    0  0.12448327643E+02  0.31090153716E+01 -0.36456799542E+01  0.13338583893E+02  0.51100000000E-03 0.  1.
        -12    1    3    3    0    0  0.64271869925E+00  0.52402366636E+00 -0.24395532366E+01  0.25766466819E+01  0.00000000000E+00 0.  1.
</event>
<event>
 7    1  0.1549900E-008  0.4614232E+02  0.7816164E-02  0.1320468E+00
        -11   -1    0    0    0    0  0.00000000000E+00  0.00000000000E+00  0.45593999997E+02  0.45594000000E+02  0.51100000000E-03 0.  1.
         11   -1    0    0    0    0 -0.00000000000E+00 -0.00000000000E+00 -0.45593999997E+02  0.45594000000E+02  0.51100000000E-03 0. -1.
    9900012    2    1    2    0    0 -0.29193737574E+02  0.24479980161E+02 -0.24032680186E+02  0.46142318085E+02  0.10000002953E+02 0.  0.
        -12    1    1    2    0    0  0.29193737574E+02 -0.24479980161E+02  0.24032680186E+02  0.45045681915E+02  0.00000000000E+00 0.  1.
         11    1    3    3    0    0 -0.13029440892E+02  0.11986480990E+02 -0.14353501050E+02  0.22791775910E+02  0.51100000000E-03 0. -1.
        -11    1    3    3    0    0 -0.13524456677E+02  0.73836273405E+01 -0.60747999004E+01  0.16562973018E+02  0.51100000000E-03 0.  1.
        -12    1    3    3    0    0 -0.26398400055E+01  0.51098718313E+01 -0.36043792363E+01  0.67875691573E+01  0.00000000000E+00 0.  1.
</event>
<event>
 7    1  0.1549900E-008  0.4614232E+02  0.7816164E-02  0.1320468E+00
        -11   -1    0    0    0    0  0.00000000000E+00  0.00000000000E+00  0.45593999997E+02  0.45594000000E+02  0.51100000000E-03 0.  1.
         11   -1    0    0    0    0 -0.00000000000E+00 -0.00000000000E+00 -0.45593999997E+02  0.45594000000E+02  0.51100000000E-03 0. -1.
    9900012    2    1    2    0    0 -0.45651349326E+01 -0.16488113068E+01 -0.44783416660E+02  0.46142318260E+02  0.10000004547E+02 0.  0.
        -12    1    1    2    0    0  0.45651349326E+01  0.16488113068E+01  0.44783416660E+02  0.45045681740E+02  0.00000000000E+00 0.  1.
         11    1    3    3    0    0 -0.27645391388E+01  0.87961722508E+00 -0.20992695262E+02  0.21192207477E+02  0.51100000000E-03 0. -1.
        -11    1    3    3    0    0 -0.37373823302E+01 -0.36928296864E+01 -0.16288227265E+02  0.17114653531E+02  0.51100000000E-03 0.  1.
        -12    1    3    3    0    0  0.19367865364E+01  0.11644011544E+01 -0.75024941333E+01  0.78354572526E+01  0.00000000000E+00 0.  1.
</event>
<event>
 7    1  0.1549900E-008  0.4614232E+02  0.7816164E-02  0.1320468E+00
        -11   -1    0    0    0    0  0.00000000000E+00  0.00000000000E+00  0.45593999997E+02  0.45594000000E+02  0.51100000000E-03 0.  1.
         11   -1    0    0    0    0 -0.00000000000E+00 -0.00000000000E+00 -0.45593999997E+02  0.45594000000E+02  0.51100000000E-03 0. -1.
    9900012    2    1    2    0    0 -0.31823605899E+02 -0.11085212624E+02 -0.29891297821E+02  0.46142317446E+02  0.99999971260E+01 0.  0.
        -12    1    1    2    0    0  0.31823605899E+02  0.11085212624E+02  0.29891297821E+02  0.45045682554E+02  0.00000000000E+00 0.  1.
         11    1    3    3    0    0 -0.18477888638E+02 -0.51537602682E+01 -0.22209943237E+02  0.29347490392E+02  0.51100000000E-03 0.  1.
        -11    1    3    3    0    0 -0.80890332070E+01 -0.39864752655E+01 -0.30368794821E+01  0.95156229705E+01  0.51100000000E-03 0. -1.
         12    1    3    3    0    0 -0.52566840535E+01 -0.19449770899E+01 -0.46444751024E+01  0.72792040839E+01  0.00000000000E+00 0. -1.
</event>
<event>
 7    1  0.1729579E-008  0.4614232E+02  0.7816164E-02  0.1320468E+00
        -11   -1    0    0    0    0  0.00000000000E+00  0.00000000000E+00  0.45593999997E+02  0.45594000000E+02  0.51100000000E-03 0. -1.
         11   -1    0    0    0    0 -0.00000000000E+00 -0.00000000000E+00 -0.45593999997E+02  0.45594000000E+02  0.51100000000E-03 0.  1.
    9900012    2    1    2    0    0  0.27836808321E+01 -0.31497320359E+02  0.32082445913E+02  0.46142318692E+02  0.10000008487E+02 0.  0.
        -12    1    1    2    0    0 -0.27836808321E+01  0.31497320359E+02 -0.32082445913E+02  0.45045681308E+02  0.00000000000E+00 0.  1.
         11    1    3    3    0    0  0.47177841420E+01 -0.17987109522E+02  0.16166408947E+02  0.24640340393E+02  0.51100000000E-03 0. -1.
        -11    1    3    3    0    0 -0.81274754817E+00 -0.26357945354E+01  0.84743072866E+00  0.28855000453E+01  0.51100000000E-03 0.  1.
         12    1    3    3    0    0 -0.11213557618E+01 -0.10874416301E+02  0.15068606237E+02  0.18616478254E+02  0.00000000000E+00 0. -1.
</event>
<event>
 7    1  0.2063583E-008  0.4614232E+02  0.7816164E-02  0.1320468E+00
        -11   -1    0    0    0    0  0.00000000000E+00  0.00000000000E+00  0.45593999997E+02  0.45594000000E+02  0.51100000000E-03 0.  1.
         11   -1    0    0    0    0 -0.00000000000E+00 -0.00000000000E+00 -0.45593999997E+02  0.45594000000E+02  0.51100000000E-03 0. -1.
    9900012    2    1    2    0    0 -0.94933430305E+01  0.42827920832E+02 -0.10235190867E+02  0.46142317668E+02  0.99999991467E+01 0.  0.
        -12    1    1    2    0    0  0.94933430305E+01 -0.42827920832E+02  0.10235190867E+02  0.45045682332E+02  0.00000000000E+00 0.  1.
         11    1    3    3    0    0 -0.39823682351E+01  0.28621043752E+02 -0.69746479813E+01  0.29726572573E+02  0.51100000000E-03 0. -1.
        -11    1    3    3    0    0  0.10548007670E+00  0.57856630670E+01 -0.17670754536E-01  0.57866515091E+01  0.51100000000E-03 0.  1.
         12    1    3    3    0    0 -0.56164548721E+01  0.84212140134E+01 -0.32428721313E+01  0.10629093586E+02  0.00000000000E+00 0. -1.
</event>
<event>
 7    1  0.1549900E-008  0.4614233E+02  0.7816164E-02  0.1320468E+00
        -11   -1    0    0    0    0  0.00000000000E+00  0.00000000000E+00  0.45593999997E+02  0.45594000000E+02  0.51100000000E-03 0. -1.
         11   -1    0    0    0    0 -0.00000000000E+00 -0.00000000000E+00 -0.45593999997E+02  0.45594000000E+02  0.51100000000E-03 0.  1.
    9900012    2    1    2    0    0  0.22487771712E+02 -0.33717499186E+02 -0.19660698706E+02  0.46142326495E+02  0.10000079641E+02 0.  0.
        -12    1    1    2    0    0 -0.22487771712E+02  0.33717499186E+02  0.19660698706E+02  0.45045673505E+02  0.00000000000E+00 0.  1.
         11    1    3    3    0    0  0.71350812935E+01 -0.98105957549E+01 -0.16226142050E+01  0.12238874591E+02  0.51100000000E-03 0. -1.
        -11    1    3    3    0    0  0.88712045069E+01 -0.10157982117E+02 -0.91152137051E+01  0.16277898858E+02  0.51100000000E-03 0.  1.
         12    1    3    3    0    0  0.64814859116E+01 -0.13748921315E+02 -0.89228707957E+01  0.17625553046E+02  0.00000000000E+00 0. -1.
</event>
<event>
 7    1  0.1549900E-008  0.4614232E+02  0.7816164E-02  0.1320468E+00
        -11   -1    0    0    0    0  0.00000000000E+00  0.00000000000E+00  0.45593999997E+02  0.45594000000E+02  0.51100000000E-03 0.  1.
         11   -1    0    0    0    0 -0.00000000000E+00 -0.00000000000E+00 -0.45593999997E+02  0.45594000000E+02  0.51100000000E-03 0. -1.
    9900012    2    1    2    0    0 -0.29779588653E+02 -0.23795188425E+02 -0.24001638608E+02  0.46142317095E+02  0.99999939246E+01 0.  0.
        -12    1    1    2    0    0  0.29779588653E+02  0.23795188425E+02  0.24001638608E+02  0.45045682905E+02  0.00000000000E+00 0.  1.
         11    1    3    3    0    0 -0.98418684003E+01 -0.73233710973E+01 -0.10451993260E+02  0.16116398518E+02  0.51100000000E-03 0. -1.
        -11    1    3    3    0    0 -0.17614239360E+02 -0.10959727319E+02 -0.11387133735E+02  0.23665245955E+02  0.51100000000E-03 0.  1.
        -12    1    3    3    0    0 -0.23234808933E+01 -0.55120900091E+01 -0.21625116123E+01  0.63606726220E+01  0.00000000000E+00 0.  1.
</event>
<event>
 7    1  0.1549900E-008  0.4614232E+02  0.7816164E-02  0.1320468E+00
        -11   -1    0    0    0    0  0.00000000000E+00  0.00000000000E+00  0.45593999997E+02  0.45594000000E+02  0.51100000000E-03 0. -1.
         11   -1    0    0    0    0 -0.00000000000E+00 -0.00000000000E+00 -0.45593999997E+02  0.45594000000E+02  0.51100000000E-03 0.  1.
    9900012    2    1    2    0    0  0.88241732240E+01  0.13076747442E+02  0.42192961885E+02  0.46142318860E+02  0.10000010017E+02 0.  0.
        -12    1    1    2    0    0 -0.88241732240E+01 -0.13076747442E+02 -0.42192961885E+02  0.45045681140E+02  0.00000000000E+00 0.  1.
         11    1    3    3    0    0  0.83293072145E+01  0.69868354125E+01  0.20209243305E+02  0.22947913695E+02  0.51100000000E-03 0. -1.
        -11    1    3    3    0    0  0.41174893676E+00  0.32376117536E+01  0.49883454895E+01  0.59611456984E+01  0.51100000000E-03 0.  1.
         12    1    3    3    0    0  0.83117072699E-01  0.28523002755E+01  0.16995373091E+02  0.17233259466E+02  0.00000000000E+00 0. -1.
</event>
<event>
 7    1  0.1549900E-008  0.4614232E+02  0.7816164E-02  0.1320468E+00
        -11   -1    0    0    0    0  0.00000000000E+00  0.00000000000E+00  0.45593999997E+02  0.45594000000E+02  0.51100000000E-03 0.  1.
         11   -1    0    0    0    0 -0.00000000000E+00 -0.00000000000E+00 -0.45593999997E+02  0.45594000000E+02  0.51100000000E-03 0. -1.
    9900012    2    1    2    0    0 -0.24635730364E+02  0.32594970546E+02 -0.18967396000E+02  0.46142318448E+02  0.10000006264E+02 0.  0.
        -12    1    1    2    0    0  0.24635730364E+02 -0.32594970546E+02  0.18967396000E+02  0.45045681552E+02  0.00000000000E+00 0.  1.
         11    1    3    3    0    0 -0.98494004711E+01  0.85589922470E+01 -0.81091343448E+01  0.15363108345E+02  0.51100000000E-03 0. -1.
        -11    1    3    3    0    0 -0.64577397086E+01  0.12362937070E+02 -0.24658381767E+01  0.14164214532E+02  0.51100000000E-03 0.  1.
        -12    1    3    3    0    0 -0.83285901840E+01  0.11673041229E+02 -0.83924234786E+01  0.16614995571E+02  0.00000000000E+00 0.  1.
</event>
<event>
 7    1  0.1549900E-008  0.4614232E+02  0.7816164E-02  0.1320468E+00
        -11   -1    0    0    0    0  0.00000000000E+00  0.00000000000E+00  0.45593999997E+02  0.45594000000E+02  0.51100000000E-03 0.  1.
         11   -1    0    0    0    0 -0.00000000000E+00 -0.00000000000E+00 -0.45593999997E+02  0.45594000000E+02  0.51100000000E-03 0. -1.
    9900012    2    1    2    0    0 -0.25662354154E+02 -0.34263151247E+02 -0.14021181564E+02  0.46142317781E+02  0.10000000182E+02 0.  0.
        -12    1    1    2    0    0  0.25662354154E+02  0.34263151247E+02  0.14021181564E+02  0.45045682219E+02  0.00000000000E+00 0.  1.
         11    1    3    3    0    0 -0.17250641412E+02 -0.27123096927E+02 -0.13697173358E+02  0.34940800997E+02  0.51100000000E-03 0. -1.
        -11    1    3    3    0    0 -0.54202811266E+01 -0.36174496313E+01  0.37604225657E+00  0.65273882500E+01  0.51100000000E-03 0.  1.
         12    1    3    3    0    0 -0.29914316157E+01 -0.35226046887E+01 -0.70005046288E+00  0.46741285343E+01  0.00000000000E+00 0. -1.
</event>
<event>
 7    1  0.1549900E-008  0.4614232E+02  0.7816164E-02  0.1320468E+00
        -11   -1    0    0    0    0  0.00000000000E+00  0.00000000000E+00  0.45593999997E+02  0.45594000000E+02  0.51100000000E-03 0.  1.
         11   -1    0    0    0    0 -0.00000000000E+00 -0.00000000000E+00 -0.45593999997E+02  0.45594000000E+02  0.51100000000E-03 0. -1.
    9900012    2    1    2    0    0 -0.32139430430E+02 -0.25540611136E+02 -0.18543131037E+02  0.46142317474E+02  0.99999973781E+01 0.  0.
        -12    1    1    2    0    0  0.32139430430E+02  0.25540611136E+02  0.18543131037E+02  0.45045682526E+02  0.00000000000E+00 0.  1.
         11    1    3    3    0    0 -0.27253471143E+02 -0.23575252350E+02 -0.15427919495E+02  0.39199042244E+02  0.51100000000E-03 0. -1.
        -11    1    3    3    0    0 -0.13175752194E+01 -0.22917656304E+00  0.63750959309E+00  0.14815347104E+01  0.51100000000E-03 0.  1.
         12    1    3    3    0    0 -0.35683840681E+01 -0.17361822236E+01 -0.37527211358E+01  0.54617405187E+01  0.00000000000E+00 0. -1.
</event>
<event>
 7    1  0.1549900E-008  0.4614232E+02  0.7816164E-02  0.1320468E+00
        -11   -1    0    0    0    0  0.00000000000E+00  0.00000000000E+00  0.45593999997E+02  0.45594000000E+02  0.51100000000E-03 0.  1.
         11   -1    0    0    0    0 -0.00000000000E+00 -0.00000000000E+00 -0.45593999997E+02  0.45594000000E+02  0.51100000000E-03 0. -1.
    9900012    2    1    2    0    0 -0.13580606583E+02  0.33866603243E+01 -0.42816015062E+02  0.46142317753E+02  0.99999999241E+01 0.  0.
        -12    1    1    2    0    0  0.13580606583E+02 -0.33866603243E+01  0.42816015062E+02  0.45045682247E+02  0.00000000000E+00 0.  1.
         11    1    3    3    0    0 -0.12007032594E+02  0.25867762637E+01 -0.24667088093E+02  0.27555861054E+02  0.51100000000E-03 0. -1.
        -11    1    3    3    0    0 -0.77849573639E+00 -0.12564727494E+01 -0.11175093056E+02  0.11272421411E+02  0.51100000000E-03 0.  1.
         12    1    3    3    0    0 -0.79507825241E+00  0.20563568100E+01 -0.69738339125E+01  0.73140352882E+01  0.00000000000E+00 0. -1.
</event>
<event>
 7    1  0.1549900E-008  0.4614232E+02  0.7816164E-02  0.1320468E+00
        -11   -1    0    0    0    0  0.00000000000E+00  0.00000000000E+00  0.45593999997E+02  0.45594000000E+02  0.51100000000E-03 0.  1.
         11   -1    0    0    0    0 -0.00000000000E+00 -0.00000000000E+00 -0.45593999997E+02  0.45594000000E+02  0.51100000000E-03 0. -1.
    9900012    2    1    2    0    0 -0.28126724785E+01 -0.54942512411E+01 -0.44620799381E+02  0.46142315849E+02  0.99999825680E+01 0.  0.
        -12    1    1    2    0    0  0.28126724785E+01  0.54942512411E+01  0.44620799381E+02  0.45045684151E+02  0.00000000000E+00 0.  1.
         11    1    3    3    0    0  0.10841004238E+01 -0.32552446665E+01 -0.28684082342E+02  0.28888552605E+02  0.51100000000E-03 0. -1.
        -11    1    3    3    0    0 -0.38772080222E+01 -0.18815445265E+00 -0.62894357589E+01  0.73908826653E+01  0.51100000000E-03 0.  1.
        -12    1    3    3    0    0 -0.19564880078E-01 -0.20508521219E+01 -0.96472812805E+01  0.98628805790E+01  0.00000000000E+00 0.  1.
</event>
<event>
 7    1  0.1549900E-008  0.4614232E+02  0.7816164E-02  0.1320468E+00
        -11   -1    0    0    0    0  0.00000000000E+00  0.00000000000E+00  0.45593999997E+02  0.45594000000E+02  0.51100000000E-03 0. -1.
         11   -1    0    0    0    0 -0.00000000000E+00 -0.00000000000E+00 -0.45593999997E+02  0.45594000000E+02  0.51100000000E-03 0.  1.
    9900012    2    1    2    0    0  0.32196436599E+02  0.23953303569E+02  0.20463193740E+02  0.46142316749E+02  0.99999907691E+01 0.  0.
        -12    1    1    2    0    0 -0.32196436599E+02 -0.23953303569E+02 -0.20463193740E+02  0.45045683251E+02  0.00000000000E+00 0.  1.
         11    1    3    3    0    0  0.19907073022E+02  0.16821331848E+02  0.13258877957E+02  0.29241179976E+02  0.51100000000E-03 0. -1.
        -11    1    3    3    0    0  0.61195751912E+01  0.66313965513E+00  0.42740867023E+01  0.74937822309E+01  0.51100000000E-03 0.  1.
        -12    1    3    3    0    0  0.61697883864E+01  0.64688320649E+01  0.29302290808E+01  0.94073545422E+01  0.00000000000E+00 0.  1.
</event>
<event>
 7    1  0.1549900E-008  0.4614232E+02  0.7816164E-02  0.1320468E+00
        -11   -1    0    0    0    0  0.00000000000E+00  0.00000000000E+00  0.45593999997E+02  0.45594000000E+02  0.51100000000E-03 0.  1.
         11   -1    0    0    0    0 -0.00000000000E+00 -0.00000000000E+00 -0.45593999997E+02  0.45594000000E+02  0.51100000000E-03 0. -1.
    9900012    2    1    2    0    0 -0.20516933965E+02  0.30914035923E+02 -0.25543907541E+02  0.46142318644E+02  0.10000008050E+02 0.  0.
        -12    1    1    2    0    0  0.20516933965E+02 -0.30914035923E+02  0.25543907541E+02  0.45045681356E+02  0.00000000000E+00 0.  1.
         11    1    3    3    0    0 -0.16616111552E+02  0.26723170515E+02 -0.23296598153E+02  0.39152962739E+02  0.51100000000E-03 0. -1.
        -11    1    3    3    0    0 -0.47875699820E+00 -0.33975076143E+00  0.41446676304E+00  0.71862493834E+00  0.51100000000E-03 0.  1.
         12    1    3    3    0    0 -0.34220654146E+01  0.45306161693E+01 -0.26617761516E+01  0.62707309667E+01  0.00000000000E+00 0. -1.
</event>
<event>
 7    1  0.1549900E-008  0.4614232E+02  0.7816164E-02  0.1320468E+00
        -11   -1    0    0    0    0  0.00000000000E+00  0.00000000000E+00  0.45593999997E+02  0.45594000000E+02  0.51100000000E-03 0.  1.
         11   -1    0    0    0    0 -0.00000000000E+00 -0.00000000000E+00 -0.45593999997E+02  0.45594000000E+02  0.51100000000E-03 0. -1.
    9900012    2    1    2    0    0 -0.18289129711E+02 -0.18202028784E+01 -0.41125516275E+02  0.46142317710E+02  0.99999995327E+01 0.  0.
        -12    1    1    2    0    0  0.18289129711E+02  0.18202028784E+01  0.41125516275E+02  0.45045682290E+02  0.00000000000E+00 0.  1.
         11    1    3    3    0    0 -0.11412438098E+02  0.19656358251E+01 -0.31918635523E+02  0.33954480727E+02  0.51100000000E-03 0. -1.
        -11    1    3    3    0    0 -0.42424377154E+01 -0.21493166209E+01 -0.44745886464E+01  0.65299145110E+01  0.51100000000E-03 0.  1.
         12    1    3    3    0    0 -0.26342538980E+01 -0.16365220826E+01 -0.47322921058E+01  0.56579224721E+01  0.00000000000E+00 0. -1.
</event>
<event>
 7    1  0.1549900E-008  0.4614232E+02  0.7816164E-02  0.1320468E+00
        -11   -1    0    0    0    0  0.00000000000E+00  0.00000000000E+00  0.45593999997E+02  0.45594000000E+02  0.51100000000E-03 0.  1.
         11   -1    0    0    0    0 -0.00000000000E+00 -0.00000000000E+00 -0.45593999997E+02  0.45594000000E+02  0.51100000000E-03 0. -1.
    9900012    2    1    2    0    0 -0.42154103025E+02  0.15034657357E+02 -0.51092249398E+01  0.46142317597E+02  0.99999985006E+01 0.  0.
        -12    1    1    2    0    0  0.42154103025E+02 -0.15034657357E+02  0.51092249398E+01  0.45045682403E+02  0.00000000000E+00 0.  1.
         11    1    3    3    0    0 -0.77076775548E+01  0.45758298637E+01 -0.40208252406E+00  0.89726352231E+01  0.51100000000E-03 0. -1.
        -11    1    3    3    0    0 -0.31685170432E+02  0.10171545784E+02 -0.64426393128E+01  0.33895692507E+02  0.51100000000E-03 0.  1.
        -12    1    3    3    0    0 -0.27612550389E+01  0.28728170867E+00  0.17354968971E+01  0.32739898670E+01  0.00000000000E+00 0.  1.
</event>
<event>
 7    1  0.1549900E-008  0.4614232E+02  0.7816164E-02  0.1320468E+00
        -11   -1    0    0    0    0  0.00000000000E+00  0.00000000000E+00  0.45593999997E+02  0.45594000000E+02  0.51100000000E-03 0.  1.
         11   -1    0    0    0    0 -0.00000000000E+00 -0.00000000000E+00 -0.45593999997E+02  0.45594000000E+02  0.51100000000E-03 0. -1.
    9900012    2    1    2    0    0  0.63597468959E+01 -0.36491296000E+02 -0.25633034172E+02  0.46142317575E+02  0.99999982992E+01 0.  0.
        -12    1    1    2    0    0 -0.63597468959E+01  0.36491296000E+02  0.25633034172E+02  0.45045682425E+02  0.00000000000E+00 0.  1.
         11    1    3    3    0    0  0.27889988085E+01 -0.12551243760E+02 -0.79504872887E+01  0.15116960100E+02  0.51100000000E-03 0. -1.
        -11    1    3    3    0    0 -0.24439886875E+01 -0.55780798881E+01 -0.32096935716E+01  0.68840532412E+01  0.51100000000E-03 0.  1.
        -12    1    3    3    0    0  0.60147367749E+01 -0.18361972351E+02 -0.14472853311E+02  0.24141304233E+02  0.00000000000E+00 0.  1.
</event>
<event>
 7    1  0.1549900E-008  0.4614232E+02  0.7816164E-02  0.1320468E+00
        -11   -1    0    0    0    0  0.00000000000E+00  0.00000000000E+00  0.45593999997E+02  0.45594000000E+02  0.51100000000E-03 0.  1.
         11   -1    0    0    0    0 -0.00000000000E+00 -0.00000000000E+00 -0.45593999997E+02  0.45594000000E+02  0.51100000000E-03 0. -1.
    9900012    2    1    2    0    0 -0.25562223777E+02 -0.16656163640E+02 -0.33139983656E+02  0.46142316651E+02  0.99999898754E+01 0.  0.
        -12    1    1    2    0    0  0.25562223777E+02  0.16656163640E+02  0.33139983656E+02  0.45045683349E+02  0.00000000000E+00 0.  1.
         11    1    3    3    0    0  0.77467139200E+00 -0.27334828382E+00 -0.15423000967E+01  0.17474338039E+01  0.51100000000E-03 0. -1.
        -11    1    3    3    0    0 -0.27006069299E+01 -0.20921377324E+01 -0.22325412084E+01  0.40809997047E+01  0.51100000000E-03 0.  1.
         12    1    3    3    0    0 -0.23636288239E+02 -0.14290677624E+02 -0.29365142351E+02  0.40313883142E+02  0.00000000000E+00 0. -1.
</event>
<event>
 7    1  0.1549900E-008  0.4614232E+02  0.7816164E-02  0.1320468E+00
        -11   -1    0    0    0    0  0.00000000000E+00  0.00000000000E+00  0.45593999997E+02  0.45594000000E+02  0.51100000000E-03 0.  1.
         11   -1    0    0    0    0 -0.00000000000E+00 -0.00000000000E+00 -0.45593999997E+02  0.45594000000E+02  0.51100000000E-03 0. -1.
    9900012    2    1    2    0    0 -0.12713931970E+02 -0.39583893062E+02 -0.17337384158E+02  0.46142317127E+02  0.99999942156E+01 0.  0.
        -12    1    1    2    0    0  0.12713931970E+02  0.39583893062E+02  0.17337384158E+02  0.45045682873E+02  0.00000000000E+00 0.  1.
         11    1    3    3    0    0 -0.39221833430E+01 -0.17561155723E+02 -0.59166992820E+01  0.18941621978E+02  0.51100000000E-03 0. -1.
        -11    1    3    3    0    0 -0.50370352657E+01 -0.19119484331E+02 -0.10422138282E+02  0.22350556413E+02  0.51100000000E-03 0.  1.
        -12    1    3    3    0    0 -0.37547133612E+01 -0.29032530081E+01 -0.99854659367E+00  0.48501387355E+01  0.00000000000E+00 0.  1.
</event>
<event>
 7    1  0.1549900E-008  0.4614232E+02  0.7816164E-02  0.1320468E+00
        -11   -1    0    0    0    0  0.00000000000E+00  0.00000000000E+00  0.45593999997E+02  0.45594000000E+02  0.51100000000E-03 0.  1.
         11   -1    0    0    0    0 -0.00000000000E+00 -0.00000000000E+00 -0.45593999997E+02  0.45594000000E+02  0.51100000000E-03 0. -1.
    9900012    2    1    2    0    0  0.26308565478E+02  0.29237065551E+02 -0.21958299282E+02  0.46142317333E+02  0.99999961005E+01 0.  0.
        -12    1    1    2    0    0 -0.26308565478E+02 -0.29237065551E+02  0.21958299282E+02  0.45045682667E+02  0.00000000000E+00 0.  1.
         11    1    3    3    0    0  0.23397606673E+02  0.25606578193E+02 -0.18505944008E+02  0.39314307938E+02  0.51100000000E-03 0. -1.
        -11    1    3    3    0    0 -0.22044726039E+00  0.16703286212E+01 -0.24968750377E+01  0.30121387605E+01  0.51100000000E-03 0.  1.
         12    1    3    3    0    0  0.31314060652E+01  0.19601587369E+01 -0.95548023618E+00  0.38158706347E+01  0.00000000000E+00 0. -1.
</event>
<event>
 7    1  0.1549900E-008  0.4614232E+02  0.7816164E-02  0.1320468E+00
        -11   -1    0    0    0    0  0.00000000000E+00  0.00000000000E+00  0.45593999997E+02  0.45594000000E+02  0.51100000000E-03 0. -1.
         11   -1    0    0    0    0 -0.00000000000E+00 -0.00000000000E+00 -0.45593999997E+02  0.45594000000E+02  0.51100000000E-03 0.  1.
    9900012    2    1    2    0    0 -0.27640811886E+02 -0.24795115263E+02  0.25501006063E+02  0.46142317267E+02  0.99999954980E+01 0.  0.
        -12    1    1    2    0    0  0.27640811886E+02  0.24795115263E+02 -0.25501006063E+02  0.45045682733E+02  0.00000000000E+00 0.  1.
         11    1    3    3    0    0 -0.20476559870E+02 -0.16728778759E+02  0.21763906042E+02  0.34246301251E+02  0.51100000000E-03 0.  1.
        -11    1    3    3    0    0 -0.72330689544E+01 -0.72701536121E+01  0.40657874952E+01  0.11031910454E+02  0.51100000000E-03 0. -1.
        -12    1    3    3    0    0  0.68816938558E-01 -0.79618289201E+00 -0.32868747413E+00  0.86410556312E+00  0.00000000000E+00 0.  1.
</event>
<event>
 7    1  0.1549900E-008  0.4614232E+02  0.7816164E-02  0.1320468E+00
        -11   -1    0    0    0    0  0.00000000000E+00  0.00000000000E+00  0.45593999997E+02  0.45594000000E+02  0.51100000000E-03 0.  1.
         11   -1    0    0    0    0 -0.00000000000E+00 -0.00000000000E+00 -0.45593999997E+02  0.45594000000E+02  0.51100000000E-03 0. -1.
    9900012    2    1    2    0    0  0.87561519706E+01  0.36248826940E+01 -0.44037523677E+02  0.46142318037E+02  0.10000002518E+02 0.  0.
        -12    1    1    2    0    0 -0.87561519706E+01 -0.36248826940E+01  0.44037523677E+02  0.45045681963E+02  0.00000000000E+00 0.  1.
         11    1    3    3    0    0  0.25231638116E+01  0.21812221175E+01 -0.78065156166E+01  0.84891561347E+01  0.51100000000E-03 0. -1.
        -11    1    3    3    0    0 -0.92635586398E+00 -0.19584769100E+01 -0.10811772490E+02  0.11026703571E+02  0.51100000000E-03 0.  1.
        -12    1    3    3    0    0  0.71593440229E+01  0.34021374865E+01 -0.25419235570E+02  0.26626458332E+02  0.00000000000E+00 0.  1.
</event>
<event>
 7    1  0.1549900E-008  0.4614232E+02  0.7816164E-02  0.1320468E+00
        -11   -1    0    0    0    0  0.00000000000E+00  0.00000000000E+00  0.45593999997E+02  0.45594000000E+02  0.51100000000E-03 0. -1.
         11   -1    0    0    0    0 -0.00000000000E+00 -0.00000000000E+00 -0.45593999997E+02  0.45594000000E+02  0.51100000000E-03 0.  1.
    9900012    2    1    2    0    0  0.52380810290E+01 -0.18618251546E+02  0.40682142413E+02  0.46142317689E+02  0.99999993447E+01 0.  0.
        -12    1    1    2    0    0 -0.52380810290E+01  0.18618251546E+02 -0.40682142413E+02  0.45045682311E+02  0.00000000000E+00 0.  1.
         11    1    3    3    0    0  0.62615244040E+01 -0.73335131846E+01  0.14953504517E+02  0.17793099817E+02  0.51100000000E-03 0. -1.
        -11    1    3    3    0    0 -0.14715326668E+01 -0.71132642571E+01  0.19766076573E+02  0.21058530816E+02  0.51100000000E-03 0.  1.
         12    1    3    3    0    0  0.44808929184E+00 -0.41714741047E+01  0.59625613224E+01  0.72906870556E+01  0.00000000000E+00 0. -1.
</event>
<event>
 7    1  0.1549900E-008  0.4614232E+02  0.7816164E-02  0.1320468E+00
        -11   -1    0    0    0    0  0.00000000000E+00  0.00000000000E+00  0.45593999997E+02  0.45594000000E+02  0.51100000000E-03 0.  1.
         11   -1    0    0    0    0 -0.00000000000E+00 -0.00000000000E+00 -0.45593999997E+02  0.45594000000E+02  0.51100000000E-03 0. -1.
    9900012    2    1    2    0    0  0.50609291977E+01  0.13655793217E+02 -0.42626515032E+02  0.46142317892E+02  0.10000001197E+02 0.  0.
        -12    1    1    2    0    0 -0.50609291977E+01 -0.13655793217E+02  0.42626515032E+02  0.45045682108E+02  0.00000000000E+00 0.  1.
         11    1    3    3    0    0  0.38352139423E+01  0.73362296823E+01 -0.33318298270E+02  0.34331299594E+02  0.51100000000E-03 0. -1.
        -11    1    3    3    0    0 -0.54617323585E-01  0.32562592230E+00  0.27884255888E+00  0.43216747572E+00  0.51100000000E-03 0.  1.
         12    1    3    3    0    0  0.12803325789E+01  0.59939376127E+01 -0.95870593211E+01  0.11378850823E+02  0.00000000000E+00 0. -1.
</event>
<event>
 7    1  0.1549900E-008  0.4614231E+02  0.7816164E-02  0.1320468E+00
        -11   -1    0    0    0    0  0.00000000000E+00  0.00000000000E+00  0.45593999997E+02  0.45594000000E+02  0.51100000000E-03 0.  1.
         11   -1    0    0    0    0 -0.00000000000E+00 -0.00000000000E+00 -0.45593999997E+02  0.45594000000E+02  0.51100000000E-03 0. -1.
    9900012    2    1    2    0    0 -0.14286881549E+02 -0.11099751996E+02 -0.41252812920E+02  0.46142311498E+02  0.99999428893E+01 0.  0.
        -12    1    1    2    0    0  0.14286881549E+02  0.11099751996E+02  0.41252812920E+02  0.45045688502E+02  0.00000000000E+00 0.  1.
         11    1    3    3    0    0 -0.36796235915E+01 -0.74637354962E+00 -0.12515921911E+02  0.13066943207E+02  0.51100000000E-03 0. -1.
        -11    1    3    3    0    0 -0.11504990585E+02 -0.84748430421E+01 -0.24818659980E+02  0.28638324958E+02  0.51100000000E-03 0.  1.
        -12    1    3    3    0    0  0.89773262695E+00 -0.18785354043E+01 -0.39182310296E+01  0.44370433327E+01  0.00000000000E+00 0.  1.
</event>
<event>
 7    1  0.1662845E-008  0.4614232E+02  0.7816164E-02  0.1320468E+00
        -11   -1    0    0    0    0  0.00000000000E+00  0.00000000000E+00  0.45593999997E+02  0.45594000000E+02  0.51100000000E-03 0. -1.
         11   -1    0    0    0    0 -0.00000000000E+00 -0.00000000000E+00 -0.45593999997E+02  0.45594000000E+02  0.51100000000E-03 0.  1.
    9900012    2    1    2    0    0 -0.44295209969E+02  0.76794345524E+01 -0.28415087823E+01  0.46142317483E+02  0.99999974658E+01 0.  0.
        -12    1    1    2    0    0  0.44295209969E+02 -0.76794345524E+01  0.28415087823E+01  0.45045682517E+02  0.00000000000E+00 0.  1.
         11    1    3    3    0    0 -0.27463387350E+02  0.69911560757E+01 -0.21724927161E+01  0.28422414269E+02  0.51100000000E-03 0. -1.
        -11    1    3    3    0    0 -0.36283959148E+01  0.14064349116E+01 -0.20962921236E+01  0.44201535045E+01  0.51100000000E-03 0.  1.
         12    1    3    3    0    0 -0.13203426704E+02 -0.71815643487E+00  0.14272760574E+01  0.13299749709E+02  0.00000000000E+00 0. -1.
</event>
<event>
 7    1  0.1549900E-008  0.4614232E+02  0.7816164E-02  0.1320468E+00
        -11   -1    0    0    0    0  0.00000000000E+00  0.00000000000E+00  0.45593999997E+02  0.45594000000E+02  0.51100000000E-03 0.  1.
         11   -1    0    0    0    0 -0.00000000000E+00 -0.00000000000E+00 -0.45593999997E+02  0.45594000000E+02  0.51100000000E-03 0. -1.
    9900012    2    1    2    0    0  0.25525022997E+02  0.31206204762E+02 -0.20093767498E+02  0.46142317555E+02  0.99999981234E+01 0.  0.
        -12    1    1    2    0    0 -0.25525022997E+02 -0.31206204762E+02  0.20093767498E+02  0.45045682445E+02  0.00000000000E+00 0.  1.
         11    1    3    3    0    0  0.83129781408E+01  0.12674223147E+02 -0.11713528651E+02  0.19155894437E+02  0.51100000000E-03 0. -1.
        -11    1    3    3    0    0  0.74066487833E+01  0.10662637479E+02 -0.30853512995E+01  0.13344275069E+02  0.51100000000E-03 0.  1.
         12    1    3    3    0    0  0.98053960726E+01  0.78693441355E+01 -0.52948875481E+01  0.13642148050E+02  0.00000000000E+00 0. -1.
</event>
<event>
 7    1  0.1549900E-008  0.4614232E+02  0.7816164E-02  0.1320468E+00
        -11   -1    0    0    0    0  0.00000000000E+00  0.00000000000E+00  0.45593999997E+02  0.45594000000E+02  0.51100000000E-03 0. -1.
         11   -1    0    0    0    0 -0.00000000000E+00 -0.00000000000E+00 -0.45593999997E+02  0.45594000000E+02  0.51100000000E-03 0.  1.
    9900012    2    1    2    0    0 -0.22025810663E+02  0.29175581204E+02 -0.26320384496E+02  0.46142317477E+02  0.99999974067E+01 0.  0.
        -12    1    1    2    0    0  0.22025810663E+02 -0.29175581204E+02  0.26320384496E+02  0.45045682523E+02  0.00000000000E+00 0.  1.
         11    1    3    3    0    0 -0.40888004806E+01  0.12920883466E+02 -0.92312589724E+01  0.16397672438E+02  0.51100000000E-03 0. -1.
        -11    1    3    3    0    0 -0.13530217204E+02  0.11183774633E+02 -0.11303206178E+02  0.20878363509E+02  0.51100000000E-03 0.  1.
         12    1    3    3    0    0 -0.44067929783E+01  0.50709231044E+01 -0.57859193455E+01  0.88662815293E+01  0.00000000000E+00 0. -1.
</event>
<event>
 7    1  0.1549900E-008  0.4614232E+02  0.7816164E-02  0.1320468E+00
        -11   -1    0    0    0    0  0.00000000000E+00  0.00000000000E+00  0.45593999997E+02  0.45594000000E+02  0.51100000000E-03 0.  1.
         11   -1    0    0    0    0 -0.00000000000E+00 -0.00000000000E+00 -0.45593999997E+02  0.45594000000E+02  0.51100000000E-03 0. -1.
    9900012    2    1    2    0    0 -0.95051998912E+01 -0.61941277903E+01 -0.43593547135E+02  0.46142318788E+02  0.10000009365E+02 0.  0.
        -12    1    1    2    0    0  0.95051998912E+01  0.61941277903E+01  0.43593547135E+02  0.45045681212E+02  0.00000000000E+00 0.  1.
         11    1    3    3    0    0 -0.78697072165E+00 -0.10587699701E+01 -0.17519828039E+02  0.17569424906E+02  0.51100000000E-03 0.  1.
        -11    1    3    3    0    0 -0.57898981673E+01 -0.41072302110E+01 -0.10380011687E+02  0.12575249647E+02  0.51100000000E-03 0. -1.
        -12    1    3    3    0    0 -0.29283310022E+01 -0.10281276093E+01 -0.15693707409E+02  0.15997644235E+02  0.00000000000E+00 0.  1.
</event>
<event>
 7    1  0.1549900E-008  0.4614232E+02  0.7816164E-02  0.1320468E+00
        -11   -1    0    0    0    0  0.00000000000E+00  0.00000000000E+00  0.45593999997E+02  0.45594000000E+02  0.51100000000E-03 0.  1.
         11   -1    0    0    0    0 -0.00000000000E+00 -0.00000000000E+00 -0.45593999997E+02  0.45594000000E+02  0.51100000000E-03 0. -1.
    9900012    2    1    2    0    0 -0.15096273726E+02  0.21504972677E+02 -0.36588962801E+02  0.46142317309E+02  0.99999958746E+01 0.  0.
        -12    1    1    2    0    0  0.15096273726E+02 -0.21504972677E+02  0.36588962801E+02  0.45045682691E+02  0.00000000000E+00 0.  1.
         11    1    3    3    0    0 -0.56550996908E+01  0.12917508982E+02 -0.12848262718E+02  0.19076688548E+02  0.51100000000E-03 0. -1.
        -11    1    3    3    0    0 -0.35134828752E+01  0.22737844594E+01 -0.97676872747E+01  0.10626493901E+02  0.51100000000E-03 0.  1.
         12    1    3    3    0    0 -0.59276911597E+01  0.63136792355E+01 -0.13973012809E+02  0.16439134859E+02  0.00000000000E+00 0. -1.
</event>
<event>
 7    1  0.1549900E-008  0.4614232E+02  0.7816164E-02  0.1320468E+00
        -11   -1    0    0    0    0  0.00000000000E+00  0.00000000000E+00  0.45593999997E+02  0.45594000000E+02  0.51100000000E-03 0. -1.
         11   -1    0    0    0    0 -0.00000000000E+00 -0.00000000000E+00 -0.45593999997E+02  0.45594000000E+02  0.51100000000E-03 0.  1.
    9900012    2    1    2    0    0  0.29632919481E+02 -0.15341990844E+01  0.33891736204E+02  0.46142318001E+02  0.10000002188E+02 0.  0.
        -12    1    1    2    0    0 -0.29632919481E+02  0.15341990844E+01 -0.33891736204E+02  0.45045681999E+02  0.00000000000E+00 0.  1.
         11    1    3    3    0    0  0.41473200829E+01 -0.71071885768E-01  0.19576036190E+01  0.45866684286E+01  0.51100000000E-03 0. -1.
        -11    1    3    3    0    0  0.11069110959E+02 -0.43413386379E+01  0.14249680911E+02  0.18558713450E+02  0.51100000000E-03 0.  1.
        -12    1    3    3    0    0  0.14416488439E+02  0.28782114392E+01  0.17684451674E+02  0.22996936122E+02  0.00000000000E+00 0.  1.
</event>
<event>
 7    1  0.1549900E-008  0.4614232E+02  0.7816164E-02  0.1320468E+00
        -11   -1    0    0    0    0  0.00000000000E+00  0.00000000000E+00  0.45593999997E+02  0.45594000000E+02  0.51100000000E-03 0.  1.
         11   -1    0    0    0    0 -0.00000000000E+00 -0.00000000000E+00 -0.45593999997E+02  0.45594000000E+02  0.51100000000E-03 0. -1.
    9900012    2    1    2    0    0 -0.21694916576E+02  0.62545930919E+01 -0.38978509733E+02  0.46142316955E+02  0.99999926453E+01 0.  0.
        -12    1    1    2    0    0  0.21694916576E+02 -0.62545930919E+01  0.38978509733E+02  0.45045683045E+02  0.00000000000E+00 0.  1.
         11    1    3    3    0    0 -0.92090003741E+01  0.58866689165E+01 -0.17074728694E+02  0.20273256252E+02  0.51100000000E-03 0. -1.
        -11    1    3    3    0    0 -0.46681728303E+01  0.85194760977E-02 -0.13951502588E+02  0.14711775382E+02  0.51100000000E-03 0.  1.
        -12    1    3    3    0    0 -0.78177433718E+01  0.35940469935E+00 -0.79522784514E+01  0.11157285321E+02  0.00000000000E+00 0.  1.
</event>
<event>
 7    1  0.1549900E-008  0.4614232E+02  0.7816164E-02  0.1320468E+00
        -11   -1    0    0    0    0  0.00000000000E+00  0.00000000000E+00  0.45593999997E+02  0.45594000000E+02  0.51100000000E-03 0. -1.
         11   -1    0    0    0    0 -0.00000000000E+00 -0.00000000000E+00 -0.45593999997E+02  0.45594000000E+02  0.51100000000E-03 0.  1.
    9900012    2    1    2    0    0  0.15675485535E+02 -0.36550533321E+02  0.21153040330E+02  0.46142318209E+02  0.10000004085E+02 0.  0.
        -12    1    1    2    0    0 -0.15675485535E+02  0.36550533321E+02 -0.21153040330E+02  0.45045681791E+02  0.00000000000E+00 0.  1.
         11    1    3    3    0    0  0.35330370231E+01 -0.66554985374E+01  0.83824296803E+01  0.11271341490E+02  0.51100000000E-03 0. -1.
        -11    1    3    3    0    0  0.69069344786E+01 -0.15633751766E+02  0.50045867241E+01  0.17809150084E+02  0.51100000000E-03 0.  1.
         12    1    3    3    0    0  0.52355140335E+01 -0.14261283018E+02  0.77660239256E+01  0.17061826635E+02  0.00000000000E+00 0. -1.
</event>
<event>
 7    1  0.1549900E-008  0.4614232E+02  0.7816164E-02  0.1320468E+00
        -11   -1    0    0    0    0  0.00000000000E+00  0.00000000000E+00  0.45593999997E+02  0.45594000000E+02  0.51100000000E-03 0.  1.
         11   -1    0    0    0    0 -0.00000000000E+00 -0.00000000000E+00 -0.45593999997E+02  0.45594000000E+02  0.51100000000E-03 0. -1.
    9900012    2    1    2    0    0  0.14218657207E+02  0.26533791975E+02 -0.33509717113E+02  0.46142317961E+02  0.10000001825E+02 0.  0.
        -12    1    1    2    0    0 -0.14218657207E+02 -0.26533791975E+02  0.33509717113E+02  0.45045682039E+02  0.00000000000E+00 0.  1.
         11    1    3    3    0    0  0.91814335213E+01  0.22041761572E+02 -0.20499614095E+02  0.31470178789E+02  0.51100000000E-03 0. -1.
        -11    1    3    3    0    0  0.36269403102E+01  0.32645527982E+01 -0.10030857856E+02  0.11154824543E+02  0.51100000000E-03 0.  1.
         12    1    3    3    0    0  0.14102833753E+01  0.12274776047E+01 -0.29792451618E+01  0.35173146295E+01  0.00000000000E+00 0. -1.
</event>
<event>
 7    1  0.1549900E-008  0.4614231E+02  0.7816164E-02  0.1320468E+00
        -11   -1    0    0    0    0  0.00000000000E+00  0.00000000000E+00  0.45593999997E+02  0.45594000000E+02  0.51100000000E-03 0.  1.
         11   -1    0    0    0    0 -0.00000000000E+00 -0.00000000000E+00 -0.45593999997E+02  0.45594000000E+02  0.51100000000E-03 0. -1.
    9900012    2    1    2    0    0 -0.19973048611E+02  0.21430881783E+02 -0.34218542258E+02  0.46142312092E+02  0.99999483069E+01 0.  0.
        -12    1    1    2    0    0  0.19973048611E+02 -0.21430881783E+02  0.34218542258E+02  0.45045687908E+02  0.00000000000E+00 0.  1.
         11    1    3    3    0    0 -0.70616517774E+01  0.55516243997E+01 -0.14150575246E+02  0.16760854374E+02  0.51100000000E-03 0. -1.
        -11    1    3    3    0    0 -0.27001807692E+01  0.68706242674E+01 -0.42830855214E+01  0.85347100628E+01  0.51100000000E-03 0.  1.
        -12    1    3    3    0    0 -0.10211216064E+02  0.90086331158E+01 -0.15784881491E+02  0.20846747655E+02  0.00000000000E+00 0.  1.
</event>
<event>
 7    1  0.1549900E-008  0.4614231E+02  0.7816164E-02  0.1320468E+00
        -11   -1    0    0    0    0  0.00000000000E+00  0.00000000000E+00  0.45593999997E+02  0.45594000000E+02  0.51100000000E-03 0.  1.
         11   -1    0    0    0    0 -0.00000000000E+00 -0.00000000000E+00 -0.45593999997E+02  0.45594000000E+02  0.51100000000E-03 0. -1.
    9900012    2    1    2    0    0 -0.40914456486E+02  0.82420100664E+01 -0.16946702577E+02  0.46142309776E+02  0.99999271873E+01 0.  0.
        -12    1    1    2    0    0  0.40914456486E+02 -0.82420100664E+01  0.16946702577E+02  0.45045690224E+02  0.00000000000E+00 0.  1.
         11    1    3    3    0    0 -0.59509919884E+01  0.26553718737E+01 -0.25455629016E+01  0.69960843463E+01  0.51100000000E-03 0. -1.
        -11    1    3    3    0    0 -0.69713869370E+01  0.51473088067E+00 -0.66806405257E+01  0.96693402981E+01  0.51100000000E-03 0.  1.
        -12    1    3    3    0    0 -0.27992077561E+02  0.50719073121E+01 -0.77204991497E+01  0.29476885132E+02  0.00000000000E+00 0.  1.
</event>
<event>
 7    1  0.1549900E-008  0.4614231E+02  0.7816164E-02  0.1320468E+00
        -11   -1    0    0    0    0  0.00000000000E+00  0.00000000000E+00  0.45593999997E+02  0.45594000000E+02  0.51100000000E-03 0.  1.
         11   -1    0    0    0    0 -0.00000000000E+00 -0.00000000000E+00 -0.45593999997E+02  0.45594000000E+02  0.51100000000E-03 0. -1.
    9900012    2    1    2    0    0 -0.14842502039E+02  0.13635199209E+02 -0.40285180362E+02  0.46142308963E+02  0.99999197681E+01 0.  0.
        -12    1    1    2    0    0  0.14842502039E+02 -0.13635199209E+02  0.40285180362E+02  0.45045691037E+02  0.00000000000E+00 0.  1.
         11    1    3    3    0    0 -0.80874344774E+00  0.25541005838E+01 -0.49179174906E+01  0.56003043187E+01  0.51100000000E-03 0. -1.
        -11    1    3    3    0    0 -0.99409707772E-01  0.42487997478E+01 -0.88411813727E+01  0.98096212930E+01  0.51100000000E-03 0.  1.
        -12    1    3    3    0    0 -0.13934348884E+02  0.68322988773E+01 -0.26526081499E+02  0.30732383351E+02  0.00000000000E+00 0.  1.
</event>
<event>
 7    1  0.1549900E-008  0.4614232E+02  0.7816164E-02  0.1320468E+00
        -11   -1    0    0    0    0  0.00000000000E+00  0.00000000000E+00  0.45593999997E+02  0.45594000000E+02  0.51100000000E-03 0.  1.
         11   -1    0    0    0    0 -0.00000000000E+00 -0.00000000000E+00 -0.45593999997E+02  0.45594000000E+02  0.51100000000E-03 0. -1.
    9900012    2    1    2    0    0 -0.25973463949E+02  0.19101582327E+02 -0.31458263762E+02  0.46142316124E+02  0.99999850738E+01 0.  0.
        -12    1    1    2    0    0  0.25973463949E+02 -0.19101582327E+02  0.31458263762E+02  0.45045683876E+02  0.00000000000E+00 0.  1.
         11    1    3    3    0    0 -0.92287275450E+01  0.44907160473E+01 -0.62400219776E+01  0.12011403634E+02  0.51100000000E-03 0. -1.
        -11    1    3    3    0    0 -0.19516170778E+01  0.37426196633E+01 -0.75681942445E+01  0.86656549404E+01  0.51100000000E-03 0.  1.
         12    1    3    3    0    0 -0.14793119326E+02  0.10868246616E+02 -0.17650047540E+02  0.25465257550E+02  0.00000000000E+00 0. -1.
</event>
<event>
 7    1  0.1549900E-008  0.4614232E+02  0.7816164E-02  0.1320468E+00
        -11   -1    0    0    0    0  0.00000000000E+00  0.00000000000E+00  0.45593999997E+02  0.45594000000E+02  0.51100000000E-03 0. -1.
         11   -1    0    0    0    0 -0.00000000000E+00 -0.00000000000E+00 -0.45593999997E+02  0.45594000000E+02  0.51100000000E-03 0.  1.
    9900012    2    1    2    0    0  0.19994378441E+02 -0.17421906483E+02  0.36411747096E+02  0.46142319615E+02  0.10000016909E+02 0.  0.
        -12    1    1    2    0    0 -0.19994378441E+02  0.17421906483E+02 -0.36411747096E+02  0.45045680385E+02  0.00000000000E+00 0.  1.
         11    1    3    3    0    0  0.38897055207E+01 -0.95719651953E+00  0.48726081037E+01  0.63078002670E+01  0.51100000000E-03 0. -1.
        -11    1    3    3    0    0  0.57334411051E+01 -0.13299949029E+01  0.61803510357E+01  0.85345165378E+01  0.51100000000E-03 0.  1.
         12    1    3    3    0    0  0.10371231815E+02 -0.15134715060E+02  0.25358787957E+02  0.31300002811E+02  0.00000000000E+00 0. -1.
</event>
<event>
 7    1  0.1549900E-008  0.4614232E+02  0.7816164E-02  0.1320468E+00
        -11   -1    0    0    0    0  0.00000000000E+00  0.00000000000E+00  0.45593999997E+02  0.45594000000E+02  0.51100000000E-03 0. -1.
         11   -1    0    0    0    0 -0.00000000000E+00 -0.00000000000E+00 -0.45593999997E+02  0.45594000000E+02  0.51100000000E-03 0.  1.
    9900012    2    1    2    0    0 -0.41648082257E+02  0.54495269220E+01  0.16274315617E+02  0.46142318208E+02  0.10000004072E+02 0.  0.
        -12    1    1    2    0    0  0.41648082257E+02 -0.54495269220E+01 -0.16274315617E+02  0.45045681792E+02  0.00000000000E+00 0.  1.
         11    1    3    3    0    0 -0.17518020311E+02  0.10822212825E+01  0.93461572934E+01  0.19884740253E+02  0.51100000000E-03 0. -1.
        -11    1    3    3    0    0 -0.13112528564E+01 -0.83743103266E+00  0.16442610555E+01  0.22636849312E+01  0.51100000000E-03 0.  1.
         12    1    3    3    0    0 -0.22818809089E+02  0.52047366722E+01  0.52838972684E+01  0.23993893023E+02  0.00000000000E+00 0. -1.
</event>
<event>
 7    1  0.1803756E-008  0.4614232E+02  0.7816164E-02  0.1320468E+00
        -11   -1    0    0    0    0  0.00000000000E+00  0.00000000000E+00  0.45593999997E+02  0.45594000000E+02  0.51100000000E-03 0. -1.
         11   -1    0    0    0    0 -0.00000000000E+00 -0.00000000000E+00 -0.45593999997E+02  0.45594000000E+02  0.51100000000E-03 0.  1.
    9900012    2    1    2    0    0  0.15686929209E+02  0.62878888848E+01  0.41755193753E+02  0.46142317632E+02  0.99999988258E+01 0.  0.
        -12    1    1    2    0    0 -0.15686929209E+02 -0.62878888848E+01 -0.41755193753E+02  0.45045682368E+02  0.00000000000E+00 0.  1.
         11    1    3    3    0    0  0.11568598266E+02  0.80003402186E+01  0.31664576278E+02  0.34647991292E+02  0.51100000000E-03 0. -1.
        -11    1    3    3    0    0  0.16825363631E+01 -0.14131330290E+01  0.17764718934E+01  0.28255488352E+01  0.51100000000E-03 0.  1.
         12    1    3    3    0    0  0.24357945798E+01 -0.29931830489E+00  0.83141455815E+01  0.86687775051E+01  0.00000000000E+00 0. -1.
</event>
<event>
 7    1  0.1549900E-008  0.4614232E+02  0.7816164E-02  0.1320468E+00
        -11   -1    0    0    0    0  0.00000000000E+00  0.00000000000E+00  0.45593999997E+02  0.45594000000E+02  0.51100000000E-03 0.  1.
         11   -1    0    0    0    0 -0.00000000000E+00 -0.00000000000E+00 -0.45593999997E+02  0.45594000000E+02  0.51100000000E-03 0. -1.
    9900012    2    1    2    0    0  0.72033285361E+01  0.13695116595E+02 -0.42304484845E+02  0.46142316538E+02  0.99999888502E+01 0.  0.
        -12    1    1    2    0    0 -0.72033285361E+01 -0.13695116595E+02  0.42304484845E+02  0.45045683462E+02  0.00000000000E+00 0.  1.
         11    1    3    3    0    0  0.10901293336E+01  0.10696282700E+02 -0.31273713189E+02  0.33070288514E+02  0.51100000000E-03 0. -1.
        -11    1    3    3    0    0  0.32991817568E+01  0.82548850005E+00 -0.45575613341E+01  0.56865980254E+01  0.51100000000E-03 0.  1.
         12    1    3    3    0    0  0.28140174457E+01  0.21733453957E+01 -0.64732103218E+01  0.73854299986E+01  0.00000000000E+00 0. -1.
</event>
<event>
 7    1  0.1549900E-008  0.4614232E+02  0.7816164E-02  0.1320468E+00
        -11   -1    0    0    0    0  0.00000000000E+00  0.00000000000E+00  0.45593999997E+02  0.45594000000E+02  0.51100000000E-03 0. -1.
         11   -1    0    0    0    0 -0.00000000000E+00 -0.00000000000E+00 -0.45593999997E+02  0.45594000000E+02  0.51100000000E-03 0.  1.
    9900012    2    1    2    0    0  0.33663235581E+02 -0.29413888187E+02 -0.55428520050E+01  0.46142318115E+02  0.10000003230E+02 0.  0.
        -12    1    1    2    0    0 -0.33663235581E+02  0.29413888187E+02  0.55428520050E+01  0.45045681885E+02  0.00000000000E+00 0.  1.
         11    1    3    3    0    0  0.54791651904E+01 -0.83673675881E+01  0.18490456550E+01  0.10171187818E+02  0.51100000000E-03 0. -1.
        -11    1    3    3    0    0  0.13517425055E+02 -0.10796286042E+02 -0.40664517199E+01  0.17771229622E+02  0.51100000000E-03 0.  1.
        -12    1    3    3    0    0  0.14666645336E+02 -0.10250234557E+02 -0.33254459400E+01  0.18199900675E+02  0.00000000000E+00 0.  1.
</event>
<event>
 7    1  0.1549900E-008  0.4614232E+02  0.7816164E-02  0.1320468E+00
        -11   -1    0    0    0    0  0.00000000000E+00  0.00000000000E+00  0.45593999997E+02  0.45594000000E+02  0.51100000000E-03 0. -1.
         11   -1    0    0    0    0 -0.00000000000E+00 -0.00000000000E+00 -0.45593999997E+02  0.45594000000E+02  0.51100000000E-03 0.  1.
    9900012    2    1    2    0    0 -0.43174336417E+02 -0.12253281535E+02 -0.38661735900E+01  0.46142317280E+02  0.99999956171E+01 0.  0.
        -12    1    1    2    0    0  0.43174336417E+02  0.12253281535E+02  0.38661735900E+01  0.45045682720E+02  0.00000000000E+00 0.  1.
         11    1    3    3    0    0 -0.36464506808E+02 -0.74762233358E+01 -0.13197141625E+01  0.37246420202E+02  0.51100000000E-03 0. -1.
        -11    1    3    3    0    0 -0.66581472002E+01 -0.46641249768E+01 -0.28127038783E+01  0.86021095847E+01  0.51100000000E-03 0.  1.
         12    1    3    3    0    0 -0.51682409137E-01 -0.11293322243E+00  0.26624445080E+00  0.29378749416E+00  0.00000000000E+00 0. -1.
</event>
<event>
 7    1  0.1549900E-008  0.4614232E+02  0.7816164E-02  0.1320468E+00
        -11   -1    0    0    0    0  0.00000000000E+00  0.00000000000E+00  0.45593999997E+02  0.45594000000E+02  0.51100000000E-03 0. -1.
         11   -1    0    0    0    0 -0.00000000000E+00 -0.00000000000E+00 -0.45593999997E+02  0.45594000000E+02  0.51100000000E-03 0.  1.
    9900012    2    1    2    0    0  0.42046543218E+02 -0.23022731781E+01  0.15996913766E+02  0.46142317539E+02  0.99999979710E+01 0.  0.
        -12    1    1    2    0    0 -0.42046543218E+02  0.23022731781E+01 -0.15996913766E+02  0.45045682461E+02  0.00000000000E+00 0.  1.
         11    1    3    3    0    0  0.16983569897E+02 -0.36700944000E+01  0.80683835476E+01  0.19157506431E+02  0.51100000000E-03 0. -1.
        -11    1    3    3    0    0  0.21873949446E+02 -0.24354375636E+00  0.51886963673E+01  0.22482249625E+02  0.51100000000E-03 0.  1.
         12    1    3    3    0    0  0.31890238752E+01  0.16113649783E+01  0.27398338516E+01  0.45025614826E+01  0.00000000000E+00 0. -1.
</event>
<event>
 7    1  0.1549900E-008  0.4614232E+02  0.7816164E-02  0.1320468E+00
        -11   -1    0    0    0    0  0.00000000000E+00  0.00000000000E+00  0.45593999997E+02  0.45594000000E+02  0.51100000000E-03 0. -1.
         11   -1    0    0    0    0 -0.00000000000E+00 -0.00000000000E+00 -0.45593999997E+02  0.45594000000E+02  0.51100000000E-03 0.  1.
    9900012    2    1    2    0    0 -0.19022538899E+01 -0.17704062521E+02  0.41377059558E+02  0.46142318106E+02  0.10000003146E+02 0.  0.
        -12    1    1    2    0    0  0.19022538899E+01  0.17704062521E+02 -0.41377059558E+02  0.45045681894E+02  0.00000000000E+00 0.  1.
         11    1    3    3    0    0 -0.93924856748E+00 -0.14527582509E+02  0.26999973911E+02  0.30674605668E+02  0.51100000000E-03 0. -1.
        -11    1    3    3    0    0 -0.13253645631E+00  0.23532986882E+00  0.92471440445E+01  0.92510874658E+01  0.51100000000E-03 0.  1.
        -12    1    3    3    0    0 -0.83046886612E+00 -0.34118098804E+01  0.51299416025E+01  0.62166249720E+01  0.00000000000E+00 0.  1.
</event>
<event>
 7    1  0.1549900E-008  0.4614232E+02  0.7816164E-02  0.1320468E+00
        -11   -1    0    0    0    0  0.00000000000E+00  0.00000000000E+00  0.45593999997E+02  0.45594000000E+02  0.51100000000E-03 0.  1.
         11   -1    0    0    0    0 -0.00000000000E+00 -0.00000000000E+00 -0.45593999997E+02  0.45594000000E+02  0.51100000000E-03 0. -1.
    9900012    2    1    2    0    0 -0.18722055848E+02  0.60987069049E+01 -0.40514242474E+02  0.46142318250E+02  0.10000004461E+02 0.  0.
        -12    1    1    2    0    0  0.18722055848E+02 -0.60987069049E+01  0.40514242474E+02  0.45045681750E+02  0.00000000000E+00 0.  1.
         11    1    3    3    0    0 -0.43568266052E+01  0.23217200556E+01 -0.10152938213E+02  0.11289573805E+02  0.51100000000E-03 0. -1.
        -11    1    3    3    0    0  0.98199780499E+00 -0.60408492396E+00 -0.21526193977E+01  0.24419272751E+01  0.51100000000E-03 0.  1.
        -12    1    3    3    0    0 -0.15347227047E+02  0.43810717732E+01 -0.28208684863E+02  0.32410817170E+02  0.00000000000E+00 0.  1.
</event>
<event>
 7    1  0.1549900E-008  0.4614231E+02  0.7816164E-02  0.1320468E+00
        -11   -1    0    0    0    0  0.00000000000E+00  0.00000000000E+00  0.45593999997E+02  0.45594000000E+02  0.51100000000E-03 0.  1.
         11   -1    0    0    0    0 -0.00000000000E+00 -0.00000000000E+00 -0.45593999997E+02  0.45594000000E+02  0.51100000000E-03 0. -1.
    9900012    2    1    2    0    0  0.24350033365E+02  0.81430981820E+01 -0.37011887511E+02  0.46142312193E+02  0.99999492267E+01 0.  0.
        -12    1    1    2    0    0 -0.24350033365E+02 -0.81430981820E+01  0.37011887511E+02  0.45045687807E+02  0.00000000000E+00 0.  1.
         11    1    3    3    0    0  0.21081171235E+01  0.18391171530E+01 -0.17451388130E+01  0.32972745482E+01  0.51100000000E-03 0. -1.
        -11    1    3    3    0    0  0.43512231966E+01 -0.89280333892E+00 -0.33839796149E+01  0.55840450754E+01  0.51100000000E-03 0.  1.
         12    1    3    3    0    0  0.17890693045E+02  0.71967843679E+01 -0.31882769083E+02  0.37260992570E+02  0.00000000000E+00 0. -1.
</event>
<event>
 7    1  0.2629375E-008  0.4614232E+02  0.7816164E-02  0.1320468E+00
        -11   -1    0    0    0    0  0.00000000000E+00  0.00000000000E+00  0.45593999997E+02  0.45594000000E+02  0.51100000000E-03 0. -1.
         11   -1    0    0    0    0 -0.00000000000E+00 -0.00000000000E+00 -0.45593999997E+02  0.45594000000E+02  0.51100000000E-03 0.  1.
    9900012    2    1    2    0    0  0.17195332288E+02  0.40137700804E+02  0.11063410512E+02  0.46142317293E+02  0.99999957331E+01 0.  0.
        -12    1    1    2    0    0 -0.17195332288E+02 -0.40137700804E+02 -0.11063410512E+02  0.45045682707E+02  0.00000000000E+00 0.  1.
         11    1    3    3    0    0  0.17395124588E+02  0.35974011080E+02  0.84904356379E+01  0.40851038300E+02  0.51100000000E-03 0. -1.
        -11    1    3    3    0    0  0.48794012586E-01  0.26260884191E+00  0.10707623116E+01  0.11035743965E+01  0.51100000000E-03 0.  1.
         12    1    3    3    0    0 -0.24858631203E+00  0.39010808826E+01  0.15022125627E+01  0.41877045969E+01  0.00000000000E+00 0. -1.
</event>
<event>
 7    1  0.1549900E-008  0.4614232E+02  0.7816164E-02  0.1320468E+00
        -11   -1    0    0    0    0  0.00000000000E+00  0.00000000000E+00  0.45593999997E+02  0.45594000000E+02  0.51100000000E-03 0. -1.
         11   -1    0    0    0    0 -0.00000000000E+00 -0.00000000000E+00 -0.45593999997E+02  0.45594000000E+02  0.51100000000E-03 0.  1.
    9900012    2    1    2    0    0 -0.32790557346E+02 -0.27725165341E+02 -0.13609116122E+02  0.46142317789E+02  0.10000000252E+02 0.  0.
        -12    1    1    2    0    0  0.32790557346E+02  0.27725165341E+02  0.13609116122E+02  0.45045682211E+02  0.00000000000E+00 0.  1.
         11    1    3    3    0    0 -0.84246072852E+01 -0.58938074516E+01 -0.12817910411E+01  0.10361175740E+02  0.51100000000E-03 0. -1.
        -11    1    3    3    0    0 -0.22762358670E+02 -0.20416987189E+02 -0.90873101801E+01  0.31899177805E+02  0.51100000000E-03 0.  1.
        -12    1    3    3    0    0 -0.16035913911E+01 -0.14143707005E+01 -0.32400149008E+01  0.38819642432E+01  0.00000000000E+00 0.  1.
</event>
<event>
 7    1  0.1549900E-008  0.4614232E+02  0.7816164E-02  0.1320468E+00
        -11   -1    0    0    0    0  0.00000000000E+00  0.00000000000E+00  0.45593999997E+02  0.45594000000E+02  0.51100000000E-03 0. -1.
         11   -1    0    0    0    0 -0.00000000000E+00 -0.00000000000E+00 -0.45593999997E+02  0.45594000000E+02  0.51100000000E-03 0.  1.
    9900012    2    1    2    0    0  0.69738115396E+01  0.41427314748E+02  0.16255990346E+02  0.46142315670E+02  0.99999809311E+01 0.  0.
        -12    1    1    2    0    0 -0.69738115396E+01 -0.41427314748E+02 -0.16255990346E+02  0.45045684330E+02  0.00000000000E+00 0.  1.
         11    1    3    3    0    0 -0.25355540004E-01 -0.30848186194E+00 -0.34489971955E+00  0.46342209725E+00  0.51100000000E-03 0. -1.
        -11    1    3    3    0    0  0.62726171043E+01  0.24566896636E+02  0.92750092075E+01  0.26998220899E+02  0.51100000000E-03 0.  1.
         12    1    3    3    0    0  0.72654997521E+00  0.17168899974E+02  0.73258808580E+01  0.18680672674E+02  0.00000000000E+00 0. -1.
</event>
<event>
 7    1  0.1549900E-008  0.4614232E+02  0.7816164E-02  0.1320468E+00
        -11   -1    0    0    0    0  0.00000000000E+00  0.00000000000E+00  0.45593999997E+02  0.45594000000E+02  0.51100000000E-03 0.  1.
         11   -1    0    0    0    0 -0.00000000000E+00 -0.00000000000E+00 -0.45593999997E+02  0.45594000000E+02  0.51100000000E-03 0. -1.
    9900012    2    1    2    0    0 -0.36039020864E+02 -0.25371586084E+02  0.93051142414E+01  0.46142317007E+02  0.99999931204E+01 0.  0.
        -12    1    1    2    0    0  0.36039020864E+02  0.25371586084E+02 -0.93051142414E+01  0.45045682993E+02  0.00000000000E+00 0.  1.
         11    1    3    3    0    0 -0.20673724856E+02 -0.11899811056E+02  0.72358849592E+01  0.24927222750E+02  0.51100000000E-03 0. -1.
        -11    1    3    3    0    0 -0.52792259690E+01 -0.16382496956E+01  0.11021121390E+01  0.56363765244E+01  0.51100000000E-03 0.  1.
         12    1    3    3    0    0 -0.10086070039E+02 -0.11833525332E+02  0.96711714323E+00  0.15578717733E+02  0.00000000000E+00 0. -1.
</event>
<event>
 7    1  0.1549900E-008  0.4614232E+02  0.7816164E-02  0.1320468E+00
        -11   -1    0    0    0    0  0.00000000000E+00  0.00000000000E+00  0.45593999997E+02  0.45594000000E+02  0.51100000000E-03 0. -1.
         11   -1    0    0    0    0 -0.00000000000E+00 -0.00000000000E+00 -0.45593999997E+02  0.45594000000E+02  0.51100000000E-03 0.  1.
    9900012    2    1    2    0    0  0.19962563766E+02 -0.59456216410E+01  0.39940694871E+02  0.46142317903E+02  0.10000001290E+02 0.  0.
        -12    1    1    2    0    0 -0.19962563766E+02  0.59456216410E+01 -0.39940694871E+02  0.45045682097E+02  0.00000000000E+00 0.  1.
         11    1    3    3    0    0  0.12712956538E+02 -0.42638017514E+01  0.27321580196E+02  0.30434651534E+02  0.51100000000E-03 0. -1.
        -11    1    3    3    0    0  0.53612485226E+01  0.12795795437E+01  0.96292796402E+01  0.11095194283E+02  0.51100000000E-03 0.  1.
        -12    1    3    3    0    0  0.18883587055E+01 -0.29613994333E+01  0.29898350354E+01  0.46124720859E+01  0.00000000000E+00 0.  1.
</event>
<event>
 7    1  0.1549900E-008  0.4614232E+02  0.7816164E-02  0.1320468E+00
        -11   -1    0    0    0    0  0.00000000000E+00  0.00000000000E+00  0.45593999997E+02  0.45594000000E+02  0.51100000000E-03 0.  1.
         11   -1    0    0    0    0 -0.00000000000E+00 -0.00000000000E+00 -0.45593999997E+02  0.45594000000E+02  0.51100000000E-03 0. -1.
    9900012    2    1    2    0    0  0.95858318678E+00 -0.93510728748E+01 -0.44053967659E+02  0.46142317497E+02  0.99999975952E+01 0.  0.
        -12    1    1    2    0    0 -0.95858318678E+00  0.93510728748E+01  0.44053967659E+02  0.45045682503E+02  0.00000000000E+00 0.  1.
         11    1    3    3    0    0  0.26748588764E+01 -0.23761093838E+01 -0.18976143336E+02  0.19310483733E+02  0.51100000000E-03 0. -1.
        -11    1    3    3    0    0  0.51465798498E+00 -0.32448962662E+01 -0.34208714276E+01  0.47430566311E+01  0.51100000000E-03 0.  1.
        -12    1    3    3    0    0 -0.22309336746E+01 -0.37300672247E+01 -0.21656952895E+02  0.22088777133E+02  0.00000000000E+00 0.  1.
</event>
<event>
 7    1  0.1549900E-008  0.4614232E+02  0.7816164E-02  0.1320468E+00
        -11   -1    0    0    0    0  0.00000000000E+00  0.00000000000E+00  0.45593999997E+02  0.45594000000E+02  0.51100000000E-03 0.  1.
         11   -1    0    0    0    0 -0.00000000000E+00 -0.00000000000E+00 -0.45593999997E+02  0.45594000000E+02  0.51100000000E-03 0. -1.
    9900012    2    1    2    0    0  0.29042946296E+02  0.32615536369E+02 -0.11038458452E+02  0.46142317552E+02  0.99999980943E+01 0.  0.
        -12    1    1    2    0    0 -0.29042946296E+02 -0.32615536369E+02  0.11038458452E+02  0.45045682448E+02  0.00000000000E+00 0.  1.
         11    1    3    3    0    0  0.10304903326E+02  0.82338127838E+01 -0.55741668534E+01  0.14319847831E+02  0.51100000000E-03 0. -1.
        -11    1    3    3    0    0  0.17041609653E+02  0.22393386916E+02 -0.31223743422E+01  0.28313061631E+02  0.51100000000E-03 0.  1.
        -12    1    3    3    0    0  0.16964333165E+01  0.19883366699E+01 -0.23419172564E+01  0.35094080906E+01  0.00000000000E+00 0.  1.
</event>
<event>
 7    1  0.1549900E-008  0.4614232E+02  0.7816164E-02  0.1320468E+00
        -11   -1    0    0    0    0  0.00000000000E+00  0.00000000000E+00  0.45593999997E+02  0.45594000000E+02  0.51100000000E-03 0.  1.
         11   -1    0    0    0    0 -0.00000000000E+00 -0.00000000000E+00 -0.45593999997E+02  0.45594000000E+02  0.51100000000E-03 0. -1.
    9900012    2    1    2    0    0 -0.42052406346E+02 -0.16027163661E+02  0.19592252005E+01  0.46142318543E+02  0.10000007130E+02 0.  0.
        -12    1    1    2    0    0  0.42052406346E+02  0.16027163661E+02 -0.19592252005E+01  0.45045681457E+02  0.00000000000E+00 0.  1.
         11    1    3    3    0    0 -0.15333030937E+02 -0.10793314592E+02  0.21048039094E+01  0.18868695698E+02  0.51100000000E-03 0.  1.
        -11    1    3    3    0    0 -0.22252324360E+02 -0.39838342291E+01  0.34785925640E+00  0.22608800962E+02  0.51100000000E-03 0. -1.
        -12    1    3    3    0    0 -0.44670510493E+01 -0.12500148399E+01 -0.49343796528E+00  0.46648218832E+01  0.00000000000E+00 0.  1.
</event>
<event>
 7    1  0.1549900E-008  0.4614232E+02  0.7816164E-02  0.1320468E+00
        -11   -1    0    0    0    0  0.00000000000E+00  0.00000000000E+00  0.45593999997E+02  0.45594000000E+02  0.51100000000E-03 0.  1.
         11   -1    0    0    0    0 -0.00000000000E+00 -0.00000000000E+00 -0.45593999997E+02  0.45594000000E+02  0.51100000000E-03 0. -1.
    9900012    2    1    2    0    0  0.65710161802E+00 -0.22176491420E+02 -0.39203123627E+02  0.46142318116E+02  0.10000003239E+02 0.  0.
        -12    1    1    2    0    0 -0.65710161802E+00  0.22176491420E+02  0.39203123627E+02  0.45045681884E+02  0.00000000000E+00 0.  1.
         11    1    3    3    0    0 -0.10472288422E+01 -0.18510079749E+02 -0.36077625905E+02  0.40562480592E+02  0.51100000000E-03 0. -1.
        -11    1    3    3    0    0 -0.38715071870E+00 -0.22622505319E-01 -0.94226237768E-01  0.39909435193E+00  0.51100000000E-03 0.  1.
         12    1    3    3    0    0  0.20914811789E+01 -0.36437891662E+01 -0.30312714840E+01  0.51807431725E+01  0.00000000000E+00 0. -1.
</event>
<event>
 7    1  0.1549900E-008  0.4614232E+02  0.7816164E-02  0.1320468E+00
        -11   -1    0    0    0    0  0.00000000000E+00  0.00000000000E+00  0.45593999997E+02  0.45594000000E+02  0.51100000000E-03 0.  1.
         11   -1    0    0    0    0 -0.00000000000E+00 -0.00000000000E+00 -0.45593999997E+02  0.45594000000E+02  0.51100000000E-03 0. -1.
    9900012    2    1    2    0    0 -0.47398843929E+01 -0.40256727066E+02 -0.19647973095E+02  0.46142318466E+02  0.10000006428E+02 0.  0.
        -12    1    1    2    0    0  0.47398843929E+01  0.40256727066E+02  0.19647973095E+02  0.45045681534E+02  0.00000000000E+00 0.  1.
         11    1    3    3    0    0 -0.13474233771E+01 -0.26657095356E+02 -0.16912225919E+02  0.31598095961E+02  0.51100000000E-03 0. -1.
        -11    1    3    3    0    0  0.11932428381E+00 -0.68538956259E+00  0.39456643226E+00  0.79980001738E+00  0.51100000000E-03 0.  1.
         12    1    3    3    0    0 -0.35117852997E+01 -0.12914242148E+02 -0.31303136091E+01  0.13744422488E+02  0.00000000000E+00 0. -1.
</event>
<event>
 7    1  0.1549900E-008  0.4614232E+02  0.7816164E-02  0.1320468E+00
        -11   -1    0    0    0    0  0.00000000000E+00  0.00000000000E+00  0.45593999997E+02  0.45594000000E+02  0.51100000000E-03 0. -1.
         11   -1    0    0    0    0 -0.00000000000E+00 -0.00000000000E+00 -0.45593999997E+02  0.45594000000E+02  0.51100000000E-03 0.  1.
    9900012    2    1    2    0    0 -0.11175116733E+02 -0.41527016081E+02 -0.13406606677E+02  0.46142318729E+02  0.10000008824E+02 0.  0.
        -12    1    1    2    0    0  0.11175116733E+02  0.41527016081E+02  0.13406606677E+02  0.45045681271E+02  0.00000000000E+00 0.  1.
         11    1    3    3    0    0 -0.66272265126E+01 -0.25302415302E+02 -0.74612465411E+01  0.27199311601E+02  0.51100000000E-03 0. -1.
        -11    1    3    3    0    0  0.14421755132E+01 -0.56303041447E+01 -0.20917826796E+01  0.61770340789E+01  0.51100000000E-03 0.  1.
        -12    1    3    3    0    0 -0.59900657337E+01 -0.10594296635E+02 -0.38535774564E+01  0.12765973049E+02  0.00000000000E+00 0.  1.
</event>
<event>
 7    1  0.1549900E-008  0.4614231E+02  0.7816164E-02  0.1320468E+00
        -11   -1    0    0    0    0  0.00000000000E+00  0.00000000000E+00  0.45593999997E+02  0.45594000000E+02  0.51100000000E-03 0.  1.
         11   -1    0    0    0    0 -0.00000000000E+00 -0.00000000000E+00 -0.45593999997E+02  0.45594000000E+02  0.51100000000E-03 0. -1.
    9900012    2    1    2    0    0 -0.94068496766E+01  0.31058658142E+02 -0.31240760323E+02  0.46142310173E+02  0.99999308061E+01 0.  0.
        -12    1    1    2    0    0  0.94068496766E+01 -0.31058658142E+02  0.31240760323E+02  0.45045689827E+02  0.00000000000E+00 0.  1.
         11    1    3    3    0    0 -0.30329428324E+01  0.15974409708E+02 -0.11757504144E+02  0.20065378433E+02  0.51100000000E-03 0.  1.
        -11    1    3    3    0    0 -0.55184785239E+01  0.58326148860E+01 -0.95109335199E+01  0.12447122491E+02  0.51100000000E-03 0. -1.
        -12    1    3    3    0    0 -0.85542832030E+00  0.92516335485E+01 -0.99723226595E+01  0.13629809249E+02  0.00000000000E+00 0.  1.
</event>
<event>
 7    1  0.1549900E-008  0.4614232E+02  0.7816164E-02  0.1320468E+00
        -11   -1    0    0    0    0  0.00000000000E+00  0.00000000000E+00  0.45593999997E+02  0.45594000000E+02  0.51100000000E-03 0.  1.
         11   -1    0    0    0    0 -0.00000000000E+00 -0.00000000000E+00 -0.45593999997E+02  0.45594000000E+02  0.51100000000E-03 0. -1.
    9900012    2    1    2    0    0  0.28764763552E+02 -0.27046699932E+02 -0.21683583733E+02  0.46142318710E+02  0.10000008652E+02 0.  0.
        -12    1    1    2    0    0 -0.28764763552E+02  0.27046699932E+02  0.21683583733E+02  0.45045681290E+02  0.00000000000E+00 0.  1.
         11    1    3    3    0    0  0.31280809936E+01 -0.54025995621E+01 -0.44028378172E+01  0.76392377785E+01  0.51100000000E-03 0. -1.
        -11    1    3    3    0    0  0.10777449570E+02 -0.13233951875E+02 -0.62499205510E+01  0.18175599264E+02  0.51100000000E-03 0.  1.
        -12    1    3    3    0    0  0.14859232988E+02 -0.84101484949E+01 -0.11030825365E+02  0.20327481667E+02  0.00000000000E+00 0.  1.
</event>
<event>
 7    1  0.1549900E-008  0.4614232E+02  0.7816164E-02  0.1320468E+00
        -11   -1    0    0    0    0  0.00000000000E+00  0.00000000000E+00  0.45593999997E+02  0.45594000000E+02  0.51100000000E-03 0.  1.
         11   -1    0    0    0    0 -0.00000000000E+00 -0.00000000000E+00 -0.45593999997E+02  0.45594000000E+02  0.51100000000E-03 0. -1.
    9900012    2    1    2    0    0  0.16713030111E+02 -0.38347549164E+02 -0.16710882985E+02  0.46142317493E+02  0.99999975595E+01 0.  0.
        -12    1    1    2    0    0 -0.16713030111E+02  0.38347549164E+02  0.16710882985E+02  0.45045682507E+02  0.00000000000E+00 0.  1.
         11    1    3    3    0    0  0.95365412987E+01 -0.15844174531E+02 -0.68856454169E+01  0.19733109222E+02  0.51100000000E-03 0. -1.
        -11    1    3    3    0    0  0.15942258643E+01 -0.15373164569E+02 -0.60164061862E+01  0.16585321481E+02  0.51100000000E-03 0.  1.
        -12    1    3    3    0    0  0.55822629480E+01 -0.71302100638E+01 -0.38088313818E+01  0.98238867904E+01  0.00000000000E+00 0.  1.
</event>
<event>
 7    1  0.1549900E-008  0.4614232E+02  0.7816164E-02  0.1320468E+00
        -11   -1    0    0    0    0  0.00000000000E+00  0.00000000000E+00  0.45593999997E+02  0.45594000000E+02  0.51100000000E-03 0.  1.
         11   -1    0    0    0    0 -0.00000000000E+00 -0.00000000000E+00 -0.45593999997E+02  0.45594000000E+02  0.51100000000E-03 0. -1.
    9900012    2    1    2    0    0  0.10023541722E+02 -0.58953403575E+01 -0.43518813224E+02  0.46142317288E+02  0.99999956865E+01 0.  0.
        -12    1    1    2    0    0 -0.10023541722E+02  0.58953403575E+01  0.43518813224E+02  0.45045682712E+02  0.00000000000E+00 0.  1.
         11    1    3    3    0    0  0.56320568270E+01 -0.61198112445E+01 -0.22612444230E+02  0.24093459447E+02  0.51100000000E-03 0. -1.
        -11    1    3    3    0    0 -0.45999370934E+00  0.21050069731E+00 -0.11065798305E+02  0.11077355151E+02  0.51100000000E-03 0.  1.
        -12    1    3    3    0    0  0.48514786041E+01  0.13970189700E-01 -0.98405706886E+01  0.10971502691E+02  0.00000000000E+00 0.  1.
</event>
<event>
 7    1  0.1549900E-008  0.4614232E+02  0.7816164E-02  0.1320468E+00
        -11   -1    0    0    0    0  0.00000000000E+00  0.00000000000E+00  0.45593999997E+02  0.45594000000E+02  0.51100000000E-03 0.  1.
         11   -1    0    0    0    0 -0.00000000000E+00 -0.00000000000E+00 -0.45593999997E+02  0.45594000000E+02  0.51100000000E-03 0. -1.
    9900012    2    1    2    0    0 -0.28680847488E+02 -0.30896852068E+01 -0.34597345506E+02  0.46142317817E+02  0.10000000507E+02 0.  0.
        -12    1    1    2    0    0  0.28680847488E+02  0.30896852068E+01  0.34597345506E+02  0.45045682183E+02  0.00000000000E+00 0.  1.
         11    1    3    3    0    0 -0.80136269094E+01  0.73680007763E+00 -0.96128322940E+01  0.12536651689E+02  0.51100000000E-03 0. -1.
        -11    1    3    3    0    0 -0.67821988049E+00  0.12323252948E+01 -0.29266908406E+00  0.14367544301E+01  0.51100000000E-03 0.  1.
        -12    1    3    3    0    0 -0.19989000698E+02 -0.50588105792E+01 -0.24691844128E+02  0.32168911698E+02  0.00000000000E+00 0.  1.
</event>
<event>
 7    1  0.1549900E-008  0.4614232E+02  0.7816164E-02  0.1320468E+00
        -11   -1    0    0    0    0  0.00000000000E+00  0.00000000000E+00  0.45593999997E+02  0.45594000000E+02  0.51100000000E-03 0.  1.
         11   -1    0    0    0    0 -0.00000000000E+00 -0.00000000000E+00 -0.45593999997E+02  0.45594000000E+02  0.51100000000E-03 0. -1.
    9900012    2    1    2    0    0 -0.13383293955E+02 -0.35660457463E+02 -0.24048547267E+02  0.46142318640E+02  0.10000008015E+02 0.  0.
        -12    1    1    2    0    0  0.13383293955E+02  0.35660457463E+02  0.24048547267E+02  0.45045681360E+02  0.00000000000E+00 0.  1.
         11    1    3    3    0    0 -0.58885290740E+01 -0.18965443475E+02 -0.14354016963E+02  0.24503073768E+02  0.51100000000E-03 0. -1.
        -11    1    3    3    0    0 -0.21866706578E+01 -0.20506557988E+01  0.47723994372E+00  0.30355355369E+01  0.51100000000E-03 0.  1.
        -12    1    3    3    0    0 -0.53080942234E+01 -0.14644358189E+02 -0.10171770247E+02  0.18603709335E+02  0.00000000000E+00 0.  1.
</event>
<event>
 7    1  0.1549900E-008  0.4614232E+02  0.7816164E-02  0.1320468E+00
        -11   -1    0    0    0    0  0.00000000000E+00  0.00000000000E+00  0.45593999997E+02  0.45594000000E+02  0.51100000000E-03 0.  1.
         11   -1    0    0    0    0 -0.00000000000E+00 -0.00000000000E+00 -0.45593999997E+02  0.45594000000E+02  0.51100000000E-03 0. -1.
    9900012    2    1    2    0    0 -0.15166259467E+00 -0.24194155060E+02 -0.37996489959E+02  0.46142318855E+02  0.10000009973E+02 0.  0.
        -12    1    1    2    0    0  0.15166259467E+00  0.24194155060E+02  0.37996489959E+02  0.45045681145E+02  0.00000000000E+00 0.  1.
         11    1    3    3    0    0 -0.31089081067E+01 -0.88441937373E+01 -0.11048380611E+02  0.14489713140E+02  0.51100000000E-03 0. -1.
        -11    1    3    3    0    0 -0.40408002595E+00  0.32615694999E+00 -0.13710900291E+01  0.14661334020E+01  0.51100000000E-03 0.  1.
         12    1    3    3    0    0  0.33613255380E+01 -0.15676118273E+02 -0.25577019319E+02  0.30186472313E+02  0.00000000000E+00 0. -1.
</event>
<event>
 7    1  0.1574579E-008  0.4614232E+02  0.7816164E-02  0.1320468E+00
        -11   -1    0    0    0    0  0.00000000000E+00  0.00000000000E+00  0.45593999997E+02  0.45594000000E+02  0.51100000000E-03 0.  1.
         11   -1    0    0    0    0 -0.00000000000E+00 -0.00000000000E+00 -0.45593999997E+02  0.45594000000E+02  0.51100000000E-03 0. -1.
    9900012    2    1    2    0    0  0.35338897017E+02  0.19718620676E+02 -0.19785142366E+02  0.46142317607E+02  0.99999985985E+01 0.  0.
        -12    1    1    2    0    0 -0.35338897017E+02 -0.19718620676E+02  0.19785142366E+02  0.45045682393E+02  0.00000000000E+00 0.  1.
         11    1    3    3    0    0  0.32466242843E+02  0.16249556697E+02 -0.19742162786E+02  0.41326238746E+02  0.51100000000E-03 0. -1.
        -11    1    3    3    0    0  0.16087544069E+01  0.25067718541E+01 -0.75878081825E+00  0.30737183445E+01  0.51100000000E-03 0.  1.
         12    1    3    3    0    0  0.12638997678E+01  0.96229212542E+00  0.71580123856E+00  0.17423605169E+01  0.00000000000E+00 0. -1.
</event>
<event>
 7    1  0.1549900E-008  0.4614232E+02  0.7816164E-02  0.1320468E+00
        -11   -1    0    0    0    0  0.00000000000E+00  0.00000000000E+00  0.45593999997E+02  0.45594000000E+02  0.51100000000E-03 0.  1.
         11   -1    0    0    0    0 -0.00000000000E+00 -0.00000000000E+00 -0.45593999997E+02  0.45594000000E+02  0.51100000000E-03 0. -1.
    9900012    2    1    2    0    0  0.16477873889E+02 -0.25135125449E+02 -0.33553218195E+02  0.46142319735E+02  0.10000018002E+02 0.  0.
        -12    1    1    2    0    0 -0.16477873889E+02  0.25135125449E+02  0.33553218195E+02  0.45045680265E+02  0.00000000000E+00 0.  1.
         11    1    3    3    0    0  0.83741806986E+01 -0.59825421419E+01 -0.13206334016E+02  0.16742908088E+02  0.51100000000E-03 0. -1.
        -11    1    3    3    0    0  0.35331665075E+00 -0.49164290969E+01 -0.58851019614E+01  0.76766225046E+01  0.51100000000E-03 0.  1.
         12    1    3    3    0    0  0.77503765399E+01 -0.14236154210E+02 -0.14461782218E+02  0.21722789143E+02  0.00000000000E+00 0. -1.
</event>
<event>
 7    1  0.1549900E-008  0.4614232E+02  0.7816164E-02  0.1320468E+00
        -11   -1    0    0    0    0  0.00000000000E+00  0.00000000000E+00  0.45593999997E+02  0.45594000000E+02  0.51100000000E-03 0.  1.
         11   -1    0    0    0    0 -0.00000000000E+00 -0.00000000000E+00 -0.45593999997E+02  0.45594000000E+02  0.51100000000E-03 0. -1.
    9900012    2    1    2    0    0 -0.44826319280E+02  0.43298906092E+01 -0.98318495601E+00  0.46142317571E+02  0.99999982666E+01 0.  0.
        -12    1    1    2    0    0  0.44826319280E+02 -0.43298906092E+01  0.98318495601E+00  0.45045682429E+02  0.00000000000E+00 0.  1.
         11    1    3    3    0    0 -0.17983061675E+02  0.47630692207E+01 -0.33171459236E+01  0.18896581515E+02  0.51100000000E-03 0. -1.
        -11    1    3    3    0    0 -0.18833053911E+02 -0.17659493608E+01  0.50716420500E+00  0.18922465816E+02  0.51100000000E-03 0.  1.
         12    1    3    3    0    0 -0.80102036935E+01  0.13327707493E+01  0.18267967626E+01  0.83232702403E+01  0.00000000000E+00 0. -1.
</event>
<event>
 7    1  0.1549900E-008  0.4614232E+02  0.7816164E-02  0.1320468E+00
        -11   -1    0    0    0    0  0.00000000000E+00  0.00000000000E+00  0.45593999997E+02  0.45594000000E+02  0.51100000000E-03 0. -1.
         11   -1    0    0    0    0 -0.00000000000E+00 -0.00000000000E+00 -0.45593999997E+02  0.45594000000E+02  0.51100000000E-03 0.  1.
    9900012    2    1    2    0    0 -0.12235582578E+02  0.13768064596E+02  0.41107717368E+02  0.46142317510E+02  0.99999977127E+01 0.  0.
        -12    1    1    2    0    0  0.12235582578E+02 -0.13768064596E+02 -0.41107717368E+02  0.45045682490E+02  0.00000000000E+00 0.  1.
         11    1    3    3    0    0 -0.79871820207E+01  0.23120603927E+01  0.18876400324E+02  0.20626662099E+02  0.51100000000E-03 0. -1.
        -11    1    3    3    0    0 -0.39096415484E+01  0.84684276642E+01  0.14737436773E+02  0.17441089618E+02  0.51100000000E-03 0.  1.
         12    1    3    3    0    0 -0.33875900912E+00  0.29875765395E+01  0.74938802711E+01  0.80745657941E+01  0.00000000000E+00 0. -1.
</event>
<event>
 7    1  0.1549900E-008  0.4614232E+02  0.7816164E-02  0.1320468E+00
        -11   -1    0    0    0    0  0.00000000000E+00  0.00000000000E+00  0.45593999997E+02  0.45594000000E+02  0.51100000000E-03 0.  1.
         11   -1    0    0    0    0 -0.00000000000E+00 -0.00000000000E+00 -0.45593999997E+02  0.45594000000E+02  0.51100000000E-03 0. -1.
    9900012    2    1    2    0    0 -0.14136776349E+02  0.10201300997E+02 -0.41535508692E+02  0.46142317967E+02  0.10000001877E+02 0.  0.
        -12    1    1    2    0    0  0.14136776349E+02 -0.10201300997E+02  0.41535508692E+02  0.45045682033E+02  0.00000000000E+00 0.  1.
         11    1    3    3    0    0 -0.47161292081E+01  0.30897501705E+01 -0.16282039472E+02  0.17230590252E+02  0.51100000000E-03 0. -1.
        -11    1    3    3    0    0 -0.11543003864E+01  0.52301764551E+01 -0.12481679548E+02  0.13582322325E+02  0.51100000000E-03 0.  1.
        -12    1    3    3    0    0 -0.82663467541E+01  0.18813743715E+01 -0.12771789672E+02  0.15329405390E+02  0.00000000000E+00 0.  1.
</event>
<event>
 7    1  0.1549900E-008  0.4614232E+02  0.7816164E-02  0.1320468E+00
        -11   -1    0    0    0    0  0.00000000000E+00  0.00000000000E+00  0.45593999997E+02  0.45594000000E+02  0.51100000000E-03 0.  1.
         11   -1    0    0    0    0 -0.00000000000E+00 -0.00000000000E+00 -0.45593999997E+02  0.45594000000E+02  0.51100000000E-03 0. -1.
    9900012    2    1    2    0    0  0.13065596238E+02 -0.18367530172E+02 -0.39000483259E+02  0.46142315810E+02  0.99999822096E+01 0.  0.
        -12    1    1    2    0    0 -0.13065596238E+02  0.18367530172E+02  0.39000483259E+02  0.45045684190E+02  0.00000000000E+00 0.  1.
         11    1    3    3    0    0  0.45457175869E+01 -0.53319211888E+01 -0.13596529039E+02  0.15295703126E+02  0.51100000000E-03 0. -1.
        -11    1    3    3    0    0  0.60379783713E+01 -0.96696205762E+01 -0.23759497195E+02  0.26352845238E+02  0.51100000000E-03 0.  1.
        -12    1    3    3    0    0  0.24819002803E+01 -0.33659884072E+01 -0.16444570253E+01  0.44937674469E+01  0.00000000000E+00 0.  1.
</event>
<event>
 7    1  0.1549900E-008  0.4614232E+02  0.7816164E-02  0.1320468E+00
        -11   -1    0    0    0    0  0.00000000000E+00  0.00000000000E+00  0.45593999997E+02  0.45594000000E+02  0.51100000000E-03 0.  1.
         11   -1    0    0    0    0 -0.00000000000E+00 -0.00000000000E+00 -0.45593999997E+02  0.45594000000E+02  0.51100000000E-03 0. -1.
    9900012    2    1    2    0    0  0.11694469840E+02 -0.35342137114E+02 -0.25363088493E+02  0.46142317204E+02  0.99999949228E+01 0.  0.
        -12    1    1    2    0    0 -0.11694469840E+02  0.35342137114E+02  0.25363088493E+02  0.45045682796E+02  0.00000000000E+00 0.  1.
         11    1    3    3    0    0 -0.39284447099E+00  0.21885763952E+00  0.37295814861E+00  0.58422896752E+00  0.51100000000E-03 0.  1.
        -11    1    3    3    0    0  0.48872260379E+01 -0.15567681601E+02 -0.12010923585E+02  0.20260798957E+02  0.51100000000E-03 0. -1.
        -12    1    3    3    0    0  0.72000882727E+01 -0.19993313153E+02 -0.13725123057E+02  0.25297289280E+02  0.00000000000E+00 0.  1.
</event>
<event>
 7    1  0.1549900E-008  0.4614232E+02  0.7816164E-02  0.1320468E+00
        -11   -1    0    0    0    0  0.00000000000E+00  0.00000000000E+00  0.45593999997E+02  0.45594000000E+02  0.51100000000E-03 0. -1.
         11   -1    0    0    0    0 -0.00000000000E+00 -0.00000000000E+00 -0.45593999997E+02  0.45594000000E+02  0.51100000000E-03 0.  1.
    9900012    2    1    2    0    0  0.17115689149E+01  0.44394829960E+02 -0.74352600101E+01  0.46142317780E+02  0.10000000168E+02 0.  0.
        -12    1    1    2    0    0 -0.17115689149E+01 -0.44394829960E+02  0.74352600101E+01  0.45045682220E+02  0.00000000000E+00 0.  1.
         11    1    3    3    0    0  0.30611115388E+01  0.14874899956E+02 -0.19613859937E+01  0.15312742662E+02  0.51100000000E-03 0. -1.
        -11    1    3    3    0    0 -0.22301434751E+01  0.21445997547E+02 -0.10642344001E+01  0.21587888869E+02  0.51100000000E-03 0.  1.
        -12    1    3    3    0    0  0.88060085118E+00  0.80739324570E+01 -0.44096396163E+01  0.92416862490E+01  0.00000000000E+00 0.  1.
</event>
<event>
 7    1  0.1549900E-008  0.4614232E+02  0.7816164E-02  0.1320468E+00
        -11   -1    0    0    0    0  0.00000000000E+00  0.00000000000E+00  0.45593999997E+02  0.45594000000E+02  0.51100000000E-03 0.  1.
         11   -1    0    0    0    0 -0.00000000000E+00 -0.00000000000E+00 -0.45593999997E+02  0.45594000000E+02  0.51100000000E-03 0. -1.
    9900012    2    1    2    0    0 -0.13439679633E+01  0.38911201325E+02 -0.22654483123E+02  0.46142318254E+02  0.10000004491E+02 0.  0.
        -12    1    1    2    0    0  0.13439679633E+01 -0.38911201325E+02  0.22654483123E+02  0.45045681746E+02  0.00000000000E+00 0.  1.
         11    1    3    3    0    0 -0.11150012331E+01  0.30627787521E+02 -0.18472079626E+02  0.35784386569E+02  0.51100000000E-03 0. -1.
        -11    1    3    3    0    0 -0.23559320635E+01  0.38161899319E+01 -0.24841172791E+01  0.51268470234E+01  0.51100000000E-03 0.  1.
         12    1    3    3    0    0  0.21269653333E+01  0.44672238718E+01 -0.16982862181E+01  0.52310846608E+01  0.00000000000E+00 0. -1.
</event>
<event>
 7    1  0.1549900E-008  0.4614232E+02  0.7816164E-02  0.1320468E+00
        -11   -1    0    0    0    0  0.00000000000E+00  0.00000000000E+00  0.45593999997E+02  0.45594000000E+02  0.51100000000E-03 0.  1.
         11   -1    0    0    0    0 -0.00000000000E+00 -0.00000000000E+00 -0.45593999997E+02  0.45594000000E+02  0.51100000000E-03 0. -1.
    9900012    2    1    2    0    0  0.31160231576E+01  0.12048649792E+02 -0.43292423802E+02  0.46142317401E+02  0.99999967163E+01 0.  0.
        -12    1    1    2    0    0 -0.31160231576E+01 -0.12048649792E+02  0.43292423802E+02  0.45045682599E+02  0.00000000000E+00 0.  1.
         11    1    3    3    0    0  0.37936266509E+01  0.33303611311E+01 -0.24773257907E+02  0.25282349892E+02  0.51100000000E-03 0. -1.
        -11    1    3    3    0    0 -0.10761419565E+01  0.89958542391E+01 -0.17984372551E+02  0.20137555247E+02  0.51100000000E-03 0.  1.
        -12    1    3    3    0    0  0.39853846312E+00 -0.27756557800E+00 -0.53479334392E+00  0.72241226275E+00  0.00000000000E+00 0.  1.
</event>
<event>
 7    1  0.1549900E-008  0.4614231E+02  0.7816164E-02  0.1320468E+00
        -11   -1    0    0    0    0  0.00000000000E+00  0.00000000000E+00  0.45593999997E+02  0.45594000000E+02  0.51100000000E-03 0. -1.
         11   -1    0    0    0    0 -0.00000000000E+00 -0.00000000000E+00 -0.45593999997E+02  0.45594000000E+02  0.51100000000E-03 0.  1.
    9900012    2    1    2    0    0  0.43422815559E+02  0.73674551111E+01  0.94495243858E+01  0.46142314113E+02  0.99999667365E+01 0.  0.
        -12    1    1    2    0    0 -0.43422815559E+02 -0.73674551111E+01 -0.94495243858E+01  0.45045685887E+02  0.00000000000E+00 0.  1.
         11    1    3    3    0    0  0.24811932437E+02  0.14697375318E+01  0.38740260550E+01  0.25155520225E+02  0.51100000000E-03 0. -1.
        -11    1    3    3    0    0 -0.16530709105E+00 -0.38481869364E+00  0.23306559551E+00  0.47930334264E+00  0.51100000000E-03 0.  1.
        -12    1    3    3    0    0  0.18776190213E+02  0.62825362729E+01  0.53424327353E+01  0.20507490545E+02  0.00000000000E+00 0.  1.
</event>
<event>
 7    1  0.1549900E-008  0.4614232E+02  0.7816164E-02  0.1320468E+00
        -11   -1    0    0    0    0  0.00000000000E+00  0.00000000000E+00  0.45593999997E+02  0.45594000000E+02  0.51100000000E-03 0.  1.
         11   -1    0    0    0    0 -0.00000000000E+00 -0.00000000000E+00 -0.45593999997E+02  0.45594000000E+02  0.51100000000E-03 0. -1.
    9900012    2    1    2    0    0  0.51696450828E+00 -0.44372583726E+02  0.77407982122E+01  0.46142318788E+02  0.10000009367E+02 0.  0.
        -12    1    1    2    0    0 -0.51696450828E+00  0.44372583726E+02 -0.77407982122E+01  0.45045681212E+02  0.00000000000E+00 0.  1.
         11    1    3    3    0    0  0.12377579624E+01 -0.49290727223E+01  0.22558675298E+01  0.55602824792E+01  0.51100000000E-03 0. -1.
        -11    1    3    3    0    0 -0.36321875797E+01 -0.23306578125E+02  0.11244352338E+01  0.23614692998E+02  0.51100000000E-03 0.  1.
        -12    1    3    3    0    0  0.29113941257E+01 -0.16136932879E+02  0.43604954486E+01  0.16967343311E+02  0.00000000000E+00 0.  1.
</event>
<event>
 7    1  0.1549900E-008  0.4614232E+02  0.7816164E-02  0.1320468E+00
        -11   -1    0    0    0    0  0.00000000000E+00  0.00000000000E+00  0.45593999997E+02  0.45594000000E+02  0.51100000000E-03 0. -1.
         11   -1    0    0    0    0 -0.00000000000E+00 -0.00000000000E+00 -0.45593999997E+02  0.45594000000E+02  0.51100000000E-03 0.  1.
    9900012    2    1    2    0    0  0.12724223852E+01 -0.12406977397E+01  0.45010610755E+02  0.46142317963E+02  0.10000001842E+02 0.  0.
        -12    1    1    2    0    0 -0.12724223852E+01  0.12406977397E+01 -0.45010610755E+02  0.45045682037E+02  0.00000000000E+00 0.  1.
         11    1    3    3    0    0  0.15746021612E+01 -0.38680530185E+01  0.10971744721E+02  0.11739692866E+02  0.51100000000E-03 0. -1.
        -11    1    3    3    0    0 -0.11134833141E+01  0.43413096292E+00  0.26078900124E+02  0.26106270257E+02  0.51100000000E-03 0.  1.
        -12    1    3    3    0    0  0.81130353813E+00  0.21932243159E+01  0.79599659102E+01  0.82963548395E+01  0.00000000000E+00 0.  1.
</event>
<event>
 7    1  0.1549900E-008  0.4614232E+02  0.7816164E-02  0.1320468E+00
        -11   -1    0    0    0    0  0.00000000000E+00  0.00000000000E+00  0.45593999997E+02  0.45594000000E+02  0.51100000000E-03 0.  1.
         11   -1    0    0    0    0 -0.00000000000E+00 -0.00000000000E+00 -0.45593999997E+02  0.45594000000E+02  0.51100000000E-03 0. -1.
    9900012    2    1    2    0    0  0.11893200509E+02 -0.42980131946E+02  0.63540186534E+01  0.46142317482E+02  0.99999974571E+01 0.  0.
        -12    1    1    2    0    0 -0.11893200509E+02  0.42980131946E+02 -0.63540186534E+01  0.45045682518E+02  0.00000000000E+00 0.  1.
         11    1    3    3    0    0  0.17478531166E+00 -0.79769419730E+01  0.22366422925E+00  0.79819909229E+01  0.51100000000E-03 0. -1.
        -11    1    3    3    0    0 -0.88808134520E+00 -0.11701904386E+01 -0.26562188496E+00  0.14928460688E+01  0.51100000000E-03 0.  1.
        -12    1    3    3    0    0  0.12606496543E+02 -0.33832999534E+02  0.63959763091E+01  0.36667480491E+02  0.00000000000E+00 0.  1.
</event>
<event>
 7    1  0.1549900E-008  0.4614232E+02  0.7816164E-02  0.1320468E+00
        -11   -1    0    0    0    0  0.00000000000E+00  0.00000000000E+00  0.45593999997E+02  0.45594000000E+02  0.51100000000E-03 0.  1.
         11   -1    0    0    0    0 -0.00000000000E+00 -0.00000000000E+00 -0.45593999997E+02  0.45594000000E+02  0.51100000000E-03 0. -1.
    9900012    2    1    2    0    0 -0.35583133752E+02  0.22229633275E+02 -0.16395041545E+02  0.46142318848E+02  0.10000009913E+02 0.  0.
        -12    1    1    2    0    0  0.35583133752E+02 -0.22229633275E+02  0.16395041545E+02  0.45045681152E+02  0.00000000000E+00 0.  1.
         11    1    3    3    0    0 -0.69741787154E+01  0.26379028306E+01 -0.46278025661E+01  0.87757767149E+01  0.51100000000E-03 0. -1.
        -11    1    3    3    0    0 -0.24952090130E+02  0.18337649994E+02 -0.80309689525E+01  0.31990196494E+02  0.51100000000E-03 0.  1.
        -12    1    3    3    0    0 -0.36568649062E+01  0.12540804510E+01 -0.37362700267E+01  0.53763456392E+01  0.00000000000E+00 0.  1.
</event>
<event>
 7    1  0.1549900E-008  0.4614232E+02  0.7816164E-02  0.1320468E+00
        -11   -1    0    0    0    0  0.00000000000E+00  0.00000000000E+00  0.45593999997E+02  0.45594000000E+02  0.51100000000E-03 0.  1.
         11   -1    0    0    0    0 -0.00000000000E+00 -0.00000000000E+00 -0.45593999997E+02  0.45594000000E+02  0.51100000000E-03 0. -1.
    9900012    2    1    2    0    0 -0.19199385932E+02 -0.20199388712E+02 -0.35390419204E+02  0.46142317677E+02  0.99999992306E+01 0.  0.
        -12    1    1    2    0    0  0.19199385932E+02  0.20199388712E+02  0.35390419204E+02  0.45045682323E+02  0.00000000000E+00 0.  1.
         11    1    3    3    0    0 -0.57266171462E+00 -0.84380448952E+00 -0.63957607226E+01  0.64765502343E+01  0.51100000000E-03 0. -1.
        -11    1    3    3    0    0 -0.19747737234E+01 -0.37884476804E+01 -0.46753018949E+01  0.63332862840E+01  0.51100000000E-03 0.  1.
         12    1    3    3    0    0 -0.16651950494E+02 -0.15567136542E+02 -0.24319356587E+02  0.33332481158E+02  0.00000000000E+00 0. -1.
</event>
<event>
 7    1  0.1549900E-008  0.4614232E+02  0.7816164E-02  0.1320468E+00
        -11   -1    0    0    0    0  0.00000000000E+00  0.00000000000E+00  0.45593999997E+02  0.45594000000E+02  0.51100000000E-03 0. -1.
         11   -1    0    0    0    0 -0.00000000000E+00 -0.00000000000E+00 -0.45593999997E+02  0.45594000000E+02  0.51100000000E-03 0.  1.
    9900012    2    1    2    0    0 -0.37544575039E+02  0.14355045137E+02  0.20333493206E+02  0.46142318945E+02  0.10000010793E+02 0.  0.
        -12    1    1    2    0    0  0.37544575039E+02 -0.14355045137E+02 -0.20333493206E+02  0.45045681055E+02  0.00000000000E+00 0.  1.
         11    1    3    3    0    0 -0.23887885657E+02  0.75879854485E+01  0.90792986996E+01  0.26657874436E+02  0.51100000000E-03 0. -1.
        -11    1    3    3    0    0 -0.56070548779E+00  0.67831807297E+00  0.23707384337E+01  0.25288153421E+01  0.51100000000E-03 0.  1.
        -12    1    3    3    0    0 -0.13095983895E+02  0.60887416159E+01  0.88834560728E+01  0.16955629166E+02  0.00000000000E+00 0.  1.
</event>
<event>
 7    1  0.1549900E-008  0.4614231E+02  0.7816164E-02  0.1320468E+00
        -11   -1    0    0    0    0  0.00000000000E+00  0.00000000000E+00  0.45593999997E+02  0.45594000000E+02  0.51100000000E-03 0.  1.
         11   -1    0    0    0    0 -0.00000000000E+00 -0.00000000000E+00 -0.45593999997E+02  0.45594000000E+02  0.51100000000E-03 0. -1.
    9900012    2    1    2    0    0 -0.16556064833E+02 -0.41892412555E+02  0.19178783784E+00  0.46142308807E+02  0.99999183503E+01 0.  0.
        -12    1    1    2    0    0  0.16556064833E+02  0.41892412555E+02 -0.19178783784E+00  0.45045691193E+02  0.00000000000E+00 0.  1.
         11    1    3    3    0    0 -0.33167046471E+01 -0.31803878784E+01 -0.21503706857E+01  0.50734102062E+01  0.51100000000E-03 0. -1.
        -11    1    3    3    0    0 -0.12748879153E+02 -0.37649350833E+02  0.27112742976E+01  0.39841668469E+02  0.51100000000E-03 0.  1.
        -12    1    3    3    0    0 -0.49048103321E+00 -0.10626738437E+01 -0.36911577404E+00  0.12272301319E+01  0.00000000000E+00 0.  1.
</event>
<event>
 7    1  0.1549900E-008  0.4614232E+02  0.7816164E-02  0.1320468E+00
        -11   -1    0    0    0    0  0.00000000000E+00  0.00000000000E+00  0.45593999997E+02  0.45594000000E+02  0.51100000000E-03 0. -1.
         11   -1    0    0    0    0 -0.00000000000E+00 -0.00000000000E+00 -0.45593999997E+02  0.45594000000E+02  0.51100000000E-03 0.  1.
    9900012    2    1    2    0    0  0.40093296636E+01  0.43475709305E+02 -0.11086094186E+02  0.46142317541E+02  0.99999979926E+01 0.  0.
        -12    1    1    2    0    0 -0.40093296636E+01 -0.43475709305E+02  0.11086094186E+02  0.45045682459E+02  0.00000000000E+00 0.  1.
         11    1    3    3    0    0  0.93218091872E+00  0.45031344564E+01 -0.96401789320E+00  0.46985648827E+01  0.51100000000E-03 0.  1.
        -11    1    3    3    0    0  0.38457808382E+01  0.26066583889E+02 -0.25773499048E+01  0.26474507714E+02  0.51100000000E-03 0. -1.
        -12    1    3    3    0    0 -0.76863209336E+00  0.12905990960E+02 -0.75447263879E+01  0.14969244945E+02  0.00000000000E+00 0.  1.
</event>
<event>
 7    1  0.1549900E-008  0.4614232E+02  0.7816164E-02  0.1320468E+00
        -11   -1    0    0    0    0  0.00000000000E+00  0.00000000000E+00  0.45593999997E+02  0.45594000000E+02  0.51100000000E-03 0.  1.
         11   -1    0    0    0    0 -0.00000000000E+00 -0.00000000000E+00 -0.45593999997E+02  0.45594000000E+02  0.51100000000E-03 0. -1.
    9900012    2    1    2    0    0  0.27258542468E+02  0.35264032867E+02 -0.65217539084E+01  0.46142318458E+02  0.10000006357E+02 0.  0.
        -12    1    1    2    0    0 -0.27258542468E+02 -0.35264032867E+02  0.65217539084E+01  0.45045681542E+02  0.00000000000E+00 0.  1.
         11    1    3    3    0    0  0.12485322736E+02  0.19093579383E+02 -0.58764878059E+01  0.23558038260E+02  0.51100000000E-03 0. -1.
        -11    1    3    3    0    0  0.10770173035E+02  0.78242762982E+01 -0.64296961651E+00  0.13327765641E+02  0.51100000000E-03 0.  1.
         12    1    3    3    0    0  0.40030466979E+01  0.83461771858E+01 -0.22964859985E-02  0.92565145577E+01  0.00000000000E+00 0. -1.
</event>
<event>
 7    1  0.1549900E-008  0.4614232E+02  0.7816164E-02  0.1320468E+00
        -11   -1    0    0    0    0  0.00000000000E+00  0.00000000000E+00  0.45593999997E+02  0.45594000000E+02  0.51100000000E-03 0.  1.
         11   -1    0    0    0    0 -0.00000000000E+00 -0.00000000000E+00 -0.45593999997E+02  0.45594000000E+02  0.51100000000E-03 0. -1.
    9900012    2    1    2    0    0  0.33320947978E+02 -0.26427497406E+02 -0.14846386610E+02  0.46142318867E+02  0.10000010088E+02 0.  0.
        -12    1    1    2    0    0 -0.33320947978E+02  0.26427497406E+02  0.14846386610E+02  0.45045681133E+02  0.00000000000E+00 0.  1.
         11    1    3    3    0    0  0.11695925168E+01 -0.27585951193E+01 -0.35755644113E+00  0.30175553942E+01  0.51100000000E-03 0.  1.
        -11    1    3    3    0    0  0.89056142529E+01 -0.27608139686E+01 -0.40197582511E+01  0.10153349972E+02  0.51100000000E-03 0. -1.
         12    1    3    3    0    0  0.23245741209E+02 -0.20908088318E+02 -0.10469071918E+02  0.32971413501E+02  0.00000000000E+00 0. -1.
</event>
<event>
 7    1  0.1549900E-008  0.4614232E+02  0.7816164E-02  0.1320468E+00
        -11   -1    0    0    0    0  0.00000000000E+00  0.00000000000E+00  0.45593999997E+02  0.45594000000E+02  0.51100000000E-03 0. -1.
         11   -1    0    0    0    0 -0.00000000000E+00 -0.00000000000E+00 -0.45593999997E+02  0.45594000000E+02  0.51100000000E-03 0.  1.
    9900012    2    1    2    0    0 -0.35308982850E+02  0.27790317826E+02 -0.31760740886E+01  0.46142317838E+02  0.10000000706E+02 0.  0.
        -12    1    1    2    0    0  0.35308982850E+02 -0.27790317826E+02  0.31760740886E+01  0.45045682162E+02  0.00000000000E+00 0.  1.
         11    1    3    3    0    0 -0.13442954713E+02  0.48503054802E+01 -0.66535049959E+00  0.14306683271E+02  0.51100000000E-03 0. -1.
        -11    1    3    3    0    0 -0.12682502784E+02  0.13365947148E+02 -0.62669425075E+00  0.18436029018E+02  0.51100000000E-03 0.  1.
         12    1    3    3    0    0 -0.91835253537E+01  0.95740651983E+01 -0.18840293382E+01  0.13399605550E+02  0.00000000000E+00 0. -1.
</event>
<event>
 7    1  0.1549900E-008  0.4614232E+02  0.7816164E-02  0.1320468E+00
        -11   -1    0    0    0    0  0.00000000000E+00  0.00000000000E+00  0.45593999997E+02  0.45594000000E+02  0.51100000000E-03 0.  1.
         11   -1    0    0    0    0 -0.00000000000E+00 -0.00000000000E+00 -0.45593999997E+02  0.45594000000E+02  0.51100000000E-03 0. -1.
    9900012    2    1    2    0    0 -0.61313663910E+01  0.20370962194E+02 -0.39705715929E+02  0.46142316168E+02  0.99999854683E+01 0.  0.
        -12    1    1    2    0    0  0.61313663910E+01 -0.20370962194E+02  0.39705715929E+02  0.45045683832E+02  0.00000000000E+00 0.  1.
         11    1    3    3    0    0 -0.44349043024E+01  0.12292351572E+02 -0.17083925854E+02  0.21508854135E+02  0.51100000000E-03 0. -1.
        -11    1    3    3    0    0  0.10187403234E+01  0.63211369887E+01 -0.13176233219E+02  0.14649495786E+02  0.51100000000E-03 0.  1.
         12    1    3    3    0    0 -0.27152024120E+01  0.17574736334E+01 -0.94455568549E+01  0.99839662464E+01  0.00000000000E+00 0. -1.
</event>
<event>
 7    1  0.1549900E-008  0.4614232E+02  0.7816164E-02  0.1320468E+00
        -11   -1    0    0    0    0  0.00000000000E+00  0.00000000000E+00  0.45593999997E+02  0.45594000000E+02  0.51100000000E-03 0.  1.
         11   -1    0    0    0    0 -0.00000000000E+00 -0.00000000000E+00 -0.45593999997E+02  0.45594000000E+02  0.51100000000E-03 0. -1.
    9900012    2    1    2    0    0  0.29983741338E+01 -0.37612836821E+01 -0.44788123886E+02  0.46142317148E+02  0.99999944075E+01 0.  0.
        -12    1    1    2    0    0 -0.29983741338E+01  0.37612836821E+01  0.44788123886E+02  0.45045682852E+02  0.00000000000E+00 0.  1.
         11    1    3    3    0    0 -0.29844506810E+01  0.10382669267E+01 -0.15423728592E+02  0.15744089304E+02  0.51100000000E-03 0. -1.
        -11    1    3    3    0    0  0.47450765317E+01 -0.28049221853E+01 -0.20784676343E+02  0.21503165132E+02  0.51100000000E-03 0.  1.
         12    1    3    3    0    0  0.12377482831E+01 -0.19946284236E+01 -0.85797189514E+01  0.88950627117E+01  0.00000000000E+00 0. -1.
</event>
<event>
 7    1  0.1549900E-008  0.4614232E+02  0.7816164E-02  0.1320468E+00
        -11   -1    0    0    0    0  0.00000000000E+00  0.00000000000E+00  0.45593999997E+02  0.45594000000E+02  0.51100000000E-03 0. -1.
         11   -1    0    0    0    0 -0.00000000000E+00 -0.00000000000E+00 -0.45593999997E+02  0.45594000000E+02  0.51100000000E-03 0.  1.
    9900012    2    1    2    0    0 -0.30445436088E+02  0.10309718156E+02  0.31557861030E+02  0.46142318078E+02  0.10000002889E+02 0.  0.
        -12    1    1    2    0    0  0.30445436088E+02 -0.10309718156E+02 -0.31557861030E+02  0.45045681922E+02  0.00000000000E+00 0.  1.
         11    1    3    3    0    0 -0.23223135658E+02  0.33109374218E+01  0.20418726294E+02  0.31099850806E+02  0.51100000000E-03 0. -1.
        -11    1    3    3    0    0 -0.38234616908E+01  0.43289223035E+01  0.67234826672E+01  0.88636136563E+01  0.51100000000E-03 0.  1.
         12    1    3    3    0    0 -0.33988387392E+01  0.26698584311E+01  0.44156520680E+01  0.61788536156E+01  0.00000000000E+00 0. -1.
</event>
<event>
 7    1  0.1549900E-008  0.4614232E+02  0.7816164E-02  0.1320468E+00
        -11   -1    0    0    0    0  0.00000000000E+00  0.00000000000E+00  0.45593999997E+02  0.45594000000E+02  0.51100000000E-03 0.  1.
         11   -1    0    0    0    0 -0.00000000000E+00 -0.00000000000E+00 -0.45593999997E+02  0.45594000000E+02  0.51100000000E-03 0. -1.
    9900012    2    1    2    0    0  0.41400396348E+02  0.13147495952E+02  0.11927446121E+02  0.46142318314E+02  0.10000005043E+02 0.  0.
        -12    1    1    2    0    0 -0.41400396348E+02 -0.13147495952E+02 -0.11927446121E+02  0.45045681686E+02  0.00000000000E+00 0.  1.
         11    1    3    3    0    0  0.19907492341E+02  0.73193041653E+01  0.59417674219E+01  0.22026916832E+02  0.51100000000E-03 0. -1.
        -11    1    3    3    0    0  0.14315094363E+02  0.15493589720E+01  0.11118930568E+01  0.14441563152E+02  0.51100000000E-03 0.  1.
        -12    1    3    3    0    0  0.71778096437E+01  0.42788328152E+01  0.48737856426E+01  0.96738383298E+01  0.00000000000E+00 0.  1.
</event>
<event>
 7    1  0.1549900E-008  0.4614232E+02  0.7816164E-02  0.1320468E+00
        -11   -1    0    0    0    0  0.00000000000E+00  0.00000000000E+00  0.45593999997E+02  0.45594000000E+02  0.51100000000E-03 0.  1.
         11   -1    0    0    0    0 -0.00000000000E+00 -0.00000000000E+00 -0.45593999997E+02  0.45594000000E+02  0.51100000000E-03 0. -1.
    9900012    2    1    2    0    0 -0.16562489928E+02  0.38178592443E+02 -0.17239272959E+02  0.46142317347E+02  0.99999962222E+01 0.  0.
        -12    1    1    2    0    0  0.16562489928E+02 -0.38178592443E+02  0.17239272959E+02  0.45045682653E+02  0.00000000000E+00 0.  1.
         11    1    3    3    0    0 -0.19443464928E+01  0.38712010098E+01 -0.37661322550E+01  0.57402467687E+01  0.51100000000E-03 0. -1.
        -11    1    3    3    0    0 -0.46505264724E+01  0.20244980755E+02 -0.86668044359E+01  0.22507779580E+02  0.51100000000E-03 0.  1.
        -12    1    3    3    0    0 -0.99676169628E+01  0.14062410678E+02 -0.48063362680E+01  0.17894290998E+02  0.00000000000E+00 0.  1.
</event>
<event>
 7    1  0.1549900E-008  0.4614232E+02  0.7816164E-02  0.1320468E+00
        -11   -1    0    0    0    0  0.00000000000E+00  0.00000000000E+00  0.45593999997E+02  0.45594000000E+02  0.51100000000E-03 0.  1.
         11   -1    0    0    0    0 -0.00000000000E+00 -0.00000000000E+00 -0.45593999997E+02  0.45594000000E+02  0.51100000000E-03 0. -1.
    9900012    2    1    2    0    0 -0.12853784176E+02 -0.30312762268E+01 -0.43066287506E+02  0.46142317380E+02  0.99999965217E+01 0.  0.
        -12    1    1    2    0    0  0.12853784176E+02  0.30312762268E+01  0.43066287506E+02  0.45045682620E+02  0.00000000000E+00 0.  1.
         11    1    3    3    0    0 -0.81506065077E+01 -0.11583276383E+01 -0.19957801486E+02  0.21589070146E+02  0.51100000000E-03 0. -1.
        -11    1    3    3    0    0 -0.30126651018E+01 -0.42956161931E+01 -0.16510041185E+02  0.17323681182E+02  0.51100000000E-03 0.  1.
        -12    1    3    3    0    0 -0.16905125661E+01  0.24226676046E+01 -0.65984448350E+01  0.72295660519E+01  0.00000000000E+00 0.  1.
</event>
<event>
 7    1  0.1549900E-008  0.4614232E+02  0.7816164E-02  0.1320468E+00
        -11   -1    0    0    0    0  0.00000000000E+00  0.00000000000E+00  0.45593999997E+02  0.45594000000E+02  0.51100000000E-03 0.  1.
         11   -1    0    0    0    0 -0.00000000000E+00 -0.00000000000E+00 -0.45593999997E+02  0.45594000000E+02  0.51100000000E-03 0. -1.
    9900012    2    1    2    0    0  0.79358275612E+00 -0.12824138239E+02 -0.43174357357E+02  0.46142318427E+02  0.10000006071E+02 0.  0.
        -12    1    1    2    0    0 -0.79358275612E+00  0.12824138239E+02  0.43174357357E+02  0.45045681573E+02  0.00000000000E+00 0.  1.
         11    1    3    3    0    0 -0.12902217344E+01 -0.46505008424E+01 -0.26148925967E+02  0.26590565238E+02  0.51100000000E-03 0. -1.
        -11    1    3    3    0    0  0.43866878251E+00 -0.40101530398E+01 -0.36256541905E+01  0.54239401060E+01  0.51100000000E-03 0.  1.
        -12    1    3    3    0    0  0.16451357080E+01 -0.41634843565E+01 -0.13399777200E+02  0.14127813083E+02  0.00000000000E+00 0.  1.
</event>
<event>
 7    1  0.1549900E-008  0.4614232E+02  0.7816164E-02  0.1320468E+00
        -11   -1    0    0    0    0  0.00000000000E+00  0.00000000000E+00  0.45593999997E+02  0.45594000000E+02  0.51100000000E-03 0. -1.
         11   -1    0    0    0    0 -0.00000000000E+00 -0.00000000000E+00 -0.45593999997E+02  0.45594000000E+02  0.51100000000E-03 0.  1.
    9900012    2    1    2    0    0  0.24771643049E+02 -0.37577608914E+02 -0.18446076663E+01  0.46142316872E+02  0.99999918941E+01 0.  0.
        -12    1    1    2    0    0 -0.24771643049E+02  0.37577608914E+02  0.18446076663E+01  0.45045683128E+02  0.00000000000E+00 0.  1.
         11    1    3    3    0    0  0.95470803695E+01 -0.16240726808E+02  0.33271576310E+01  0.19130549626E+02  0.51100000000E-03 0. -1.
        -11    1    3    3    0    0  0.62795214820E+01 -0.66176615367E+01 -0.36754865453E+00  0.91302205084E+01  0.51100000000E-03 0.  1.
         12    1    3    3    0    0  0.89450411970E+01 -0.14719220569E+02 -0.48042166428E+01  0.17881546738E+02  0.00000000000E+00 0. -1.
</event>
<event>
 7    1  0.1549900E-008  0.4614232E+02  0.7816164E-02  0.1320468E+00
        -11   -1    0    0    0    0  0.00000000000E+00  0.00000000000E+00  0.45593999997E+02  0.45594000000E+02  0.51100000000E-03 0. -1.
         11   -1    0    0    0    0 -0.00000000000E+00 -0.00000000000E+00 -0.45593999997E+02  0.45594000000E+02  0.51100000000E-03 0.  1.
    9900012    2    1    2    0    0 -0.34242358059E+02  0.27362722081E+02 -0.10385364869E+02  0.46142318203E+02  0.10000004027E+02 0.  0.
        -12    1    1    2    0    0  0.34242358059E+02 -0.27362722081E+02  0.10385364869E+02  0.45045681797E+02  0.00000000000E+00 0.  1.
         11    1    3    3    0    0 -0.12084940926E+01  0.95150931696E+00 -0.14741302080E+01  0.21304666351E+01  0.51100000000E-03 0. -1.
        -11    1    3    3    0    0 -0.17154571407E+02  0.18882357580E+02 -0.58525368956E+01  0.26173936202E+02  0.51100000000E-03 0.  1.
         12    1    3    3    0    0 -0.15879292560E+02  0.75288551844E+01 -0.30586977652E+01  0.17837915366E+02  0.00000000000E+00 0. -1.
</event>
<event>
 7    1  0.1549900E-008  0.4614231E+02  0.7816164E-02  0.1320468E+00
        -11   -1    0    0    0    0  0.00000000000E+00  0.00000000000E+00  0.45593999997E+02  0.45594000000E+02  0.51100000000E-03 0.  1.
         11   -1    0    0    0    0 -0.00000000000E+00 -0.00000000000E+00 -0.45593999997E+02  0.45594000000E+02  0.51100000000E-03 0. -1.
    9900012    2    1    2    0    0  0.21111579302E+02 -0.37603438287E+02 -0.13015238016E+02  0.46142314610E+02  0.99999712635E+01 0.  0.
        -12    1    1    2    0    0 -0.21111579302E+02  0.37603438287E+02  0.13015238016E+02  0.45045685390E+02  0.00000000000E+00 0.  1.
         11    1    3    3    0    0  0.90516351451E+01 -0.22560774021E+02 -0.10659888780E+02  0.26543433318E+02  0.51100000000E-03 0. -1.
        -11    1    3    3    0    0  0.62431599483E+01 -0.74079214549E+01 -0.24788322106E+01  0.99999477904E+01  0.51100000000E-03 0.  1.
         12    1    3    3    0    0  0.58167842091E+01 -0.76347428107E+01  0.12348297380E+00  0.95989335015E+01  0.00000000000E+00 0. -1.
</event>
<event>
 7    1  0.1549900E-008  0.4614232E+02  0.7816164E-02  0.1320468E+00
        -11   -1    0    0    0    0  0.00000000000E+00  0.00000000000E+00  0.45593999997E+02  0.45594000000E+02  0.51100000000E-03 0. -1.
         11   -1    0    0    0    0 -0.00000000000E+00 -0.00000000000E+00 -0.45593999997E+02  0.45594000000E+02  0.51100000000E-03 0.  1.
    9900012    2    1    2    0    0  0.11035711823E+02  0.43459640069E+02 -0.43111771011E+01  0.46142317650E+02  0.99999989897E+01 0.  0.
        -12    1    1    2    0    0 -0.11035711823E+02 -0.43459640069E+02  0.43111771011E+01  0.45045682350E+02  0.00000000000E+00 0.  1.
         11    1    3    3    0    0  0.64148851235E+01  0.12453335722E+02 -0.33579519093E+01  0.14405282470E+02  0.51100000000E-03 0. -1.
        -11    1    3    3    0    0  0.25390990387E+01  0.70556046753E+01  0.12233526954E+01  0.75977084269E+01  0.51100000000E-03 0.  1.
         12    1    3    3    0    0  0.20817276609E+01  0.23950699672E+02 -0.21765778873E+01  0.24139326754E+02  0.00000000000E+00 0. -1.
</event>
<event>
 7    1  0.1549900E-008  0.4614232E+02  0.7816164E-02  0.1320468E+00
        -11   -1    0    0    0    0  0.00000000000E+00  0.00000000000E+00  0.45593999997E+02  0.45594000000E+02  0.51100000000E-03 0.  1.
         11   -1    0    0    0    0 -0.00000000000E+00 -0.00000000000E+00 -0.45593999997E+02  0.45594000000E+02  0.51100000000E-03 0. -1.
    9900012    2    1    2    0    0 -0.24085473058E+02  0.15626902277E+02 -0.34710278806E+02  0.46142317166E+02  0.99999945740E+01 0.  0.
        -12    1    1    2    0    0  0.24085473058E+02 -0.15626902277E+02  0.34710278806E+02  0.45045682834E+02  0.00000000000E+00 0.  1.
         11    1    3    3    0    0 -0.14865444271E+02  0.10702364026E+02 -0.18368228727E+02  0.25940583184E+02  0.51100000000E-03 0. -1.
        -11    1    3    3    0    0 -0.76929338652E+01  0.13129634364E+01 -0.92912087175E+01  0.12133905560E+02  0.51100000000E-03 0.  1.
        -12    1    3    3    0    0 -0.15270949215E+01  0.36115748147E+01 -0.70508413614E+01  0.80678284219E+01  0.00000000000E+00 0.  1.
</event>
<event>
 7    1  0.1549900E-008  0.4614232E+02  0.7816164E-02  0.1320468E+00
        -11   -1    0    0    0    0  0.00000000000E+00  0.00000000000E+00  0.45593999997E+02  0.45594000000E+02  0.51100000000E-03 0. -1.
         11   -1    0    0    0    0 -0.00000000000E+00 -0.00000000000E+00 -0.45593999997E+02  0.45594000000E+02  0.51100000000E-03 0.  1.
    9900012    2    1    2    0    0 -0.21590089998E+02 -0.39354899351E+02  0.37647561968E+01  0.46142317874E+02  0.10000001026E+02 0.  0.
        -12    1    1    2    0    0  0.21590089998E+02  0.39354899351E+02 -0.37647561968E+01  0.45045682126E+02  0.00000000000E+00 0.  1.
         11    1    3    3    0    0 -0.13003828519E+02 -0.22426637163E+02  0.80548950815E+00  0.25936507556E+02  0.51100000000E-03 0. -1.
        -11    1    3    3    0    0 -0.27201415844E+00 -0.38437442122E+01 -0.14034984768E+01  0.41009961603E+01  0.51100000000E-03 0.  1.
         12    1    3    3    0    0 -0.83142473203E+01 -0.13084517976E+02  0.43627651654E+01  0.16104814157E+02  0.00000000000E+00 0. -1.
</event>
<event>
 7    1  0.1549900E-008  0.4614232E+02  0.7816164E-02  0.1320468E+00
        -11   -1    0    0    0    0  0.00000000000E+00  0.00000000000E+00  0.45593999997E+02  0.45594000000E+02  0.51100000000E-03 0. -1.
         11   -1    0    0    0    0 -0.00000000000E+00 -0.00000000000E+00 -0.45593999997E+02  0.45594000000E+02  0.51100000000E-03 0.  1.
    9900012    2    1    2    0    0 -0.47946316012E+01  0.11655561680E+02  0.43246650201E+02  0.46142319143E+02  0.10000012601E+02 0.  0.
        -12    1    1    2    0    0  0.47946316012E+01 -0.11655561680E+02 -0.43246650201E+02  0.45045680857E+02  0.00000000000E+00 0.  1.
         11    1    3    3    0    0  0.20899757585E+01  0.17072739077E+01  0.15340585643E+02  0.15576146859E+02  0.51100000000E-03 0. -1.
        -11    1    3    3    0    0 -0.47918252197E+01  0.64231079593E+01  0.14752017110E+02  0.16788088452E+02  0.51100000000E-03 0.  1.
        -12    1    3    3    0    0 -0.20927821401E+01  0.35251798133E+01  0.13154047448E+02  0.13778083831E+02  0.00000000000E+00 0.  1.
</event>
<event>
 7    1  0.1555400E-008  0.4614232E+02  0.7816164E-02  0.1320468E+00
        -11   -1    0    0    0    0  0.00000000000E+00  0.00000000000E+00  0.45593999997E+02  0.45594000000E+02  0.51100000000E-03 0.  1.
         11   -1    0    0    0    0 -0.00000000000E+00 -0.00000000000E+00 -0.45593999997E+02  0.45594000000E+02  0.51100000000E-03 0. -1.
    9900012    2    1    2    0    0  0.39554856418E+02 -0.12796456787E+02 -0.17342935524E+02  0.46142318907E+02  0.10000010449E+02 0.  0.
        -12    1    1    2    0    0 -0.39554856418E+02  0.12796456787E+02  0.17342935524E+02  0.45045681093E+02  0.00000000000E+00 0.  1.
         11    1    3    3    0    0  0.27390544265E+02 -0.12401408849E+02 -0.15425604823E+02  0.33793285442E+02  0.51100000000E-03 0. -1.
        -11    1    3    3    0    0  0.49115743276E+01 -0.24213481985E+00 -0.36955363547E+00  0.49314056614E+01  0.51100000000E-03 0.  1.
         12    1    3    3    0    0  0.72527378253E+01 -0.15291311827E+00 -0.15477770657E+01  0.74176278034E+01  0.00000000000E+00 0. -1.
</event>
<event>
 7    1  0.1549900E-008  0.4614232E+02  0.7816164E-02  0.1320468E+00
        -11   -1    0    0    0    0  0.00000000000E+00  0.00000000000E+00  0.45593999997E+02  0.45594000000E+02  0.51100000000E-03 0.  1.
         11   -1    0    0    0    0 -0.00000000000E+00 -0.00000000000E+00 -0.45593999997E+02  0.45594000000E+02  0.51100000000E-03 0. -1.
    9900012    2    1    2    0    0 -0.38378337035E+02 -0.22738421335E+02 -0.62594661093E+01  0.46142317917E+02  0.10000001421E+02 0.  0.
        -12    1    1    2    0    0  0.38378337035E+02  0.22738421335E+02  0.62594661093E+01  0.45045682083E+02  0.00000000000E+00 0.  1.
         11    1    3    3    0    0 -0.30161274581E+02 -0.18115417302E+02 -0.86151317621E+01  0.36222801160E+02  0.51100000000E-03 0. -1.
        -11    1    3    3    0    0 -0.67738974169E+01 -0.45699042375E+01  0.17678262934E+01  0.83603182367E+01  0.51100000000E-03 0.  1.
         12    1    3    3    0    0 -0.14431650373E+01 -0.53099795894E-01  0.58783935933E+00  0.15591985203E+01  0.00000000000E+00 0. -1.
</event>
<event>
 7    1  0.1549900E-008  0.4614232E+02  0.7816164E-02  0.1320468E+00
        -11   -1    0    0    0    0  0.00000000000E+00  0.00000000000E+00  0.45593999997E+02  0.45594000000E+02  0.51100000000E-03 0.  1.
         11   -1    0    0    0    0 -0.00000000000E+00 -0.00000000000E+00 -0.45593999997E+02  0.45594000000E+02  0.51100000000E-03 0. -1.
    9900012    2    1    2    0    0 -0.26356376319E+02  0.29010218761E+02 -0.22200489299E+02  0.46142322179E+02  0.10000040286E+02 0.  0.
        -12    1    1    2    0    0  0.26356376319E+02 -0.29010218761E+02  0.22200489299E+02  0.45045677821E+02  0.00000000000E+00 0.  1.
         11    1    3    3    0    0 -0.18970920476E+02  0.22178295262E+02 -0.19448263610E+02  0.35071463645E+02  0.51100000000E-03 0. -1.
        -11    1    3    3    0    0 -0.72026898959E+01  0.63268510098E+01 -0.14937203046E+01  0.97025247254E+01  0.51100000000E-03 0.  1.
        -12    1    3    3    0    0 -0.18276594672E+00  0.50507248885E+00 -0.12585053843E+01  0.13683338089E+01  0.00000000000E+00 0.  1.
</event>
<event>
 7    1  0.1549900E-008  0.4614232E+02  0.7816164E-02  0.1320468E+00
        -11   -1    0    0    0    0  0.00000000000E+00  0.00000000000E+00  0.45593999997E+02  0.45594000000E+02  0.51100000000E-03 0. -1.
         11   -1    0    0    0    0 -0.00000000000E+00 -0.00000000000E+00 -0.45593999997E+02  0.45594000000E+02  0.51100000000E-03 0.  1.
    9900012    2    1    2    0    0 -0.23775764833E+02 -0.14581537805E+02  0.35372379711E+02  0.46142317803E+02  0.10000000383E+02 0.  0.
        -12    1    1    2    0    0  0.23775764833E+02  0.14581537805E+02 -0.35372379711E+02  0.45045682197E+02  0.00000000000E+00 0.  1.
         11    1    3    3    0    0 -0.18527677672E+02 -0.76224068900E+01  0.22496272310E+02  0.30124046786E+02  0.51100000000E-03 0. -1.
        -11    1    3    3    0    0 -0.43841650500E-01 -0.54110426287E+00  0.34108560021E+01  0.34537884767E+01  0.51100000000E-03 0.  1.
        -12    1    3    3    0    0 -0.52042455107E+01 -0.64180266520E+01  0.94652513996E+01  0.12564482540E+02  0.00000000000E+00 0.  1.
</event>
<event>
 7    1  0.1577765E-008  0.4614232E+02  0.7816164E-02  0.1320468E+00
        -11   -1    0    0    0    0  0.00000000000E+00  0.00000000000E+00  0.45593999997E+02  0.45594000000E+02  0.51100000000E-03 0.  1.
         11   -1    0    0    0    0 -0.00000000000E+00 -0.00000000000E+00 -0.45593999997E+02  0.45594000000E+02  0.51100000000E-03 0. -1.
    9900012    2    1    2    0    0 -0.38250408074E+01 -0.41514554128E+02 -0.17059433062E+02  0.46142318764E+02  0.10000009148E+02 0.  0.
        -12    1    1    2    0    0  0.38250408074E+01  0.41514554128E+02  0.17059433062E+02  0.45045681236E+02  0.00000000000E+00 0.  1.
         11    1    3    3    0    0 -0.37555022099E+01 -0.90209196874E+01 -0.48524980537E+01  0.10909973716E+02  0.51100000000E-03 0. -1.
        -11    1    3    3    0    0 -0.40621356024E-01 -0.37665694296E+01  0.53795931483E+00  0.38050093099E+01  0.51100000000E-03 0.  1.
         12    1    3    3    0    0 -0.28917241414E-01 -0.28727065011E+02 -0.12744894323E+02  0.31427335739E+02  0.00000000000E+00 0. -1.
</event>
<event>
 7    1  0.1549900E-008  0.4614232E+02  0.7816164E-02  0.1320468E+00
        -11   -1    0    0    0    0  0.00000000000E+00  0.00000000000E+00  0.45593999997E+02  0.45594000000E+02  0.51100000000E-03 0. -1.
         11   -1    0    0    0    0 -0.00000000000E+00 -0.00000000000E+00 -0.45593999997E+02  0.45594000000E+02  0.51100000000E-03 0.  1.
    9900012    2    1    2    0    0  0.29943224473E+01  0.20089681598E+02  0.40206363774E+02  0.46142323609E+02  0.10000053325E+02 0.  0.
        -12    1    1    2    0    0 -0.29943224473E+01 -0.20089681598E+02 -0.40206363774E+02  0.45045676391E+02  0.00000000000E+00 0.  1.
         11    1    3    3    0    0 -0.39214191513E+00  0.18859801190E+01  0.10105870167E+01  0.21753120857E+01  0.51100000000E-03 0. -1.
        -11    1    3    3    0    0 -0.35143908492E+00  0.41108322134E+01  0.35073227652E+01  0.54151421180E+01  0.51100000000E-03 0.  1.
         12    1    3    3    0    0  0.37379034474E+01  0.14092869266E+02  0.35688453992E+02  0.38551869405E+02  0.00000000000E+00 0. -1.
</event>
<event>
 7    1  0.1549900E-008  0.4614232E+02  0.7816164E-02  0.1320468E+00
        -11   -1    0    0    0    0  0.00000000000E+00  0.00000000000E+00  0.45593999997E+02  0.45594000000E+02  0.51100000000E-03 0. -1.
         11   -1    0    0    0    0 -0.00000000000E+00 -0.00000000000E+00 -0.45593999997E+02  0.45594000000E+02  0.51100000000E-03 0.  1.
    9900012    2    1    2    0    0  0.33555432641E+02 -0.26207931344E+02  0.14706827918E+02  0.46142317493E+02  0.99999975563E+01 0.  0.
        -12    1    1    2    0    0 -0.33555432641E+02  0.26207931344E+02 -0.14706827918E+02  0.45045682507E+02  0.00000000000E+00 0.  1.
         11    1    3    3    0    0  0.17601770485E+02 -0.15951830284E+02  0.99662602245E+01  0.25760620271E+02  0.51100000000E-03 0. -1.
        -11    1    3    3    0    0  0.38565064668E+01 -0.15827387950E+01 -0.12260409850E+01  0.43452135713E+01  0.51100000000E-03 0.  1.
        -12    1    3    3    0    0  0.12097155690E+02 -0.86733622647E+01  0.59666086790E+01  0.16036483651E+02  0.00000000000E+00 0.  1.
</event>
<event>
 7    1  0.1549900E-008  0.4614232E+02  0.7816164E-02  0.1320468E+00
        -11   -1    0    0    0    0  0.00000000000E+00  0.00000000000E+00  0.45593999997E+02  0.45594000000E+02  0.51100000000E-03 0.  1.
         11   -1    0    0    0    0 -0.00000000000E+00 -0.00000000000E+00 -0.45593999997E+02  0.45594000000E+02  0.51100000000E-03 0. -1.
    9900012    2    1    2    0    0  0.18392497696E+02  0.16513623956E+02 -0.37658063496E+02  0.46142317699E+02  0.99999994363E+01 0.  0.
        -12    1    1    2    0    0 -0.18392497696E+02 -0.16513623956E+02  0.37658063496E+02  0.45045682301E+02  0.00000000000E+00 0.  1.
         11    1    3    3    0    0  0.22186522192E+01  0.31157200386E+01 -0.98013900461E+01  0.10521282057E+02  0.51100000000E-03 0. -1.
        -11    1    3    3    0    0  0.14548145144E+02  0.14245029098E+02 -0.25784484998E+02  0.32854361172E+02  0.51100000000E-03 0.  1.
        -12    1    3    3    0    0  0.16257003330E+01 -0.84712518072E+00 -0.20721884520E+01  0.27666744704E+01  0.00000000000E+00 0.  1.
</event>
<event>
 7    1  0.1549900E-008  0.4614232E+02  0.7816164E-02  0.1320468E+00
        -11   -1    0    0    0    0  0.00000000000E+00  0.00000000000E+00  0.45593999997E+02  0.45594000000E+02  0.51100000000E-03 0.  1.
         11   -1    0    0    0    0 -0.00000000000E+00 -0.00000000000E+00 -0.45593999997E+02  0.45594000000E+02  0.51100000000E-03 0. -1.
    9900012    2    1    2    0    0  0.11314077960E+02  0.21539377459E+02 -0.37909897455E+02  0.46142318004E+02  0.10000002219E+02 0.  0.
        -12    1    1    2    0    0 -0.11314077960E+02 -0.21539377459E+02  0.37909897455E+02  0.45045681996E+02  0.00000000000E+00 0.  1.
         11    1    3    3    0    0  0.66489565471E+01  0.74982907566E+01 -0.94631470068E+01  0.13783473400E+02  0.51100000000E-03 0. -1.
        -11    1    3    3    0    0 -0.30923251062E-01  0.52558388132E+01 -0.12449992433E+02  0.13513959809E+02  0.51100000000E-03 0.  1.
        -12    1    3    3    0    0  0.46960446639E+01  0.87852478895E+01 -0.15996758015E+02  0.18844884795E+02  0.00000000000E+00 0.  1.
</event>
<event>
 7    1  0.1549900E-008  0.4614232E+02  0.7816164E-02  0.1320468E+00
        -11   -1    0    0    0    0  0.00000000000E+00  0.00000000000E+00  0.45593999997E+02  0.45594000000E+02  0.51100000000E-03 0.  1.
         11   -1    0    0    0    0 -0.00000000000E+00 -0.00000000000E+00 -0.45593999997E+02  0.45594000000E+02  0.51100000000E-03 0. -1.
    9900012    2    1    2    0    0 -0.37187288771E+02 -0.15353222409E+02 -0.20260740826E+02  0.46142317595E+02  0.99999984876E+01 0.  0.
        -12    1    1    2    0    0  0.37187288771E+02  0.15353222409E+02  0.20260740826E+02  0.45045682405E+02  0.00000000000E+00 0.  1.
         11    1    3    3    0    0 -0.73626934939E+01 -0.12256156744E+01 -0.61210104611E+01  0.96528834341E+01  0.51100000000E-03 0. -1.
        -11    1    3    3    0    0 -0.24449264045E+02 -0.10609760181E+02 -0.85960005058E+01  0.28004013076E+02  0.51100000000E-03 0.  1.
        -12    1    3    3    0    0 -0.53753312327E+01 -0.35178465530E+01 -0.55437298595E+01  0.84854210848E+01  0.00000000000E+00 0.  1.
</event>
<event>
 7    1  0.1549900E-008  0.4614233E+02  0.7816164E-02  0.1320468E+00
        -11   -1    0    0    0    0  0.00000000000E+00  0.00000000000E+00  0.45593999997E+02  0.45594000000E+02  0.51100000000E-03 0. -1.
         11   -1    0    0    0    0 -0.00000000000E+00 -0.00000000000E+00 -0.45593999997E+02  0.45594000000E+02  0.51100000000E-03 0.  1.
    9900012    2    1    2    0    0  0.25571752576E+02  0.35684054957E+01  0.36911577742E+02  0.46142327411E+02  0.10000087998E+02 0.  0.
        -12    1    1    2    0    0 -0.25571752576E+02 -0.35684054957E+01 -0.36911577742E+02  0.45045672589E+02  0.00000000000E+00 0.  1.
         11    1    3    3    0    0  0.20058813039E+02  0.34877595449E+01  0.31067110406E+02  0.37144121963E+02  0.51100000000E-03 0. -1.
        -11    1    3    3    0    0 -0.10041085804E+00  0.10622873696E+00 -0.50350712478E+00  0.52429626242E+00  0.51100000000E-03 0.  1.
        -12    1    3    3    0    0  0.56133503953E+01 -0.25582786125E-01  0.63479744603E+01  0.84739091857E+01  0.00000000000E+00 0.  1.
</event>
<event>
 7    1  0.1549900E-008  0.4614232E+02  0.7816164E-02  0.1320468E+00
        -11   -1    0    0    0    0  0.00000000000E+00  0.00000000000E+00  0.45593999997E+02  0.45594000000E+02  0.51100000000E-03 0.  1.
         11   -1    0    0    0    0 -0.00000000000E+00 -0.00000000000E+00 -0.45593999997E+02  0.45594000000E+02  0.51100000000E-03 0. -1.
    9900012    2    1    2    0    0 -0.16036430528E+02  0.18686794680E+02 -0.37719351444E+02  0.46142324593E+02  0.10000062302E+02 0.  0.
        -12    1    1    2    0    0  0.16036430528E+02 -0.18686794680E+02  0.37719351444E+02  0.45045675407E+02  0.00000000000E+00 0.  1.
         11    1    3    3    0    0 -0.74810069152E+01  0.41335296160E+01 -0.14503234184E+02  0.16834349813E+02  0.51100000000E-03 0. -1.
        -11    1    3    3    0    0 -0.60308313508E+00 -0.42358510323E+00 -0.21023446676E+01  0.22277762388E+01  0.51100000000E-03 0.  1.
         12    1    3    3    0    0 -0.79523404780E+01  0.14976850167E+02 -0.21113772592E+02  0.27080198542E+02  0.00000000000E+00 0. -1.
</event>
<event>
 7    1  0.1549900E-008  0.4614232E+02  0.7816164E-02  0.1320468E+00
        -11   -1    0    0    0    0  0.00000000000E+00  0.00000000000E+00  0.45593999997E+02  0.45594000000E+02  0.51100000000E-03 0. -1.
         11   -1    0    0    0    0 -0.00000000000E+00 -0.00000000000E+00 -0.45593999997E+02  0.45594000000E+02  0.51100000000E-03 0.  1.
    9900012    2    1    2    0    0  0.36227468052E+02  0.18709563051E+02  0.19147743354E+02  0.46142320223E+02  0.10000022451E+02 0.  0.
        -12    1    1    2    0    0 -0.36227468052E+02 -0.18709563051E+02 -0.19147743354E+02  0.45045679777E+02  0.00000000000E+00 0.  1.
         11    1    3    3    0    0  0.86718599359E+01  0.50874009862E+01  0.40072598631E+01  0.10823166607E+02  0.51100000000E-03 0. -1.
        -11    1    3    3    0    0  0.10547179849E+02  0.47135194460E+01  0.10395785581E+02  0.15541319971E+02  0.51100000000E-03 0.  1.
        -12    1    3    3    0    0  0.17008428267E+02  0.89086426191E+01  0.47446979099E+01  0.19777833645E+02  0.00000000000E+00 0.  1.
</event>
<event>
 7    1  0.1549900E-008  0.4614232E+02  0.7816164E-02  0.1320468E+00
        -11   -1    0    0    0    0  0.00000000000E+00  0.00000000000E+00  0.45593999997E+02  0.45594000000E+02  0.51100000000E-03 0.  1.
         11   -1    0    0    0    0 -0.00000000000E+00 -0.00000000000E+00 -0.45593999997E+02  0.45594000000E+02  0.51100000000E-03 0. -1.
    9900012    2    1    2    0    0 -0.64067295592E+01  0.21711877067E+02 -0.38944340544E+02  0.46142318189E+02  0.10000003900E+02 0.  0.
        -12    1    1    2    0    0  0.64067295592E+01 -0.21711877067E+02  0.38944340544E+02  0.45045681811E+02  0.00000000000E+00 0.  1.
         11    1    3    3    0    0 -0.66121770828E+01  0.12480638631E+02 -0.23249730558E+02  0.27203624716E+02  0.51100000000E-03 0. -1.
        -11    1    3    3    0    0  0.14785271178E+01  0.25902190361E+00 -0.17182357660E+01  0.22815497350E+01  0.51100000000E-03 0.  1.
        -12    1    3    3    0    0 -0.12730795943E+01  0.89722165329E+01 -0.13976374220E+02  0.16657143738E+02  0.00000000000E+00 0.  1.
</event>
<event>
 7    1  0.1549900E-008  0.4614232E+02  0.7816164E-02  0.1320468E+00
        -11   -1    0    0    0    0  0.00000000000E+00  0.00000000000E+00  0.45593999997E+02  0.45594000000E+02  0.51100000000E-03 0.  1.
         11   -1    0    0    0    0 -0.00000000000E+00 -0.00000000000E+00 -0.45593999997E+02  0.45594000000E+02  0.51100000000E-03 0. -1.
    9900012    2    1    2    0    0  0.31040027485E+02 -0.21857378502E+02 -0.24246343845E+02  0.46142317731E+02  0.99999997263E+01 0.  0.
        -12    1    1    2    0    0 -0.31040027485E+02  0.21857378502E+02  0.24246343845E+02  0.45045682269E+02  0.00000000000E+00 0.  1.
         11    1    3    3    0    0  0.11375193920E+02 -0.48437493698E+01 -0.44382497933E+01  0.13136019419E+02  0.51100000000E-03 0. -1.
        -11    1    3    3    0    0  0.15368188343E+02 -0.15549436288E+02 -0.16434712560E+02  0.27350794486E+02  0.51100000000E-03 0.  1.
         12    1    3    3    0    0  0.42966452209E+01 -0.14641928443E+01 -0.33733814910E+01  0.56555038258E+01  0.00000000000E+00 0. -1.
</event>
<event>
 7    1  0.1549900E-008  0.4614232E+02  0.7816164E-02  0.1320468E+00
        -11   -1    0    0    0    0  0.00000000000E+00  0.00000000000E+00  0.45593999997E+02  0.45594000000E+02  0.51100000000E-03 0.  1.
         11   -1    0    0    0    0 -0.00000000000E+00 -0.00000000000E+00 -0.45593999997E+02  0.45594000000E+02  0.51100000000E-03 0. -1.
    9900012    2    1    2    0    0 -0.16401829191E+02 -0.11408752444E+02 -0.40372438385E+02  0.46142318583E+02  0.10000007498E+02 0.  0.
        -12    1    1    2    0    0  0.16401829191E+02  0.11408752444E+02  0.40372438385E+02  0.45045681417E+02  0.00000000000E+00 0.  1.
         11    1    3    3    0    0 -0.72019304840E+01 -0.32901104765E+01 -0.12388644017E+02  0.14702759281E+02  0.51100000000E-03 0. -1.
        -11    1    3    3    0    0 -0.14555069758E+01 -0.54912171594E+01 -0.15571335802E+02  0.16575236510E+02  0.51100000000E-03 0.  1.
        -12    1    3    3    0    0 -0.77443917311E+01 -0.26274248080E+01 -0.12412458567E+02  0.14864322792E+02  0.00000000000E+00 0.  1.
</event>
<event>
 7    1  0.1549900E-008  0.4614232E+02  0.7816164E-02  0.1320468E+00
        -11   -1    0    0    0    0  0.00000000000E+00  0.00000000000E+00  0.45593999997E+02  0.45594000000E+02  0.51100000000E-03 0.  1.
         11   -1    0    0    0    0 -0.00000000000E+00 -0.00000000000E+00 -0.45593999997E+02  0.45594000000E+02  0.51100000000E-03 0. -1.
    9900012    2    1    2    0    0 -0.24670112464E+02 -0.46065780426E+01 -0.37406930712E+02  0.46142317904E+02  0.10000001302E+02 0.  0.
        -12    1    1    2    0    0  0.24670112464E+02  0.46065780426E+01  0.37406930712E+02  0.45045682096E+02  0.00000000000E+00 0.  1.
         11    1    3    3    0    0 -0.51805785695E+00 -0.61201517701E+00  0.37022523609E+00  0.88318373320E+00  0.51100000000E-03 0.  1.
        -11    1    3    3    0    0 -0.16880594439E+02 -0.71537568216E+00 -0.27010296318E+02  0.31859415225E+02  0.51100000000E-03 0. -1.
         12    1    3    3    0    0 -0.72714601676E+01 -0.32791871834E+01 -0.10766859629E+02  0.13399718946E+02  0.00000000000E+00 0. -1.
</event>
<event>
 7    1  0.1549900E-008  0.4614232E+02  0.7816164E-02  0.1320468E+00
        -11   -1    0    0    0    0  0.00000000000E+00  0.00000000000E+00  0.45593999997E+02  0.45594000000E+02  0.51100000000E-03 0. -1.
         11   -1    0    0    0    0 -0.00000000000E+00 -0.00000000000E+00 -0.45593999997E+02  0.45594000000E+02  0.51100000000E-03 0.  1.
    9900012    2    1    2    0    0  0.21575815461E+02  0.34821262365E+02  0.18737059899E+02  0.46142317198E+02  0.99999948612E+01 0.  0.
        -12    1    1    2    0    0 -0.21575815461E+02 -0.34821262365E+02 -0.18737059899E+02  0.45045682802E+02  0.00000000000E+00 0.  1.
         11    1    3    3    0    0  0.76315710530E+01  0.14439102183E+02  0.99893318407E+01  0.19144589300E+02  0.51100000000E-03 0. -1.
        -11    1    3    3    0    0  0.12290185069E+02  0.12816918402E+02  0.67804117024E+01  0.19007788653E+02  0.51100000000E-03 0.  1.
        -12    1    3    3    0    0  0.16540593381E+01  0.75652417798E+01  0.19673163555E+01  0.79899392441E+01  0.00000000000E+00 0.  1.
</event>
<event>
 7    1  0.1549900E-008  0.4614232E+02  0.7816164E-02  0.1320468E+00
        -11   -1    0    0    0    0  0.00000000000E+00  0.00000000000E+00  0.45593999997E+02  0.45594000000E+02  0.51100000000E-03 0. -1.
         11   -1    0    0    0    0 -0.00000000000E+00 -0.00000000000E+00 -0.45593999997E+02  0.45594000000E+02  0.51100000000E-03 0.  1.
    9900012    2    1    2    0    0  0.26795076607E+02  0.59191259602E+01  0.35722560156E+02  0.46142317780E+02  0.10000000176E+02 0.  0.
        -12    1    1    2    0    0 -0.26795076607E+02 -0.59191259602E+01 -0.35722560156E+02  0.45045682220E+02  0.00000000000E+00 0.  1.
         11    1    3    3    0    0  0.19809103670E+02  0.38308018058E+01  0.24449003562E+02  0.31699044246E+02  0.51100000000E-03 0. -1.
        -11    1    3    3    0    0  0.10947752973E+00  0.13783497746E+01  0.21151952497E+00  0.13987759653E+01  0.51100000000E-03 0.  1.
        -12    1    3    3    0    0  0.68764954080E+01  0.70997437981E+00  0.11062037069E+02  0.13044497569E+02  0.00000000000E+00 0.  1.
</event>
<event>
 7    1  0.1549900E-008  0.4614232E+02  0.7816164E-02  0.1320468E+00
        -11   -1    0    0    0    0  0.00000000000E+00  0.00000000000E+00  0.45593999997E+02  0.45594000000E+02  0.51100000000E-03 0.  1.
         11   -1    0    0    0    0 -0.00000000000E+00 -0.00000000000E+00 -0.45593999997E+02  0.45594000000E+02  0.51100000000E-03 0. -1.
    9900012    2    1    2    0    0 -0.65993870305E+00  0.45004275224E+02 -0.18147055706E+01  0.46142318034E+02  0.10000002486E+02 0.  0.
        -12    1    1    2    0    0  0.65993870305E+00 -0.45004275224E+02  0.18147055706E+01  0.45045681966E+02  0.00000000000E+00 0.  1.
         11    1    3    3    0    0 -0.17894161538E+01  0.18861729369E+02 -0.99169360472E+00  0.18972356244E+02  0.51100000000E-03 0. -1.
        -11    1    3    3    0    0  0.41967539326E+01  0.14780368256E+02 -0.10312971633E+01  0.15399207884E+02  0.51100000000E-03 0.  1.
        -12    1    3    3    0    0 -0.30672764818E+01  0.11362177599E+02  0.20828519745E+00  0.11770753906E+02  0.00000000000E+00 0.  1.
</event>
<event>
 7    1  0.1549900E-008  0.4614232E+02  0.7816164E-02  0.1320468E+00
        -11   -1    0    0    0    0  0.00000000000E+00  0.00000000000E+00  0.45593999997E+02  0.45594000000E+02  0.51100000000E-03 0. -1.
         11   -1    0    0    0    0 -0.00000000000E+00 -0.00000000000E+00 -0.45593999997E+02  0.45594000000E+02  0.51100000000E-03 0.  1.
    9900012    2    1    2    0    0 -0.15736505342E+02 -0.42185616660E+02  0.13599778665E+01  0.46142318818E+02  0.10000009638E+02 0.  0.
        -12    1    1    2    0    0  0.15736505342E+02  0.42185616660E+02 -0.13599778665E+01  0.45045681182E+02  0.00000000000E+00 0.  1.
         11    1    3    3    0    0 -0.64568124317E+01 -0.25158990861E+02 -0.12489088154E+01  0.26004326975E+02  0.51100000000E-03 0. -1.
        -11    1    3    3    0    0 -0.20859045366E+00 -0.22379359294E+01  0.16012456241E+01  0.27596838608E+01  0.51100000000E-03 0.  1.
         12    1    3    3    0    0 -0.90711024565E+01 -0.14788689870E+02  0.10076410578E+01  0.17378307983E+02  0.00000000000E+00 0. -1.
</event>
<event>
 7    1  0.1549900E-008  0.4614232E+02  0.7816164E-02  0.1320468E+00
        -11   -1    0    0    0    0  0.00000000000E+00  0.00000000000E+00  0.45593999997E+02  0.45594000000E+02  0.51100000000E-03 0.  1.
         11   -1    0    0    0    0 -0.00000000000E+00 -0.00000000000E+00 -0.45593999997E+02  0.45594000000E+02  0.51100000000E-03 0. -1.
    9900012    2    1    2    0    0 -0.10044877102E+01  0.24110426614E+02 -0.38036719322E+02  0.46142315591E+02  0.99999802127E+01 0.  0.
        -12    1    1    2    0    0  0.10044877102E+01 -0.24110426614E+02  0.38036719322E+02  0.45045684409E+02  0.00000000000E+00 0.  1.
         11    1    3    3    0    0  0.28676281423E+01  0.85989173364E+01 -0.16178385996E+02  0.18544671585E+02  0.51100000000E-03 0. -1.
        -11    1    3    3    0    0 -0.32696065133E+01  0.35513323589E+01 -0.53912970717E+01  0.72365995226E+01  0.51100000000E-03 0.  1.
         12    1    3    3    0    0 -0.60250933918E+00  0.11960176919E+02 -0.16467036255E+02  0.20361044483E+02  0.00000000000E+00 0. -1.
</event>
<event>
 7    1  0.1549900E-008  0.4614232E+02  0.7816164E-02  0.1320468E+00
        -11   -1    0    0    0    0  0.00000000000E+00  0.00000000000E+00  0.45593999997E+02  0.45594000000E+02  0.51100000000E-03 0.  1.
         11   -1    0    0    0    0 -0.00000000000E+00 -0.00000000000E+00 -0.45593999997E+02  0.45594000000E+02  0.51100000000E-03 0. -1.
    9900012    2    1    2    0    0  0.27048100586E+02  0.28842010094E+02 -0.21578975030E+02  0.46142318132E+02  0.10000003383E+02 0.  0.
        -12    1    1    2    0    0 -0.27048100586E+02 -0.28842010094E+02  0.21578975030E+02  0.45045681868E+02  0.00000000000E+00 0.  1.
         11    1    3    3    0    0  0.10499412252E+02  0.12349046638E+02 -0.14397787193E+02  0.21680241854E+02  0.51100000000E-03 0. -1.
        -11    1    3    3    0    0  0.78614066593E+01  0.82459681767E+01 -0.30931818543E+01  0.11805315755E+02  0.51100000000E-03 0.  1.
         12    1    3    3    0    0  0.86872816747E+01  0.82469952791E+01 -0.40880059828E+01  0.12656760523E+02  0.00000000000E+00 0. -1.
</event>
<event>
 7    1  0.1549900E-008  0.4614232E+02  0.7816164E-02  0.1320468E+00
        -11   -1    0    0    0    0  0.00000000000E+00  0.00000000000E+00  0.45593999997E+02  0.45594000000E+02  0.51100000000E-03 0.  1.
         11   -1    0    0    0    0 -0.00000000000E+00 -0.00000000000E+00 -0.45593999997E+02  0.45594000000E+02  0.51100000000E-03 0. -1.
    9900012    2    1    2    0    0  0.76589919765E+01  0.30346865900E+01 -0.44285932615E+02  0.46142319759E+02  0.10000018215E+02 0.  0.
        -12    1    1    2    0    0 -0.76589919765E+01 -0.30346865900E+01  0.44285932615E+02  0.45045680241E+02  0.00000000000E+00 0.  1.
         11    1    3    3    0    0  0.10421599365E+01  0.14823338439E+01 -0.95134013110E+01  0.96844316159E+01  0.51100000000E-03 0. -1.
        -11    1    3    3    0    0  0.66516073138E+01 -0.13445992155E+01 -0.14866251963E+02  0.16341887119E+02  0.51100000000E-03 0.  1.
        -12    1    3    3    0    0 -0.34775273753E-01  0.28969519616E+01 -0.19906279341E+02  0.20116001024E+02  0.00000000000E+00 0.  1.
</event>
<event>
 7    1  0.1549900E-008  0.4614232E+02  0.7816164E-02  0.1320468E+00
        -11   -1    0    0    0    0  0.00000000000E+00  0.00000000000E+00  0.45593999997E+02  0.45594000000E+02  0.51100000000E-03 0. -1.
         11   -1    0    0    0    0 -0.00000000000E+00 -0.00000000000E+00 -0.45593999997E+02  0.45594000000E+02  0.51100000000E-03 0.  1.
    9900012    2    1    2    0    0 -0.30777037370E+02 -0.32151779291E+02 -0.69390575747E+01  0.46142318067E+02  0.10000002787E+02 0.  0.
        -12    1    1    2    0    0  0.30777037370E+02  0.32151779291E+02  0.69390575747E+01  0.45045681933E+02  0.00000000000E+00 0.  1.
         11    1    3    3    0    0 -0.20493972787E+01 -0.28775083227E+01  0.12428429593E+01  0.37449622475E+01  0.51100000000E-03 0. -1.
        -11    1    3    3    0    0 -0.23746148018E+02 -0.20908438467E+02 -0.81029780464E+01  0.32660382703E+02  0.51100000000E-03 0.  1.
        -12    1    3    3    0    0 -0.49814920729E+01 -0.83658325012E+01 -0.78922487566E-01  0.97369731164E+01  0.00000000000E+00 0.  1.
</event>
<event>
 7    1  0.1549900E-008  0.4614232E+02  0.7816164E-02  0.1320468E+00
        -11   -1    0    0    0    0  0.00000000000E+00  0.00000000000E+00  0.45593999997E+02  0.45594000000E+02  0.51100000000E-03 0.  1.
         11   -1    0    0    0    0 -0.00000000000E+00 -0.00000000000E+00 -0.45593999997E+02  0.45594000000E+02  0.51100000000E-03 0. -1.
    9900012    2    1    2    0    0  0.75312462243E+01 -0.31260466919E+02 -0.31546428161E+02  0.46142316618E+02  0.99999895761E+01 0.  0.
        -12    1    1    2    0    0 -0.75312462243E+01  0.31260466919E+02  0.31546428161E+02  0.45045683382E+02  0.00000000000E+00 0.  1.
         11    1    3    3    0    0  0.47021301701E+01 -0.27796203970E+02 -0.25384214410E+02  0.37935436267E+02  0.51100000000E-03 0. -1.
        -11    1    3    3    0    0  0.72483232160E+00  0.43499220072E+00 -0.18022416731E+01  0.19906469849E+01  0.51100000000E-03 0.  1.
         12    1    3    3    0    0  0.21042837327E+01 -0.38992551490E+01 -0.43599720778E+01  0.62162333662E+01  0.00000000000E+00 0. -1.
</event>
<event>
 7    1  0.1549900E-008  0.4614232E+02  0.7816164E-02  0.1320468E+00
        -11   -1    0    0    0    0  0.00000000000E+00  0.00000000000E+00  0.45593999997E+02  0.45594000000E+02  0.51100000000E-03 0.  1.
         11   -1    0    0    0    0 -0.00000000000E+00 -0.00000000000E+00 -0.45593999997E+02  0.45594000000E+02  0.51100000000E-03 0. -1.
    9900012    2    1    2    0    0  0.25200890734E+02 -0.37078146775E+02 -0.43862997273E+01  0.46142317773E+02  0.10000000106E+02 0.  0.
        -12    1    1    2    0    0 -0.25200890734E+02  0.37078146775E+02  0.43862997273E+01  0.45045682227E+02  0.00000000000E+00 0.  1.
         11    1    3    3    0    0  0.12998944959E+02 -0.15690066002E+02  0.11512235161E+01  0.20407745026E+02  0.51100000000E-03 0. -1.
        -11    1    3    3    0    0  0.10205453743E+02 -0.17845118599E+02 -0.64907594264E+01  0.21557585721E+02  0.51100000000E-03 0.  1.
        -12    1    3    3    0    0  0.19964920323E+01 -0.35429621736E+01  0.95323618298E+00  0.41769870264E+01  0.00000000000E+00 0.  1.
</event>
<event>
 7    1  0.1549900E-008  0.4614232E+02  0.7816164E-02  0.1320468E+00
        -11   -1    0    0    0    0  0.00000000000E+00  0.00000000000E+00  0.45593999997E+02  0.45594000000E+02  0.51100000000E-03 0.  1.
         11   -1    0    0    0    0 -0.00000000000E+00 -0.00000000000E+00 -0.45593999997E+02  0.45594000000E+02  0.51100000000E-03 0. -1.
    9900012    2    1    2    0    0 -0.20390914073E+02  0.40089719810E+02 -0.24775481524E+01  0.46142320340E+02  0.10000023515E+02 0.  0.
        -12    1    1    2    0    0  0.20390914073E+02 -0.40089719810E+02  0.24775481524E+01  0.45045679660E+02  0.00000000000E+00 0.  1.
         11    1    3    3    0    0 -0.14767951456E+02  0.31012404249E+02  0.18759927569E+01  0.34400304600E+02  0.51100000000E-03 0. -1.
        -11    1    3    3    0    0 -0.56776362130E+00  0.13021995111E+00 -0.49710351460E+00  0.76578386683E+00  0.51100000000E-03 0.  1.
         12    1    3    3    0    0 -0.50551989957E+01  0.89470956100E+01 -0.38564373947E+01  0.10976231873E+02  0.00000000000E+00 0. -1.
</event>
<event>
 7    1  0.1549900E-008  0.4614232E+02  0.7816164E-02  0.1320468E+00
        -11   -1    0    0    0    0  0.00000000000E+00  0.00000000000E+00  0.45593999997E+02  0.45594000000E+02  0.51100000000E-03 0. -1.
         11   -1    0    0    0    0 -0.00000000000E+00 -0.00000000000E+00 -0.45593999997E+02  0.45594000000E+02  0.51100000000E-03 0.  1.
    9900012    2    1    2    0    0 -0.31593162669E+02 -0.12848837609E+02  0.29426060839E+02  0.46142316391E+02  0.99999875049E+01 0.  0.
        -12    1    1    2    0    0  0.31593162669E+02  0.12848837609E+02 -0.29426060839E+02  0.45045683609E+02  0.00000000000E+00 0.  1.
         11    1    3    3    0    0 -0.86821596825E+01 -0.27458060163E+01  0.53339297233E+01  0.10553205863E+02  0.51100000000E-03 0. -1.
        -11    1    3    3    0    0 -0.50718684756E+00  0.94592860827E+00  0.35758128613E+00  0.11313196134E+01  0.51100000000E-03 0.  1.
        -12    1    3    3    0    0 -0.22403816139E+02 -0.11048960201E+02  0.23734549830E+02  0.34457790915E+02  0.00000000000E+00 0.  1.
</event>
<event>
 7    1  0.1549900E-008  0.4614232E+02  0.7816164E-02  0.1320468E+00
        -11   -1    0    0    0    0  0.00000000000E+00  0.00000000000E+00  0.45593999997E+02  0.45594000000E+02  0.51100000000E-03 0. -1.
         11   -1    0    0    0    0 -0.00000000000E+00 -0.00000000000E+00 -0.45593999997E+02  0.45594000000E+02  0.51100000000E-03 0.  1.
    9900012    2    1    2    0    0 -0.24952298217E+02 -0.21091469508E+02 -0.31010421065E+02  0.46142317777E+02  0.10000000146E+02 0.  0.
        -12    1    1    2    0    0  0.24952298217E+02  0.21091469508E+02  0.31010421065E+02  0.45045682223E+02  0.00000000000E+00 0.  1.
         11    1    3    3    0    0 -0.12208964110E+02 -0.65422970218E+01 -0.15113583877E+02  0.20500752982E+02  0.51100000000E-03 0. -1.
        -11    1    3    3    0    0 -0.27958291989E-01  0.14632957138E+00  0.30576325863E+00  0.34012562533E+00  0.51100000000E-03 0.  1.
         12    1    3    3    0    0 -0.12715375815E+02 -0.14695502057E+02 -0.16202600447E+02  0.25301439170E+02  0.00000000000E+00 0. -1.
</event>
<event>
 7    1  0.1549900E-008  0.4614232E+02  0.7816164E-02  0.1320468E+00
        -11   -1    0    0    0    0  0.00000000000E+00  0.00000000000E+00  0.45593999997E+02  0.45594000000E+02  0.51100000000E-03 0. -1.
         11   -1    0    0    0    0 -0.00000000000E+00 -0.00000000000E+00 -0.45593999997E+02  0.45594000000E+02  0.51100000000E-03 0.  1.
    9900012    2    1    2    0    0  0.37999308723E+02  0.42115189046E+01  0.23820767695E+02  0.46142319535E+02  0.10000016179E+02 0.  0.
        -12    1    1    2    0    0 -0.37999308723E+02 -0.42115189046E+01 -0.23820767695E+02  0.45045680465E+02  0.00000000000E+00 0.  1.
         11    1    3    3    0    0  0.29891400047E+02  0.47602573535E+01  0.14138877524E+02  0.33407539639E+02  0.51100000000E-03 0. -1.
        -11    1    3    3    0    0  0.80511904314E+01 -0.61283118214E+00  0.91805641267E+01  0.12226200856E+02  0.51100000000E-03 0.  1.
         12    1    3    3    0    0  0.56718245380E-01  0.64092733292E-01  0.50132604474E+00  0.50857904101E+00  0.00000000000E+00 0. -1.
</event>
<event>
 7    1  0.1549900E-008  0.4614232E+02  0.7816164E-02  0.1320468E+00
        -11   -1    0    0    0    0  0.00000000000E+00  0.00000000000E+00  0.45593999997E+02  0.45594000000E+02  0.51100000000E-03 0. -1.
         11   -1    0    0    0    0 -0.00000000000E+00 -0.00000000000E+00 -0.45593999997E+02  0.45594000000E+02  0.51100000000E-03 0.  1.
    9900012    2    1    2    0    0 -0.31438381929E+02 -0.29242845111E+02  0.13623423212E+02  0.46142317538E+02  0.99999979626E+01 0.  0.
        -12    1    1    2    0    0  0.31438381929E+02  0.29242845111E+02 -0.13623423212E+02  0.45045682462E+02  0.00000000000E+00 0.  1.
         11    1    3    3    0    0 -0.98135449157E+01 -0.12180663586E+02  0.60659136253E+01  0.16777053901E+02  0.51100000000E-03 0. -1.
        -11    1    3    3    0    0 -0.18670055082E+02 -0.12016331620E+02  0.41182730621E+01  0.22581482583E+02  0.51100000000E-03 0.  1.
        -12    1    3    3    0    0 -0.29547819314E+01 -0.50458499049E+01  0.34392365244E+01  0.67837810545E+01  0.00000000000E+00 0.  1.
</event>
<event>
 7    1  0.1549900E-008  0.4614232E+02  0.7816164E-02  0.1320468E+00
        -11   -1    0    0    0    0  0.00000000000E+00  0.00000000000E+00  0.45593999997E+02  0.45594000000E+02  0.51100000000E-03 0. -1.
         11   -1    0    0    0    0 -0.00000000000E+00 -0.00000000000E+00 -0.45593999997E+02  0.45594000000E+02  0.51100000000E-03 0.  1.
    9900012    2    1    2    0    0  0.38604133636E+02  0.23093535527E+02  0.23501000710E+01  0.46142317773E+02  0.10000000111E+02 0.  0.
        -12    1    1    2    0    0 -0.38604133636E+02 -0.23093535527E+02 -0.23501000710E+01  0.45045682227E+02  0.00000000000E+00 0.  1.
         11    1    3    3    0    0  0.15551783786E+02  0.64089522467E+01  0.42732488508E+01  0.17354921603E+02  0.51100000000E-03 0. -1.
        -11    1    3    3    0    0  0.20837845244E+02  0.14963439396E+02 -0.29004473657E+01  0.25817298623E+02  0.51100000000E-03 0.  1.
        -12    1    3    3    0    0  0.22145046057E+01  0.17211438836E+01  0.97729858601E+00  0.29700975477E+01  0.00000000000E+00 0.  1.
</event>
<event>
 7    1  0.1893058E-008  0.4614232E+02  0.7816164E-02  0.1320468E+00
        -11   -1    0    0    0    0  0.00000000000E+00  0.00000000000E+00  0.45593999997E+02  0.45594000000E+02  0.51100000000E-03 0.  1.
         11   -1    0    0    0    0 -0.00000000000E+00 -0.00000000000E+00 -0.45593999997E+02  0.45594000000E+02  0.51100000000E-03 0. -1.
    9900012    2    1    2    0    0 -0.86965859948E+01  0.34266975142E+02 -0.27915181029E+02  0.46142317352E+02  0.99999962666E+01 0.  0.
        -12    1    1    2    0    0  0.86965859948E+01 -0.34266975142E+02  0.27915181029E+02  0.45045682648E+02  0.00000000000E+00 0.  1.
         11    1    3    3    0    0 -0.81283892411E+01  0.29486679351E+02 -0.27592241908E+02  0.41193042915E+02  0.51100000000E-03 0. -1.
        -11    1    3    3    0    0 -0.75493963630E+00  0.42467070541E+01 -0.53319306222E+00  0.43461189308E+01  0.51100000000E-03 0.  1.
         12    1    3    3    0    0  0.18674288260E+00  0.53358873727E+00  0.21025394133E+00  0.60315550614E+00  0.00000000000E+00 0. -1.
</event>
<event>
 7    1  0.1549900E-008  0.4614232E+02  0.7816164E-02  0.1320468E+00
        -11   -1    0    0    0    0  0.00000000000E+00  0.00000000000E+00  0.45593999997E+02  0.45594000000E+02  0.51100000000E-03 0. -1.
         11   -1    0    0    0    0 -0.00000000000E+00 -0.00000000000E+00 -0.45593999997E+02  0.45594000000E+02  0.51100000000E-03 0.  1.
    9900012    2    1    2    0    0  0.26170851780E+02 -0.17689501726E+02  0.32113573878E+02  0.46142316728E+02  0.99999905819E+01 0.  0.
        -12    1    1    2    0    0 -0.26170851780E+02  0.17689501726E+02 -0.32113573878E+02  0.45045683272E+02  0.00000000000E+00 0.  1.
         11    1    3    3    0    0  0.11762674174E+02 -0.84839520049E+01  0.15092721601E+02  0.20931511912E+02  0.51100000000E-03 0. -1.
        -11    1    3    3    0    0  0.12102934443E+02 -0.69740312051E+01  0.91166850870E+01  0.16680290184E+02  0.51100000000E-03 0.  1.
        -12    1    3    3    0    0  0.23052431631E+01 -0.22315185165E+01  0.79041671896E+01  0.85305146323E+01  0.00000000000E+00 0.  1.
</event>
<event>
 7    1  0.1549900E-008  0.4614232E+02  0.7816164E-02  0.1320468E+00
        -11   -1    0    0    0    0  0.00000000000E+00  0.00000000000E+00  0.45593999997E+02  0.45594000000E+02  0.51100000000E-03 0. -1.
         11   -1    0    0    0    0 -0.00000000000E+00 -0.00000000000E+00 -0.45593999997E+02  0.45594000000E+02  0.51100000000E-03 0.  1.
    9900012    2    1    2    0    0 -0.38441682707E+02 -0.16561964585E+02  0.16644874590E+02  0.46142317739E+02  0.99999997985E+01 0.  0.
        -12    1    1    2    0    0  0.38441682707E+02  0.16561964585E+02 -0.16644874590E+02  0.45045682261E+02  0.00000000000E+00 0.  1.
         11    1    3    3    0    0 -0.25629034916E+02 -0.10033800679E+02  0.12839003298E+02  0.30370455919E+02  0.51100000000E-03 0. -1.
        -11    1    3    3    0    0 -0.38668889260E+01 -0.21277045583E+01  0.37665250931E+01  0.58022985265E+01  0.51100000000E-03 0.  1.
         12    1    3    3    0    0 -0.89457588645E+01 -0.44004593478E+01  0.39346199144E-01  0.99695632932E+01  0.00000000000E+00 0. -1.
</event>
<event>
 7    1  0.1549900E-008  0.4614232E+02  0.7816164E-02  0.1320468E+00
        -11   -1    0    0    0    0  0.00000000000E+00  0.00000000000E+00  0.45593999997E+02  0.45594000000E+02  0.51100000000E-03 0.  1.
         11   -1    0    0    0    0 -0.00000000000E+00 -0.00000000000E+00 -0.45593999997E+02  0.45594000000E+02  0.51100000000E-03 0. -1.
    9900012    2    1    2    0    0  0.10041952982E+02  0.15028026022E+02 -0.41260527564E+02  0.46142317403E+02  0.99999967323E+01 0.  0.
        -12    1    1    2    0    0 -0.10041952982E+02 -0.15028026022E+02  0.41260527564E+02  0.45045682597E+02  0.00000000000E+00 0.  1.
         11    1    3    3    0    0  0.26780234240E+01  0.81536291353E+01 -0.12717739419E+02  0.15342567377E+02  0.51100000000E-03 0. -1.
        -11    1    3    3    0    0  0.17400637678E+01  0.39494683110E+01 -0.60554801531E+01  0.74360582301E+01  0.51100000000E-03 0.  1.
         12    1    3    3    0    0  0.56238657900E+01  0.29249285761E+01 -0.22487307992E+02  0.23363691796E+02  0.00000000000E+00 0. -1.
</event>
<event>
 7    1  0.1549900E-008  0.4614232E+02  0.7816164E-02  0.1320468E+00
        -11   -1    0    0    0    0  0.00000000000E+00  0.00000000000E+00  0.45593999997E+02  0.45594000000E+02  0.51100000000E-03 0.  1.
         11   -1    0    0    0    0 -0.00000000000E+00 -0.00000000000E+00 -0.45593999997E+02  0.45594000000E+02  0.51100000000E-03 0. -1.
    9900012    2    1    2    0    0  0.30509847928E+02  0.96636804613E+01 -0.31699779207E+02  0.46142317161E+02  0.99999945304E+01 0.  0.
        -12    1    1    2    0    0 -0.30509847928E+02 -0.96636804613E+01  0.31699779207E+02  0.45045682839E+02  0.00000000000E+00 0.  1.
         11    1    3    3    0    0  0.74239586901E+01  0.27702879672E+01 -0.11671247417E+02  0.14107007995E+02  0.51100000000E-03 0. -1.
        -11    1    3    3    0    0  0.59925251564E+01 -0.95628113634E+00 -0.63097370095E+01  0.87542911051E+01  0.51100000000E-03 0.  1.
         12    1    3    3    0    0  0.17093364082E+02  0.78496736305E+01 -0.13718794781E+02  0.23281018061E+02  0.00000000000E+00 0. -1.
</event>
<event>
 7    1  0.1652728E-008  0.4614232E+02  0.7816164E-02  0.1320468E+00
        -11   -1    0    0    0    0  0.00000000000E+00  0.00000000000E+00  0.45593999997E+02  0.45594000000E+02  0.51100000000E-03 0. -1.
         11   -1    0    0    0    0 -0.00000000000E+00 -0.00000000000E+00 -0.45593999997E+02  0.45594000000E+02  0.51100000000E-03 0.  1.
    9900012    2    1    2    0    0  0.72642475582E+01  0.44083929636E+02  0.57403320274E+01  0.46142317004E+02  0.99999931005E+01 0.  0.
        -12    1    1    2    0    0 -0.72642475582E+01 -0.44083929636E+02 -0.57403320274E+01  0.45045682996E+02  0.00000000000E+00 0.  1.
         11    1    3    3    0    0  0.55022931867E+01  0.40479578869E+02  0.45624499875E+01  0.41105808420E+02  0.51100000000E-03 0. -1.
        -11    1    3    3    0    0 -0.23668355752E+00  0.21178761049E+01  0.13778269625E+01  0.25376811664E+01  0.51100000000E-03 0.  1.
         12    1    3    3    0    0  0.19986379291E+01  0.14864746621E+01 -0.19994492261E+00  0.24988274179E+01  0.00000000000E+00 0. -1.
</event>
<event>
 7    1  0.1549900E-008  0.4614231E+02  0.7816164E-02  0.1320468E+00
        -11   -1    0    0    0    0  0.00000000000E+00  0.00000000000E+00  0.45593999997E+02  0.45594000000E+02  0.51100000000E-03 0. -1.
         11   -1    0    0    0    0 -0.00000000000E+00 -0.00000000000E+00 -0.45593999997E+02  0.45594000000E+02  0.51100000000E-03 0.  1.
    9900012    2    1    2    0    0  0.25572518137E+02  0.31430527427E+02  0.19679488988E+02  0.46142311804E+02  0.99999456812E+01 0.  0.
        -12    1    1    2    0    0 -0.25572518137E+02 -0.31430527427E+02 -0.19679488988E+02  0.45045688196E+02  0.00000000000E+00 0.  1.
         11    1    3    3    0    0  0.25526034117E+01  0.21023711525E+01  0.15601242869E+01  0.36564650541E+01  0.51100000000E-03 0. -1.
        -11    1    3    3    0    0  0.16559124739E+02  0.18153071699E+02  0.16211666111E+02  0.29437335861E+02  0.51100000000E-03 0.  1.
        -12    1    3    3    0    0  0.64607899858E+01  0.11175084576E+02  0.19076985898E+01  0.13048510890E+02  0.00000000000E+00 0.  1.
</event>
<event>
 7    1  0.1549900E-008  0.4614232E+02  0.7816164E-02  0.1320468E+00
        -11   -1    0    0    0    0  0.00000000000E+00  0.00000000000E+00  0.45593999997E+02  0.45594000000E+02  0.51100000000E-03 0. -1.
         11   -1    0    0    0    0 -0.00000000000E+00 -0.00000000000E+00 -0.45593999997E+02  0.45594000000E+02  0.51100000000E-03 0.  1.
    9900012    2    1    2    0    0  0.43235047027E+02 -0.11235734184E+02 -0.57967604117E+01  0.46142318239E+02  0.10000004354E+02 0.  0.
        -12    1    1    2    0    0 -0.43235047027E+02  0.11235734184E+02  0.57967604117E+01  0.45045681761E+02  0.00000000000E+00 0.  1.
         11    1    3    3    0    0  0.16048779515E+02 -0.45023547110E+01 -0.68020267261E+01  0.18002835602E+02  0.51100000000E-03 0.  1.
        -11    1    3    3    0    0  0.15866457637E+02 -0.51790515802E+01  0.33174459429E+00  0.16693624770E+02  0.51100000000E-03 0. -1.
        -12    1    3    3    0    0  0.11319809875E+02 -0.15543278924E+01  0.67352172006E+00  0.11445857867E+02  0.00000000000E+00 0.  1.
</event>
<event>
 7    1  0.1549900E-008  0.4614232E+02  0.7816164E-02  0.1320468E+00
        -11   -1    0    0    0    0  0.00000000000E+00  0.00000000000E+00  0.45593999997E+02  0.45594000000E+02  0.51100000000E-03 0.  1.
         11   -1    0    0    0    0 -0.00000000000E+00 -0.00000000000E+00 -0.45593999997E+02  0.45594000000E+02  0.51100000000E-03 0. -1.
    9900012    2    1    2    0    0 -0.17348581566E+02  0.38801258793E+02 -0.14919871033E+02  0.46142317433E+02  0.99999970050E+01 0.  0.
        -12    1    1    2    0    0  0.17348581566E+02 -0.38801258793E+02  0.14919871033E+02  0.45045682567E+02  0.00000000000E+00 0.  1.
         11    1    3    3    0    0 -0.87192530331E+01  0.21249164999E+02 -0.32257654304E+01  0.23193920528E+02  0.51100000000E-03 0. -1.
        -11    1    3    3    0    0 -0.32848183943E+00  0.13783520840E-02 -0.23848238655E+00  0.40592650628E+00  0.51100000000E-03 0.  1.
         12    1    3    3    0    0 -0.83008466939E+01  0.17550715442E+02 -0.11455623216E+02  0.22542470398E+02  0.00000000000E+00 0. -1.
</event>
<event>
 7    1  0.1549900E-008  0.4614232E+02  0.7816164E-02  0.1320468E+00
        -11   -1    0    0    0    0  0.00000000000E+00  0.00000000000E+00  0.45593999997E+02  0.45594000000E+02  0.51100000000E-03 0.  1.
         11   -1    0    0    0    0 -0.00000000000E+00 -0.00000000000E+00 -0.45593999997E+02  0.45594000000E+02  0.51100000000E-03 0. -1.
    9900012    2    1    2    0    0  0.40117779604E+02 -0.10439161765E+02 -0.17626718661E+02  0.46142317083E+02  0.99999938137E+01 0.  0.
        -12    1    1    2    0    0 -0.40117779604E+02  0.10439161765E+02  0.17626718661E+02  0.45045682917E+02  0.00000000000E+00 0.  1.
         11    1    3    3    0    0  0.15686541889E+02  0.14210827971E+00 -0.74634233414E+01  0.17372117874E+02  0.51100000000E-03 0. -1.
        -11    1    3    3    0    0  0.82488830068E+01 -0.50748383495E+01 -0.50824576336E+01  0.10937523988E+02  0.51100000000E-03 0.  1.
         12    1    3    3    0    0  0.16182354708E+02 -0.55064316952E+01 -0.50808376860E+01  0.17832675220E+02  0.00000000000E+00 0. -1.
</event>
<event>
 7    1  0.1549900E-008  0.4614232E+02  0.7816164E-02  0.1320468E+00
        -11   -1    0    0    0    0  0.00000000000E+00  0.00000000000E+00  0.45593999997E+02  0.45594000000E+02  0.51100000000E-03 0.  1.
         11   -1    0    0    0    0 -0.00000000000E+00 -0.00000000000E+00 -0.45593999997E+02  0.45594000000E+02  0.51100000000E-03 0. -1.
    9900012    2    1    2    0    0 -0.21754921736E+02  0.28188711300E+02 -0.27590456650E+02  0.46142319157E+02  0.10000012728E+02 0.  0.
        -12    1    1    2    0    0  0.21754921736E+02 -0.28188711300E+02  0.27590456650E+02  0.45045680843E+02  0.00000000000E+00 0.  1.
         11    1    3    3    0    0 -0.15654286122E+02  0.21529292537E+02 -0.23992595082E+02  0.35835900019E+02  0.51100000000E-03 0. -1.
        -11    1    3    3    0    0 -0.36170168628E+01  0.30283331641E+01 -0.15461038191E+00  0.47199065002E+01  0.51100000000E-03 0.  1.
        -12    1    3    3    0    0 -0.24836187509E+01  0.36310855985E+01 -0.34432511858E+01  0.55865126378E+01  0.00000000000E+00 0.  1.
</event>
<event>
 7    1  0.1549900E-008  0.4614232E+02  0.7816164E-02  0.1320468E+00
        -11   -1    0    0    0    0  0.00000000000E+00  0.00000000000E+00  0.45593999997E+02  0.45594000000E+02  0.51100000000E-03 0. -1.
         11   -1    0    0    0    0 -0.00000000000E+00 -0.00000000000E+00 -0.45593999997E+02  0.45594000000E+02  0.51100000000E-03 0.  1.
    9900012    2    1    2    0    0 -0.12596157713E+02 -0.43172817644E+02 -0.25609016115E+01  0.46142316639E+02  0.99999897665E+01 0.  0.
        -12    1    1    2    0    0  0.12596157713E+02  0.43172817644E+02  0.25609016115E+01  0.45045683361E+02  0.00000000000E+00 0.  1.
         11    1    3    3    0    0 -0.98142466552E+01 -0.33568222809E+02  0.18829621221E+01  0.35024142625E+02  0.51100000000E-03 0. -1.
        -11    1    3    3    0    0 -0.14125116357E+01 -0.75247862534E+01 -0.28929555412E+01  0.81845457604E+01  0.51100000000E-03 0.  1.
         12    1    3    3    0    0 -0.13693994217E+01 -0.20798085809E+01 -0.15509081925E+01  0.29336282537E+01  0.00000000000E+00 0. -1.
</event>
<event>
 7    1  0.1549900E-008  0.4614232E+02  0.7816164E-02  0.1320468E+00
        -11   -1    0    0    0    0  0.00000000000E+00  0.00000000000E+00  0.45593999997E+02  0.45594000000E+02  0.51100000000E-03 0.  1.
         11   -1    0    0    0    0 -0.00000000000E+00 -0.00000000000E+00 -0.45593999997E+02  0.45594000000E+02  0.51100000000E-03 0. -1.
    9900012    2    1    2    0    0 -0.53855814383E+01  0.44586341419E+02  0.34881459777E+01  0.46142317732E+02  0.99999997384E+01 0.  0.
        -12    1    1    2    0    0  0.53855814383E+01 -0.44586341419E+02 -0.34881459777E+01  0.45045682268E+02  0.00000000000E+00 0.  1.
         11    1    3    3    0    0 -0.47166341342E+00  0.11655194101E+02  0.20307849214E+01  0.11840190183E+02  0.51100000000E-03 0. -1.
        -11    1    3    3    0    0 -0.38363551536E+01  0.31652407243E+02  0.30027979166E+01  0.32025135452E+02  0.51100000000E-03 0.  1.
        -12    1    3    3    0    0 -0.10775628714E+01  0.12787400749E+01 -0.15454368602E+01  0.22769920970E+01  0.00000000000E+00 0.  1.
</event>
<event>
 7    1  0.1549900E-008  0.4614232E+02  0.7816164E-02  0.1320468E+00
        -11   -1    0    0    0    0  0.00000000000E+00  0.00000000000E+00  0.45593999997E+02  0.45594000000E+02  0.51100000000E-03 0.  1.
         11   -1    0    0    0    0 -0.00000000000E+00 -0.00000000000E+00 -0.45593999997E+02  0.45594000000E+02  0.51100000000E-03 0. -1.
    9900012    2    1    2    0    0  0.34530995217E+02  0.28922257242E+02 -0.47632917464E+00  0.46142317808E+02  0.10000000427E+02 0.  0.
        -12    1    1    2    0    0 -0.34530995217E+02 -0.28922257242E+02  0.47632917464E+00  0.45045682192E+02  0.00000000000E+00 0.  1.
         11    1    3    3    0    0  0.43570100034E+01  0.23718305467E+01  0.16509164731E+01  0.52282541803E+01  0.51100000000E-03 0. -1.
        -11    1    3    3    0    0  0.61585707726E+01  0.95917140377E+01  0.40296107080E+00  0.11405759511E+02  0.51100000000E-03 0.  1.
         12    1    3    3    0    0  0.24015414441E+02  0.16958712658E+02 -0.25302067185E+01  0.29508304116E+02  0.00000000000E+00 0. -1.
</event>
<event>
 7    1  0.1549900E-008  0.4614232E+02  0.7816164E-02  0.1320468E+00
        -11   -1    0    0    0    0  0.00000000000E+00  0.00000000000E+00  0.45593999997E+02  0.45594000000E+02  0.51100000000E-03 0.  1.
         11   -1    0    0    0    0 -0.00000000000E+00 -0.00000000000E+00 -0.45593999997E+02  0.45594000000E+02  0.51100000000E-03 0. -1.
    9900012    2    1    2    0    0  0.56418962344E+01  0.44506510687E+02 -0.40562391800E+01  0.46142316934E+02  0.99999924565E+01 0.  0.
        -12    1    1    2    0    0 -0.56418962344E+01 -0.44506510687E+02  0.40562391800E+01  0.45045683066E+02  0.00000000000E+00 0.  1.
         11    1    3    3    0    0  0.49923605947E+01  0.21660902923E+02 -0.60309426592E+01  0.23032382624E+02  0.51100000000E-03 0. -1.
        -11    1    3    3    0    0  0.59402214277E+00  0.15096101923E+02  0.26205017595E+01  0.15333368361E+02  0.51100000000E-03 0.  1.
        -12    1    3    3    0    0  0.55513496956E-01  0.77495058409E+01 -0.64579828029E+00  0.77765659482E+01  0.00000000000E+00 0.  1.
</event>
<event>
 7    1  0.1614298E-008  0.4614232E+02  0.7816164E-02  0.1320468E+00
        -11   -1    0    0    0    0  0.00000000000E+00  0.00000000000E+00  0.45593999997E+02  0.45594000000E+02  0.51100000000E-03 0.  1.
         11   -1    0    0    0    0 -0.00000000000E+00 -0.00000000000E+00 -0.45593999997E+02  0.45594000000E+02  0.51100000000E-03 0. -1.
    9900012    2    1    2    0    0 -0.87568239641E+01  0.26708061165E+02 -0.35201011248E+02  0.46142315523E+02  0.99999795899E+01 0.  0.
        -12    1    1    2    0    0  0.87568239641E+01 -0.26708061165E+02  0.35201011248E+02  0.45045684477E+02  0.00000000000E+00 0.  1.
         11    1    3    3    0    0 -0.73247543713E+01  0.10809402762E+02 -0.12290363531E+02  0.17931766523E+02  0.51100000000E-03 0. -1.
        -11    1    3    3    0    0  0.78485357844E+00  0.56684302473E+00 -0.14124020889E+01  0.17123627175E+01  0.51100000000E-03 0.  1.
         12    1    3    3    0    0 -0.22169231712E+01  0.15331815378E+02 -0.21498245628E+02  0.26498186282E+02  0.00000000000E+00 0. -1.
</event>
<event>
 7    1  0.1549900E-008  0.4614232E+02  0.7816164E-02  0.1320468E+00
        -11   -1    0    0    0    0  0.00000000000E+00  0.00000000000E+00  0.45593999997E+02  0.45594000000E+02  0.51100000000E-03 0.  1.
         11   -1    0    0    0    0 -0.00000000000E+00 -0.00000000000E+00 -0.45593999997E+02  0.45594000000E+02  0.51100000000E-03 0. -1.
    9900012    2    1    2    0    0 -0.37075512949E+02  0.17072102723E+02 -0.19054215788E+02  0.46142317731E+02  0.99999997268E+01 0.  0.
        -12    1    1    2    0    0  0.37075512949E+02 -0.17072102723E+02  0.19054215788E+02  0.45045682269E+02  0.00000000000E+00 0.  1.
         11    1    3    3    0    0 -0.12434529560E+02  0.43139104064E+01 -0.53438844483E+01  0.14205085344E+02  0.51100000000E-03 0. -1.
        -11    1    3    3    0    0 -0.15661847769E+02  0.10976834004E+02 -0.62272398153E+01  0.20113748439E+02  0.51100000000E-03 0.  1.
         12    1    3    3    0    0 -0.89791356196E+01  0.17813583126E+01 -0.74830915243E+01  0.11823483948E+02  0.00000000000E+00 0. -1.
</event>
<event>
 7    1  0.1549900E-008  0.4614232E+02  0.7816164E-02  0.1320468E+00
        -11   -1    0    0    0    0  0.00000000000E+00  0.00000000000E+00  0.45593999997E+02  0.45594000000E+02  0.51100000000E-03 0. -1.
         11   -1    0    0    0    0 -0.00000000000E+00 -0.00000000000E+00 -0.45593999997E+02  0.45594000000E+02  0.51100000000E-03 0.  1.
    9900012    2    1    2    0    0 -0.99341956126E+00  0.41870397149E+02  0.16583017114E+02  0.46142317671E+02  0.99999991807E+01 0.  0.
        -12    1    1    2    0    0  0.99341956126E+00 -0.41870397149E+02 -0.16583017114E+02  0.45045682329E+02  0.00000000000E+00 0.  1.
         11    1    3    3    0    0  0.35363270080E+01  0.10992515974E+02  0.48616514536E+01  0.12529033133E+02  0.51100000000E-03 0. -1.
        -11    1    3    3    0    0 -0.16410326660E+01  0.31997855577E+01  0.60440084342E+00  0.36464937223E+01  0.51100000000E-03 0.  1.
        -12    1    3    3    0    0 -0.28887139032E+01  0.27678095618E+02  0.11116964817E+02  0.29966790815E+02  0.00000000000E+00 0.  1.
</event>
<event>
 7    1  0.1549900E-008  0.4614232E+02  0.7816164E-02  0.1320468E+00
        -11   -1    0    0    0    0  0.00000000000E+00  0.00000000000E+00  0.45593999997E+02  0.45594000000E+02  0.51100000000E-03 0.  1.
         11   -1    0    0    0    0 -0.00000000000E+00 -0.00000000000E+00 -0.45593999997E+02  0.45594000000E+02  0.51100000000E-03 0. -1.
    9900012    2    1    2    0    0 -0.28120537223E+02 -0.18436654546E+02  0.29973965300E+02  0.46142318294E+02  0.10000004857E+02 0.  0.
        -12    1    1    2    0    0  0.28120537223E+02  0.18436654546E+02 -0.29973965300E+02  0.45045681706E+02  0.00000000000E+00 0.  1.
         11    1    3    3    0    0 -0.89038535289E+01 -0.61583333850E+01  0.14694711729E+02  0.18252074699E+02  0.51100000000E-03 0. -1.
        -11    1    3    3    0    0 -0.12707022155E+02 -0.94152136447E+01  0.80362654483E+01  0.17739679328E+02  0.51100000000E-03 0.  1.
        -12    1    3    3    0    0 -0.65096615395E+01 -0.28631075165E+01  0.72429881221E+01  0.10150564267E+02  0.00000000000E+00 0.  1.
</event>
<event>
 7    1  0.1549900E-008  0.4614232E+02  0.7816164E-02  0.1320468E+00
        -11   -1    0    0    0    0  0.00000000000E+00  0.00000000000E+00  0.45593999997E+02  0.45594000000E+02  0.51100000000E-03 0. -1.
         11   -1    0    0    0    0 -0.00000000000E+00 -0.00000000000E+00 -0.45593999997E+02  0.45594000000E+02  0.51100000000E-03 0.  1.
    9900012    2    1    2    0    0 -0.29359696602E+02  0.32934063846E+02 -0.90812619030E+01  0.46142315815E+02  0.99999822496E+01 0.  0.
        -12    1    1    2    0    0  0.29359696602E+02 -0.32934063846E+02  0.90812619030E+01  0.45045684185E+02  0.00000000000E+00 0.  1.
         11    1    3    3    0    0 -0.20559760355E+02  0.24182622068E+02 -0.10505764468E+02  0.33434623421E+02  0.51100000000E-03 0.  1.
        -11    1    3    3    0    0 -0.82820620774E+01  0.76003542024E+01  0.72417971201E+00  0.11264207596E+02  0.51100000000E-03 0. -1.
        -12    1    3    3    0    0 -0.51787416970E+00  0.11510875756E+01  0.70032285343E+00  0.14434847977E+01  0.00000000000E+00 0.  1.
</event>
<event>
 7    1  0.1549900E-008  0.4614232E+02  0.7816164E-02  0.1320468E+00
        -11   -1    0    0    0    0  0.00000000000E+00  0.00000000000E+00  0.45593999997E+02  0.45594000000E+02  0.51100000000E-03 0. -1.
         11   -1    0    0    0    0 -0.00000000000E+00 -0.00000000000E+00 -0.45593999997E+02  0.45594000000E+02  0.51100000000E-03 0.  1.
    9900012    2    1    2    0    0  0.41647310137E+02 -0.59141865802E+01  0.16113274543E+02  0.46142315844E+02  0.99999825180E+01 0.  0.
        -12    1    1    2    0    0 -0.41647310137E+02  0.59141865802E+01 -0.16113274543E+02  0.45045684156E+02  0.00000000000E+00 0.  1.
         11    1    3    3    0    0  0.66384105645E+01 -0.14857156756E+01  0.36165505410E-01  0.68027313703E+01  0.51100000000E-03 0. -1.
        -11    1    3    3    0    0  0.24820889696E+02 -0.14993494772E+01  0.14003052673E+02  0.28537871304E+02  0.51100000000E-03 0.  1.
         12    1    3    3    0    0  0.10188009877E+02 -0.29291214274E+01  0.20740563642E+01  0.10801713169E+02  0.00000000000E+00 0. -1.
</event>
<event>
 7    1  0.1549900E-008  0.4614232E+02  0.7816164E-02  0.1320468E+00
        -11   -1    0    0    0    0  0.00000000000E+00  0.00000000000E+00  0.45593999997E+02  0.45594000000E+02  0.51100000000E-03 0.  1.
         11   -1    0    0    0    0 -0.00000000000E+00 -0.00000000000E+00 -0.45593999997E+02  0.45594000000E+02  0.51100000000E-03 0. -1.
    9900012    2    1    2    0    0 -0.41068095412E+02  0.49007284354E+01 -0.17846790919E+02  0.46142317121E+02  0.99999941594E+01 0.  0.
        -12    1    1    2    0    0  0.41068095412E+02 -0.49007284354E+01  0.17846790919E+02  0.45045682879E+02  0.00000000000E+00 0.  1.
         11    1    3    3    0    0 -0.26494764307E+02  0.66912758655E+01 -0.82888606428E+01  0.28556101264E+02  0.51100000000E-03 0. -1.
        -11    1    3    3    0    0 -0.13469604709E+02 -0.12476774314E+01 -0.88836156460E+01  0.16183497063E+02  0.51100000000E-03 0.  1.
        -12    1    3    3    0    0 -0.11037263968E+01 -0.54286999871E+00 -0.67431462972E+00  0.14027187938E+01  0.00000000000E+00 0.  1.
</event>
<event>
 7    1  0.1549900E-008  0.4614232E+02  0.7816164E-02  0.1320468E+00
        -11   -1    0    0    0    0  0.00000000000E+00  0.00000000000E+00  0.45593999997E+02  0.45594000000E+02  0.51100000000E-03 0. -1.
         11   -1    0    0    0    0 -0.00000000000E+00 -0.00000000000E+00 -0.45593999997E+02  0.45594000000E+02  0.51100000000E-03 0.  1.
    9900012    2    1    2    0    0 -0.38258003950E+02  0.17362148733E+02  0.16247904952E+02  0.46142317741E+02  0.99999998159E+01 0.  0.
        -12    1    1    2    0    0  0.38258003950E+02 -0.17362148733E+02 -0.16247904952E+02  0.45045682259E+02  0.00000000000E+00 0.  1.
         11    1    3    3    0    0 -0.10502879961E+02  0.16781961639E+01  0.42699963252E+01  0.11461225882E+02  0.51100000000E-03 0. -1.
        -11    1    3    3    0    0 -0.68759859164E+01  0.47838021992E+01  0.27545824993E+00  0.83809201948E+01  0.51100000000E-03 0.  1.
         12    1    3    3    0    0 -0.20879138072E+02  0.10900150370E+02  0.11702450376E+02  0.26300171664E+02  0.00000000000E+00 0. -1.
</event>
<event>
 7    1  0.1549900E-008  0.4614232E+02  0.7816164E-02  0.1320468E+00
        -11   -1    0    0    0    0  0.00000000000E+00  0.00000000000E+00  0.45593999997E+02  0.45594000000E+02  0.51100000000E-03 0. -1.
         11   -1    0    0    0    0 -0.00000000000E+00 -0.00000000000E+00 -0.45593999997E+02  0.45594000000E+02  0.51100000000E-03 0.  1.
    9900012    2    1    2    0    0 -0.16987177358E+02 -0.36256994158E+02  0.20639274233E+02  0.46142318067E+02  0.10000002789E+02 0.  0.
        -12    1    1    2    0    0  0.16987177358E+02  0.36256994158E+02 -0.20639274233E+02  0.45045681933E+02  0.00000000000E+00 0.  1.
         11    1    3    3    0    0 -0.14162463063E+02 -0.31558474473E+02  0.19288763983E+02  0.39605164907E+02  0.51100000000E-03 0. -1.
        -11    1    3    3    0    0 -0.23928159569E+01 -0.31914925407E+01  0.23956699018E+01  0.46530019751E+01  0.51100000000E-03 0.  1.
         12    1    3    3    0    0 -0.43189833849E+00 -0.15070271441E+01 -0.10451596523E+01  0.18841511847E+01  0.00000000000E+00 0. -1.
</event>
<event>
 7    1  0.1549900E-008  0.4614232E+02  0.7816164E-02  0.1320468E+00
        -11   -1    0    0    0    0  0.00000000000E+00  0.00000000000E+00  0.45593999997E+02  0.45594000000E+02  0.51100000000E-03 0.  1.
         11   -1    0    0    0    0 -0.00000000000E+00 -0.00000000000E+00 -0.45593999997E+02  0.45594000000E+02  0.51100000000E-03 0. -1.
    9900012    2    1    2    0    0 -0.22784171009E+02 -0.18588885062E+02 -0.34124015348E+02  0.46142317411E+02  0.99999968057E+01 0.  0.
        -12    1    1    2    0    0  0.22784171009E+02  0.18588885062E+02  0.34124015348E+02  0.45045682589E+02  0.00000000000E+00 0.  1.
         11    1    3    3    0    0 -0.30712851644E+01 -0.41326773801E+01 -0.10233642803E+02  0.11455970503E+02  0.51100000000E-03 0. -1.
        -11    1    3    3    0    0 -0.13551102579E+01  0.45697882082E-01 -0.16381312312E+00  0.13657404980E+01  0.51100000000E-03 0.  1.
         12    1    3    3    0    0 -0.18357775587E+02 -0.14501905564E+02 -0.23726559422E+02  0.33320606410E+02  0.00000000000E+00 0. -1.
</event>
<event>
 7    1  0.1549900E-008  0.4614232E+02  0.7816164E-02  0.1320468E+00
        -11   -1    0    0    0    0  0.00000000000E+00  0.00000000000E+00  0.45593999997E+02  0.45594000000E+02  0.51100000000E-03 0.  1.
         11   -1    0    0    0    0 -0.00000000000E+00 -0.00000000000E+00 -0.45593999997E+02  0.45594000000E+02  0.51100000000E-03 0. -1.
    9900012    2    1    2    0    0 -0.38375301730E+02  0.47547379321E+01 -0.23105024252E+02  0.46142318061E+02  0.10000002734E+02 0.  0.
        -12    1    1    2    0    0  0.38375301730E+02 -0.47547379321E+01  0.23105024252E+02  0.45045681939E+02  0.00000000000E+00 0.  1.
         11    1    3    3    0    0 -0.12593306585E+02  0.11556032806E+00 -0.11257854787E+02  0.16892128924E+02  0.51100000000E-03 0. -1.
        -11    1    3    3    0    0 -0.21733303900E+02  0.58657973095E+01 -0.10108013850E+02  0.24676223794E+02  0.51100000000E-03 0.  1.
         12    1    3    3    0    0 -0.40486912460E+01 -0.12266197055E+01 -0.17391556149E+01  0.45739653432E+01  0.00000000000E+00 0. -1.
</event>
<event>
 7    1  0.1549900E-008  0.4614232E+02  0.7816164E-02  0.1320468E+00
        -11   -1    0    0    0    0  0.00000000000E+00  0.00000000000E+00  0.45593999997E+02  0.45594000000E+02  0.51100000000E-03 0.  1.
         11   -1    0    0    0    0 -0.00000000000E+00 -0.00000000000E+00 -0.45593999997E+02  0.45594000000E+02  0.51100000000E-03 0. -1.
    9900012    2    1    2    0    0  0.28886642004E+02  0.16408817804E+02 -0.30420817863E+02  0.46142317105E+02  0.99999940204E+01 0.  0.
        -12    1    1    2    0    0 -0.28886642004E+02 -0.16408817804E+02  0.30420817863E+02  0.45045682895E+02  0.00000000000E+00 0.  1.
         11    1    3    3    0    0  0.83830784205E+01  0.47139305123E+01 -0.93346916503E+01  0.13402746478E+02  0.51100000000E-03 0. -1.
        -11    1    3    3    0    0  0.19346808977E+02  0.10762649430E+02 -0.15670222916E+02  0.27123597233E+02  0.51100000000E-03 0.  1.
        -12    1    3    3    0    0  0.11567546064E+01  0.93223786126E+00 -0.54159032969E+01  0.56159733948E+01  0.00000000000E+00 0.  1.
</event>
<event>
 7    1  0.1549900E-008  0.4614232E+02  0.7816164E-02  0.1320468E+00
        -11   -1    0    0    0    0  0.00000000000E+00  0.00000000000E+00  0.45593999997E+02  0.45594000000E+02  0.51100000000E-03 0.  1.
         11   -1    0    0    0    0 -0.00000000000E+00 -0.00000000000E+00 -0.45593999997E+02  0.45594000000E+02  0.51100000000E-03 0. -1.
    9900012    2    1    2    0    0 -0.26969158365E+02 -0.25377358007E+02 -0.25646983934E+02  0.46142316664E+02  0.99999899956E+01 0.  0.
        -12    1    1    2    0    0  0.26969158365E+02  0.25377358007E+02  0.25646983934E+02  0.45045683336E+02  0.00000000000E+00 0.  1.
         11    1    3    3    0    0 -0.14678067024E+02 -0.12322613967E+02 -0.11258255601E+02  0.22227028275E+02  0.51100000000E-03 0. -1.
        -11    1    3    3    0    0 -0.85339363021E+01 -0.43797925129E+01 -0.81666742514E+01  0.12597825997E+02  0.51100000000E-03 0.  1.
         12    1    3    3    0    0 -0.37571550389E+01 -0.86749515272E+01 -0.62220540820E+01  0.11317462392E+02  0.00000000000E+00 0. -1.
</event>
<event>
 7    1  0.1549900E-008  0.4614232E+02  0.7816164E-02  0.1320468E+00
        -11   -1    0    0    0    0  0.00000000000E+00  0.00000000000E+00  0.45593999997E+02  0.45594000000E+02  0.51100000000E-03 0.  1.
         11   -1    0    0    0    0 -0.00000000000E+00 -0.00000000000E+00 -0.45593999997E+02  0.45594000000E+02  0.51100000000E-03 0. -1.
    9900012    2    1    2    0    0 -0.37148166000E+02  0.80913627275E+01 -0.24158996660E+02  0.46142317548E+02  0.99999980526E+01 0.  0.
        -12    1    1    2    0    0  0.37148166000E+02 -0.80913627275E+01  0.24158996660E+02  0.45045682452E+02  0.00000000000E+00 0.  1.
         11    1    3    3    0    0 -0.58986764912E+01 -0.16735924449E+01 -0.24063827308E+01  0.65868030278E+01  0.51100000000E-03 0. -1.
        -11    1    3    3    0    0 -0.93779440598E+01  0.33249929704E+01 -0.90808065307E+01  0.13470800294E+02  0.51100000000E-03 0.  1.
         12    1    3    3    0    0 -0.21871545449E+02  0.64399622019E+01 -0.12671807399E+02  0.26084714226E+02  0.00000000000E+00 0. -1.
</event>
<event>
 7    1  0.1549900E-008  0.4614232E+02  0.7816164E-02  0.1320468E+00
        -11   -1    0    0    0    0  0.00000000000E+00  0.00000000000E+00  0.45593999997E+02  0.45594000000E+02  0.51100000000E-03 0.  1.
         11   -1    0    0    0    0 -0.00000000000E+00 -0.00000000000E+00 -0.45593999997E+02  0.45594000000E+02  0.51100000000E-03 0. -1.
    9900012    2    1    2    0    0 -0.34328391462E+02  0.29159397331E+02 -0.63611796999E+00  0.46142316975E+02  0.99999928321E+01 0.  0.
        -12    1    1    2    0    0  0.34328391462E+02 -0.29159397331E+02  0.63611796999E+00  0.45045683025E+02  0.00000000000E+00 0.  1.
         11    1    3    3    0    0 -0.20549848694E+02  0.16040507403E+02  0.25898062481E+01  0.26197352076E+02  0.51100000000E-03 0. -1.
        -11    1    3    3    0    0 -0.58280826316E+01  0.47082615865E+01 -0.37114608757E+01  0.83611731486E+01  0.51100000000E-03 0.  1.
         12    1    3    3    0    0 -0.79504601361E+01  0.84106283416E+01  0.48553665761E+00  0.11583791751E+02  0.00000000000E+00 0. -1.
</event>
<event>
 7    1  0.1549900E-008  0.4614232E+02  0.7816164E-02  0.1320468E+00
        -11   -1    0    0    0    0  0.00000000000E+00  0.00000000000E+00  0.45593999997E+02  0.45594000000E+02  0.51100000000E-03 0.  1.
         11   -1    0    0    0    0 -0.00000000000E+00 -0.00000000000E+00 -0.45593999997E+02  0.45594000000E+02  0.51100000000E-03 0. -1.
    9900012    2    1    2    0    0 -0.40271396540E+02  0.17254996568E+02 -0.10468678924E+02  0.46142317363E+02  0.99999963664E+01 0.  0.
        -12    1    1    2    0    0  0.40271396540E+02 -0.17254996568E+02  0.10468678924E+02  0.45045682637E+02  0.00000000000E+00 0.  1.
         11    1    3    3    0    0 -0.18051493599E+02  0.53033482581E+01 -0.71985856081E+01  0.20144516845E+02  0.51100000000E-03 0. -1.
        -11    1    3    3    0    0 -0.53760347561E+01  0.35260597447E+01  0.14304407712E+01  0.65864260478E+01  0.51100000000E-03 0.  1.
         12    1    3    3    0    0 -0.16843868185E+02  0.84255885650E+01 -0.47005340867E+01  0.19411374469E+02  0.00000000000E+00 0. -1.
</event>
<event>
 7    1  0.1549900E-008  0.4614232E+02  0.7816164E-02  0.1320468E+00
        -11   -1    0    0    0    0  0.00000000000E+00  0.00000000000E+00  0.45593999997E+02  0.45594000000E+02  0.51100000000E-03 0. -1.
         11   -1    0    0    0    0 -0.00000000000E+00 -0.00000000000E+00 -0.45593999997E+02  0.45594000000E+02  0.51100000000E-03 0.  1.
    9900012    2    1    2    0    0 -0.14748761788E+02  0.25254776708E+02 -0.34260528569E+02  0.46142317202E+02  0.99999949010E+01 0.  0.
        -12    1    1    2    0    0  0.14748761788E+02 -0.25254776708E+02  0.34260528569E+02  0.45045682798E+02  0.00000000000E+00 0.  1.
         11    1    3    3    0    0 -0.14364285287E+01  0.28522875085E+01 -0.30367350361E+01  0.44068844880E+01  0.51100000000E-03 0. -1.
        -11    1    3    3    0    0 -0.32389435220E+01  0.13957376360E+02 -0.18896318182E+02  0.23714340621E+02  0.51100000000E-03 0.  1.
        -12    1    3    3    0    0 -0.10073389738E+02  0.84451128401E+01 -0.12327475352E+02  0.18021092093E+02  0.00000000000E+00 0.  1.
</event>
<event>
 7    1  0.1549900E-008  0.4614232E+02  0.7816164E-02  0.1320468E+00
        -11   -1    0    0    0    0  0.00000000000E+00  0.00000000000E+00  0.45593999997E+02  0.45594000000E+02  0.51100000000E-03 0.  1.
         11   -1    0    0    0    0 -0.00000000000E+00 -0.00000000000E+00 -0.45593999997E+02  0.45594000000E+02  0.51100000000E-03 0. -1.
    9900012    2    1    2    0    0  0.38210165618E+02 -0.22743107770E+02 -0.72005305572E+01  0.46142319320E+02  0.10000014220E+02 0.  0.
        -12    1    1    2    0    0 -0.38210165618E+02  0.22743107770E+02  0.72005305572E+01  0.45045680680E+02  0.00000000000E+00 0.  1.
         11    1    3    3    0    0 -0.37107859685E+00 -0.13460268030E+01  0.23922642695E-01  0.13964454996E+01  0.51100000000E-03 0.  1.
        -11    1    3    3    0    0  0.19902592076E+02 -0.10809754113E+02 -0.27618667510E+01  0.22816482278E+02  0.51100000000E-03 0. -1.
        -12    1    3    3    0    0  0.18678652138E+02 -0.10587326854E+02 -0.44625864488E+01  0.21929391543E+02  0.00000000000E+00 0.  1.
</event>
<event>
 7    1  0.1549900E-008  0.4614232E+02  0.7816164E-02  0.1320468E+00
        -11   -1    0    0    0    0  0.00000000000E+00  0.00000000000E+00  0.45593999997E+02  0.45594000000E+02  0.51100000000E-03 0.  1.
         11   -1    0    0    0    0 -0.00000000000E+00 -0.00000000000E+00 -0.45593999997E+02  0.45594000000E+02  0.51100000000E-03 0. -1.
    9900012    2    1    2    0    0 -0.38072695701E+02  0.24056227481E+02 -0.93878822378E+00  0.46142316945E+02  0.99999925569E+01 0.  0.
        -12    1    1    2    0    0  0.38072695701E+02 -0.24056227481E+02  0.93878822378E+00  0.45045683055E+02  0.00000000000E+00 0.  1.
         11    1    3    3    0    0 -0.22005724457E+02  0.10208868868E+02 -0.30022896383E+01  0.24443540165E+02  0.51100000000E-03 0. -1.
        -11    1    3    3    0    0 -0.16811050064E+01  0.20578837099E+01  0.15828750423E+01  0.30929747924E+01  0.51100000000E-03 0.  1.
        -12    1    3    3    0    0 -0.14385866238E+02  0.11789474903E+02  0.48062637215E+00  0.18605801988E+02  0.00000000000E+00 0.  1.
</event>
<event>
 7    1  0.1549900E-008  0.4614232E+02  0.7816164E-02  0.1320468E+00
        -11   -1    0    0    0    0  0.00000000000E+00  0.00000000000E+00  0.45593999997E+02  0.45594000000E+02  0.51100000000E-03 0. -1.
         11   -1    0    0    0    0 -0.00000000000E+00 -0.00000000000E+00 -0.45593999997E+02  0.45594000000E+02  0.51100000000E-03 0.  1.
    9900012    2    1    2    0    0  0.25795690825E+02  0.33406901425E+02 -0.15737681594E+02  0.46142319299E+02  0.10000014020E+02 0.  0.
        -12    1    1    2    0    0 -0.25795690825E+02 -0.33406901425E+02  0.15737681594E+02  0.45045680701E+02  0.00000000000E+00 0.  1.
         11    1    3    3    0    0  0.62337888524E+01  0.13502845728E+02 -0.42218064086E+01  0.15459968170E+02  0.51100000000E-03 0. -1.
        -11    1    3    3    0    0  0.18135772124E+02  0.15994569400E+02 -0.89004659592E+01  0.25767242293E+02  0.51100000000E-03 0.  1.
        -12    1    3    3    0    0  0.14261298484E+01  0.39094862968E+01 -0.26154092257E+01  0.49151088357E+01  0.00000000000E+00 0.  1.
</event>
<event>
 7    1  0.1549900E-008  0.4614232E+02  0.7816164E-02  0.1320468E+00
        -11   -1    0    0    0    0  0.00000000000E+00  0.00000000000E+00  0.45593999997E+02  0.45594000000E+02  0.51100000000E-03 0.  1.
         11   -1    0    0    0    0 -0.00000000000E+00 -0.00000000000E+00 -0.45593999997E+02  0.45594000000E+02  0.51100000000E-03 0. -1.
    9900012    2    1    2    0    0  0.44278625709E+02  0.72596123999E+01 -0.39767889360E+01  0.46142317442E+02  0.99999970922E+01 0.  0.
        -12    1    1    2    0    0 -0.44278625709E+02 -0.72596123999E+01  0.39767889360E+01  0.45045682558E+02  0.00000000000E+00 0.  1.
         11    1    3    3    0    0  0.16422289385E+02  0.35193904793E+01  0.11452256755E+00  0.16795559343E+02  0.51100000000E-03 0. -1.
        -11    1    3    3    0    0  0.86699387337E+01  0.34056061319E+01  0.13228220090E+01  0.94082861936E+01  0.51100000000E-03 0.  1.
        -12    1    3    3    0    0  0.19186397591E+02  0.33461578864E+00 -0.54141335125E+01  0.19938471905E+02  0.00000000000E+00 0.  1.
</event>
<event>
 7    1  0.1549900E-008  0.4614232E+02  0.7816164E-02  0.1320468E+00
        -11   -1    0    0    0    0  0.00000000000E+00  0.00000000000E+00  0.45593999997E+02  0.45594000000E+02  0.51100000000E-03 0.  1.
         11   -1    0    0    0    0 -0.00000000000E+00 -0.00000000000E+00 -0.45593999997E+02  0.45594000000E+02  0.51100000000E-03 0. -1.
    9900012    2    1    2    0    0 -0.34799437623E+02 -0.24160664970E+02 -0.15309305865E+02  0.46142318334E+02  0.10000005227E+02 0.  0.
        -12    1    1    2    0    0  0.34799437623E+02  0.24160664970E+02  0.15309305865E+02  0.45045681666E+02  0.00000000000E+00 0.  1.
         11    1    3    3    0    0 -0.17533436554E+02 -0.12368437507E+02 -0.75285700277E+01  0.22739371378E+02  0.51100000000E-03 0. -1.
        -11    1    3    3    0    0 -0.26433727980E+01 -0.12373476812E+01 -0.40417210914E+01  0.49853744769E+01  0.51100000000E-03 0.  1.
        -12    1    3    3    0    0 -0.14622628271E+02 -0.10554879782E+02 -0.37390147457E+01  0.18417572480E+02  0.00000000000E+00 0.  1.
</event>
<event>
 7    1  0.1549900E-008  0.4614232E+02  0.7816164E-02  0.1320468E+00
        -11   -1    0    0    0    0  0.00000000000E+00  0.00000000000E+00  0.45593999997E+02  0.45594000000E+02  0.51100000000E-03 0.  1.
         11   -1    0    0    0    0 -0.00000000000E+00 -0.00000000000E+00 -0.45593999997E+02  0.45594000000E+02  0.51100000000E-03 0. -1.
    9900012    2    1    2    0    0 -0.40693009901E+02  0.68300780969E+01 -0.18070482926E+02  0.46142319022E+02  0.10000011494E+02 0.  0.
        -12    1    1    2    0    0  0.40693009901E+02 -0.68300780969E+01  0.18070482926E+02  0.45045680978E+02  0.00000000000E+00 0.  1.
         11    1    3    3    0    0 -0.26083041434E+02  0.33290250546E+00 -0.95949335417E+01  0.27793859474E+02  0.51100000000E-03 0. -1.
        -11    1    3    3    0    0 -0.60360371899E+01  0.43326640368E+01 -0.37885123400E+01  0.83401767743E+01  0.51100000000E-03 0.  1.
         12    1    3    3    0    0 -0.85739312770E+01  0.21645115546E+01 -0.46870370444E+01  0.10008282773E+02  0.00000000000E+00 0. -1.
</event>
<event>
 7    1  0.1549900E-008  0.4614232E+02  0.7816164E-02  0.1320468E+00
        -11   -1    0    0    0    0  0.00000000000E+00  0.00000000000E+00  0.45593999997E+02  0.45594000000E+02  0.51100000000E-03 0. -1.
         11   -1    0    0    0    0 -0.00000000000E+00 -0.00000000000E+00 -0.45593999997E+02  0.45594000000E+02  0.51100000000E-03 0.  1.
    9900012    2    1    2    0    0 -0.62133306815E+00 -0.98123406197E+01  0.43959588510E+02  0.46142317575E+02  0.99999983010E+01 0.  0.
        -12    1    1    2    0    0  0.62133306815E+00  0.98123406197E+01 -0.43959588510E+02  0.45045682425E+02  0.00000000000E+00 0.  1.
         11    1    3    3    0    0 -0.12248464192E+01 -0.31717555574E+01  0.31457915044E+01  0.46320931032E+01  0.51100000000E-03 0. -1.
        -11    1    3    3    0    0  0.11983969378E+01 -0.48661860070E+01  0.20229616576E+02  0.20841144608E+02  0.51100000000E-03 0.  1.
         12    1    3    3    0    0 -0.59488358676E+00 -0.17743990554E+01  0.20584180429E+02  0.20669079864E+02  0.00000000000E+00 0. -1.
</event>
<event>
 7    1  0.1549900E-008  0.4614232E+02  0.7816164E-02  0.1320468E+00
        -11   -1    0    0    0    0  0.00000000000E+00  0.00000000000E+00  0.45593999997E+02  0.45594000000E+02  0.51100000000E-03 0.  1.
         11   -1    0    0    0    0 -0.00000000000E+00 -0.00000000000E+00 -0.45593999997E+02  0.45594000000E+02  0.51100000000E-03 0. -1.
    9900012    2    1    2    0    0 -0.20191144160E+01  0.22314350654E+02 -0.39078209117E+02  0.46142317677E+02  0.99999992359E+01 0.  0.
        -12    1    1    2    0    0  0.20191144160E+01 -0.22314350654E+02  0.39078209117E+02  0.45045682323E+02  0.00000000000E+00 0.  1.
         11    1    3    3    0    0  0.17663578517E+01  0.16430330564E+02 -0.26445820771E+02  0.31184246327E+02  0.51100000000E-03 0. -1.
        -11    1    3    3    0    0 -0.44208618380E+01  0.38996990881E+01 -0.87241664025E+01  0.10529138239E+02  0.51100000000E-03 0.  1.
        -12    1    3    3    0    0  0.63538957036E+00  0.19843210023E+01 -0.39082219432E+01  0.44289331113E+01  0.00000000000E+00 0.  1.
</event>
<event>
 7    1  0.1549900E-008  0.4614232E+02  0.7816164E-02  0.1320468E+00
        -11   -1    0    0    0    0  0.00000000000E+00  0.00000000000E+00  0.45593999997E+02  0.45594000000E+02  0.51100000000E-03 0. -1.
         11   -1    0    0    0    0 -0.00000000000E+00 -0.00000000000E+00 -0.45593999997E+02  0.45594000000E+02  0.51100000000E-03 0.  1.
    9900012    2    1    2    0    0  0.27884056369E+02  0.16199263578E+02  0.31451179002E+02  0.46142318734E+02  0.10000008873E+02 0.  0.
        -12    1    1    2    0    0 -0.27884056369E+02 -0.16199263578E+02 -0.31451179002E+02  0.45045681266E+02  0.00000000000E+00 0.  1.
         11    1    3    3    0    0  0.16319876081E+02  0.95049945880E+01  0.13323069856E+02  0.23112495929E+02  0.51100000000E-03 0. -1.
        -11    1    3    3    0    0  0.85100029827E+01  0.49065983056E+01  0.16338553577E+02  0.19064186081E+02  0.51100000000E-03 0.  1.
        -12    1    3    3    0    0  0.30541773057E+01  0.17876706843E+01  0.17895555697E+01  0.39656367240E+01  0.00000000000E+00 0.  1.
</event>
<event>
 7    1  0.1549900E-008  0.4614232E+02  0.7816164E-02  0.1320468E+00
        -11   -1    0    0    0    0  0.00000000000E+00  0.00000000000E+00  0.45593999997E+02  0.45594000000E+02  0.51100000000E-03 0. -1.
         11   -1    0    0    0    0 -0.00000000000E+00 -0.00000000000E+00 -0.45593999997E+02  0.45594000000E+02  0.51100000000E-03 0.  1.
    9900012    2    1    2    0    0  0.41484091206E+01 -0.30061903435E+01  0.44753402191E+02  0.46142317785E+02  0.10000000214E+02 0.  0.
        -12    1    1    2    0    0 -0.41484091206E+01  0.30061903435E+01 -0.44753402191E+02  0.45045682215E+02  0.00000000000E+00 0.  1.
         11    1    3    3    0    0  0.14221453886E+01  0.18733645070E+01  0.64777937164E+01  0.68915748401E+01  0.51100000000E-03 0. -1.
        -11    1    3    3    0    0 -0.10861030203E+01 -0.47580461698E+01  0.21453158478E+02  0.22001287055E+02  0.51100000000E-03 0.  1.
        -12    1    3    3    0    0  0.38123667524E+01 -0.12150868067E+00  0.16822449997E+02  0.17249455890E+02  0.00000000000E+00 0.  1.
</event>
<event>
 7    1  0.1549900E-008  0.4614232E+02  0.7816164E-02  0.1320468E+00
        -11   -1    0    0    0    0  0.00000000000E+00  0.00000000000E+00  0.45593999997E+02  0.45594000000E+02  0.51100000000E-03 0. -1.
         11   -1    0    0    0    0 -0.00000000000E+00 -0.00000000000E+00 -0.45593999997E+02  0.45594000000E+02  0.51100000000E-03 0.  1.
    9900012    2    1    2    0    0 -0.22376095302E+02 -0.35570948074E+02  0.16221328185E+02  0.46142317899E+02  0.10000001260E+02 0.  0.
        -12    1    1    2    0    0  0.22376095302E+02  0.35570948074E+02 -0.16221328185E+02  0.45045682101E+02  0.00000000000E+00 0.  1.
         11    1    3    3    0    0 -0.89511532607E+01 -0.12897539119E+02  0.83527057398E+01  0.17783063669E+02  0.51100000000E-03 0. -1.
        -11    1    3    3    0    0  0.32234376115E-01 -0.99834117744E+00  0.19167083193E+01  0.21613641998E+01  0.51100000000E-03 0.  1.
         12    1    3    3    0    0 -0.13457176417E+02 -0.21675067778E+02  0.59519141256E+01  0.26197890030E+02  0.00000000000E+00 0. -1.
</event>
<event>
 7    1  0.1549900E-008  0.4614232E+02  0.7816164E-02  0.1320468E+00
        -11   -1    0    0    0    0  0.00000000000E+00  0.00000000000E+00  0.45593999997E+02  0.45594000000E+02  0.51100000000E-03 0.  1.
         11   -1    0    0    0    0 -0.00000000000E+00 -0.00000000000E+00 -0.45593999997E+02  0.45594000000E+02  0.51100000000E-03 0. -1.
    9900012    2    1    2    0    0 -0.16420704926E+02 -0.43364364124E+01 -0.41721328432E+02  0.46142317885E+02  0.10000001132E+02 0.  0.
        -12    1    1    2    0    0  0.16420704926E+02  0.43364364124E+01  0.41721328432E+02  0.45045682115E+02  0.00000000000E+00 0.  1.
         11    1    3    3    0    0 -0.35966226102E+01 -0.26980082755E+01 -0.81310212085E+01  0.92913104032E+01  0.51100000000E-03 0. -1.
        -11    1    3    3    0    0 -0.46409998835E+01 -0.14653207489E+01 -0.44903579365E+01  0.66218848884E+01  0.51100000000E-03 0.  1.
        -12    1    3    3    0    0 -0.81830824321E+01 -0.17310738803E+00 -0.29099949287E+02  0.30229122594E+02  0.00000000000E+00 0.  1.
</event>
<event>
 7    1  0.1549900E-008  0.4614232E+02  0.7816164E-02  0.1320468E+00
        -11   -1    0    0    0    0  0.00000000000E+00  0.00000000000E+00  0.45593999997E+02  0.45594000000E+02  0.51100000000E-03 0.  1.
         11   -1    0    0    0    0 -0.00000000000E+00 -0.00000000000E+00 -0.45593999997E+02  0.45594000000E+02  0.51100000000E-03 0. -1.
    9900012    2    1    2    0    0  0.21979623011E+02 -0.18565720696E+02 -0.34660115882E+02  0.46142318236E+02  0.10000004331E+02 0.  0.
        -12    1    1    2    0    0 -0.21979623011E+02  0.18565720696E+02  0.34660115882E+02  0.45045681764E+02  0.00000000000E+00 0.  1.
         11    1    3    3    0    0  0.11329299038E+01 -0.31944909088E+01 -0.42090863142E+01  0.54041382472E+01  0.51100000000E-03 0. -1.
        -11    1    3    3    0    0  0.65862808899E+01 -0.21354936277E+01 -0.12378496201E+02  0.14183321101E+02  0.51100000000E-03 0.  1.
        -12    1    3    3    0    0  0.14260412217E+02 -0.13235736159E+02 -0.18072533367E+02  0.26554858888E+02  0.00000000000E+00 0.  1.
</event>
<event>
 7    1  0.1549900E-008  0.4614232E+02  0.7816164E-02  0.1320468E+00
        -11   -1    0    0    0    0  0.00000000000E+00  0.00000000000E+00  0.45593999997E+02  0.45594000000E+02  0.51100000000E-03 0. -1.
         11   -1    0    0    0    0 -0.00000000000E+00 -0.00000000000E+00 -0.45593999997E+02  0.45594000000E+02  0.51100000000E-03 0.  1.
    9900012    2    1    2    0    0  0.12965660630E+02  0.11245974655E+02  0.41647727124E+02  0.46142317898E+02  0.10000001245E+02 0.  0.
        -12    1    1    2    0    0 -0.12965660630E+02 -0.11245974655E+02 -0.41647727124E+02  0.45045682102E+02  0.00000000000E+00 0.  1.
         11    1    3    3    0    0  0.53901314599E+01  0.27199070623E+01  0.24455639579E+02  0.25189873343E+02  0.51100000000E-03 0. -1.
        -11    1    3    3    0    0 -0.33240815106E+00  0.99620241469E+00  0.13154629375E+01  0.16832579811E+01  0.51100000000E-03 0.  1.
         12    1    3    3    0    0  0.79079373210E+01  0.75298651781E+01  0.15876624607E+02  0.19269186573E+02  0.00000000000E+00 0. -1.
</event>
<event>
 7    1  0.1549900E-008  0.4614232E+02  0.7816164E-02  0.1320468E+00
        -11   -1    0    0    0    0  0.00000000000E+00  0.00000000000E+00  0.45593999997E+02  0.45594000000E+02  0.51100000000E-03 0.  1.
         11   -1    0    0    0    0 -0.00000000000E+00 -0.00000000000E+00 -0.45593999997E+02  0.45594000000E+02  0.51100000000E-03 0. -1.
    9900012    2    1    2    0    0  0.19637568244E+02  0.32135590403E+02 -0.24714027984E+02  0.46142318339E+02  0.10000005271E+02 0.  0.
        -12    1    1    2    0    0 -0.19637568244E+02 -0.32135590403E+02  0.24714027984E+02  0.45045681661E+02  0.00000000000E+00 0.  1.
         11    1    3    3    0    0  0.63436063975E+01  0.17185443509E+02 -0.11319702127E+02  0.21534076884E+02  0.51100000000E-03 0. -1.
        -11    1    3    3    0    0  0.10014066493E+02  0.95214174956E+01 -0.11531784037E+02  0.17997804371E+02  0.51100000000E-03 0.  1.
        -12    1    3    3    0    0  0.32798953540E+01  0.54287293979E+01 -0.18625418203E+01  0.66104370840E+01  0.00000000000E+00 0.  1.
</event>
<event>
 7    1  0.1549900E-008  0.4614232E+02  0.7816164E-02  0.1320468E+00
        -11   -1    0    0    0    0  0.00000000000E+00  0.00000000000E+00  0.45593999997E+02  0.45594000000E+02  0.51100000000E-03 0.  1.
         11   -1    0    0    0    0 -0.00000000000E+00 -0.00000000000E+00 -0.45593999997E+02  0.45594000000E+02  0.51100000000E-03 0. -1.
    9900012    2    1    2    0    0  0.11327493767E+02 -0.20016802129E+02 -0.38731498449E+02  0.46142318136E+02  0.10000003414E+02 0.  0.
        -12    1    1    2    0    0 -0.11327493767E+02  0.20016802129E+02  0.38731498449E+02  0.45045681864E+02  0.00000000000E+00 0.  1.
         11    1    3    3    0    0  0.58277695381E+01 -0.56229948063E+01 -0.21356106675E+02  0.22839970686E+02  0.51100000000E-03 0.  1.
        -11    1    3    3    0    0  0.54882580177E+01 -0.12998899722E+02 -0.16149800973E+02  0.21445476022E+02  0.51100000000E-03 0. -1.
        -12    1    3    3    0    0  0.11466211655E-01 -0.13949076002E+01 -0.12255908010E+01  0.18568714276E+01  0.00000000000E+00 0.  1.
</event>
<event>
 7    1  0.1549900E-008  0.4614232E+02  0.7816164E-02  0.1320468E+00
        -11   -1    0    0    0    0  0.00000000000E+00  0.00000000000E+00  0.45593999997E+02  0.45594000000E+02  0.51100000000E-03 0.  1.
         11   -1    0    0    0    0 -0.00000000000E+00 -0.00000000000E+00 -0.45593999997E+02  0.45594000000E+02  0.51100000000E-03 0. -1.
    9900012    2    1    2    0    0  0.23956482385E+02 -0.36959614226E+02 -0.94439053817E+01  0.46142317845E+02  0.10000000762E+02 0.  0.
        -12    1    1    2    0    0 -0.23956482385E+02  0.36959614226E+02  0.94439053817E+01  0.45045682155E+02  0.00000000000E+00 0.  1.
         11    1    3    3    0    0  0.12826170598E+02 -0.24310480424E+02 -0.55485139177E+01  0.28040972123E+02  0.51100000000E-03 0. -1.
        -11    1    3    3    0    0  0.97446665969E+01 -0.88241675124E+01 -0.11564402213E+01  0.13197038062E+02  0.51100000000E-03 0.  1.
         12    1    3    3    0    0  0.13856451904E+01 -0.38249662896E+01 -0.27389512427E+01  0.49043076596E+01  0.00000000000E+00 0. -1.
</event>
<event>
 7    1  0.1549900E-008  0.4614232E+02  0.7816164E-02  0.1320468E+00
        -11   -1    0    0    0    0  0.00000000000E+00  0.00000000000E+00  0.45593999997E+02  0.45594000000E+02  0.51100000000E-03 0. -1.
         11   -1    0    0    0    0 -0.00000000000E+00 -0.00000000000E+00 -0.45593999997E+02  0.45594000000E+02  0.51100000000E-03 0.  1.
    9900012    2    1    2    0    0  0.29733962669E+02 -0.33814238292E+02  0.12658030969E+01  0.46142317579E+02  0.99999983426E+01 0.  0.
        -12    1    1    2    0    0 -0.29733962669E+02  0.33814238292E+02 -0.12658030969E+01  0.45045682421E+02  0.00000000000E+00 0.  1.
         11    1    3    3    0    0  0.24370340083E+02 -0.29758051908E+02  0.39241696463E+01  0.38663344874E+02  0.51100000000E-03 0. -1.
        -11    1    3    3    0    0  0.24546808668E+01 -0.29244296168E+01 -0.10114248508E+01  0.39497755925E+01  0.51100000000E-03 0.  1.
         12    1    3    3    0    0  0.29089417192E+01 -0.11317567666E+01 -0.16469416986E+01  0.35291971131E+01  0.00000000000E+00 0. -1.
</event>
<event>
 7    1  0.1549900E-008  0.4614232E+02  0.7816164E-02  0.1320468E+00
        -11   -1    0    0    0    0  0.00000000000E+00  0.00000000000E+00  0.45593999997E+02  0.45594000000E+02  0.51100000000E-03 0.  1.
         11   -1    0    0    0    0 -0.00000000000E+00 -0.00000000000E+00 -0.45593999997E+02  0.45594000000E+02  0.51100000000E-03 0. -1.
    9900012    2    1    2    0    0  0.17862519268E+02 -0.20330840070E+02 -0.36009732246E+02  0.46142317976E+02  0.10000001963E+02 0.  0.
        -12    1    1    2    0    0 -0.17862519268E+02  0.20330840070E+02  0.36009732246E+02  0.45045682024E+02  0.00000000000E+00 0.  1.
         11    1    3    3    0    0  0.76377266411E+01 -0.74072563047E+01 -0.92679034565E+01  0.14110150564E+02  0.51100000000E-03 0.  1.
        -11    1    3    3    0    0  0.49471017090E+01 -0.84624599868E+01 -0.20486907548E+02  0.22711240069E+02  0.51100000000E-03 0. -1.
         12    1    3    3    0    0  0.52776909181E+01 -0.44611237783E+01 -0.62549212417E+01  0.93209273430E+01  0.00000000000E+00 0. -1.
</event>
<event>
 7    1  0.1549900E-008  0.4614232E+02  0.7816164E-02  0.1320468E+00
        -11   -1    0    0    0    0  0.00000000000E+00  0.00000000000E+00  0.45593999997E+02  0.45594000000E+02  0.51100000000E-03 0.  1.
         11   -1    0    0    0    0 -0.00000000000E+00 -0.00000000000E+00 -0.45593999997E+02  0.45594000000E+02  0.51100000000E-03 0. -1.
    9900012    2    1    2    0    0  0.29089143297E+02 -0.13757793695E+02 -0.31522347248E+02  0.46142317398E+02  0.99999966855E+01 0.  0.
        -12    1    1    2    0    0 -0.29089143297E+02  0.13757793695E+02  0.31522347248E+02  0.45045682602E+02  0.00000000000E+00 0.  1.
         11    1    3    3    0    0  0.11736662408E+02 -0.91730805243E+01 -0.12610548932E+02  0.19517187180E+02  0.51100000000E-03 0. -1.
        -11    1    3    3    0    0  0.75047816823E+01 -0.12054979015E+01 -0.11728605711E+02  0.13976235740E+02  0.51100000000E-03 0.  1.
        -12    1    3    3    0    0  0.98476992069E+01 -0.33792152693E+01 -0.71831926049E+01  0.12648894478E+02  0.00000000000E+00 0.  1.
</event>
<event>
 7    1  0.1549900E-008  0.4614232E+02  0.7816164E-02  0.1320468E+00
        -11   -1    0    0    0    0  0.00000000000E+00  0.00000000000E+00  0.45593999997E+02  0.45594000000E+02  0.51100000000E-03 0. -1.
         11   -1    0    0    0    0 -0.00000000000E+00 -0.00000000000E+00 -0.45593999997E+02  0.45594000000E+02  0.51100000000E-03 0.  1.
    9900012    2    1    2    0    0  0.16188798639E+01 -0.39728680329E+02  0.21168957525E+02  0.46142316795E+02  0.99999911939E+01 0.  0.
        -12    1    1    2    0    0 -0.16188798639E+01  0.39728680329E+02 -0.21168957525E+02  0.45045683205E+02  0.00000000000E+00 0.  1.
         11    1    3    3    0    0  0.34243313418E+00 -0.13288152626E+02  0.94471555810E+01  0.16307697860E+02  0.51100000000E-03 0. -1.
        -11    1    3    3    0    0  0.19210792004E+01 -0.15801690015E+01  0.43814376969E+00  0.25257572313E+01  0.51100000000E-03 0.  1.
        -12    1    3    3    0    0 -0.64463247067E+00 -0.24860358701E+02  0.11283658175E+02  0.27308861704E+02  0.00000000000E+00 0.  1.
</event>
<event>
 7    1  0.1549900E-008  0.4614232E+02  0.7816164E-02  0.1320468E+00
        -11   -1    0    0    0    0  0.00000000000E+00  0.00000000000E+00  0.45593999997E+02  0.45594000000E+02  0.51100000000E-03 0.  1.
         11   -1    0    0    0    0 -0.00000000000E+00 -0.00000000000E+00 -0.45593999997E+02  0.45594000000E+02  0.51100000000E-03 0. -1.
    9900012    2    1    2    0    0 -0.21485206105E+02  0.14452894705E+02 -0.36859370717E+02  0.46142318116E+02  0.10000003234E+02 0.  0.
        -12    1    1    2    0    0  0.21485206105E+02 -0.14452894705E+02  0.36859370717E+02  0.45045681884E+02  0.00000000000E+00 0.  1.
         11    1    3    3    0    0 -0.10656411309E+02  0.58159855196E+01 -0.16703480569E+02  0.20649238555E+02  0.51100000000E-03 0. -1.
        -11    1    3    3    0    0 -0.89757135312E+01  0.32496851765E+01 -0.15163993423E+02  0.17918442565E+02  0.51100000000E-03 0.  1.
        -12    1    3    3    0    0 -0.18530812647E+01  0.53872240093E+01 -0.49918967256E+01  0.75746369959E+01  0.00000000000E+00 0.  1.
</event>
<event>
 7    1  0.1549900E-008  0.4614232E+02  0.7816164E-02  0.1320468E+00
        -11   -1    0    0    0    0  0.00000000000E+00  0.00000000000E+00  0.45593999997E+02  0.45594000000E+02  0.51100000000E-03 0. -1.
         11   -1    0    0    0    0 -0.00000000000E+00 -0.00000000000E+00 -0.45593999997E+02  0.45594000000E+02  0.51100000000E-03 0.  1.
    9900012    2    1    2    0    0 -0.26101788869E+02  0.27864096833E+02  0.23904021540E+02  0.46142317407E+02  0.99999967754E+01 0.  0.
        -12    1    1    2    0    0  0.26101788869E+02 -0.27864096833E+02 -0.23904021540E+02  0.45045682593E+02  0.00000000000E+00 0.  1.
         11    1    3    3    0    0 -0.59883442628E+01  0.29379320659E+01  0.52619595904E+01  0.84958772840E+01  0.51100000000E-03 0. -1.
        -11    1    3    3    0    0 -0.99210689180E+01  0.16236159384E+02  0.84688129450E+01  0.20826936236E+02  0.51100000000E-03 0.  1.
         12    1    3    3    0    0 -0.10192375688E+02  0.86900053829E+01  0.10173249004E+02  0.16819503888E+02  0.00000000000E+00 0. -1.
</event>
<event>
 7    1  0.1549900E-008  0.4614232E+02  0.7816164E-02  0.1320468E+00
        -11   -1    0    0    0    0  0.00000000000E+00  0.00000000000E+00  0.45593999997E+02  0.45594000000E+02  0.51100000000E-03 0.  1.
         11   -1    0    0    0    0 -0.00000000000E+00 -0.00000000000E+00 -0.45593999997E+02  0.45594000000E+02  0.51100000000E-03 0. -1.
    9900012    2    1    2    0    0 -0.38151907566E+02 -0.17473474570E+02 -0.16377519801E+02  0.46142317418E+02  0.99999968735E+01 0.  0.
        -12    1    1    2    0    0  0.38151907566E+02  0.17473474570E+02  0.16377519801E+02  0.45045682582E+02  0.00000000000E+00 0.  1.
         11    1    3    3    0    0 -0.16685113981E+02 -0.43858400482E+01 -0.36089047239E+01  0.17625345814E+02  0.51100000000E-03 0. -1.
        -11    1    3    3    0    0 -0.25882542684E+01 -0.31111404206E+01 -0.29906406543E+01  0.50321155252E+01  0.51100000000E-03 0.  1.
         12    1    3    3    0    0 -0.18878539317E+02 -0.99764941009E+01 -0.97779744223E+01  0.23484856080E+02  0.00000000000E+00 0. -1.
</event>
<event>
 7    1  0.1549900E-008  0.4614232E+02  0.7816164E-02  0.1320468E+00
        -11   -1    0    0    0    0  0.00000000000E+00  0.00000000000E+00  0.45593999997E+02  0.45594000000E+02  0.51100000000E-03 0.  1.
         11   -1    0    0    0    0 -0.00000000000E+00 -0.00000000000E+00 -0.45593999997E+02  0.45594000000E+02  0.51100000000E-03 0. -1.
    9900012    2    1    2    0    0 -0.28983423622E+02 -0.34192011421E+02  0.44700200755E+01  0.46142316862E+02  0.99999918015E+01 0.  0.
        -12    1    1    2    0    0  0.28983423622E+02  0.34192011421E+02 -0.44700200755E+01  0.45045683138E+02  0.00000000000E+00 0.  1.
         11    1    3    3    0    0 -0.12823601365E+02 -0.19392304697E+02  0.84155413003E+00  0.23264016142E+02  0.51100000000E-03 0. -1.
        -11    1    3    3    0    0 -0.13326636900E+02 -0.94732790408E+01  0.12672677844E+01  0.16399641299E+02  0.51100000000E-03 0.  1.
        -12    1    3    3    0    0 -0.28331853570E+01 -0.53264276833E+01  0.23611981611E+01  0.64786594206E+01  0.00000000000E+00 0.  1.
</event>
<event>
 7    1  0.1549900E-008  0.4614232E+02  0.7816164E-02  0.1320468E+00
        -11   -1    0    0    0    0  0.00000000000E+00  0.00000000000E+00  0.45593999997E+02  0.45594000000E+02  0.51100000000E-03 0.  1.
         11   -1    0    0    0    0 -0.00000000000E+00 -0.00000000000E+00 -0.45593999997E+02  0.45594000000E+02  0.51100000000E-03 0. -1.
    9900012    2    1    2    0    0  0.15990940350E+01 -0.36565997660E+02 -0.26258031368E+02  0.46142317655E+02  0.99999990336E+01 0.  0.
        -12    1    1    2    0    0 -0.15990940350E+01  0.36565997660E+02  0.26258031368E+02  0.45045682345E+02  0.00000000000E+00 0.  1.
         11    1    3    3    0    0  0.45556984797E+01 -0.12231660097E+02 -0.90075494264E+01  0.15858872731E+02  0.51100000000E-03 0. -1.
        -11    1    3    3    0    0 -0.14741543701E+01 -0.22181672803E+02 -0.14847017451E+02  0.26732632996E+02  0.51100000000E-03 0.  1.
         12    1    3    3    0    0 -0.14824500747E+01 -0.21526647598E+01 -0.24034644904E+01  0.35508119281E+01  0.00000000000E+00 0. -1.
</event>
<event>
 7    1  0.1549900E-008  0.4614232E+02  0.7816164E-02  0.1320468E+00
        -11   -1    0    0    0    0  0.00000000000E+00  0.00000000000E+00  0.45593999997E+02  0.45594000000E+02  0.51100000000E-03 0.  1.
         11   -1    0    0    0    0 -0.00000000000E+00 -0.00000000000E+00 -0.45593999997E+02  0.45594000000E+02  0.51100000000E-03 0. -1.
    9900012    2    1    2    0    0 -0.55379670400E+01 -0.30185013209E+02 -0.32974374835E+02  0.46142317664E+02  0.99999991124E+01 0.  0.
        -12    1    1    2    0    0  0.55379670400E+01  0.30185013209E+02  0.32974374835E+02  0.45045682336E+02  0.00000000000E+00 0.  1.
         11    1    3    3    0    0 -0.47481430890E+01 -0.22056066857E+02 -0.29227764717E+02  0.36922583585E+02  0.51100000000E-03 0. -1.
        -11    1    3    3    0    0 -0.13633814121E+01 -0.42644658387E+01 -0.24485157802E+01  0.51029116738E+01  0.51100000000E-03 0.  1.
         12    1    3    3    0    0  0.57355746108E+00 -0.38644805140E+01 -0.12980943378E+01  0.41168224050E+01  0.00000000000E+00 0. -1.
</event>
<event>
 7    1  0.1549900E-008  0.4614232E+02  0.7816164E-02  0.1320468E+00
        -11   -1    0    0    0    0  0.00000000000E+00  0.00000000000E+00  0.45593999997E+02  0.45594000000E+02  0.51100000000E-03 0.  1.
         11   -1    0    0    0    0 -0.00000000000E+00 -0.00000000000E+00 -0.45593999997E+02  0.45594000000E+02  0.51100000000E-03 0. -1.
    9900012    2    1    2    0    0  0.57575542445E+01 -0.23191410785E+02 -0.38185370369E+02  0.46142317906E+02  0.10000001322E+02 0.  0.
        -12    1    1    2    0    0 -0.57575542445E+01  0.23191410785E+02  0.38185370369E+02  0.45045682094E+02  0.00000000000E+00 0.  1.
         11    1    3    3    0    0 -0.10603253809E+01 -0.11731317445E+02 -0.21534524210E+02  0.24545546075E+02  0.51100000000E-03 0. -1.
        -11    1    3    3    0    0  0.38123994429E+01 -0.53680298479E+01 -0.56926262279E+01  0.87037996066E+01  0.51100000000E-03 0.  1.
         12    1    3    3    0    0  0.30054801825E+01 -0.60920634922E+01 -0.10958219931E+02  0.12892972225E+02  0.00000000000E+00 0. -1.
</event>
<event>
 7    1  0.1549900E-008  0.4614232E+02  0.7816164E-02  0.1320468E+00
        -11   -1    0    0    0    0  0.00000000000E+00  0.00000000000E+00  0.45593999997E+02  0.45594000000E+02  0.51100000000E-03 0.  1.
         11   -1    0    0    0    0 -0.00000000000E+00 -0.00000000000E+00 -0.45593999997E+02  0.45594000000E+02  0.51100000000E-03 0. -1.
    9900012    2    1    2    0    0 -0.34303352959E+01 -0.25381099207E+01 -0.44843102357E+02  0.46142322835E+02  0.10000046271E+02 0.  0.
        -12    1    1    2    0    0  0.34303352959E+01  0.25381099207E+01  0.44843102357E+02  0.45045677165E+02  0.00000000000E+00 0.  1.
         11    1    3    3    0    0 -0.48684751621E+01 -0.36445161001E+00 -0.28867026297E+02  0.29276954809E+02  0.51100000000E-03 0. -1.
        -11    1    3    3    0    0 -0.72282741804E+00 -0.28577510346E+01 -0.67617816260E+01  0.73763752258E+01  0.51100000000E-03 0.  1.
         12    1    3    3    0    0  0.21609672843E+01  0.68409272394E+00 -0.92142944337E+01  0.94889928006E+01  0.00000000000E+00 0. -1.
</event>
<event>
 7    1  0.1549900E-008  0.4614232E+02  0.7816164E-02  0.1320468E+00
        -11   -1    0    0    0    0  0.00000000000E+00  0.00000000000E+00  0.45593999997E+02  0.45594000000E+02  0.51100000000E-03 0.  1.
         11   -1    0    0    0    0 -0.00000000000E+00 -0.00000000000E+00 -0.45593999997E+02  0.45594000000E+02  0.51100000000E-03 0. -1.
    9900012    2    1    2    0    0 -0.38640470247E+02 -0.22997432104E+02 -0.26731105277E+01  0.46142319361E+02  0.10000014593E+02 0.  0.
        -12    1    1    2    0    0  0.38640470247E+02  0.22997432104E+02  0.26731105277E+01  0.45045680639E+02  0.00000000000E+00 0.  1.
         11    1    3    3    0    0 -0.18353590821E+02 -0.10110767694E+02 -0.21388954862E+01  0.21063162003E+02  0.51100000000E-03 0. -1.
        -11    1    3    3    0    0 -0.15203878088E+02 -0.94152521895E+01 -0.35385306984E+01  0.18229813012E+02  0.51100000000E-03 0.  1.
         12    1    3    3    0    0 -0.50830013383E+01 -0.34714122206E+01  0.30043156569E+01  0.68493443465E+01  0.00000000000E+00 0. -1.
</event>
<event>
 7    1  0.1549900E-008  0.4614232E+02  0.7816164E-02  0.1320468E+00
        -11   -1    0    0    0    0  0.00000000000E+00  0.00000000000E+00  0.45593999997E+02  0.45594000000E+02  0.51100000000E-03 0. -1.
         11   -1    0    0    0    0 -0.00000000000E+00 -0.00000000000E+00 -0.45593999997E+02  0.45594000000E+02  0.51100000000E-03 0.  1.
    9900012    2    1    2    0    0  0.46727043492E+01  0.40245816941E+02  0.19686379848E+02  0.46142317646E+02  0.99999989531E+01 0.  0.
        -12    1    1    2    0    0 -0.46727043492E+01 -0.40245816941E+02 -0.19686379848E+02  0.45045682354E+02  0.00000000000E+00 0.  1.
         11    1    3    3    0    0  0.41412078186E+01  0.18394674621E+02  0.13692145326E+02  0.23302113648E+02  0.51100000000E-03 0. -1.
        -11    1    3    3    0    0  0.70596179216E+00  0.14637445314E+02  0.26708858803E+01  0.14895865837E+02  0.51100000000E-03 0.  1.
         12    1    3    3    0    0 -0.17446526155E+00  0.72136970065E+01  0.33233486416E+01  0.79443381614E+01  0.00000000000E+00 0. -1.
</event>
<event>
 7    1  0.1549900E-008  0.4614232E+02  0.7816164E-02  0.1320468E+00
        -11   -1    0    0    0    0  0.00000000000E+00  0.00000000000E+00  0.45593999997E+02  0.45594000000E+02  0.51100000000E-03 0.  1.
         11   -1    0    0    0    0 -0.00000000000E+00 -0.00000000000E+00 -0.45593999997E+02  0.45594000000E+02  0.51100000000E-03 0. -1.
    9900012    2    1    2    0    0  0.30496557947E+02 -0.12606610639E+02  0.30661812687E+02  0.46142318346E+02  0.10000005333E+02 0.  0.
        -12    1    1    2    0    0 -0.30496557947E+02  0.12606610639E+02 -0.30661812687E+02  0.45045681654E+02  0.00000000000E+00 0.  1.
         11    1    3    3    0    0  0.48575022963E+01 -0.62437963141E+01  0.62833900744E+01  0.10102539882E+02  0.51100000000E-03 0.  1.
        -11    1    3    3    0    0  0.17900283246E+02 -0.32740068677E+01  0.16176463223E+02  0.24347838177E+02  0.51100000000E-03 0. -1.
        -12    1    3    3    0    0  0.77387724054E+01 -0.30888074571E+01  0.82019593897E+01  0.11691940287E+02  0.00000000000E+00 0.  1.
</event>
<event>
 7    1  0.1815269E-008  0.4614232E+02  0.7816164E-02  0.1320468E+00
        -11   -1    0    0    0    0  0.00000000000E+00  0.00000000000E+00  0.45593999997E+02  0.45594000000E+02  0.51100000000E-03 0. -1.
         11   -1    0    0    0    0 -0.00000000000E+00 -0.00000000000E+00 -0.45593999997E+02  0.45594000000E+02  0.51100000000E-03 0.  1.
    9900012    2    1    2    0    0 -0.41218868643E+02  0.11651071666E+02  0.13941695754E+02  0.46142317813E+02  0.10000000474E+02 0.  0.
        -12    1    1    2    0    0  0.41218868643E+02 -0.11651071666E+02 -0.13941695754E+02  0.45045682187E+02  0.00000000000E+00 0.  1.
         11    1    3    3    0    0 -0.98912612355E+01  0.46643888546E+01  0.66236426782E+01  0.12785390679E+02  0.51100000000E-03 0. -1.
        -11    1    3    3    0    0 -0.11665702205E+01  0.30505646761E+00 -0.76079851797E+00  0.14257489870E+01  0.51100000000E-03 0.  1.
         12    1    3    3    0    0 -0.30161037187E+02  0.66816263434E+01  0.80788515933E+01  0.31931178147E+02  0.00000000000E+00 0. -1.
</event>
<event>
 7    1  0.1549900E-008  0.4614232E+02  0.7816164E-02  0.1320468E+00
        -11   -1    0    0    0    0  0.00000000000E+00  0.00000000000E+00  0.45593999997E+02  0.45594000000E+02  0.51100000000E-03 0.  1.
         11   -1    0    0    0    0 -0.00000000000E+00 -0.00000000000E+00 -0.45593999997E+02  0.45594000000E+02  0.51100000000E-03 0. -1.
    9900012    2    1    2    0    0  0.22868754190E+02 -0.11117171018E+02 -0.37182551058E+02  0.46142317490E+02  0.99999975237E+01 0.  0.
        -12    1    1    2    0    0 -0.22868754190E+02  0.11117171018E+02  0.37182551058E+02  0.45045682510E+02  0.00000000000E+00 0.  1.
         11    1    3    3    0    0  0.10919639349E+02 -0.49179246828E+01 -0.21218343867E+02  0.24364782442E+02  0.51100000000E-03 0. -1.
        -11    1    3    3    0    0  0.11347519474E+02 -0.38472201039E+01 -0.14917616392E+02  0.19133807248E+02  0.51100000000E-03 0.  1.
        -12    1    3    3    0    0  0.60159536619E+00 -0.23520262310E+01 -0.10465907992E+01  0.26437277993E+01  0.00000000000E+00 0.  1.
</event>
<event>
 7    1  0.1549900E-008  0.4614232E+02  0.7816164E-02  0.1320468E+00
        -11   -1    0    0    0    0  0.00000000000E+00  0.00000000000E+00  0.45593999997E+02  0.45594000000E+02  0.51100000000E-03 0. -1.
         11   -1    0    0    0    0 -0.00000000000E+00 -0.00000000000E+00 -0.45593999997E+02  0.45594000000E+02  0.51100000000E-03 0.  1.
    9900012    2    1    2    0    0 -0.30169184498E+02 -0.14777011337E+02  0.30009558952E+02  0.46142318899E+02  0.10000010378E+02 0.  0.
        -12    1    1    2    0    0  0.30169184498E+02  0.14777011337E+02 -0.30009558952E+02  0.45045681101E+02  0.00000000000E+00 0.  1.
         11    1    3    3    0    0 -0.12722489546E+02 -0.70262990437E+01  0.80813064673E+01  0.16629435739E+02  0.51100000000E-03 0. -1.
        -11    1    3    3    0    0 -0.17188681682E+01 -0.27481091062E+01  0.38931772904E+01  0.50659097026E+01  0.51100000000E-03 0.  1.
         12    1    3    3    0    0 -0.15727826784E+02 -0.50026031867E+01  0.18035075194E+02  0.24446973458E+02  0.00000000000E+00 0. -1.
</event>
<event>
 7    1  0.1549900E-008  0.4614232E+02  0.7816164E-02  0.1320468E+00
        -11   -1    0    0    0    0  0.00000000000E+00  0.00000000000E+00  0.45593999997E+02  0.45594000000E+02  0.51100000000E-03 0.  1.
         11   -1    0    0    0    0 -0.00000000000E+00 -0.00000000000E+00 -0.45593999997E+02  0.45594000000E+02  0.51100000000E-03 0. -1.
    9900012    2    1    2    0    0 -0.24522787566E+02  0.46738877619E+01 -0.37495349653E+02  0.46142316717E+02  0.99999904794E+01 0.  0.
        -12    1    1    2    0    0  0.24522787566E+02 -0.46738877619E+01  0.37495349653E+02  0.45045683283E+02  0.00000000000E+00 0.  1.
         11    1    3    3    0    0 -0.16738863817E+02  0.31699523475E+01 -0.22139059771E+02  0.27935213040E+02  0.51100000000E-03 0. -1.
        -11    1    3    3    0    0 -0.76447298028E+01 -0.37767882535E+00 -0.13715620826E+02  0.15706775288E+02  0.51100000000E-03 0.  1.
        -12    1    3    3    0    0 -0.13919394630E+00  0.18816142397E+01 -0.16406690561E+01  0.25003283891E+01  0.00000000000E+00 0.  1.
</event>
<event>
 7    1  0.1549900E-008  0.4614232E+02  0.7816164E-02  0.1320468E+00
        -11   -1    0    0    0    0  0.00000000000E+00  0.00000000000E+00  0.45593999997E+02  0.45594000000E+02  0.51100000000E-03 0. -1.
         11   -1    0    0    0    0 -0.00000000000E+00 -0.00000000000E+00 -0.45593999997E+02  0.45594000000E+02  0.51100000000E-03 0.  1.
    9900012    2    1    2    0    0 -0.31783819569E+02  0.18756801712E+02  0.25827981873E+02  0.46142318248E+02  0.10000004442E+02 0.  0.
        -12    1    1    2    0    0  0.31783819569E+02 -0.18756801712E+02 -0.25827981873E+02  0.45045681752E+02  0.00000000000E+00 0.  1.
         11    1    3    3    0    0 -0.18058535927E+02  0.12556319124E+02  0.19431820217E+02  0.29349063136E+02  0.51100000000E-03 0. -1.
        -11    1    3    3    0    0 -0.12792536904E+02  0.63183710195E+01  0.50171334788E+01  0.15124233580E+02  0.51100000000E-03 0.  1.
         12    1    3    3    0    0 -0.93274673804E+00 -0.11788843234E+00  0.13790281769E+01  0.16690215315E+01  0.00000000000E+00 0. -1.
</event>
<event>
 7    1  0.1549900E-008  0.4614232E+02  0.7816164E-02  0.1320468E+00
        -11   -1    0    0    0    0  0.00000000000E+00  0.00000000000E+00  0.45593999997E+02  0.45594000000E+02  0.51100000000E-03 0. -1.
         11   -1    0    0    0    0 -0.00000000000E+00 -0.00000000000E+00 -0.45593999997E+02  0.45594000000E+02  0.51100000000E-03 0.  1.
    9900012    2    1    2    0    0  0.11323474356E+02  0.10929472947E+02  0.42207093854E+02  0.46142320718E+02  0.10000026961E+02 0.  0.
        -12    1    1    2    0    0 -0.11323474356E+02 -0.10929472947E+02 -0.42207093854E+02  0.45045679282E+02  0.00000000000E+00 0.  1.
         11    1    3    3    0    0 -0.10072965332E+01  0.34421185015E+01  0.79564376397E+01  0.87274123462E+01  0.51100000000E-03 0. -1.
        -11    1    3    3    0    0  0.12193150945E+02  0.79601582233E+01  0.33289992580E+02  0.36335391221E+02  0.51100000000E-03 0.  1.
        -12    1    3    3    0    0  0.13761994370E+00 -0.47280377741E+00  0.96066363436E+00  0.10795171510E+01  0.00000000000E+00 0.  1.
</event>
<event>
 7    1  0.1549900E-008  0.4614232E+02  0.7816164E-02  0.1320468E+00
        -11   -1    0    0    0    0  0.00000000000E+00  0.00000000000E+00  0.45593999997E+02  0.45594000000E+02  0.51100000000E-03 0.  1.
         11   -1    0    0    0    0 -0.00000000000E+00 -0.00000000000E+00 -0.45593999997E+02  0.45594000000E+02  0.51100000000E-03 0. -1.
    9900012    2    1    2    0    0 -0.20548278630E+02 -0.34887714734E+02 -0.19741555521E+02  0.46142318649E+02  0.10000008093E+02 0.  0.
        -12    1    1    2    0    0  0.20548278630E+02  0.34887714734E+02  0.19741555521E+02  0.45045681351E+02  0.00000000000E+00 0.  1.
         11    1    3    3    0    0 -0.16342519542E+02 -0.21549768055E+02 -0.14628885847E+02  0.30748573131E+02  0.51100000000E-03 0. -1.
        -11    1    3    3    0    0  0.23488648772E+00  0.17444463628E+00 -0.15517166334E+00  0.33118136944E+00  0.51100000000E-03 0.  1.
         12    1    3    3    0    0 -0.44406455755E+01 -0.13512391315E+02 -0.49574980102E+01  0.15062564148E+02  0.00000000000E+00 0. -1.
</event>
<event>
 7    1  0.1549900E-008  0.4614232E+02  0.7816164E-02  0.1320468E+00
        -11   -1    0    0    0    0  0.00000000000E+00  0.00000000000E+00  0.45593999997E+02  0.45594000000E+02  0.51100000000E-03 0.  1.
         11   -1    0    0    0    0 -0.00000000000E+00 -0.00000000000E+00 -0.45593999997E+02  0.45594000000E+02  0.51100000000E-03 0. -1.
    9900012    2    1    2    0    0  0.27213260992E+02 -0.21320504473E+02 -0.28878852088E+02  0.46142316714E+02  0.99999904552E+01 0.  0.
        -12    1    1    2    0    0 -0.27213260992E+02  0.21320504473E+02  0.28878852088E+02  0.45045683286E+02  0.00000000000E+00 0.  1.
         11    1    3    3    0    0  0.11739491650E+02 -0.13509451480E+02 -0.10497346603E+02  0.20748860920E+02  0.51100000000E-03 0. -1.
        -11    1    3    3    0    0  0.69217113877E+01 -0.39496747381E+01 -0.10200370584E+02  0.12944403400E+02  0.51100000000E-03 0.  1.
         12    1    3    3    0    0  0.85520579535E+01 -0.38613782547E+01 -0.81811349006E+01  0.12449052395E+02  0.00000000000E+00 0. -1.
</event>
<event>
 7    1  0.1549900E-008  0.4614231E+02  0.7816164E-02  0.1320468E+00
        -11   -1    0    0    0    0  0.00000000000E+00  0.00000000000E+00  0.45593999997E+02  0.45594000000E+02  0.51100000000E-03 0.  1.
         11   -1    0    0    0    0 -0.00000000000E+00 -0.00000000000E+00 -0.45593999997E+02  0.45594000000E+02  0.51100000000E-03 0. -1.
    9900012    2    1    2    0    0 -0.19981672148E+02 -0.40367773237E+02 -0.53821717527E+00  0.46142311908E+02  0.99999466284E+01 0.  0.
        -12    1    1    2    0    0  0.19981672148E+02  0.40367773237E+02  0.53821717527E+00  0.45045688092E+02  0.00000000000E+00 0.  1.
         11    1    3    3    0    0 -0.30294428309E+01 -0.56472858751E+01  0.27984824675E+01  0.69929154151E+01  0.51100000000E-03 0. -1.
        -11    1    3    3    0    0 -0.25411656211E+01 -0.47073506762E+01 -0.23453110713E+01  0.58409894183E+01  0.51100000000E-03 0.  1.
         12    1    3    3    0    0 -0.14411063696E+02 -0.30013136686E+02 -0.99138857143E+00  0.33308407075E+02  0.00000000000E+00 0. -1.
</event>
<event>
 7    1  0.1549900E-008  0.4614232E+02  0.7816164E-02  0.1320468E+00
        -11   -1    0    0    0    0  0.00000000000E+00  0.00000000000E+00  0.45593999997E+02  0.45594000000E+02  0.51100000000E-03 0. -1.
         11   -1    0    0    0    0 -0.00000000000E+00 -0.00000000000E+00 -0.45593999997E+02  0.45594000000E+02  0.51100000000E-03 0.  1.
    9900012    2    1    2    0    0  0.44110631947E+01  0.31601440254E+01  0.44717663765E+02  0.46142318283E+02  0.10000004761E+02 0.  0.
        -12    1    1    2    0    0 -0.44110631947E+01 -0.31601440254E+01 -0.44717663765E+02  0.45045681717E+02  0.00000000000E+00 0.  1.
         11    1    3    3    0    0 -0.13586397134E+01 -0.67469616646E+00  0.17435100161E+02  0.17500966678E+02  0.51100000000E-03 0. -1.
        -11    1    3    3    0    0  0.24512262485E+01  0.45239495800E+01  0.19187260176E+02  0.19865185205E+02  0.51100000000E-03 0.  1.
        -12    1    3    3    0    0  0.33184766596E+01 -0.68910938812E+00  0.80953034277E+01  0.87761663997E+01  0.00000000000E+00 0.  1.
</event>
<event>
 7    1  0.1549900E-008  0.4614232E+02  0.7816164E-02  0.1320468E+00
        -11   -1    0    0    0    0  0.00000000000E+00  0.00000000000E+00  0.45593999997E+02  0.45594000000E+02  0.51100000000E-03 0.  1.
         11   -1    0    0    0    0 -0.00000000000E+00 -0.00000000000E+00 -0.45593999997E+02  0.45594000000E+02  0.51100000000E-03 0. -1.
    9900012    2    1    2    0    0 -0.14698511856E+02 -0.13287827690E+01 -0.42559388672E+02  0.46142317870E+02  0.10000000990E+02 0.  0.
        -12    1    1    2    0    0  0.14698511856E+02  0.13287827690E+01  0.42559388672E+02  0.45045682130E+02  0.00000000000E+00 0.  1.
         11    1    3    3    0    0 -0.14595314361E+02 -0.87911644395E+00 -0.40725920082E+02  0.43271198433E+02  0.51100000000E-03 0. -1.
        -11    1    3    3    0    0 -0.33397073692E+00  0.62969142993E+00 -0.15876707986E+01  0.17403294446E+01  0.51100000000E-03 0.  1.
         12    1    3    3    0    0  0.23077324119E+00 -0.10793577550E+01 -0.24579779125E+00  0.11307899921E+01  0.00000000000E+00 0. -1.
</event>
<event>
 7    1  0.1549900E-008  0.4614232E+02  0.7816164E-02  0.1320468E+00
        -11   -1    0    0    0    0  0.00000000000E+00  0.00000000000E+00  0.45593999997E+02  0.45594000000E+02  0.51100000000E-03 0. -1.
         11   -1    0    0    0    0 -0.00000000000E+00 -0.00000000000E+00 -0.45593999997E+02  0.45594000000E+02  0.51100000000E-03 0.  1.
    9900012    2    1    2    0    0 -0.13245726308E+02  0.28632525622E+02  0.32153425310E+02  0.46142317098E+02  0.99999939565E+01 0.  0.
        -12    1    1    2    0    0  0.13245726308E+02 -0.28632525622E+02 -0.32153425310E+02  0.45045682902E+02  0.00000000000E+00 0.  1.
         11    1    3    3    0    0 -0.40980704043E+01  0.12048566451E+02  0.17258497858E+02  0.21443364548E+02  0.51100000000E-03 0.  1.
        -11    1    3    3    0    0 -0.90384306752E+01  0.12995868769E+02  0.13641069141E+02  0.20896521282E+02  0.51100000000E-03 0. -1.
         12    1    3    3    0    0 -0.10922522846E+00  0.35880904024E+01  0.12538583106E+01  0.38024312682E+01  0.00000000000E+00 0. -1.
</event>
<event>
 7    1  0.1549900E-008  0.4614231E+02  0.7816164E-02  0.1320468E+00
        -11   -1    0    0    0    0  0.00000000000E+00  0.00000000000E+00  0.45593999997E+02  0.45594000000E+02  0.51100000000E-03 0.  1.
         11   -1    0    0    0    0 -0.00000000000E+00 -0.00000000000E+00 -0.45593999997E+02  0.45594000000E+02  0.51100000000E-03 0. -1.
    9900012    2    1    2    0    0 -0.31306443521E+01 -0.13359351444E+02 -0.42905023017E+02  0.46142309805E+02  0.99999274507E+01 0.  0.
        -12    1    1    2    0    0  0.31306443521E+01  0.13359351444E+02  0.42905023017E+02  0.45045690195E+02  0.00000000000E+00 0.  1.
         11    1    3    3    0    0 -0.24245432594E+01 -0.29981904359E+01 -0.75299315341E+01  0.84597532515E+01  0.51100000000E-03 0. -1.
        -11    1    3    3    0    0 -0.42789981540E+00 -0.89109444157E+01 -0.16564626151E+02  0.18814219846E+02  0.51100000000E-03 0.  1.
        -12    1    3    3    0    0 -0.27820127729E+00 -0.14502165922E+01 -0.18810465332E+02  0.18868336708E+02  0.00000000000E+00 0.  1.
</event>
<event>
 7    1  0.1549900E-008  0.4614232E+02  0.7816164E-02  0.1320468E+00
        -11   -1    0    0    0    0  0.00000000000E+00  0.00000000000E+00  0.45593999997E+02  0.45594000000E+02  0.51100000000E-03 0. -1.
         11   -1    0    0    0    0 -0.00000000000E+00 -0.00000000000E+00 -0.45593999997E+02  0.45594000000E+02  0.51100000000E-03 0.  1.
    9900012    2    1    2    0    0  0.41528039328E+02  0.17341714163E+02 -0.19494688433E+01  0.46142317307E+02  0.99999958613E+01 0.  0.
        -12    1    1    2    0    0 -0.41528039328E+02 -0.17341714163E+02  0.19494688433E+01  0.45045682693E+02  0.00000000000E+00 0.  1.
         11    1    3    3    0    0  0.19192628563E+02  0.10333430328E+02 -0.72824618571E+00  0.21809794045E+02  0.51100000000E-03 0. -1.
        -11    1    3    3    0    0  0.18538823860E+02  0.42280339644E+01  0.11763874117E+01  0.19051198096E+02  0.51100000000E-03 0.  1.
        -12    1    3    3    0    0  0.37965869045E+01  0.27802498700E+01 -0.23976100692E+01  0.52813251659E+01  0.00000000000E+00 0.  1.
</event>
<event>
 7    1  0.1549900E-008  0.4614232E+02  0.7816164E-02  0.1320468E+00
        -11   -1    0    0    0    0  0.00000000000E+00  0.00000000000E+00  0.45593999997E+02  0.45594000000E+02  0.51100000000E-03 0.  1.
         11   -1    0    0    0    0 -0.00000000000E+00 -0.00000000000E+00 -0.45593999997E+02  0.45594000000E+02  0.51100000000E-03 0. -1.
    9900012    2    1    2    0    0 -0.11510192235E+02  0.29616199980E+02 -0.31929762404E+02  0.46142317036E+02  0.99999933893E+01 0.  0.
        -12    1    1    2    0    0  0.11510192235E+02 -0.29616199980E+02  0.31929762404E+02  0.45045682964E+02  0.00000000000E+00 0.  1.
         11    1    3    3    0    0 -0.56272088140E+01  0.10610909114E+02 -0.91765140578E+01  0.15115068037E+02  0.51100000000E-03 0. -1.
        -11    1    3    3    0    0 -0.18837969341E+01  0.13232312878E+02 -0.10887310872E+02  0.17238803128E+02  0.51100000000E-03 0.  1.
        -12    1    3    3    0    0 -0.39991864868E+01  0.57729779872E+01 -0.11865937474E+02  0.13788445871E+02  0.00000000000E+00 0.  1.
</event>
<event>
 7    1  0.1549900E-008  0.4614232E+02  0.7816164E-02  0.1320468E+00
        -11   -1    0    0    0    0  0.00000000000E+00  0.00000000000E+00  0.45593999997E+02  0.45594000000E+02  0.51100000000E-03 0. -1.
         11   -1    0    0    0    0 -0.00000000000E+00 -0.00000000000E+00 -0.45593999997E+02  0.45594000000E+02  0.51100000000E-03 0.  1.
    9900012    2    1    2    0    0  0.37605805705E+02 -0.22337454753E+02 -0.10768242698E+02  0.46142316984E+02  0.99999929130E+01 0.  0.
        -12    1    1    2    0    0 -0.37605805705E+02  0.22337454753E+02  0.10768242698E+02  0.45045683016E+02  0.00000000000E+00 0.  1.
         11    1    3    3    0    0  0.15939763527E+01 -0.18692378237E+01  0.80055205626E+00  0.25837365405E+01  0.51100000000E-03 0. -1.
        -11    1    3    3    0    0  0.16196454901E+02 -0.59214915644E+01 -0.66918329655E+01  0.18497833452E+02  0.51100000000E-03 0.  1.
         12    1    3    3    0    0  0.19815374451E+02 -0.14546725365E+02 -0.48769617893E+01  0.25060746992E+02  0.00000000000E+00 0. -1.
</event>
<event>
 7    1  0.1549900E-008  0.4614232E+02  0.7816164E-02  0.1320468E+00
        -11   -1    0    0    0    0  0.00000000000E+00  0.00000000000E+00  0.45593999997E+02  0.45594000000E+02  0.51100000000E-03 0. -1.
         11   -1    0    0    0    0 -0.00000000000E+00 -0.00000000000E+00 -0.45593999997E+02  0.45594000000E+02  0.51100000000E-03 0.  1.
    9900012    2    1    2    0    0 -0.32397945321E+02 -0.21943337316E+01  0.31219730300E+02  0.46142317393E+02  0.99999966412E+01 0.  0.
        -12    1    1    2    0    0  0.32397945321E+02  0.21943337316E+01 -0.31219730300E+02  0.45045682607E+02  0.00000000000E+00 0.  1.
         11    1    3    3    0    0 -0.11369679197E+02 -0.27568075518E+01  0.14405341778E+02  0.18557571633E+02  0.51100000000E-03 0. -1.
        -11    1    3    3    0    0 -0.12449523368E+02  0.24556815679E+01  0.73196647489E+01  0.14649180740E+02  0.51100000000E-03 0.  1.
        -12    1    3    3    0    0 -0.85787427564E+01 -0.18932077477E+01  0.94947237730E+01  0.12935565020E+02  0.00000000000E+00 0.  1.
</event>
<event>
 7    1  0.1549900E-008  0.4614232E+02  0.7816164E-02  0.1320468E+00
        -11   -1    0    0    0    0  0.00000000000E+00  0.00000000000E+00  0.45593999997E+02  0.45594000000E+02  0.51100000000E-03 0.  1.
         11   -1    0    0    0    0 -0.00000000000E+00 -0.00000000000E+00 -0.45593999997E+02  0.45594000000E+02  0.51100000000E-03 0. -1.
    9900012    2    1    2    0    0 -0.29371267323E+02 -0.32297642007E+01 -0.34000158434E+02  0.46142317693E+02  0.99999993823E+01 0.  0.
        -12    1    1    2    0    0  0.29371267323E+02  0.32297642007E+01  0.34000158434E+02  0.45045682307E+02  0.00000000000E+00 0.  1.
         11    1    3    3    0    0 -0.19431170540E+02  0.23116089351E+00 -0.22944643116E+02  0.30067930955E+02  0.51100000000E-03 0. -1.
        -11    1    3    3    0    0 -0.45250173539E+01 -0.34518315167E+01 -0.81167687379E+01  0.99132667612E+01  0.51100000000E-03 0.  1.
        -12    1    3    3    0    0 -0.54150794288E+01 -0.90935774681E-02 -0.29387465796E+01  0.61611199772E+01  0.00000000000E+00 0.  1.
</event>
<event>
 7    1  0.1549900E-008  0.4614232E+02  0.7816164E-02  0.1320468E+00
        -11   -1    0    0    0    0  0.00000000000E+00  0.00000000000E+00  0.45593999997E+02  0.45594000000E+02  0.51100000000E-03 0.  1.
         11   -1    0    0    0    0 -0.00000000000E+00 -0.00000000000E+00 -0.45593999997E+02  0.45594000000E+02  0.51100000000E-03 0. -1.
    9900012    2    1    2    0    0 -0.38317542634E+02  0.11821681297E+02 -0.20521385600E+02  0.46142317752E+02  0.99999999193E+01 0.  0.
        -12    1    1    2    0    0  0.38317542634E+02 -0.11821681297E+02  0.20521385600E+02  0.45045682248E+02  0.00000000000E+00 0.  1.
         11    1    3    3    0    0 -0.12809425439E+02  0.55134601254E+01 -0.85524090688E+01  0.16359196917E+02  0.51100000000E-03 0.  1.
        -11    1    3    3    0    0 -0.24461592347E+02  0.40693577947E+01 -0.10753227773E+02  0.27028893444E+02  0.51100000000E-03 0. -1.
         12    1    3    3    0    0 -0.10465248483E+01  0.22388633770E+01 -0.12157487583E+01  0.27542273912E+01  0.00000000000E+00 0. -1.
</event>
<event>
 7    1  0.1549900E-008  0.4614232E+02  0.7816164E-02  0.1320468E+00
        -11   -1    0    0    0    0  0.00000000000E+00  0.00000000000E+00  0.45593999997E+02  0.45594000000E+02  0.51100000000E-03 0.  1.
         11   -1    0    0    0    0 -0.00000000000E+00 -0.00000000000E+00 -0.45593999997E+02  0.45594000000E+02  0.51100000000E-03 0. -1.
    9900012    2    1    2    0    0  0.22241026845E+02  0.32876010606E+02 -0.21298317462E+02  0.46142315687E+02  0.99999810854E+01 0.  0.
        -12    1    1    2    0    0 -0.22241026845E+02 -0.32876010606E+02  0.21298317462E+02  0.45045684313E+02  0.00000000000E+00 0.  1.
         11    1    3    3    0    0  0.14582512861E+02  0.19399890138E+02 -0.16410484735E+02  0.29296918408E+02  0.51100000000E-03 0. -1.
        -11    1    3    3    0    0  0.92254809720E+00  0.55479011990E+01 -0.85963598687E+00  0.56894004075E+01  0.51100000000E-03 0.  1.
        -12    1    3    3    0    0  0.67359658867E+01  0.79282192697E+01 -0.40281967399E+01  0.11155996871E+02  0.00000000000E+00 0.  1.
</event>
<event>
 7    1  0.1549900E-008  0.4614232E+02  0.7816164E-02  0.1320468E+00
        -11   -1    0    0    0    0  0.00000000000E+00  0.00000000000E+00  0.45593999997E+02  0.45594000000E+02  0.51100000000E-03 0. -1.
         11   -1    0    0    0    0 -0.00000000000E+00 -0.00000000000E+00 -0.45593999997E+02  0.45594000000E+02  0.51100000000E-03 0.  1.
    9900012    2    1    2    0    0  0.37626962677E+02 -0.22974689712E+02  0.92460067880E+01  0.46142319528E+02  0.10000016115E+02 0.  0.
        -12    1    1    2    0    0 -0.37626962677E+02  0.22974689712E+02 -0.92460067880E+01  0.45045680472E+02  0.00000000000E+00 0.  1.
         11    1    3    3    0    0  0.53586050515E+01 -0.24570775163E+01  0.29660007540E+01  0.65991695503E+01  0.51100000000E-03 0. -1.
        -11    1    3    3    0    0  0.32497203704E+02 -0.20867060808E+02  0.62676052909E+01  0.39125252097E+02  0.51100000000E-03 0.  1.
        -12    1    3    3    0    0 -0.22884607855E+00  0.34944861238E+00  0.12400743080E-01  0.41789788082E+00  0.00000000000E+00 0.  1.
</event>
<event>
 7    1  0.1549900E-008  0.4614232E+02  0.7816164E-02  0.1320468E+00
        -11   -1    0    0    0    0  0.00000000000E+00  0.00000000000E+00  0.45593999997E+02  0.45594000000E+02  0.51100000000E-03 0.  1.
         11   -1    0    0    0    0 -0.00000000000E+00 -0.00000000000E+00 -0.45593999997E+02  0.45594000000E+02  0.51100000000E-03 0. -1.
    9900012    2    1    2    0    0  0.36130013224E+02  0.97140010778E+00 -0.26884792457E+02  0.46142317197E+02  0.99999948544E+01 0.  0.
        -12    1    1    2    0    0 -0.36130013224E+02 -0.97140010778E+00  0.26884792457E+02  0.45045682803E+02  0.00000000000E+00 0.  1.
         11    1    3    3    0    0  0.23954296874E+02  0.14670451983E+00 -0.19240691570E+02  0.30725137482E+02  0.51100000000E-03 0. -1.
        -11    1    3    3    0    0  0.94187841807E+01  0.29896914303E+01 -0.57400727192E+01  0.11428043812E+02  0.51100000000E-03 0.  1.
         12    1    3    3    0    0  0.27569321697E+01 -0.21649958424E+01 -0.19040281675E+01  0.39891359025E+01  0.00000000000E+00 0. -1.
</event>
<event>
 7    1  0.1549900E-008  0.4614232E+02  0.7816164E-02  0.1320468E+00
        -11   -1    0    0    0    0  0.00000000000E+00  0.00000000000E+00  0.45593999997E+02  0.45594000000E+02  0.51100000000E-03 0. -1.
         11   -1    0    0    0    0 -0.00000000000E+00 -0.00000000000E+00 -0.45593999997E+02  0.45594000000E+02  0.51100000000E-03 0.  1.
    9900012    2    1    2    0    0 -0.22556533660E+01  0.11097850129E+02  0.43598889629E+02  0.46142318448E+02  0.10000006261E+02 0.  0.
        -12    1    1    2    0    0  0.22556533660E+01 -0.11097850129E+02 -0.43598889629E+02  0.45045681552E+02  0.00000000000E+00 0.  1.
         11    1    3    3    0    0 -0.23149225853E+01  0.66813320337E+01  0.17714473342E+02  0.19073584623E+02  0.51100000000E-03 0. -1.
        -11    1    3    3    0    0 -0.13266958030E+01  0.16576256338E+01  0.22021357849E+02  0.22123472744E+02  0.51100000000E-03 0.  1.
        -12    1    3    3    0    0  0.13859650222E+01  0.27588924614E+01  0.38630584385E+01  0.49452610806E+01  0.00000000000E+00 0.  1.
</event>
<event>
 7    1  0.1549900E-008  0.4614232E+02  0.7816164E-02  0.1320468E+00
        -11   -1    0    0    0    0  0.00000000000E+00  0.00000000000E+00  0.45593999997E+02  0.45594000000E+02  0.51100000000E-03 0. -1.
         11   -1    0    0    0    0 -0.00000000000E+00 -0.00000000000E+00 -0.45593999997E+02  0.45594000000E+02  0.51100000000E-03 0.  1.
    9900012    2    1    2    0    0 -0.34126801719E+02 -0.28657164579E+02 -0.65758482683E+01  0.46142318101E+02  0.10000003099E+02 0.  0.
        -12    1    1    2    0    0  0.34126801719E+02  0.28657164579E+02  0.65758482683E+01  0.45045681899E+02  0.00000000000E+00 0.  1.
         11    1    3    3    0    0 -0.44589474046E+01 -0.50312637257E+01 -0.13329519709E+01  0.68536550725E+01  0.51100000000E-03 0. -1.
        -11    1    3    3    0    0 -0.55302137684E+01 -0.61990158343E+01 -0.46316742488E+01  0.95112285351E+01  0.51100000000E-03 0.  1.
        -12    1    3    3    0    0 -0.24137640546E+02 -0.17426885019E+02 -0.61122204852E+00  0.29777434493E+02  0.00000000000E+00 0.  1.
</event>
<event>
 7    1  0.1549900E-008  0.4614232E+02  0.7816164E-02  0.1320468E+00
        -11   -1    0    0    0    0  0.00000000000E+00  0.00000000000E+00  0.45593999997E+02  0.45594000000E+02  0.51100000000E-03 0.  1.
         11   -1    0    0    0    0 -0.00000000000E+00 -0.00000000000E+00 -0.45593999997E+02  0.45594000000E+02  0.51100000000E-03 0. -1.
    9900012    2    1    2    0    0  0.22969645091E+02  0.38744448330E+02 -0.61369208210E+00  0.46142317743E+02  0.99999998324E+01 0.  0.
        -12    1    1    2    0    0 -0.22969645091E+02 -0.38744448330E+02  0.61369208210E+00  0.45045682257E+02  0.00000000000E+00 0.  1.
         11    1    3    3    0    0  0.30631965562E+01  0.29643829718E+01  0.14120298951E+01  0.44904975483E+01  0.51100000000E-03 0. -1.
        -11    1    3    3    0    0  0.90457662589E+01  0.23237483232E+02  0.10491148862E-01  0.24936050700E+02  0.51100000000E-03 0.  1.
         12    1    3    3    0    0  0.10860682276E+02  0.12542582126E+02 -0.20362131261E+01  0.16715769495E+02  0.00000000000E+00 0. -1.
</event>
<event>
 7    1  0.1549900E-008  0.4614232E+02  0.7816164E-02  0.1320468E+00
        -11   -1    0    0    0    0  0.00000000000E+00  0.00000000000E+00  0.45593999997E+02  0.45594000000E+02  0.51100000000E-03 0.  1.
         11   -1    0    0    0    0 -0.00000000000E+00 -0.00000000000E+00 -0.45593999997E+02  0.45594000000E+02  0.51100000000E-03 0. -1.
    9900012    2    1    2    0    0  0.31886436437E+02  0.53263077274E+01 -0.31368761503E+02  0.46142316734E+02  0.99999906335E+01 0.  0.
        -12    1    1    2    0    0 -0.31886436437E+02 -0.53263077274E+01  0.31368761503E+02  0.45045683266E+02  0.00000000000E+00 0.  1.
         11    1    3    3    0    0  0.23215952182E+01  0.22654583238E+01 -0.59258246267E+01  0.67555535333E+01  0.51100000000E-03 0. -1.
        -11    1    3    3    0    0  0.18519392301E+02  0.23707334396E+00 -0.17593675824E+02  0.25545283797E+02  0.51100000000E-03 0.  1.
         12    1    3    3    0    0  0.11045448918E+02  0.28237760596E+01 -0.78492610522E+01  0.13841479404E+02  0.00000000000E+00 0. -1.
</event>
<event>
 7    1  0.1549900E-008  0.4614232E+02  0.7816164E-02  0.1320468E+00
        -11   -1    0    0    0    0  0.00000000000E+00  0.00000000000E+00  0.45593999997E+02  0.45594000000E+02  0.51100000000E-03 0. -1.
         11   -1    0    0    0    0 -0.00000000000E+00 -0.00000000000E+00 -0.45593999997E+02  0.45594000000E+02  0.51100000000E-03 0.  1.
    9900012    2    1    2    0    0 -0.16360971834E+02 -0.41296294187E+02  0.74865329866E+01  0.46142317753E+02  0.99999999303E+01 0.  0.
        -12    1    1    2    0    0  0.16360971834E+02  0.41296294187E+02 -0.74865329866E+01  0.45045682247E+02  0.00000000000E+00 0.  1.
         11    1    3    3    0    0 -0.11991737115E+02 -0.27238315160E+02  0.65169227534E+01  0.30466339692E+02  0.51100000000E-03 0. -1.
        -11    1    3    3    0    0 -0.40108773620E+01 -0.11950717449E+02 -0.11594687881E+01  0.12659034437E+02  0.51100000000E-03 0.  1.
         12    1    3    3    0    0 -0.35835735691E+00 -0.21072615777E+01  0.21290790212E+01  0.30169436241E+01  0.00000000000E+00 0. -1.
</event>
<event>
 7    1  0.1549900E-008  0.4614232E+02  0.7816164E-02  0.1320468E+00
        -11   -1    0    0    0    0  0.00000000000E+00  0.00000000000E+00  0.45593999997E+02  0.45594000000E+02  0.51100000000E-03 0.  1.
         11   -1    0    0    0    0 -0.00000000000E+00 -0.00000000000E+00 -0.45593999997E+02  0.45594000000E+02  0.51100000000E-03 0. -1.
    9900012    2    1    2    0    0  0.68755021795E+01  0.16528160119E+02 -0.41335951396E+02  0.46142317799E+02  0.10000000348E+02 0.  0.
        -12    1    1    2    0    0 -0.68755021795E+01 -0.16528160119E+02  0.41335951396E+02  0.45045682201E+02  0.00000000000E+00 0.  1.
         11    1    3    3    0    0  0.69896513479E+00  0.83314035573E+01 -0.96170252586E+01  0.12743155519E+02  0.51100000000E-03 0. -1.
        -11    1    3    3    0    0  0.62593512902E+01  0.82477203683E+01 -0.31262072147E+02  0.32932074412E+02  0.51100000000E-03 0.  1.
         12    1    3    3    0    0 -0.82814245512E-01 -0.50963806903E-01 -0.45685398990E+00  0.46708786856E+00  0.00000000000E+00 0. -1.
</event>
<event>
 7    1  0.1549900E-008  0.4614232E+02  0.7816164E-02  0.1320468E+00
        -11   -1    0    0    0    0  0.00000000000E+00  0.00000000000E+00  0.45593999997E+02  0.45594000000E+02  0.51100000000E-03 0.  1.
         11   -1    0    0    0    0 -0.00000000000E+00 -0.00000000000E+00 -0.45593999997E+02  0.45594000000E+02  0.51100000000E-03 0. -1.
    9900012    2    1    2    0    0 -0.23823295099E+02 -0.37776078484E+02  0.58763917861E+01  0.46142317905E+02  0.10000001309E+02 0.  0.
        -12    1    1    2    0    0  0.23823295099E+02  0.37776078484E+02 -0.58763917861E+01  0.45045682095E+02  0.00000000000E+00 0.  1.
         11    1    3    3    0    0 -0.18850020106E+02 -0.34245118734E+02  0.36649220993E+01  0.39261725247E+02  0.51100000000E-03 0. -1.
        -11    1    3    3    0    0 -0.37612597598E+01 -0.16752799851E+01  0.64785320835E+00  0.41681353205E+01  0.51100000000E-03 0.  1.
         12    1    3    3    0    0 -0.12120152335E+01 -0.18556797651E+01  0.15636164784E+01  0.27124573376E+01  0.00000000000E+00 0. -1.
</event>
<event>
 7    1  0.1549900E-008  0.4614232E+02  0.7816164E-02  0.1320468E+00
        -11   -1    0    0    0    0  0.00000000000E+00  0.00000000000E+00  0.45593999997E+02  0.45594000000E+02  0.51100000000E-03 0. -1.
         11   -1    0    0    0    0 -0.00000000000E+00 -0.00000000000E+00 -0.45593999997E+02  0.45594000000E+02  0.51100000000E-03 0.  1.
    9900012    2    1    2    0    0  0.18649228803E+02 -0.35635919501E+02  0.20283019421E+02  0.46142319070E+02  0.10000011937E+02 0.  0.
        -12    1    1    2    0    0 -0.18649228803E+02  0.35635919501E+02 -0.20283019421E+02  0.45045680930E+02  0.00000000000E+00 0.  1.
         11    1    3    3    0    0  0.64902804810E+00 -0.61540364402E-01 -0.45910222153E+00  0.79737051275E+00  0.51100000000E-03 0.  1.
        -11    1    3    3    0    0  0.18169133074E+02 -0.32612165410E+02  0.18796354796E+02  0.41796814272E+02  0.51100000000E-03 0. -1.
         12    1    3    3    0    0 -0.16893231916E+00 -0.29622137267E+01  0.19457668462E+01  0.35481342859E+01  0.00000000000E+00 0. -1.
</event>
<event>
 7    1  0.1549900E-008  0.4614232E+02  0.7816164E-02  0.1320468E+00
        -11   -1    0    0    0    0  0.00000000000E+00  0.00000000000E+00  0.45593999997E+02  0.45594000000E+02  0.51100000000E-03 0. -1.
         11   -1    0    0    0    0 -0.00000000000E+00 -0.00000000000E+00 -0.45593999997E+02  0.45594000000E+02  0.51100000000E-03 0.  1.
    9900012    2    1    2    0    0  0.23642660343E+02  0.31493082244E+02  0.21870616902E+02  0.46142317621E+02  0.99999987231E+01 0.  0.
        -12    1    1    2    0    0 -0.23642660343E+02 -0.31493082244E+02 -0.21870616902E+02  0.45045682379E+02  0.00000000000E+00 0.  1.
         11    1    3    3    0    0  0.96085778953E+01  0.14337792668E+02  0.12491021574E+02  0.21305461459E+02  0.51100000000E-03 0. -1.
        -11    1    3    3    0    0  0.49278668995E+00  0.22037316851E+01  0.28459070670E+01  0.36329683947E+01  0.51100000000E-03 0.  1.
        -12    1    3    3    0    0  0.13541295757E+02  0.14951557891E+02  0.65336882608E+01  0.21203887767E+02  0.00000000000E+00 0.  1.
</event>
<event>
 7    1  0.2289403E-008  0.4614232E+02  0.7816164E-02  0.1320468E+00
        -11   -1    0    0    0    0  0.00000000000E+00  0.00000000000E+00  0.45593999997E+02  0.45594000000E+02  0.51100000000E-03 0. -1.
         11   -1    0    0    0    0 -0.00000000000E+00 -0.00000000000E+00 -0.45593999997E+02  0.45594000000E+02  0.51100000000E-03 0.  1.
    9900012    2    1    2    0    0  0.12372390206E+02 -0.22928324998E+02  0.36746828377E+02  0.46142317383E+02  0.99999965539E+01 0.  0.
        -12    1    1    2    0    0 -0.12372390206E+02  0.22928324998E+02 -0.36746828377E+02  0.45045682617E+02  0.00000000000E+00 0.  1.
         11    1    3    3    0    0  0.56071615743E+01 -0.10419176628E+02  0.23326620999E+02  0.26155893218E+02  0.51100000000E-03 0. -1.
        -11    1    3    3    0    0  0.72653717323E+00 -0.39764701471E+01  0.20192431440E+01  0.45185743582E+01  0.51100000000E-03 0.  1.
         12    1    3    3    0    0  0.60386914583E+01 -0.85326782231E+01  0.11400964234E+02  0.15467849807E+02  0.00000000000E+00 0. -1.
</event>
<event>
 7    1  0.1549900E-008  0.4614232E+02  0.7816164E-02  0.1320468E+00
        -11   -1    0    0    0    0  0.00000000000E+00  0.00000000000E+00  0.45593999997E+02  0.45594000000E+02  0.51100000000E-03 0.  1.
         11   -1    0    0    0    0 -0.00000000000E+00 -0.00000000000E+00 -0.45593999997E+02  0.45594000000E+02  0.51100000000E-03 0. -1.
    9900012    2    1    2    0    0 -0.14786020950E+01 -0.22315854404E+02 -0.39101531725E+02  0.46142318684E+02  0.10000008420E+02 0.  0.
        -12    1    1    2    0    0  0.14786020950E+01  0.22315854404E+02  0.39101531725E+02  0.45045681316E+02  0.00000000000E+00 0.  1.
         11    1    3    3    0    0  0.49109521954E+00 -0.24128158844E+01 -0.20188309202E+01  0.31841063978E+01  0.51100000000E-03 0. -1.
        -11    1    3    3    0    0 -0.19228836019E+01 -0.19536258151E+02 -0.37544347069E+02  0.42366742393E+02  0.51100000000E-03 0.  1.
        -12    1    3    3    0    0 -0.46813712615E-01 -0.36678036888E+00  0.46164626395E+00  0.59146989417E+00  0.00000000000E+00 0.  1.
</event>
<event>
 7    1  0.1549900E-008  0.4614232E+02  0.7816164E-02  0.1320468E+00
        -11   -1    0    0    0    0  0.00000000000E+00  0.00000000000E+00  0.45593999997E+02  0.45594000000E+02  0.51100000000E-03 0.  1.
         11   -1    0    0    0    0 -0.00000000000E+00 -0.00000000000E+00 -0.45593999997E+02  0.45594000000E+02  0.51100000000E-03 0. -1.
    9900012    2    1    2    0    0 -0.42147473121E+02  0.16553627628E+01 -0.15810248407E+02  0.46142315733E+02  0.99999815072E+01 0.  0.
        -12    1    1    2    0    0  0.42147473121E+02 -0.16553627628E+01  0.15810248407E+02  0.45045684267E+02  0.00000000000E+00 0.  1.
         11    1    3    3    0    0 -0.31111138635E+01 -0.18940359623E-01 -0.32410117592E+01  0.44926101203E+01  0.51100000000E-03 0. -1.
        -11    1    3    3    0    0 -0.37396524699E+02  0.33666176349E+00 -0.12783819863E+02  0.39522644791E+02  0.51100000000E-03 0.  1.
        -12    1    3    3    0    0 -0.16398345586E+01  0.13376413589E+01  0.21458321476E+00  0.21270608220E+01  0.00000000000E+00 0.  1.
</event>
<event>
 7    1  0.1549900E-008  0.4614232E+02  0.7816164E-02  0.1320468E+00
        -11   -1    0    0    0    0  0.00000000000E+00  0.00000000000E+00  0.45593999997E+02  0.45594000000E+02  0.51100000000E-03 0.  1.
         11   -1    0    0    0    0 -0.00000000000E+00 -0.00000000000E+00 -0.45593999997E+02  0.45594000000E+02  0.51100000000E-03 0. -1.
    9900012    2    1    2    0    0  0.30306087531E+02  0.13240949298E+02 -0.30583195381E+02  0.46142317416E+02  0.99999968518E+01 0.  0.
        -12    1    1    2    0    0 -0.30306087531E+02 -0.13240949298E+02  0.30583195381E+02  0.45045682584E+02  0.00000000000E+00 0.  1.
         11    1    3    3    0    0  0.26900032774E+02  0.11281263641E+02 -0.28118146110E+02  0.40515537927E+02  0.51100000000E-03 0. -1.
        -11    1    3    3    0    0  0.38947477393E+01  0.11822267019E+01 -0.16263353895E+01  0.43831138460E+01  0.51100000000E-03 0.  1.
         12    1    3    3    0    0 -0.48869298158E+00  0.77745895528E+00 -0.83871388149E+00  0.12436656433E+01  0.00000000000E+00 0. -1.
</event>
<event>
 7    1  0.1549900E-008  0.4614232E+02  0.7816164E-02  0.1320468E+00
        -11   -1    0    0    0    0  0.00000000000E+00  0.00000000000E+00  0.45593999997E+02  0.45594000000E+02  0.51100000000E-03 0.  1.
         11   -1    0    0    0    0 -0.00000000000E+00 -0.00000000000E+00 -0.45593999997E+02  0.45594000000E+02  0.51100000000E-03 0. -1.
    9900012    2    1    2    0    0  0.20364381518E+02 -0.31303437136E+02 -0.25189292198E+02  0.46142315939E+02  0.99999833811E+01 0.  0.
        -12    1    1    2    0    0 -0.20364381518E+02  0.31303437136E+02  0.25189292198E+02  0.45045684061E+02  0.00000000000E+00 0.  1.
         11    1    3    3    0    0  0.93465554489E+01 -0.99305258337E+01 -0.14157003237E+02  0.19656911838E+02  0.51100000000E-03 0. -1.
        -11    1    3    3    0    0  0.47405193916E+01 -0.86128947801E+01 -0.39008372914E+01  0.10576909399E+02  0.51100000000E-03 0.  1.
         12    1    3    3    0    0  0.62773066773E+01 -0.12760016522E+02 -0.71314516700E+01  0.15908494702E+02  0.00000000000E+00 0. -1.
</event>
<event>
 7    1  0.1982523E-008  0.4614232E+02  0.7816164E-02  0.1320468E+00
        -11   -1    0    0    0    0  0.00000000000E+00  0.00000000000E+00  0.45593999997E+02  0.45594000000E+02  0.51100000000E-03 0.  1.
         11   -1    0    0    0    0 -0.00000000000E+00 -0.00000000000E+00 -0.45593999997E+02  0.45594000000E+02  0.51100000000E-03 0. -1.
    9900012    2    1    2    0    0  0.15721503168E+01 -0.26418623860E+02 -0.36451312113E+02  0.46142317653E+02  0.99999990185E+01 0.  0.
        -12    1    1    2    0    0 -0.15721503168E+01  0.26418623860E+02  0.36451312113E+02  0.45045682347E+02  0.00000000000E+00 0.  1.
         11    1    3    3    0    0 -0.68420604605E+00 -0.21540350182E+02 -0.33657830257E+02  0.39966290318E+02  0.51100000000E-03 0. -1.
        -11    1    3    3    0    0  0.15234626935E+01 -0.19247589694E+01 -0.14359610232E+01  0.28438741164E+01  0.51100000000E-03 0.  1.
         12    1    3    3    0    0  0.73289366934E+00 -0.29535147086E+01 -0.13575208328E+01  0.33321532191E+01  0.00000000000E+00 0. -1.
</event>
<event>
 7    1  0.1549900E-008  0.4614232E+02  0.7816164E-02  0.1320468E+00
        -11   -1    0    0    0    0  0.00000000000E+00  0.00000000000E+00  0.45593999997E+02  0.45594000000E+02  0.51100000000E-03 0. -1.
         11   -1    0    0    0    0 -0.00000000000E+00 -0.00000000000E+00 -0.45593999997E+02  0.45594000000E+02  0.51100000000E-03 0.  1.
    9900012    2    1    2    0    0  0.28017243561E+02 -0.20953989467E+02  0.28373894580E+02  0.46142317577E+02  0.99999983184E+01 0.  0.
        -12    1    1    2    0    0 -0.28017243561E+02  0.20953989467E+02 -0.28373894580E+02  0.45045682423E+02  0.00000000000E+00 0.  1.
         11    1    3    3    0    0  0.15186933488E+02 -0.11624976887E+02  0.18396755263E+02  0.26537212379E+02  0.51100000000E-03 0. -1.
        -11    1    3    3    0    0 -0.38083294437E+00  0.11286188947E+00  0.94218009653E+00  0.10224847838E+01  0.51100000000E-03 0.  1.
        -12    1    3    3    0    0  0.13211143017E+02 -0.94418744702E+01  0.90349592206E+01  0.18582620414E+02  0.00000000000E+00 0.  1.
</event>
<event>
 7    1  0.1549900E-008  0.4614232E+02  0.7816164E-02  0.1320468E+00
        -11   -1    0    0    0    0  0.00000000000E+00  0.00000000000E+00  0.45593999997E+02  0.45594000000E+02  0.51100000000E-03 0.  1.
         11   -1    0    0    0    0 -0.00000000000E+00 -0.00000000000E+00 -0.45593999997E+02  0.45594000000E+02  0.51100000000E-03 0. -1.
    9900012    2    1    2    0    0  0.89733526973E+01  0.39874618648E+02 -0.18936928910E+02  0.46142317105E+02  0.99999940168E+01 0.  0.
        -12    1    1    2    0    0 -0.89733526973E+01 -0.39874618648E+02  0.18936928910E+02  0.45045682895E+02  0.00000000000E+00 0.  1.
         11    1    3    3    0    0  0.41800877502E+00  0.80340604518E+01 -0.63390352392E+01  0.10242276441E+02  0.51100000000E-03 0. -1.
        -11    1    3    3    0    0  0.47857635326E+01  0.24121148813E+02 -0.67266492373E+01  0.25494728139E+02  0.51100000000E-03 0.  1.
        -12    1    3    3    0    0  0.37695803897E+01  0.77194093828E+01 -0.58712444339E+01  0.10405312525E+02  0.00000000000E+00 0.  1.
</event>
<event>
 7    1  0.1549900E-008  0.4614232E+02  0.7816164E-02  0.1320468E+00
        -11   -1    0    0    0    0  0.00000000000E+00  0.00000000000E+00  0.45593999997E+02  0.45594000000E+02  0.51100000000E-03 0.  1.
         11   -1    0    0    0    0 -0.00000000000E+00 -0.00000000000E+00 -0.45593999997E+02  0.45594000000E+02  0.51100000000E-03 0. -1.
    9900012    2    1    2    0    0 -0.27205029182E+02 -0.71234189579E+01 -0.35188872621E+02  0.46142318001E+02  0.10000002185E+02 0.  0.
        -12    1    1    2    0    0  0.27205029182E+02  0.71234189579E+01  0.35188872621E+02  0.45045681999E+02  0.00000000000E+00 0.  1.
         11    1    3    3    0    0 -0.18356635820E+02 -0.65131716480E+01 -0.25440971258E+02  0.32041075237E+02  0.51100000000E-03 0. -1.
        -11    1    3    3    0    0 -0.14792223317E+01  0.28493493613E-01  0.41031050136E+00  0.15353389054E+01  0.51100000000E-03 0.  1.
        -12    1    3    3    0    0 -0.73691710305E+01 -0.63874080350E+00 -0.10158211865E+02  0.12565903858E+02  0.00000000000E+00 0.  1.
</event>
<event>
 7    1  0.1549900E-008  0.4614232E+02  0.7816164E-02  0.1320468E+00
        -11   -1    0    0    0    0  0.00000000000E+00  0.00000000000E+00  0.45593999997E+02  0.45594000000E+02  0.51100000000E-03 0. -1.
         11   -1    0    0    0    0 -0.00000000000E+00 -0.00000000000E+00 -0.45593999997E+02  0.45594000000E+02  0.51100000000E-03 0.  1.
    9900012    2    1    2    0    0  0.23838126378E+02  0.72524052725E+01  0.37526788876E+02  0.46142317246E+02  0.99999952989E+01 0.  0.
        -12    1    1    2    0    0 -0.23838126378E+02 -0.72524052725E+01 -0.37526788876E+02  0.45045682754E+02  0.00000000000E+00 0.  1.
         11    1    3    3    0    0  0.80022832199E+01  0.21538576229E+01  0.16667936707E+02  0.18614396410E+02  0.51100000000E-03 0. -1.
        -11    1    3    3    0    0  0.11510232282E+00  0.17933577079E+01  0.30840998182E+01  0.35694610745E+01  0.51100000000E-03 0.  1.
         12    1    3    3    0    0  0.15720740835E+02  0.33051899417E+01  0.17774752351E+02  0.23958459761E+02  0.00000000000E+00 0. -1.
</event>
<event>
 7    1  0.1549900E-008  0.4614232E+02  0.7816164E-02  0.1320468E+00
        -11   -1    0    0    0    0  0.00000000000E+00  0.00000000000E+00  0.45593999997E+02  0.45594000000E+02  0.51100000000E-03 0. -1.
         11   -1    0    0    0    0 -0.00000000000E+00 -0.00000000000E+00 -0.45593999997E+02  0.45594000000E+02  0.51100000000E-03 0.  1.
    9900012    2    1    2    0    0  0.41630201585E+02  0.16788966994E+02 -0.37643432792E+01  0.46142318997E+02  0.10000011270E+02 0.  0.
        -12    1    1    2    0    0 -0.41630201585E+02 -0.16788966994E+02  0.37643432792E+01  0.45045681003E+02  0.00000000000E+00 0.  1.
         11    1    3    3    0    0  0.35500115836E+02  0.11967388642E+02 -0.21955467446E+01  0.37527283955E+02  0.51100000000E-03 0. -1.
        -11    1    3    3    0    0  0.37936445736E+01  0.47693807808E+01 -0.75680872744E+00  0.61409683189E+01  0.51100000000E-03 0.  1.
        -12    1    3    3    0    0  0.23364411748E+01  0.52197571248E-01 -0.81198780722E+00  0.24740667228E+01  0.00000000000E+00 0.  1.
</event>
<event>
 7    1  0.1549900E-008  0.4614232E+02  0.7816164E-02  0.1320468E+00
        -11   -1    0    0    0    0  0.00000000000E+00  0.00000000000E+00  0.45593999997E+02  0.45594000000E+02  0.51100000000E-03 0.  1.
         11   -1    0    0    0    0 -0.00000000000E+00 -0.00000000000E+00 -0.45593999997E+02  0.45594000000E+02  0.51100000000E-03 0. -1.
    9900012    2    1    2    0    0 -0.22499268985E+02 -0.34811882421E+02 -0.17636019407E+02  0.46142318264E+02  0.10000004589E+02 0.  0.
        -12    1    1    2    0    0  0.22499268985E+02  0.34811882421E+02  0.17636019407E+02  0.45045681736E+02  0.00000000000E+00 0.  1.
         11    1    3    3    0    0 -0.10114961565E+02 -0.11751938915E+02 -0.94554614819E+01  0.18161119674E+02  0.51100000000E-03 0. -1.
        -11    1    3    3    0    0 -0.13007010117E+01 -0.15375935655E+00 -0.32529228899E+00  0.13495482192E+01  0.51100000000E-03 0.  1.
         12    1    3    3    0    0 -0.11083606408E+02 -0.22906184149E+02 -0.78552656357E+01  0.26631650371E+02  0.00000000000E+00 0. -1.
</event>
<event>
 7    1  0.1549900E-008  0.4614231E+02  0.7816164E-02  0.1320468E+00
        -11   -1    0    0    0    0  0.00000000000E+00  0.00000000000E+00  0.45593999997E+02  0.45594000000E+02  0.51100000000E-03 0.  1.
         11   -1    0    0    0    0 -0.00000000000E+00 -0.00000000000E+00 -0.45593999997E+02  0.45594000000E+02  0.51100000000E-03 0. -1.
    9900012    2    1    2    0    0  0.44830448617E+02 -0.42849085684E+01  0.99214873442E+00  0.46142312928E+02  0.99999559276E+01 0.  0.
        -12    1    1    2    0    0 -0.44830448617E+02  0.42849085684E+01 -0.99214873442E+00  0.45045687072E+02  0.00000000000E+00 0.  1.
         11    1    3    3    0    0  0.18103165303E+02 -0.16726011496E+01  0.87538855631E+00  0.18201332203E+02  0.51100000000E-03 0. -1.
        -11    1    3    3    0    0 -0.23883383298E+00 -0.84819130784E+00 -0.24570551921E+00  0.91479044473E+00  0.51100000000E-03 0.  1.
        -12    1    3    3    0    0  0.26966117148E+02 -0.17641161109E+01  0.36246569732E+00  0.27026190280E+02  0.00000000000E+00 0.  1.
</event>
<event>
 7    1  0.1549900E-008  0.4614232E+02  0.7816164E-02  0.1320468E+00
        -11   -1    0    0    0    0  0.00000000000E+00  0.00000000000E+00  0.45593999997E+02  0.45594000000E+02  0.51100000000E-03 0. -1.
         11   -1    0    0    0    0 -0.00000000000E+00 -0.00000000000E+00 -0.45593999997E+02  0.45594000000E+02  0.51100000000E-03 0.  1.
    9900012    2    1    2    0    0 -0.23836767385E+02  0.14813503293E+02  0.35234672195E+02  0.46142317811E+02  0.10000000454E+02 0.  0.
        -12    1    1    2    0    0  0.23836767385E+02 -0.14813503293E+02 -0.35234672195E+02  0.45045682189E+02  0.00000000000E+00 0.  1.
         11    1    3    3    0    0 -0.53043652548E+01  0.64389811319E+01  0.15595558921E+02  0.17686668061E+02  0.51100000000E-03 0. -1.
        -11    1    3    3    0    0 -0.97226801151E+01  0.59064467779E+01  0.97388378521E+01  0.14975365943E+02  0.51100000000E-03 0.  1.
         12    1    3    3    0    0 -0.88097220155E+01  0.24680753837E+01  0.99002754218E+01  0.13480283807E+02  0.00000000000E+00 0. -1.
</event>
<event>
 7    1  0.1549900E-008  0.4614231E+02  0.7816164E-02  0.1320468E+00
        -11   -1    0    0    0    0  0.00000000000E+00  0.00000000000E+00  0.45593999997E+02  0.45594000000E+02  0.51100000000E-03 0.  1.
         11   -1    0    0    0    0 -0.00000000000E+00 -0.00000000000E+00 -0.45593999997E+02  0.45594000000E+02  0.51100000000E-03 0. -1.
    9900012    2    1    2    0    0  0.25637207536E+02  0.58807972772E+01 -0.36568614927E+02  0.46142314473E+02  0.99999700201E+01 0.  0.
        -12    1    1    2    0    0 -0.25637207536E+02 -0.58807972772E+01  0.36568614927E+02  0.45045685527E+02  0.00000000000E+00 0.  1.
         11    1    3    3    0    0  0.44915672208E+01  0.32867719464E+00 -0.91314135083E+01  0.10181597012E+02  0.51100000000E-03 0. -1.
        -11    1    3    3    0    0  0.35902565412E+01  0.40336030972E+00 -0.10214413982E+02  0.10834523286E+02  0.51100000000E-03 0.  1.
        -12    1    3    3    0    0  0.17555383774E+02  0.51487597728E+01 -0.17222787437E+02  0.25126194176E+02  0.00000000000E+00 0.  1.
</event>
<event>
 7    1  0.1549900E-008  0.4614232E+02  0.7816164E-02  0.1320468E+00
        -11   -1    0    0    0    0  0.00000000000E+00  0.00000000000E+00  0.45593999997E+02  0.45594000000E+02  0.51100000000E-03 0. -1.
         11   -1    0    0    0    0 -0.00000000000E+00 -0.00000000000E+00 -0.45593999997E+02  0.45594000000E+02  0.51100000000E-03 0.  1.
    9900012    2    1    2    0    0  0.38993521088E+02 -0.52858340354E+01  0.21924385195E+02  0.46142318804E+02  0.10000009507E+02 0.  0.
        -12    1    1    2    0    0 -0.38993521088E+02  0.52858340354E+01 -0.21924385195E+02  0.45045681196E+02  0.00000000000E+00 0.  1.
         11    1    3    3    0    0  0.18412900161E+02 -0.58039924559E+01  0.14129153145E+02  0.23923925046E+02  0.51100000000E-03 0.  1.
        -11    1    3    3    0    0  0.14919006373E+02 -0.14277507616E+00  0.42795708124E+01  0.15521335718E+02  0.51100000000E-03 0. -1.
        -12    1    3    3    0    0  0.56616145537E+01  0.66093349662E+00  0.35156612379E+01  0.66970580393E+01  0.00000000000E+00 0.  1.
</event>
<event>
 7    1  0.1549900E-008  0.4614231E+02  0.7816164E-02  0.1320468E+00
        -11   -1    0    0    0    0  0.00000000000E+00  0.00000000000E+00  0.45593999997E+02  0.45594000000E+02  0.51100000000E-03 0.  1.
         11   -1    0    0    0    0 -0.00000000000E+00 -0.00000000000E+00 -0.45593999997E+02  0.45594000000E+02  0.51100000000E-03 0. -1.
    9900012    2    1    2    0    0  0.17510241191E+02  0.97931279444E+01 -0.40331127654E+02  0.46142314753E+02  0.99999725731E+01 0.  0.
        -12    1    1    2    0    0 -0.17510241191E+02 -0.97931279444E+01  0.40331127654E+02  0.45045685247E+02  0.00000000000E+00 0.  1.
         11    1    3    3    0    0  0.15405378684E+02  0.72009762687E+01 -0.37145536352E+02  0.40853036885E+02  0.51100000000E-03 0. -1.
        -11    1    3    3    0    0  0.18301100828E+01  0.11751960363E+01 -0.48678671803E+00  0.22287553048E+01  0.51100000000E-03 0.  1.
         12    1    3    3    0    0  0.27475242464E+00  0.14169556394E+01 -0.26988045840E+01  0.30605225635E+01  0.00000000000E+00 0. -1.
</event>
<event>
 7    1  0.1549900E-008  0.4614232E+02  0.7816164E-02  0.1320468E+00
        -11   -1    0    0    0    0  0.00000000000E+00  0.00000000000E+00  0.45593999997E+02  0.45594000000E+02  0.51100000000E-03 0.  1.
         11   -1    0    0    0    0 -0.00000000000E+00 -0.00000000000E+00 -0.45593999997E+02  0.45594000000E+02  0.51100000000E-03 0. -1.
    9900012    2    1    2    0    0  0.14287655154E+02 -0.39536606005E+02 -0.16181260336E+02  0.46142317740E+02  0.99999998100E+01 0.  0.
        -12    1    1    2    0    0 -0.14287655154E+02  0.39536606005E+02  0.16181260336E+02  0.45045682260E+02  0.00000000000E+00 0.  1.
         11    1    3    3    0    0  0.67061943360E+01 -0.20802723539E+02 -0.12867282664E+02  0.25363227565E+02  0.51100000000E-03 0. -1.
        -11    1    3    3    0    0  0.67908321539E+01 -0.17736527961E+02 -0.38829660452E+01  0.19384974878E+02  0.51100000000E-03 0.  1.
         12    1    3    3    0    0  0.79062866416E+00 -0.99735450479E+00  0.56898837294E+00  0.13941152970E+01  0.00000000000E+00 0. -1.
</event>
<event>
 7    1  0.1549900E-008  0.4614232E+02  0.7816164E-02  0.1320468E+00
        -11   -1    0    0    0    0  0.00000000000E+00  0.00000000000E+00  0.45593999997E+02  0.45594000000E+02  0.51100000000E-03 0.  1.
         11   -1    0    0    0    0 -0.00000000000E+00 -0.00000000000E+00 -0.45593999997E+02  0.45594000000E+02  0.51100000000E-03 0. -1.
    9900012    2    1    2    0    0 -0.22774624250E+02  0.16688604614E+02 -0.35098724395E+02  0.46142317767E+02  0.10000000050E+02 0.  0.
        -12    1    1    2    0    0  0.22774624250E+02 -0.16688604614E+02  0.35098724395E+02  0.45045682233E+02  0.00000000000E+00 0.  1.
         11    1    3    3    0    0 -0.21526521917E+00  0.30400281439E+01 -0.39150304872E+01  0.49614084903E+01  0.51100000000E-03 0. -1.
        -11    1    3    3    0    0 -0.21022906292E+02  0.13891912103E+02 -0.30235801072E+02  0.39359261649E+02  0.51100000000E-03 0.  1.
        -12    1    3    3    0    0 -0.15364527393E+01 -0.24333563222E+00 -0.94789283564E+00  0.18216476272E+01  0.00000000000E+00 0.  1.
</event>
<event>
 7    1  0.1627114E-008  0.4614232E+02  0.7816164E-02  0.1320468E+00
        -11   -1    0    0    0    0  0.00000000000E+00  0.00000000000E+00  0.45593999997E+02  0.45594000000E+02  0.51100000000E-03 0.  1.
         11   -1    0    0    0    0 -0.00000000000E+00 -0.00000000000E+00 -0.45593999997E+02  0.45594000000E+02  0.51100000000E-03 0. -1.
    9900012    2    1    2    0    0  0.41915701022E+02 -0.16060942975E+01 -0.16419743710E+02  0.46142317470E+02  0.99999973493E+01 0.  0.
        -12    1    1    2    0    0 -0.41915701022E+02  0.16060942975E+01  0.16419743710E+02  0.45045682530E+02  0.00000000000E+00 0.  1.
         11    1    3    3    0    0  0.33330454383E+02 -0.30306507139E+01 -0.10439898808E+02  0.35058458616E+02  0.51100000000E-03 0. -1.
        -11    1    3    3    0    0  0.70964720793E+01  0.31422390733E-01 -0.55277906315E+01  0.89954084324E+01  0.51100000000E-03 0.  1.
         12    1    3    3    0    0  0.14887745594E+01  0.13931340257E+01 -0.45205427083E+00  0.20884504222E+01  0.00000000000E+00 0. -1.
</event>
<event>
 7    1  0.1549900E-008  0.4614231E+02  0.7816164E-02  0.1320468E+00
        -11   -1    0    0    0    0  0.00000000000E+00  0.00000000000E+00  0.45593999997E+02  0.45594000000E+02  0.51100000000E-03 0.  1.
         11   -1    0    0    0    0 -0.00000000000E+00 -0.00000000000E+00 -0.45593999997E+02  0.45594000000E+02  0.51100000000E-03 0. -1.
    9900012    2    1    2    0    0 -0.14630421478E+02 -0.11474136527E+02 -0.41029364210E+02  0.46142314645E+02  0.99999715827E+01 0.  0.
        -12    1    1    2    0    0  0.14630421478E+02  0.11474136527E+02  0.41029364210E+02  0.45045685355E+02  0.00000000000E+00 0.  1.
         11    1    3    3    0    0 -0.88945425630E+01 -0.61496465864E+01 -0.15122482277E+02  0.18590871712E+02  0.51100000000E-03 0. -1.
        -11    1    3    3    0    0 -0.16338526946E+01 -0.15427645631E+01 -0.20198289758E+01  0.30214742226E+01  0.51100000000E-03 0.  1.
         12    1    3    3    0    0 -0.41020262204E+01 -0.37817253774E+01 -0.23887052957E+02  0.24529968710E+02  0.00000000000E+00 0. -1.
</event>
<event>
 7    1  0.1549900E-008  0.4614232E+02  0.7816164E-02  0.1320468E+00
        -11   -1    0    0    0    0  0.00000000000E+00  0.00000000000E+00  0.45593999997E+02  0.45594000000E+02  0.51100000000E-03 0.  1.
         11   -1    0    0    0    0 -0.00000000000E+00 -0.00000000000E+00 -0.45593999997E+02  0.45594000000E+02  0.51100000000E-03 0. -1.
    9900012    2    1    2    0    0 -0.37137086775E+02 -0.56491791577E+01 -0.24860352025E+02  0.46142317164E+02  0.99999945595E+01 0.  0.
        -12    1    1    2    0    0  0.37137086775E+02  0.56491791577E+01  0.24860352025E+02  0.45045682836E+02  0.00000000000E+00 0.  1.
         11    1    3    3    0    0 -0.20893841445E+02 -0.11234463584E+01 -0.14483238980E+02  0.25447572647E+02  0.51100000000E-03 0. -1.
        -11    1    3    3    0    0 -0.73429436117E+01 -0.12088131380E+01 -0.12959356389E+01  0.75537738600E+01  0.51100000000E-03 0.  1.
         12    1    3    3    0    0 -0.89003017191E+01 -0.33169196613E+01 -0.90811774062E+01  0.13140970657E+02  0.00000000000E+00 0. -1.
</event>
<event>
 7    1  0.1549900E-008  0.4614232E+02  0.7816164E-02  0.1320468E+00
        -11   -1    0    0    0    0  0.00000000000E+00  0.00000000000E+00  0.45593999997E+02  0.45594000000E+02  0.51100000000E-03 0. -1.
         11   -1    0    0    0    0 -0.00000000000E+00 -0.00000000000E+00 -0.45593999997E+02  0.45594000000E+02  0.51100000000E-03 0.  1.
    9900012    2    1    2    0    0  0.12530526056E+02 -0.39506562816E+02  0.17644570364E+02  0.46142318163E+02  0.10000003669E+02 0.  0.
        -12    1    1    2    0    0 -0.12530526056E+02  0.39506562816E+02 -0.17644570364E+02  0.45045681837E+02  0.00000000000E+00 0.  1.
         11    1    3    3    0    0  0.75300347942E+01 -0.20004663574E+02  0.76459405438E+01  0.22701286214E+02  0.51100000000E-03 0. -1.
        -11    1    3    3    0    0  0.58969321558E+01 -0.18209239554E+02  0.10446427215E+02  0.21805459312E+02  0.51100000000E-03 0.  1.
        -12    1    3    3    0    0 -0.89644089426E+00 -0.12926596881E+01 -0.44779739451E+00  0.16355726375E+01  0.00000000000E+00 0.  1.
</event>
<event>
 7    1  0.1549900E-008  0.4614232E+02  0.7816164E-02  0.1320468E+00
        -11   -1    0    0    0    0  0.00000000000E+00  0.00000000000E+00  0.45593999997E+02  0.45594000000E+02  0.51100000000E-03 0.  1.
         11   -1    0    0    0    0 -0.00000000000E+00 -0.00000000000E+00 -0.45593999997E+02  0.45594000000E+02  0.51100000000E-03 0. -1.
    9900012    2    1    2    0    0 -0.10724907151E+02 -0.23327928266E+00 -0.43749692342E+02  0.46142316159E+02  0.99999853945E+01 0.  0.
        -12    1    1    2    0    0  0.10724907151E+02  0.23327928266E+00  0.43749692342E+02  0.45045683841E+02  0.00000000000E+00 0.  1.
         11    1    3    3    0    0 -0.50556994280E+01 -0.44419774018E+01 -0.21299923651E+02  0.22337815644E+02  0.51100000000E-03 0. -1.
        -11    1    3    3    0    0 -0.61235017102E+01  0.34871853133E+01 -0.20468206203E+02  0.21647290824E+02  0.51100000000E-03 0.  1.
        -12    1    3    3    0    0  0.45429398747E+00  0.72151280585E+00 -0.19815624878E+01  0.21572096906E+01  0.00000000000E+00 0.  1.
</event>
<event>
 7    1  0.1549900E-008  0.4614232E+02  0.7816164E-02  0.1320468E+00
        -11   -1    0    0    0    0  0.00000000000E+00  0.00000000000E+00  0.45593999997E+02  0.45594000000E+02  0.51100000000E-03 0.  1.
         11   -1    0    0    0    0 -0.00000000000E+00 -0.00000000000E+00 -0.45593999997E+02  0.45594000000E+02  0.51100000000E-03 0. -1.
    9900012    2    1    2    0    0  0.17017281311E+02 -0.25278381943E+02 -0.33174220982E+02  0.46142318801E+02  0.10000009486E+02 0.  0.
        -12    1    1    2    0    0 -0.17017281311E+02  0.25278381943E+02  0.33174220982E+02  0.45045681199E+02  0.00000000000E+00 0.  1.
         11    1    3    3    0    0  0.43884637177E+01 -0.85510821311E+01 -0.97758588922E+01  0.13709377694E+02  0.51100000000E-03 0. -1.
        -11    1    3    3    0    0  0.70865207882E+01 -0.34089184343E+01 -0.64036337107E+01  0.10141303010E+02  0.51100000000E-03 0.  1.
        -12    1    3    3    0    0  0.55422968050E+01 -0.13318381377E+02 -0.16994728380E+02  0.22291638098E+02  0.00000000000E+00 0.  1.
</event>
<event>
 7    1  0.1549900E-008  0.4614232E+02  0.7816164E-02  0.1320468E+00
        -11   -1    0    0    0    0  0.00000000000E+00  0.00000000000E+00  0.45593999997E+02  0.45594000000E+02  0.51100000000E-03 0.  1.
         11   -1    0    0    0    0 -0.00000000000E+00 -0.00000000000E+00 -0.45593999997E+02  0.45594000000E+02  0.51100000000E-03 0. -1.
    9900012    2    1    2    0    0  0.39291022863E+02 -0.11660658508E+02 -0.18691123197E+02  0.46142317401E+02  0.99999967173E+01 0.  0.
        -12    1    1    2    0    0 -0.39291022863E+02  0.11660658508E+02  0.18691123197E+02  0.45045682599E+02  0.00000000000E+00 0.  1.
         11    1    3    3    0    0  0.26727189128E+02 -0.82098863193E+01 -0.14437280560E+02  0.31467124786E+02  0.51100000000E-03 0. -1.
        -11    1    3    3    0    0  0.73135281210E+01  0.34640702046E-01 -0.40717658836E+01  0.83706732840E+01  0.51100000000E-03 0.  1.
        -12    1    3    3    0    0  0.52503056134E+01 -0.34854128905E+01 -0.18207675352E+00  0.63045193310E+01  0.00000000000E+00 0.  1.
</event>
<event>
 7    1  0.1549900E-008  0.4614232E+02  0.7816164E-02  0.1320468E+00
        -11   -1    0    0    0    0  0.00000000000E+00  0.00000000000E+00  0.45593999997E+02  0.45594000000E+02  0.51100000000E-03 0.  1.
         11   -1    0    0    0    0 -0.00000000000E+00 -0.00000000000E+00 -0.45593999997E+02  0.45594000000E+02  0.51100000000E-03 0. -1.
    9900012    2    1    2    0    0  0.38316613394E+02  0.46902821465E+01 -0.23215337014E+02  0.46142317840E+02  0.10000000721E+02 0.  0.
        -12    1    1    2    0    0 -0.38316613394E+02 -0.46902821465E+01  0.23215337014E+02  0.45045682160E+02  0.00000000000E+00 0.  1.
         11    1    3    3    0    0  0.17060700294E+02 -0.30432954795E+00 -0.94104709834E+01  0.19486330475E+02  0.51100000000E-03 0. -1.
        -11    1    3    3    0    0  0.14303249752E+02  0.12370527720E+00 -0.90411391063E+01  0.16921597237E+02  0.51100000000E-03 0.  1.
        -12    1    3    3    0    0  0.69526633484E+01  0.48709064173E+01 -0.47637269238E+01  0.97343901281E+01  0.00000000000E+00 0.  1.
</event>
<event>
 7    1  0.1549900E-008  0.4614232E+02  0.7816164E-02  0.1320468E+00
        -11   -1    0    0    0    0  0.00000000000E+00  0.00000000000E+00  0.45593999997E+02  0.45594000000E+02  0.51100000000E-03 0.  1.
         11   -1    0    0    0    0 -0.00000000000E+00 -0.00000000000E+00 -0.45593999997E+02  0.45594000000E+02  0.51100000000E-03 0. -1.
    9900012    2    1    2    0    0  0.85177794673E+01  0.17759155342E+02 -0.40511396971E+02  0.46142318186E+02  0.10000003878E+02 0.  0.
        -12    1    1    2    0    0 -0.85177794673E+01 -0.17759155342E+02  0.40511396971E+02  0.45045681814E+02  0.00000000000E+00 0.  1.
         11    1    3    3    0    0 -0.15911589286E+01  0.50757702171E+01 -0.12032786596E+02  0.13156108222E+02  0.51100000000E-03 0. -1.
        -11    1    3    3    0    0  0.30725463380E+01  0.36199466724E+01 -0.52528126689E+01  0.70807200274E+01  0.51100000000E-03 0.  1.
         12    1    3    3    0    0  0.70363920579E+01  0.90634384529E+01 -0.23225797706E+02  0.25905489937E+02  0.00000000000E+00 0. -1.
</event>
<event>
 7    1  0.1549900E-008  0.4614232E+02  0.7816164E-02  0.1320468E+00
        -11   -1    0    0    0    0  0.00000000000E+00  0.00000000000E+00  0.45593999997E+02  0.45594000000E+02  0.51100000000E-03 0.  1.
         11   -1    0    0    0    0 -0.00000000000E+00 -0.00000000000E+00 -0.45593999997E+02  0.45594000000E+02  0.51100000000E-03 0. -1.
    9900012    2    1    2    0    0 -0.56881658930E+01  0.47702637100E+01 -0.44429752105E+02  0.46142317419E+02  0.99999968784E+01 0.  0.
        -12    1    1    2    0    0  0.56881658930E+01 -0.47702637100E+01  0.44429752105E+02  0.45045682581E+02  0.00000000000E+00 0.  1.
         11    1    3    3    0    0 -0.14380254509E+01  0.44029466355E-01 -0.15125634769E+02  0.15193902830E+02  0.51100000000E-03 0. -1.
        -11    1    3    3    0    0  0.19746356892E+01  0.21858975313E+01 -0.58512651470E+01  0.65509265149E+01  0.51100000000E-03 0.  1.
         12    1    3    3    0    0 -0.62247761312E+01  0.25403367124E+01 -0.23452852189E+02  0.24397488074E+02  0.00000000000E+00 0. -1.
</event>
<event>
 7    1  0.1549900E-008  0.4614232E+02  0.7816164E-02  0.1320468E+00
        -11   -1    0    0    0    0  0.00000000000E+00  0.00000000000E+00  0.45593999997E+02  0.45594000000E+02  0.51100000000E-03 0. -1.
         11   -1    0    0    0    0 -0.00000000000E+00 -0.00000000000E+00 -0.45593999997E+02  0.45594000000E+02  0.51100000000E-03 0.  1.
    9900012    2    1    2    0    0 -0.37558263321E+01 -0.33998645259E+01  0.44759894547E+02  0.46142317964E+02  0.10000001846E+02 0.  0.
        -12    1    1    2    0    0  0.37558263321E+01  0.33998645259E+01 -0.44759894547E+02  0.45045682036E+02  0.00000000000E+00 0.  1.
         11    1    3    3    0    0 -0.33748117554E+00 -0.20537787863E+01  0.23067771570E+02  0.23161476342E+02  0.51100000000E-03 0. -1.
        -11    1    3    3    0    0 -0.42703022179E+01 -0.45669035762E+00  0.68316331948E+01  0.80694026721E+01  0.51100000000E-03 0.  1.
         12    1    3    3    0    0  0.85195706131E+00 -0.88939538192E+00  0.14860489782E+02  0.14911438950E+02  0.00000000000E+00 0. -1.
</event>
<event>
 7    1  0.1549900E-008  0.4614232E+02  0.7816164E-02  0.1320468E+00
        -11   -1    0    0    0    0  0.00000000000E+00  0.00000000000E+00  0.45593999997E+02  0.45594000000E+02  0.51100000000E-03 0. -1.
         11   -1    0    0    0    0 -0.00000000000E+00 -0.00000000000E+00 -0.45593999997E+02  0.45594000000E+02  0.51100000000E-03 0.  1.
    9900012    2    1    2    0    0  0.37666716230E+02 -0.99991972313E+01 -0.22590883256E+02  0.46142318042E+02  0.10000002560E+02 0.  0.
        -12    1    1    2    0    0 -0.37666716230E+02  0.99991972313E+01  0.22590883256E+02  0.45045681958E+02  0.00000000000E+00 0.  1.
         11    1    3    3    0    0  0.95319938081E+01 -0.10876260145E+01 -0.23948455880E+01  0.98882314879E+01  0.51100000000E-03 0. -1.
        -11    1    3    3    0    0  0.12374762207E+02 -0.68995326409E+01 -0.10582311424E+02  0.17683992922E+02  0.51100000000E-03 0.  1.
         12    1    3    3    0    0  0.15759960215E+02 -0.20120385759E+01 -0.96137262436E+01  0.18570093632E+02  0.00000000000E+00 0. -1.
</event>
<event>
 7    1  0.1549900E-008  0.4614232E+02  0.7816164E-02  0.1320468E+00
        -11   -1    0    0    0    0  0.00000000000E+00  0.00000000000E+00  0.45593999997E+02  0.45594000000E+02  0.51100000000E-03 0. -1.
         11   -1    0    0    0    0 -0.00000000000E+00 -0.00000000000E+00 -0.45593999997E+02  0.45594000000E+02  0.51100000000E-03 0.  1.
    9900012    2    1    2    0    0 -0.31424277616E+02 -0.22204368384E+02  0.23422089639E+02  0.46142317831E+02  0.10000000639E+02 0.  0.
        -12    1    1    2    0    0  0.31424277616E+02  0.22204368384E+02 -0.23422089639E+02  0.45045682169E+02  0.00000000000E+00 0.  1.
         11    1    3    3    0    0 -0.17242620188E+02 -0.77893564977E+01  0.11456058132E+02  0.22118392658E+02  0.51100000000E-03 0. -1.
        -11    1    3    3    0    0 -0.91693155305E+01 -0.10297121908E+02  0.54399724283E+01  0.14822292912E+02  0.51100000000E-03 0.  1.
         12    1    3    3    0    0 -0.50123418971E+01 -0.41178899786E+01  0.65260590788E+01  0.92016322612E+01  0.00000000000E+00 0. -1.
</event>
<event>
 7    1  0.1549900E-008  0.4614232E+02  0.7816164E-02  0.1320468E+00
        -11   -1    0    0    0    0  0.00000000000E+00  0.00000000000E+00  0.45593999997E+02  0.45594000000E+02  0.51100000000E-03 0. -1.
         11   -1    0    0    0    0 -0.00000000000E+00 -0.00000000000E+00 -0.45593999997E+02  0.45594000000E+02  0.51100000000E-03 0.  1.
    9900012    2    1    2    0    0  0.32259844390E+02  0.25890732608E+02  0.17834965443E+02  0.46142316662E+02  0.99999899745E+01 0.  0.
        -12    1    1    2    0    0 -0.32259844390E+02 -0.25890732608E+02 -0.17834965443E+02  0.45045683338E+02  0.00000000000E+00 0.  1.
         11    1    3    3    0    0  0.10720408281E+02  0.38277163044E+01  0.52515922216E+01  0.12536258890E+02  0.51100000000E-03 0. -1.
        -11    1    3    3    0    0  0.91136347474E+01  0.12558644301E+02  0.63402428693E+01  0.16762355589E+02  0.51100000000E-03 0.  1.
        -12    1    3    3    0    0  0.12425801361E+02  0.95043720028E+01  0.62431303525E+01  0.16843702183E+02  0.00000000000E+00 0.  1.
</event>
<event>
 7    1  0.1549900E-008  0.4614232E+02  0.7816164E-02  0.1320468E+00
        -11   -1    0    0    0    0  0.00000000000E+00  0.00000000000E+00  0.45593999997E+02  0.45594000000E+02  0.51100000000E-03 0. -1.
         11   -1    0    0    0    0 -0.00000000000E+00 -0.00000000000E+00 -0.45593999997E+02  0.45594000000E+02  0.51100000000E-03 0.  1.
    9900012    2    1    2    0    0 -0.30922630439E+02  0.14247464373E+02  0.29494306377E+02  0.46142318487E+02  0.10000006621E+02 0.  0.
        -12    1    1    2    0    0  0.30922630439E+02 -0.14247464373E+02 -0.29494306377E+02  0.45045681513E+02  0.00000000000E+00 0.  1.
         11    1    3    3    0    0 -0.40187344159E+01  0.31890606874E+01  0.86689777421E+01  0.10073306792E+02  0.51100000000E-03 0. -1.
        -11    1    3    3    0    0 -0.77630317776E+01  0.10241978292E+01  0.59075515652E+01  0.98088128400E+01  0.51100000000E-03 0.  1.
         12    1    3    3    0    0 -0.19140864245E+02  0.10034205856E+02  0.14917777069E+02  0.26260198855E+02  0.00000000000E+00 0. -1.
</event>
<event>
 7    1  0.1549900E-008  0.4614232E+02  0.7816164E-02  0.1320468E+00
        -11   -1    0    0    0    0  0.00000000000E+00  0.00000000000E+00  0.45593999997E+02  0.45594000000E+02  0.51100000000E-03 0.  1.
         11   -1    0    0    0    0 -0.00000000000E+00 -0.00000000000E+00 -0.45593999997E+02  0.45594000000E+02  0.51100000000E-03 0. -1.
    9900012    2    1    2    0    0  0.10643333182E+01  0.44911400699E+02 -0.33086125151E+01  0.46142316134E+02  0.99999851645E+01 0.  0.
        -12    1    1    2    0    0 -0.10643333182E+01 -0.44911400699E+02  0.33086125151E+01  0.45045683866E+02  0.00000000000E+00 0.  1.
         11    1    3    3    0    0 -0.12606040682E+00  0.21132837267E+02 -0.27709588229E+01  0.21314101324E+02  0.51100000000E-03 0. -1.
        -11    1    3    3    0    0 -0.37899774370E+00  0.10375898464E+02  0.31301639623E+01  0.10844391864E+02  0.51100000000E-03 0.  1.
        -12    1    3    3    0    0  0.15693914687E+01  0.13402664968E+02 -0.36678176545E+01  0.13983822946E+02  0.00000000000E+00 0.  1.
</event>
<event>
 7    1  0.1549900E-008  0.4614232E+02  0.7816164E-02  0.1320468E+00
        -11   -1    0    0    0    0  0.00000000000E+00  0.00000000000E+00  0.45593999997E+02  0.45594000000E+02  0.51100000000E-03 0.  1.
         11   -1    0    0    0    0 -0.00000000000E+00 -0.00000000000E+00 -0.45593999997E+02  0.45594000000E+02  0.51100000000E-03 0. -1.
    9900012    2    1    2    0    0 -0.36722646596E+02 -0.16245769845E+02 -0.20411655702E+02  0.46142317639E+02  0.99999988863E+01 0.  0.
        -12    1    1    2    0    0  0.36722646596E+02  0.16245769845E+02  0.20411655702E+02  0.45045682361E+02  0.00000000000E+00 0.  1.
         11    1    3    3    0    0 -0.77821198223E+00 -0.32809968355E+00 -0.27007454271E+01  0.28297154300E+01  0.51100000000E-03 0. -1.
        -11    1    3    3    0    0 -0.18537369353E+02 -0.90079387765E+01 -0.71702246781E+01  0.21821758538E+02  0.51100000000E-03 0.  1.
         12    1    3    3    0    0 -0.17407065261E+02 -0.69097313851E+01 -0.10540685597E+02  0.21490843671E+02  0.00000000000E+00 0. -1.
</event>
<event>
 7    1  0.1549900E-008  0.4614233E+02  0.7816164E-02  0.1320468E+00
        -11   -1    0    0    0    0  0.00000000000E+00  0.00000000000E+00  0.45593999997E+02  0.45594000000E+02  0.51100000000E-03 0.  1.
         11   -1    0    0    0    0 -0.00000000000E+00 -0.00000000000E+00 -0.45593999997E+02  0.45594000000E+02  0.51100000000E-03 0. -1.
    9900012    2    1    2    0    0 -0.31958937055E+02  0.10065305150E+02 -0.30106947927E+02  0.46142330520E+02  0.10000116341E+02 0.  0.
        -12    1    1    2    0    0  0.31958937055E+02 -0.10065305150E+02  0.30106947927E+02  0.45045669480E+02  0.00000000000E+00 0.  1.
         11    1    3    3    0    0 -0.33605643355E+01  0.17196900254E+01 -0.61098509543E+01  0.71819917419E+01  0.51100000000E-03 0. -1.
        -11    1    3    3    0    0 -0.11539894378E+02  0.38784790808E+00 -0.11922286882E+02  0.16597003134E+02  0.51100000000E-03 0.  1.
        -12    1    3    3    0    0 -0.17058478341E+02  0.79577672161E+01 -0.12074810091E+02  0.22363335644E+02  0.00000000000E+00 0.  1.
</event>
<event>
 7    1  0.1549900E-008  0.4614232E+02  0.7816164E-02  0.1320468E+00
        -11   -1    0    0    0    0  0.00000000000E+00  0.00000000000E+00  0.45593999997E+02  0.45594000000E+02  0.51100000000E-03 0.  1.
         11   -1    0    0    0    0 -0.00000000000E+00 -0.00000000000E+00 -0.45593999997E+02  0.45594000000E+02  0.51100000000E-03 0. -1.
    9900012    2    1    2    0    0 -0.37280768955E+02 -0.65605329148E+00 -0.25275034488E+02  0.46142317541E+02  0.99999979963E+01 0.  0.
        -12    1    1    2    0    0  0.37280768955E+02  0.65605329148E+00  0.25275034488E+02  0.45045682459E+02  0.00000000000E+00 0.  1.
         11    1    3    3    0    0 -0.16042106340E+02 -0.67459772855E+00 -0.61054803488E+01  0.17177926198E+02  0.51100000000E-03 0. -1.
        -11    1    3    3    0    0 -0.16875141063E+02 -0.44278576653E-02 -0.17447941056E+02  0.24273463965E+02  0.51100000000E-03 0.  1.
        -12    1    3    3    0    0 -0.43635215522E+01  0.22972294739E-01 -0.17216130834E+01  0.46909273787E+01  0.00000000000E+00 0.  1.
</event>
<event>
 7    1  0.1549900E-008  0.4614232E+02  0.7816164E-02  0.1320468E+00
        -11   -1    0    0    0    0  0.00000000000E+00  0.00000000000E+00  0.45593999997E+02  0.45594000000E+02  0.51100000000E-03 0.  1.
         11   -1    0    0    0    0 -0.00000000000E+00 -0.00000000000E+00 -0.45593999997E+02  0.45594000000E+02  0.51100000000E-03 0. -1.
    9900012    2    1    2    0    0 -0.12543876150E+02 -0.98521359618E+01 -0.42127187877E+02  0.46142319072E+02  0.10000011951E+02 0.  0.
        -12    1    1    2    0    0  0.12543876150E+02  0.98521359618E+01  0.42127187877E+02  0.45045680928E+02  0.00000000000E+00 0.  1.
         11    1    3    3    0    0 -0.63035920204E+01 -0.30471683728E+01 -0.20495197294E+02  0.21658107485E+02  0.51100000000E-03 0. -1.
        -11    1    3    3    0    0  0.91410752299E+00 -0.47962954689E+00 -0.24345111451E+00  0.10606157514E+01  0.51100000000E-03 0.  1.
        -12    1    3    3    0    0 -0.71543916530E+01 -0.63253380421E+01 -0.21388539469E+02  0.23423595836E+02  0.00000000000E+00 0.  1.
</event>
<event>
 7    1  0.1549900E-008  0.4614232E+02  0.7816164E-02  0.1320468E+00
        -11   -1    0    0    0    0  0.00000000000E+00  0.00000000000E+00  0.45593999997E+02  0.45594000000E+02  0.51100000000E-03 0.  1.
         11   -1    0    0    0    0 -0.00000000000E+00 -0.00000000000E+00 -0.45593999997E+02  0.45594000000E+02  0.51100000000E-03 0. -1.
    9900012    2    1    2    0    0  0.20957430522E+01  0.37674644026E+02 -0.24603712317E+02  0.46142316509E+02  0.99999885804E+01 0.  0.
        -12    1    1    2    0    0 -0.20957430522E+01 -0.37674644026E+02  0.24603712317E+02  0.45045683491E+02  0.00000000000E+00 0.  1.
         11    1    3    3    0    0  0.27308988761E+01  0.16242027361E+02 -0.13289961902E+02  0.21163278316E+02  0.51100000000E-03 0. -1.
        -11    1    3    3    0    0 -0.26196352799E+00  0.98827278535E+01 -0.86126873155E+01  0.13111648171E+02  0.51100000000E-03 0.  1.
         12    1    3    3    0    0 -0.37319229596E+00  0.11549888811E+02 -0.27010630989E+01  0.11867390021E+02  0.00000000000E+00 0. -1.
</event>
<event>
 7    1  0.1549900E-008  0.4614232E+02  0.7816164E-02  0.1320468E+00
        -11   -1    0    0    0    0  0.00000000000E+00  0.00000000000E+00  0.45593999997E+02  0.45594000000E+02  0.51100000000E-03 0. -1.
         11   -1    0    0    0    0 -0.00000000000E+00 -0.00000000000E+00 -0.45593999997E+02  0.45594000000E+02  0.51100000000E-03 0.  1.
    9900012    2    1    2    0    0  0.57918985742E+01 -0.43971105956E+02  0.78809372265E+01  0.46142318524E+02  0.10000006956E+02 0.  0.
        -12    1    1    2    0    0 -0.57918985742E+01  0.43971105956E+02 -0.78809372265E+01  0.45045681476E+02  0.00000000000E+00 0.  1.
         11    1    3    3    0    0  0.21771988476E+01 -0.16708503794E+02  0.26470275136E+01  0.17056407851E+02  0.51100000000E-03 0. -1.
        -11    1    3    3    0    0  0.35168448145E+01 -0.68993125852E+01  0.39211910636E+01  0.86801181567E+01  0.51100000000E-03 0.  1.
        -12    1    3    3    0    0  0.97854912085E-01 -0.20363289577E+02  0.13127186493E+01  0.20405792516E+02  0.00000000000E+00 0.  1.
</event>
<event>
 7    1  0.1549900E-008  0.4614232E+02  0.7816164E-02  0.1320468E+00
        -11   -1    0    0    0    0  0.00000000000E+00  0.00000000000E+00  0.45593999997E+02  0.45594000000E+02  0.51100000000E-03 0.  1.
         11   -1    0    0    0    0 -0.00000000000E+00 -0.00000000000E+00 -0.45593999997E+02  0.45594000000E+02  0.51100000000E-03 0. -1.
    9900012    2    1    2    0    0  0.55033242531E+01  0.44520839838E+02 -0.40892207627E+01  0.46142317808E+02  0.10000000424E+02 0.  0.
        -12    1    1    2    0    0 -0.55033242531E+01 -0.44520839838E+02  0.40892207627E+01  0.45045682192E+02  0.00000000000E+00 0.  1.
         11    1    3    3    0    0  0.22368417406E+01  0.53953297420E+01 -0.10574333690E+01  0.59355883944E+01  0.51100000000E-03 0.  1.
        -11    1    3    3    0    0  0.17026401791E+01  0.25049061117E+02 -0.58181790442E+01  0.25772187607E+02  0.51100000000E-03 0. -1.
        -12    1    3    3    0    0  0.15638423335E+01  0.14076448980E+02  0.27863916505E+01  0.14434541806E+02  0.00000000000E+00 0.  1.
</event>
<event>
 7    1  0.1549900E-008  0.4614232E+02  0.7816164E-02  0.1320468E+00
        -11   -1    0    0    0    0  0.00000000000E+00  0.00000000000E+00  0.45593999997E+02  0.45594000000E+02  0.51100000000E-03 0.  1.
         11   -1    0    0    0    0 -0.00000000000E+00 -0.00000000000E+00 -0.45593999997E+02  0.45594000000E+02  0.51100000000E-03 0. -1.
    9900012    2    1    2    0    0 -0.41503385912E+02  0.30217776379E+00 -0.17506890089E+02  0.46142317031E+02  0.99999933398E+01 0.  0.
        -12    1    1    2    0    0  0.41503385912E+02 -0.30217776379E+00  0.17506890089E+02  0.45045682969E+02  0.00000000000E+00 0.  1.
         11    1    3    3    0    0 -0.16378876160E+02 -0.11722789026E+00 -0.43728088043E+01  0.16952957965E+02  0.51100000000E-03 0. -1.
        -11    1    3    3    0    0 -0.17274535826E+02 -0.27485855278E+01 -0.10091044510E+02  0.20193897345E+02  0.51100000000E-03 0.  1.
        -12    1    3    3    0    0 -0.78499739255E+01  0.31679911819E+01 -0.30430367748E+01  0.89954617209E+01  0.00000000000E+00 0.  1.
</event>
<event>
 7    1  0.1549900E-008  0.4614232E+02  0.7816164E-02  0.1320468E+00
        -11   -1    0    0    0    0  0.00000000000E+00  0.00000000000E+00  0.45593999997E+02  0.45594000000E+02  0.51100000000E-03 0.  1.
         11   -1    0    0    0    0 -0.00000000000E+00 -0.00000000000E+00 -0.45593999997E+02  0.45594000000E+02  0.51100000000E-03 0. -1.
    9900012    2    1    2    0    0  0.41195164200E+02 -0.17951784865E+02  0.31313361179E+01  0.46142318751E+02  0.10000009028E+02 0.  0.
        -12    1    1    2    0    0 -0.41195164200E+02  0.17951784865E+02 -0.31313361179E+01  0.45045681249E+02  0.00000000000E+00 0.  1.
         11    1    3    3    0    0  0.18137678819E+02 -0.12218319405E+02  0.10114398084E+01  0.21892595386E+02  0.51100000000E-03 0. -1.
        -11    1    3    3    0    0  0.22613419937E+02 -0.58463103674E+01  0.14031396439E+01  0.23399036460E+02  0.51100000000E-03 0.  1.
        -12    1    3    3    0    0  0.44406544395E+00  0.11284490660E+00  0.71675666563E+00  0.85068690432E+00  0.00000000000E+00 0.  1.
</event>
<event>
 7    1  0.1549900E-008  0.4614231E+02  0.7816164E-02  0.1320468E+00
        -11   -1    0    0    0    0  0.00000000000E+00  0.00000000000E+00  0.45593999997E+02  0.45594000000E+02  0.51100000000E-03 0.  1.
         11   -1    0    0    0    0 -0.00000000000E+00 -0.00000000000E+00 -0.45593999997E+02  0.45594000000E+02  0.51100000000E-03 0. -1.
    9900012    2    1    2    0    0 -0.19966239367E+02 -0.96624794248E+01 -0.39205868317E+02  0.46142308379E+02  0.99999144451E+01 0.  0.
        -12    1    1    2    0    0  0.19966239367E+02  0.96624794248E+01  0.39205868317E+02  0.45045691621E+02  0.00000000000E+00 0.  1.
         11    1    3    3    0    0 -0.95598496897E+00 -0.21309033053E+01 -0.13542392454E+01  0.26997444976E+01  0.51100000000E-03 0.  1.
        -11    1    3    3    0    0 -0.18243669227E+02 -0.72951489168E+01 -0.37843694976E+02  0.42640308562E+02  0.51100000000E-03 0. -1.
         12    1    3    3    0    0 -0.76658517137E+00 -0.23642720270E+00 -0.79340959790E-02  0.80225531910E+00  0.00000000000E+00 0. -1.
</event>
<event>
 7    1  0.1549900E-008  0.4614232E+02  0.7816164E-02  0.1320468E+00
        -11   -1    0    0    0    0  0.00000000000E+00  0.00000000000E+00  0.45593999997E+02  0.45594000000E+02  0.51100000000E-03 0.  1.
         11   -1    0    0    0    0 -0.00000000000E+00 -0.00000000000E+00 -0.45593999997E+02  0.45594000000E+02  0.51100000000E-03 0. -1.
    9900012    2    1    2    0    0  0.25186685830E+01  0.27407959422E+02 -0.35659127409E+02  0.46142319866E+02  0.10000019196E+02 0.  0.
        -12    1    1    2    0    0 -0.25186685830E+01 -0.27407959422E+02  0.35659127409E+02  0.45045680134E+02  0.00000000000E+00 0.  1.
         11    1    3    3    0    0  0.46116299086E+01  0.11842575260E+02 -0.11228747002E+02  0.16958728688E+02  0.51100000000E-03 0.  1.
        -11    1    3    3    0    0 -0.22920323628E+01  0.81574653251E+01 -0.14477558821E+02  0.16774902759E+02  0.51100000000E-03 0. -1.
         12    1    3    3    0    0  0.19907103713E+00  0.74079188367E+01 -0.99528215865E+01  0.12408688420E+02  0.00000000000E+00 0. -1.
</event>
<event>
 7    1  0.1549900E-008  0.4614231E+02  0.7816164E-02  0.1320468E+00
        -11   -1    0    0    0    0  0.00000000000E+00  0.00000000000E+00  0.45593999997E+02  0.45594000000E+02  0.51100000000E-03 0. -1.
         11   -1    0    0    0    0 -0.00000000000E+00 -0.00000000000E+00 -0.45593999997E+02  0.45594000000E+02  0.51100000000E-03 0.  1.
    9900012    2    1    2    0    0  0.14894029433E+02  0.18035962373E+02  0.38496567523E+02  0.46142314718E+02  0.99999722518E+01 0.  0.
        -12    1    1    2    0    0 -0.14894029433E+02 -0.18035962373E+02 -0.38496567523E+02  0.45045685282E+02  0.00000000000E+00 0.  1.
         11    1    3    3    0    0  0.93077169417E+01  0.71587942348E+01  0.26022389176E+02  0.28549022194E+02  0.51100000000E-03 0. -1.
        -11    1    3    3    0    0  0.42003641498E+01  0.81224218746E+01  0.10537184923E+02  0.13951668806E+02  0.51100000000E-03 0.  1.
         12    1    3    3    0    0  0.13859483412E+01  0.27547462634E+01  0.19369934239E+01  0.36416237182E+01  0.00000000000E+00 0. -1.
</event>
<event>
 7    1  0.1549900E-008  0.4614232E+02  0.7816164E-02  0.1320468E+00
        -11   -1    0    0    0    0  0.00000000000E+00  0.00000000000E+00  0.45593999997E+02  0.45594000000E+02  0.51100000000E-03 0.  1.
         11   -1    0    0    0    0 -0.00000000000E+00 -0.00000000000E+00 -0.45593999997E+02  0.45594000000E+02  0.51100000000E-03 0. -1.
    9900012    2    1    2    0    0 -0.13455442087E+02  0.19683322361E+02 -0.38218207980E+02  0.46142317387E+02  0.99999965849E+01 0.  0.
        -12    1    1    2    0    0  0.13455442087E+02 -0.19683322361E+02  0.38218207980E+02  0.45045682613E+02  0.00000000000E+00 0.  1.
         11    1    3    3    0    0 -0.97678630237E+01  0.10621792615E+02 -0.20248837457E+02  0.24864614315E+02  0.51100000000E-03 0. -1.
        -11    1    3    3    0    0  0.12770064489E+01  0.32469225135E+01 -0.36775508943E+01  0.50692831959E+01  0.51100000000E-03 0.  1.
        -12    1    3    3    0    0 -0.49645855126E+01  0.58146072321E+01 -0.14291819629E+02  0.16208419876E+02  0.00000000000E+00 0.  1.
</event>
<event>
 7    1  0.1549900E-008  0.4614232E+02  0.7816164E-02  0.1320468E+00
        -11   -1    0    0    0    0  0.00000000000E+00  0.00000000000E+00  0.45593999997E+02  0.45594000000E+02  0.51100000000E-03 0.  1.
         11   -1    0    0    0    0 -0.00000000000E+00 -0.00000000000E+00 -0.45593999997E+02  0.45594000000E+02  0.51100000000E-03 0. -1.
    9900012    2    1    2    0    0 -0.84071494434E+01 -0.11385907085E+02 -0.42764406578E+02  0.46142317500E+02  0.99999976207E+01 0.  0.
        -12    1    1    2    0    0  0.84071494434E+01  0.11385907085E+02  0.42764406578E+02  0.45045682500E+02  0.00000000000E+00 0.  1.
         11    1    3    3    0    0 -0.41306578090E+01 -0.11416503724E+02 -0.35504349763E+02  0.37522763005E+02  0.51100000000E-03 0. -1.
        -11    1    3    3    0    0 -0.57907377287E-01  0.33226584384E+00 -0.20732686321E+00  0.39590219077E+00  0.51100000000E-03 0.  1.
         12    1    3    3    0    0 -0.42185842571E+01 -0.30166920474E+00 -0.70527299520E+01  0.82236523042E+01  0.00000000000E+00 0. -1.
</event>
<event>
 7    1  0.1549900E-008  0.4614232E+02  0.7816164E-02  0.1320468E+00
        -11   -1    0    0    0    0  0.00000000000E+00  0.00000000000E+00  0.45593999997E+02  0.45594000000E+02  0.51100000000E-03 0.  1.
         11   -1    0    0    0    0 -0.00000000000E+00 -0.00000000000E+00 -0.45593999997E+02  0.45594000000E+02  0.51100000000E-03 0. -1.
    9900012    2    1    2    0    0 -0.13670707402E+02 -0.32177172472E+02 -0.28405189355E+02  0.46142318171E+02  0.10000003738E+02 0.  0.
        -12    1    1    2    0    0  0.13670707402E+02  0.32177172472E+02  0.28405189355E+02  0.45045681829E+02  0.00000000000E+00 0.  1.
         11    1    3    3    0    0 -0.97487774639E+00 -0.48092372150E-01 -0.20544252339E+01  0.22745027587E+01  0.51100000000E-03 0. -1.
        -11    1    3    3    0    0 -0.34157073927E+01 -0.51608754204E+01 -0.72985548705E+01  0.95692526122E+01  0.51100000000E-03 0.  1.
         12    1    3    3    0    0 -0.92801222629E+01 -0.26968204679E+02 -0.19052209251E+02  0.34298562800E+02  0.00000000000E+00 0. -1.
</event>
<event>
 7    1  0.1549900E-008  0.4614232E+02  0.7816164E-02  0.1320468E+00
        -11   -1    0    0    0    0  0.00000000000E+00  0.00000000000E+00  0.45593999997E+02  0.45594000000E+02  0.51100000000E-03 0.  1.
         11   -1    0    0    0    0 -0.00000000000E+00 -0.00000000000E+00 -0.45593999997E+02  0.45594000000E+02  0.51100000000E-03 0. -1.
    9900012    2    1    2    0    0 -0.39021491772E+02 -0.17918092038E+02 -0.13615382242E+02  0.46142317898E+02  0.10000001250E+02 0.  0.
        -12    1    1    2    0    0  0.39021491772E+02  0.17918092038E+02  0.13615382242E+02  0.45045682102E+02  0.00000000000E+00 0.  1.
         11    1    3    3    0    0 -0.64274520761E+01 -0.13532540529E+01 -0.29253695533E+01  0.71903563199E+01  0.51100000000E-03 0. -1.
        -11    1    3    3    0    0 -0.23335566667E+02 -0.13137980967E+02 -0.41237867664E+01  0.27095402435E+02  0.51100000000E-03 0.  1.
        -12    1    3    3    0    0 -0.92584730290E+01 -0.34268570179E+01 -0.65662259223E+01  0.11856559143E+02  0.00000000000E+00 0.  1.
</event>
<event>
 7    1  0.1606049E-008  0.4614232E+02  0.7816164E-02  0.1320468E+00
        -11   -1    0    0    0    0  0.00000000000E+00  0.00000000000E+00  0.45593999997E+02  0.45594000000E+02  0.51100000000E-03 0.  1.
         11   -1    0    0    0    0 -0.00000000000E+00 -0.00000000000E+00 -0.45593999997E+02  0.45594000000E+02  0.51100000000E-03 0. -1.
    9900012    2    1    2    0    0  0.16214122698E+02  0.37810037546E+02 -0.18347118473E+02  0.46142317961E+02  0.10000001821E+02 0.  0.
        -12    1    1    2    0    0 -0.16214122698E+02 -0.37810037546E+02  0.18347118473E+02  0.45045682039E+02  0.00000000000E+00 0.  1.
         11    1    3    3    0    0  0.12072859967E+02  0.30825931140E+02 -0.15618997951E+02  0.36605260219E+02  0.51100000000E-03 0. -1.
        -11    1    3    3    0    0 -0.54124057420E+00  0.12917900585E+01 -0.15218010895E+01  0.20682218768E+01  0.51100000000E-03 0.  1.
         12    1    3    3    0    0  0.46825033057E+01  0.56923163475E+01 -0.12063194323E+01  0.74688358652E+01  0.00000000000E+00 0. -1.
</event>
<event>
 7    1  0.1549900E-008  0.4614232E+02  0.7816164E-02  0.1320468E+00
        -11   -1    0    0    0    0  0.00000000000E+00  0.00000000000E+00  0.45593999997E+02  0.45594000000E+02  0.51100000000E-03 0.  1.
         11   -1    0    0    0    0 -0.00000000000E+00 -0.00000000000E+00 -0.45593999997E+02  0.45594000000E+02  0.51100000000E-03 0. -1.
    9900012    2    1    2    0    0  0.32353926367E+02  0.62649522616E+01 -0.30709726469E+02  0.46142317876E+02  0.10000001046E+02 0.  0.
        -12    1    1    2    0    0 -0.32353926367E+02 -0.62649522616E+01  0.30709726469E+02  0.45045682124E+02  0.00000000000E+00 0.  1.
         11    1    3    3    0    0  0.18519451454E+01  0.14892842673E+01 -0.22425417740E+01  0.32675162310E+01  0.51100000000E-03 0. -1.
        -11    1    3    3    0    0  0.17528933816E+02 -0.97864604850E+00 -0.18680479907E+02  0.25635553410E+02  0.51100000000E-03 0.  1.
        -12    1    3    3    0    0  0.12973047406E+02  0.57543140427E+01 -0.97867047881E+01  0.17239248235E+02  0.00000000000E+00 0.  1.
</event>
<event>
 7    1  0.1549900E-008  0.4614232E+02  0.7816164E-02  0.1320468E+00
        -11   -1    0    0    0    0  0.00000000000E+00  0.00000000000E+00  0.45593999997E+02  0.45594000000E+02  0.51100000000E-03 0.  1.
         11   -1    0    0    0    0 -0.00000000000E+00 -0.00000000000E+00 -0.45593999997E+02  0.45594000000E+02  0.51100000000E-03 0. -1.
    9900012    2    1    2    0    0 -0.37720193290E+02  0.41314724264E+01  0.24274085531E+02  0.46142320134E+02  0.10000021637E+02 0.  0.
        -12    1    1    2    0    0  0.37720193290E+02 -0.41314724264E+01 -0.24274085531E+02  0.45045679866E+02  0.00000000000E+00 0.  1.
         11    1    3    3    0    0 -0.28630970663E+02  0.42288418339E+01  0.13936778977E+02  0.32122412625E+02  0.51100000000E-03 0. -1.
        -11    1    3    3    0    0 -0.25886365638E+01  0.24545978186E+00  0.48625645927E+01  0.55141476624E+01  0.51100000000E-03 0.  1.
         12    1    3    3    0    0 -0.65005860636E+01 -0.34282918933E+00  0.54747419611E+01  0.85057598463E+01  0.00000000000E+00 0. -1.
</event>
<event>
 7    1  0.1549900E-008  0.4614232E+02  0.7816164E-02  0.1320468E+00
        -11   -1    0    0    0    0  0.00000000000E+00  0.00000000000E+00  0.45593999997E+02  0.45594000000E+02  0.51100000000E-03 0. -1.
         11   -1    0    0    0    0 -0.00000000000E+00 -0.00000000000E+00 -0.45593999997E+02  0.45594000000E+02  0.51100000000E-03 0.  1.
    9900012    2    1    2    0    0  0.22216837620E+02  0.74500489738E+01  0.38471057622E+02  0.46142318985E+02  0.10000011158E+02 0.  0.
        -12    1    1    2    0    0 -0.22216837620E+02 -0.74500489738E+01 -0.38471057622E+02  0.45045681015E+02  0.00000000000E+00 0.  1.
         11    1    3    3    0    0  0.84922668667E+01  0.62499684344E+00  0.10457499278E+02  0.13485863302E+02  0.51100000000E-03 0. -1.
        -11    1    3    3    0    0  0.75421814979E+01  0.72834803232E+01  0.15848471855E+02  0.19002832625E+02  0.51100000000E-03 0.  1.
        -12    1    3    3    0    0  0.61823892555E+01 -0.45842819284E+00  0.12165086489E+02  0.13653623058E+02  0.00000000000E+00 0.  1.
</event>
<event>
 7    1  0.1549900E-008  0.4614232E+02  0.7816164E-02  0.1320468E+00
        -11   -1    0    0    0    0  0.00000000000E+00  0.00000000000E+00  0.45593999997E+02  0.45594000000E+02  0.51100000000E-03 0. -1.
         11   -1    0    0    0    0 -0.00000000000E+00 -0.00000000000E+00 -0.45593999997E+02  0.45594000000E+02  0.51100000000E-03 0.  1.
    9900012    2    1    2    0    0 -0.40297240152E+02  0.16329351494E+02  0.11772775588E+02  0.46142317309E+02  0.99999958781E+01 0.  0.
        -12    1    1    2    0    0  0.40297240152E+02 -0.16329351494E+02 -0.11772775588E+02  0.45045682691E+02  0.00000000000E+00 0.  1.
         11    1    3    3    0    0 -0.29587315520E+02  0.70080905684E+01  0.82698914736E+01  0.31510532816E+02  0.51100000000E-03 0. -1.
        -11    1    3    3    0    0 -0.45632879905E+01  0.36853879493E+01  0.15456689942E+01  0.60658696427E+01  0.51100000000E-03 0.  1.
         12    1    3    3    0    0 -0.61466366410E+01  0.56358729758E+01  0.19572151204E+01  0.85659148504E+01  0.00000000000E+00 0. -1.
</event>
<event>
 7    1  0.1549900E-008  0.4614232E+02  0.7816164E-02  0.1320468E+00
        -11   -1    0    0    0    0  0.00000000000E+00  0.00000000000E+00  0.45593999997E+02  0.45594000000E+02  0.51100000000E-03 0.  1.
         11   -1    0    0    0    0 -0.00000000000E+00 -0.00000000000E+00 -0.45593999997E+02  0.45594000000E+02  0.51100000000E-03 0. -1.
    9900012    2    1    2    0    0  0.32288160363E+02 -0.18641673521E+02 -0.25279955373E+02  0.46142318354E+02  0.10000005405E+02 0.  0.
        -12    1    1    2    0    0 -0.32288160363E+02  0.18641673521E+02  0.25279955373E+02  0.45045681646E+02  0.00000000000E+00 0.  1.
         11    1    3    3    0    0  0.31110602094E+01 -0.31627963002E+01 -0.17914975027E+01  0.47844999348E+01  0.51100000000E-03 0. -1.
        -11    1    3    3    0    0  0.32808570010E+01 -0.25862330917E+01 -0.13535446826E+00  0.41798259963E+01  0.51100000000E-03 0.  1.
        -12    1    3    3    0    0  0.25896243153E+02 -0.12892644129E+02 -0.23353103402E+02  0.37177992423E+02  0.00000000000E+00 0.  1.
</event>
<event>
 7    1  0.1549900E-008  0.4614230E+02  0.7816164E-02  0.1320468E+00
        -11   -1    0    0    0    0  0.00000000000E+00  0.00000000000E+00  0.45593999997E+02  0.45594000000E+02  0.51100000000E-03 0. -1.
         11   -1    0    0    0    0 -0.00000000000E+00 -0.00000000000E+00 -0.45593999997E+02  0.45594000000E+02  0.51100000000E-03 0.  1.
    9900012    2    1    2    0    0 -0.34377999652E+02 -0.16761097644E+02  0.23797765660E+02  0.46142302040E+02  0.99998566376E+01 0.  0.
        -12    1    1    2    0    0  0.34377999652E+02  0.16761097644E+02 -0.23797765660E+02  0.45045697960E+02  0.00000000000E+00 0.  1.
         11    1    3    3    0    0 -0.30038142111E+02 -0.12669775948E+02  0.20141709620E+02  0.38321034312E+02  0.51100000000E-03 0. -1.
        -11    1    3    3    0    0  0.29685288018E+00 -0.48711627718E+00  0.14320648085E+01  0.15414972517E+01  0.51100000000E-03 0.  1.
        -12    1    3    3    0    0 -0.46367104210E+01 -0.36042054190E+01  0.22239912319E+01  0.62797704759E+01  0.00000000000E+00 0.  1.
</event>
<event>
 7    1  0.1549900E-008  0.4614232E+02  0.7816164E-02  0.1320468E+00
        -11   -1    0    0    0    0  0.00000000000E+00  0.00000000000E+00  0.45593999997E+02  0.45594000000E+02  0.51100000000E-03 0.  1.
         11   -1    0    0    0    0 -0.00000000000E+00 -0.00000000000E+00 -0.45593999997E+02  0.45594000000E+02  0.51100000000E-03 0. -1.
    9900012    2    1    2    0    0  0.20295945908E+02 -0.21493003932E+01 -0.40156800233E+02  0.46142317438E+02  0.99999970562E+01 0.  0.
        -12    1    1    2    0    0 -0.20295945908E+02  0.21493003932E+01  0.40156800233E+02  0.45045682562E+02  0.00000000000E+00 0.  1.
         11    1    3    3    0    0  0.10888734048E+02 -0.14424174454E+01 -0.17131979264E+02  0.20350671021E+02  0.51100000000E-03 0. -1.
        -11    1    3    3    0    0  0.45972314290E+00  0.19397193943E+01 -0.21814561875E+01  0.29550986542E+01  0.51100000000E-03 0.  1.
        -12    1    3    3    0    0  0.89474887173E+01 -0.26466023421E+01 -0.20843364782E+02  0.22836547763E+02  0.00000000000E+00 0.  1.
</event>
<event>
 7    1  0.1549900E-008  0.4614232E+02  0.7816164E-02  0.1320468E+00
        -11   -1    0    0    0    0  0.00000000000E+00  0.00000000000E+00  0.45593999997E+02  0.45594000000E+02  0.51100000000E-03 0. -1.
         11   -1    0    0    0    0 -0.00000000000E+00 -0.00000000000E+00 -0.45593999997E+02  0.45594000000E+02  0.51100000000E-03 0.  1.
    9900012    2    1    2    0    0 -0.30847068728E+02  0.17972829075E+02  0.27469055519E+02  0.46142320461E+02  0.10000024616E+02 0.  0.
        -12    1    1    2    0    0  0.30847068728E+02 -0.17972829075E+02 -0.27469055519E+02  0.45045679539E+02  0.00000000000E+00 0.  1.
         11    1    3    3    0    0 -0.45440193728E+01  0.59775841565E+01  0.70936370654E+01  0.10329535879E+02  0.51100000000E-03 0. -1.
        -11    1    3    3    0    0 -0.86563674158E+01  0.11350516353E+01  0.59538632615E+01  0.10567380331E+02  0.51100000000E-03 0.  1.
         12    1    3    3    0    0 -0.17646681939E+02  0.10860193283E+02  0.14421555192E+02  0.25245404251E+02  0.00000000000E+00 0. -1.
</event>
<event>
 7    1  0.1549900E-008  0.4614231E+02  0.7816164E-02  0.1320468E+00
        -11   -1    0    0    0    0  0.00000000000E+00  0.00000000000E+00  0.45593999997E+02  0.45594000000E+02  0.51100000000E-03 0.  1.
         11   -1    0    0    0    0 -0.00000000000E+00 -0.00000000000E+00 -0.45593999997E+02  0.45594000000E+02  0.51100000000E-03 0. -1.
    9900012    2    1    2    0    0 -0.37779069588E+02 -0.16644900069E+02 -0.18022291668E+02  0.46142314366E+02  0.99999690442E+01 0.  0.
        -12    1    1    2    0    0  0.37779069588E+02  0.16644900069E+02  0.18022291668E+02  0.45045685634E+02  0.00000000000E+00 0.  1.
         11    1    3    3    0    0 -0.14829758127E+02 -0.36571821533E+01 -0.92715148624E+01  0.17867783733E+02  0.51100000000E-03 0. -1.
        -11    1    3    3    0    0 -0.21890225502E+02 -0.10837827263E+02 -0.73953928692E+01  0.25521212907E+02  0.51100000000E-03 0.  1.
        -12    1    3    3    0    0 -0.10590859586E+01 -0.21498906529E+01 -0.13553839365E+01  0.27533177264E+01  0.00000000000E+00 0.  1.
</event>
<event>
 7    1  0.1549900E-008  0.4614232E+02  0.7816164E-02  0.1320468E+00
        -11   -1    0    0    0    0  0.00000000000E+00  0.00000000000E+00  0.45593999997E+02  0.45594000000E+02  0.51100000000E-03 0. -1.
         11   -1    0    0    0    0 -0.00000000000E+00 -0.00000000000E+00 -0.45593999997E+02  0.45594000000E+02  0.51100000000E-03 0.  1.
    9900012    2    1    2    0    0  0.19775399608E+02 -0.40178487362E+02  0.48719840034E+01  0.46142317583E+02  0.99999983733E+01 0.  0.
        -12    1    1    2    0    0 -0.19775399608E+02  0.40178487362E+02 -0.48719840034E+01  0.45045682417E+02  0.00000000000E+00 0.  1.
         11    1    3    3    0    0  0.42002284719E+01 -0.11385149134E+02  0.19169373883E+01  0.12285690425E+02  0.51100000000E-03 0. -1.
        -11    1    3    3    0    0  0.86148862389E+01 -0.12199344857E+02  0.49927745284E+01  0.15747002178E+02  0.51100000000E-03 0.  1.
        -12    1    3    3    0    0  0.69602848967E+01 -0.16593993371E+02 -0.20377279133E+01  0.18109624979E+02  0.00000000000E+00 0.  1.
</event>
<event>
 7    1  0.1549900E-008  0.4614232E+02  0.7816164E-02  0.1320468E+00
        -11   -1    0    0    0    0  0.00000000000E+00  0.00000000000E+00  0.45593999997E+02  0.45594000000E+02  0.51100000000E-03 0.  1.
         11   -1    0    0    0    0 -0.00000000000E+00 -0.00000000000E+00 -0.45593999997E+02  0.45594000000E+02  0.51100000000E-03 0. -1.
    9900012    2    1    2    0    0  0.20562888384E+02 -0.21747660266E+02 -0.33664824587E+02  0.46142317407E+02  0.99999967745E+01 0.  0.
        -12    1    1    2    0    0 -0.20562888384E+02  0.21747660266E+02  0.33664824587E+02  0.45045682593E+02  0.00000000000E+00 0.  1.
         11    1    3    3    0    0 -0.75814098846E+00 -0.31612600174E+00 -0.25013665019E+00  0.85865127511E+00  0.51100000000E-03 0. -1.
        -11    1    3    3    0    0  0.10155049961E+02 -0.72186959286E+01 -0.12674262970E+02  0.17772775606E+02  0.51100000000E-03 0.  1.
         12    1    3    3    0    0  0.11165979411E+02 -0.14212838336E+02 -0.20740424967E+02  0.27510890527E+02  0.00000000000E+00 0. -1.
</event>
<event>
 7    1  0.1549900E-008  0.4614231E+02  0.7816164E-02  0.1320468E+00
        -11   -1    0    0    0    0  0.00000000000E+00  0.00000000000E+00  0.45593999997E+02  0.45594000000E+02  0.51100000000E-03 0.  1.
         11   -1    0    0    0    0 -0.00000000000E+00 -0.00000000000E+00 -0.45593999997E+02  0.45594000000E+02  0.51100000000E-03 0. -1.
    9900012    2    1    2    0    0 -0.37432982592E+02 -0.14450094264E+02 -0.20471458944E+02  0.46142311624E+02  0.99999440373E+01 0.  0.
        -12    1    1    2    0    0  0.37432982592E+02  0.14450094264E+02  0.20471458944E+02  0.45045688376E+02  0.00000000000E+00 0.  1.
         11    1    3    3    0    0 -0.20889956419E+02 -0.12474393925E+02 -0.12261249233E+02  0.27245899068E+02  0.51100000000E-03 0. -1.
        -11    1    3    3    0    0 -0.13196410893E+02 -0.18375696195E+01 -0.79986333469E+01  0.15540272142E+02  0.51100000000E-03 0.  1.
         12    1    3    3    0    0 -0.33466152794E+01 -0.13813072010E+00 -0.21157636427E+00  0.33561404146E+01  0.00000000000E+00 0. -1.
</event>
<event>
 7    1  0.1549900E-008  0.4614232E+02  0.7816164E-02  0.1320468E+00
        -11   -1    0    0    0    0  0.00000000000E+00  0.00000000000E+00  0.45593999997E+02  0.45594000000E+02  0.51100000000E-03 0.  1.
         11   -1    0    0    0    0 -0.00000000000E+00 -0.00000000000E+00 -0.45593999997E+02  0.45594000000E+02  0.51100000000E-03 0. -1.
    9900012    2    1    2    0    0  0.29510309647E+02 -0.21237694294E+02 -0.26593523574E+02  0.46142317294E+02  0.99999957397E+01 0.  0.
        -12    1    1    2    0    0 -0.29510309647E+02  0.21237694294E+02  0.26593523574E+02  0.45045682706E+02  0.00000000000E+00 0.  1.
         11    1    3    3    0    0  0.73084194895E+01 -0.96966310318E+01 -0.11228146938E+02  0.16538105475E+02  0.51100000000E-03 0. -1.
        -11    1    3    3    0    0  0.25451935701E+01 -0.32628034209E+00 -0.24472344931E+01  0.35459027195E+01  0.51100000000E-03 0.  1.
         12    1    3    3    0    0  0.19656696587E+02 -0.11214782920E+02 -0.12918142144E+02  0.26058309099E+02  0.00000000000E+00 0. -1.
</event>
<event>
 7    1  0.1549900E-008  0.4614232E+02  0.7816164E-02  0.1320468E+00
        -11   -1    0    0    0    0  0.00000000000E+00  0.00000000000E+00  0.45593999997E+02  0.45594000000E+02  0.51100000000E-03 0.  1.
         11   -1    0    0    0    0 -0.00000000000E+00 -0.00000000000E+00 -0.45593999997E+02  0.45594000000E+02  0.51100000000E-03 0. -1.
    9900012    2    1    2    0    0  0.29787860604E+02 -0.75056476034E+01 -0.32946347815E+02  0.46142320744E+02  0.10000027201E+02 0.  0.
        -12    1    1    2    0    0 -0.29787860604E+02  0.75056476034E+01  0.32946347815E+02  0.45045679256E+02  0.00000000000E+00 0.  1.
         11    1    3    3    0    0  0.27324246135E+02 -0.55414894884E+01 -0.25397383575E+02  0.37714050768E+02  0.51100000000E-03 0. -1.
        -11    1    3    3    0    0  0.72908666397E+00  0.31851669423E+00 -0.24828381264E+01  0.26072026525E+01  0.51100000000E-03 0.  1.
         12    1    3    3    0    0  0.17345278045E+01 -0.22826748093E+01 -0.50661261138E+01  0.58210673240E+01  0.00000000000E+00 0. -1.
</event>
<event>
 7    1  0.1549900E-008  0.4614232E+02  0.7816164E-02  0.1320468E+00
        -11   -1    0    0    0    0  0.00000000000E+00  0.00000000000E+00  0.45593999997E+02  0.45594000000E+02  0.51100000000E-03 0.  1.
         11   -1    0    0    0    0 -0.00000000000E+00 -0.00000000000E+00 -0.45593999997E+02  0.45594000000E+02  0.51100000000E-03 0. -1.
    9900012    2    1    2    0    0  0.29428612782E+02  0.32887259364E+02  0.90276552492E+01  0.46142316099E+02  0.99999848459E+01 0.  0.
        -12    1    1    2    0    0 -0.29428612782E+02 -0.32887259364E+02 -0.90276552492E+01  0.45045683901E+02  0.00000000000E+00 0.  1.
         11    1    3    3    0    0  0.23620499544E+02  0.22156206666E+02  0.72592632582E+01  0.33189190949E+02  0.51100000000E-03 0. -1.
        -11    1    3    3    0    0  0.54731327096E+00  0.47820461508E+01 -0.17693907932E-01  0.48132972628E+01  0.51100000000E-03 0.  1.
        -12    1    3    3    0    0  0.52607999673E+01  0.59490065475E+01  0.17860858989E+01  0.81398278874E+01  0.00000000000E+00 0.  1.
</event>
<event>
 7    1  0.1549900E-008  0.4614232E+02  0.7816164E-02  0.1320468E+00
        -11   -1    0    0    0    0  0.00000000000E+00  0.00000000000E+00  0.45593999997E+02  0.45594000000E+02  0.51100000000E-03 0. -1.
         11   -1    0    0    0    0 -0.00000000000E+00 -0.00000000000E+00 -0.45593999997E+02  0.45594000000E+02  0.51100000000E-03 0.  1.
    9900012    2    1    2    0    0 -0.19418742921E+02  0.40287081040E+02  0.53830293629E+01  0.46142317849E+02  0.10000000802E+02 0.  0.
        -12    1    1    2    0    0  0.19418742921E+02 -0.40287081040E+02 -0.53830293629E+01  0.45045682151E+02  0.00000000000E+00 0.  1.
         11    1    3    3    0    0 -0.15304248230E+01  0.29729248517E+01  0.10245006932E+01  0.34971537347E+01  0.51100000000E-03 0. -1.
        -11    1    3    3    0    0 -0.64322057057E+01  0.52231711355E+01  0.17676662445E+01  0.84722742617E+01  0.51100000000E-03 0.  1.
        -12    1    3    3    0    0 -0.11456112392E+02  0.32090985052E+02  0.25908624251E+01  0.34172889853E+02  0.00000000000E+00 0.  1.
</event>
<event>
 7    1  0.1549900E-008  0.4614232E+02  0.7816164E-02  0.1320468E+00
        -11   -1    0    0    0    0  0.00000000000E+00  0.00000000000E+00  0.45593999997E+02  0.45594000000E+02  0.51100000000E-03 0.  1.
         11   -1    0    0    0    0 -0.00000000000E+00 -0.00000000000E+00 -0.45593999997E+02  0.45594000000E+02  0.51100000000E-03 0. -1.
    9900012    2    1    2    0    0  0.19321957877E+01  0.41600075219E+01 -0.44811543374E+02  0.46142318046E+02  0.10000002595E+02 0.  0.
        -12    1    1    2    0    0 -0.19321957877E+01 -0.41600075219E+01  0.44811543374E+02  0.45045681954E+02  0.00000000000E+00 0.  1.
         11    1    3    3    0    0  0.10557463351E+01  0.23851860800E+01 -0.33594081209E+02  0.33695192617E+02  0.51100000000E-03 0. -1.
        -11    1    3    3    0    0  0.23070846769E+01 -0.14446039796E+00 -0.85771806052E+01  0.88832165294E+01  0.51100000000E-03 0.  1.
         12    1    3    3    0    0 -0.14306352243E+01  0.19192818399E+01 -0.26402815602E+01  0.35639088994E+01  0.00000000000E+00 0. -1.
</event>
<event>
 7    1  0.1549900E-008  0.4614232E+02  0.7816164E-02  0.1320468E+00
        -11   -1    0    0    0    0  0.00000000000E+00  0.00000000000E+00  0.45593999997E+02  0.45594000000E+02  0.51100000000E-03 0.  1.
         11   -1    0    0    0    0 -0.00000000000E+00 -0.00000000000E+00 -0.45593999997E+02  0.45594000000E+02  0.51100000000E-03 0. -1.
    9900012    2    1    2    0    0 -0.59831568881E+01 -0.27628057769E+02 -0.35071437789E+02  0.46142317732E+02  0.99999997305E+01 0.  0.
        -12    1    1    2    0    0  0.59831568881E+01  0.27628057769E+02  0.35071437789E+02  0.45045682268E+02  0.00000000000E+00 0.  1.
         11    1    3    3    0    0 -0.42101440533E+01 -0.70874616067E+01 -0.12340181541E+02  0.14840401130E+02  0.51100000000E-03 0. -1.
        -11    1    3    3    0    0 -0.85281489942E+00 -0.85616791923E+01 -0.52141122474E+01  0.10060646631E+02  0.51100000000E-03 0.  1.
        -12    1    3    3    0    0 -0.92019793535E+00 -0.11978916970E+02 -0.17517144001E+02  0.21241269970E+02  0.00000000000E+00 0.  1.
</event>
<event>
 7    1  0.1549900E-008  0.4614232E+02  0.7816164E-02  0.1320468E+00
        -11   -1    0    0    0    0  0.00000000000E+00  0.00000000000E+00  0.45593999997E+02  0.45594000000E+02  0.51100000000E-03 0. -1.
         11   -1    0    0    0    0 -0.00000000000E+00 -0.00000000000E+00 -0.45593999997E+02  0.45594000000E+02  0.51100000000E-03 0.  1.
    9900012    2    1    2    0    0  0.12693466530E+02  0.38798943642E+02 -0.19042884134E+02  0.46142317005E+02  0.99999931097E+01 0.  0.
        -12    1    1    2    0    0 -0.12693466530E+02 -0.38798943642E+02  0.19042884134E+02  0.45045682995E+02  0.00000000000E+00 0.  1.
         11    1    3    3    0    0  0.12217838124E+01  0.54127263489E+01 -0.34527140414E+01  0.65354109837E+01  0.51100000000E-03 0. -1.
        -11    1    3    3    0    0  0.12954755534E+02  0.29721875557E+02 -0.14417785897E+02  0.35483631832E+02  0.51100000000E-03 0.  1.
        -12    1    3    3    0    0 -0.14830728166E+01  0.36643417368E+01 -0.11723841951E+01  0.41232741898E+01  0.00000000000E+00 0.  1.
</event>
<event>
 7    1  0.1549900E-008  0.4614232E+02  0.7816164E-02  0.1320468E+00
        -11   -1    0    0    0    0  0.00000000000E+00  0.00000000000E+00  0.45593999997E+02  0.45594000000E+02  0.51100000000E-03 0. -1.
         11   -1    0    0    0    0 -0.00000000000E+00 -0.00000000000E+00 -0.45593999997E+02  0.45594000000E+02  0.51100000000E-03 0.  1.
    9900012    2    1    2    0    0  0.64190292669E+01 -0.43744281477E+02 -0.86224925792E+01  0.46142317888E+02  0.10000001153E+02 0.  0.
        -12    1    1    2    0    0 -0.64190292669E+01  0.43744281477E+02  0.86224925792E+01  0.45045682112E+02  0.00000000000E+00 0.  1.
         11    1    3    3    0    0  0.66415549411E+00 -0.15892286295E+02 -0.60579665966E+01  0.17020717545E+02  0.51100000000E-03 0. -1.
        -11    1    3    3    0    0  0.40113914567E+01 -0.20025756011E+02  0.76928062545E+00  0.20438051721E+02  0.51100000000E-03 0.  1.
        -12    1    3    3    0    0  0.17434823161E+01 -0.78262391713E+01 -0.33338066080E+01  0.86835486209E+01  0.00000000000E+00 0.  1.
</event>
<event>
 7    1  0.1549900E-008  0.4614232E+02  0.7816164E-02  0.1320468E+00
        -11   -1    0    0    0    0  0.00000000000E+00  0.00000000000E+00  0.45593999997E+02  0.45594000000E+02  0.51100000000E-03 0.  1.
         11   -1    0    0    0    0 -0.00000000000E+00 -0.00000000000E+00 -0.45593999997E+02  0.45594000000E+02  0.51100000000E-03 0. -1.
    9900012    2    1    2    0    0  0.15485411526E+02 -0.38473021761E+02 -0.17582437817E+02  0.46142317708E+02  0.99999995172E+01 0.  0.
        -12    1    1    2    0    0 -0.15485411526E+02  0.38473021761E+02  0.17582437817E+02  0.45045682292E+02  0.00000000000E+00 0.  1.
         11    1    3    3    0    0  0.17656921421E+01 -0.11496565478E+02 -0.69591321046E+01  0.13554268937E+02  0.51100000000E-03 0. -1.
        -11    1    3    3    0    0  0.77795044729E+01 -0.98127586203E+01 -0.57725806787E+01  0.13788894428E+02  0.51100000000E-03 0.  1.
        -12    1    3    3    0    0  0.59402149114E+01 -0.17163697663E+02 -0.48507250338E+01  0.18799154343E+02  0.00000000000E+00 0.  1.
</event>
<event>
 7    1  0.1549900E-008  0.4614232E+02  0.7816164E-02  0.1320468E+00
        -11   -1    0    0    0    0  0.00000000000E+00  0.00000000000E+00  0.45593999997E+02  0.45594000000E+02  0.51100000000E-03 0. -1.
         11   -1    0    0    0    0 -0.00000000000E+00 -0.00000000000E+00 -0.45593999997E+02  0.45594000000E+02  0.51100000000E-03 0.  1.
    9900012    2    1    2    0    0  0.21282573700E+02 -0.30525377253E+02  0.25384382494E+02  0.46142317917E+02  0.10000001417E+02 0.  0.
        -12    1    1    2    0    0 -0.21282573700E+02  0.30525377253E+02 -0.25384382494E+02  0.45045682083E+02  0.00000000000E+00 0.  1.
         11    1    3    3    0    0  0.42155219904E+01 -0.95518501671E+01  0.44303676881E+01  0.11341808735E+02  0.51100000000E-03 0. -1.
        -11    1    3    3    0    0  0.62209555055E+01 -0.12393325158E+02  0.11877504370E+02  0.18258420145E+02  0.51100000000E-03 0.  1.
         12    1    3    3    0    0  0.10846096204E+02 -0.85802019281E+01  0.90765104363E+01  0.16542089037E+02  0.00000000000E+00 0. -1.
</event>
<event>
 7    1  0.1549900E-008  0.4614232E+02  0.7816164E-02  0.1320468E+00
        -11   -1    0    0    0    0  0.00000000000E+00  0.00000000000E+00  0.45593999997E+02  0.45594000000E+02  0.51100000000E-03 0. -1.
         11   -1    0    0    0    0 -0.00000000000E+00 -0.00000000000E+00 -0.45593999997E+02  0.45594000000E+02  0.51100000000E-03 0.  1.
    9900012    2    1    2    0    0  0.15297055705E+02 -0.42078406625E+02 -0.49518959229E+01  0.46142317736E+02  0.99999997752E+01 0.  0.
        -12    1    1    2    0    0 -0.15297055705E+02  0.42078406625E+02  0.49518959229E+01  0.45045682264E+02  0.00000000000E+00 0.  1.
         11    1    3    3    0    0  0.31073197214E+01 -0.34267892639E+01 -0.14545186281E+01  0.48491179828E+01  0.51100000000E-03 0. -1.
        -11    1    3    3    0    0  0.83749475872E+01 -0.29616292926E+02  0.29178156968E+00  0.30779046290E+02  0.51100000000E-03 0.  1.
        -12    1    3    3    0    0  0.38147883967E+01 -0.90353244351E+01 -0.37891588645E+01  0.10514153464E+02  0.00000000000E+00 0.  1.
</event>
<event>
 7    1  0.1549900E-008  0.4614232E+02  0.7816164E-02  0.1320468E+00
        -11   -1    0    0    0    0  0.00000000000E+00  0.00000000000E+00  0.45593999997E+02  0.45594000000E+02  0.51100000000E-03 0. -1.
         11   -1    0    0    0    0 -0.00000000000E+00 -0.00000000000E+00 -0.45593999997E+02  0.45594000000E+02  0.51100000000E-03 0.  1.
    9900012    2    1    2    0    0 -0.36930368116E+02 -0.25750009743E+02 -0.14827509493E+01  0.46142316063E+02  0.99999845176E+01 0.  0.
        -12    1    1    2    0    0  0.36930368116E+02  0.25750009743E+02  0.14827509493E+01  0.45045683937E+02  0.00000000000E+00 0.  1.
         11    1    3    3    0    0 -0.17153512047E+02 -0.97935905092E+01  0.11012705028E+01  0.19783078314E+02  0.51100000000E-03 0. -1.
        -11    1    3    3    0    0 -0.82810542578E+01 -0.10757954173E+02 -0.61525175167E+00  0.13589995313E+02  0.51100000000E-03 0.  1.
        -12    1    3    3    0    0 -0.11495801811E+02 -0.51984650609E+01 -0.19687697004E+01  0.12769242437E+02  0.00000000000E+00 0.  1.
</event>
<event>
 7    1  0.1549900E-008  0.4614232E+02  0.7816164E-02  0.1320468E+00
        -11   -1    0    0    0    0  0.00000000000E+00  0.00000000000E+00  0.45593999997E+02  0.45594000000E+02  0.51100000000E-03 0. -1.
         11   -1    0    0    0    0 -0.00000000000E+00 -0.00000000000E+00 -0.45593999997E+02  0.45594000000E+02  0.51100000000E-03 0.  1.
    9900012    2    1    2    0    0  0.12276308416E+02  0.21477739559E+02  0.37644553748E+02  0.46142317945E+02  0.10000001677E+02 0.  0.
        -12    1    1    2    0    0 -0.12276308416E+02 -0.21477739559E+02 -0.37644553748E+02  0.45045682055E+02  0.00000000000E+00 0.  1.
         11    1    3    3    0    0  0.59581534075E+01  0.11424896038E+02  0.26459328515E+02  0.29429983133E+02  0.51100000000E-03 0. -1.
        -11    1    3    3    0    0  0.18336358289E+01  0.10636171171E+01  0.33843968839E+01  0.39934501692E+01  0.51100000000E-03 0.  1.
         12    1    3    3    0    0  0.44845191791E+01  0.89892264037E+01  0.78008283497E+01  0.12718884642E+02  0.00000000000E+00 0. -1.
</event>
<event>
 7    1  0.1549900E-008  0.4614232E+02  0.7816164E-02  0.1320468E+00
        -11   -1    0    0    0    0  0.00000000000E+00  0.00000000000E+00  0.45593999997E+02  0.45594000000E+02  0.51100000000E-03 0. -1.
         11   -1    0    0    0    0 -0.00000000000E+00 -0.00000000000E+00 -0.45593999997E+02  0.45594000000E+02  0.51100000000E-03 0.  1.
    9900012    2    1    2    0    0  0.24838105677E+02 -0.35832859081E+02 -0.11322015670E+02  0.46142319604E+02  0.10000016801E+02 0.  0.
        -12    1    1    2    0    0 -0.24838105677E+02  0.35832859081E+02  0.11322015670E+02  0.45045680396E+02  0.00000000000E+00 0.  1.
         11    1    3    3    0    0  0.11929513228E+01 -0.51520736375E+01  0.88175329448E+00  0.53613883237E+01  0.51100000000E-03 0. -1.
        -11    1    3    3    0    0  0.76655663046E+01 -0.74428357604E+01 -0.40190748897E+01  0.11415326283E+02  0.51100000000E-03 0.  1.
         12    1    3    3    0    0  0.15979588050E+02 -0.23237949683E+02 -0.81846940747E+01  0.29365604996E+02  0.00000000000E+00 0. -1.
</event>
<event>
 7    1  0.1549900E-008  0.4614232E+02  0.7816164E-02  0.1320468E+00
        -11   -1    0    0    0    0  0.00000000000E+00  0.00000000000E+00  0.45593999997E+02  0.45594000000E+02  0.51100000000E-03 0.  1.
         11   -1    0    0    0    0 -0.00000000000E+00 -0.00000000000E+00 -0.45593999997E+02  0.45594000000E+02  0.51100000000E-03 0. -1.
    9900012    2    1    2    0    0  0.20789997266E+02  0.48731135168E+01 -0.39662860412E+02  0.46142315215E+02  0.99999767828E+01 0.  0.
        -12    1    1    2    0    0 -0.20789997266E+02 -0.48731135168E+01  0.39662860412E+02  0.45045684785E+02  0.00000000000E+00 0.  1.
         11    1    3    3    0    0  0.16211640632E+01  0.16847347766E+01 -0.47258646491E+01  0.52725990868E+01  0.51100000000E-03 0. -1.
        -11    1    3    3    0    0  0.64390493865E+01  0.51473418838E+01 -0.11893144092E+02  0.14470776141E+02  0.51100000000E-03 0.  1.
        -12    1    3    3    0    0  0.12729783816E+02 -0.19589631436E+01 -0.23043851671E+02  0.26398939987E+02  0.00000000000E+00 0.  1.
</event>
<event>
 7    1  0.1549900E-008  0.4614232E+02  0.7816164E-02  0.1320468E+00
        -11   -1    0    0    0    0  0.00000000000E+00  0.00000000000E+00  0.45593999997E+02  0.45594000000E+02  0.51100000000E-03 0.  1.
         11   -1    0    0    0    0 -0.00000000000E+00 -0.00000000000E+00 -0.45593999997E+02  0.45594000000E+02  0.51100000000E-03 0. -1.
    9900012    2    1    2    0    0 -0.35665587201E+01  0.44904083616E+02  0.12832940621E+00  0.46142317244E+02  0.99999952859E+01 0.  0.
        -12    1    1    2    0    0  0.35665587201E+01 -0.44904083616E+02 -0.12832940621E+00  0.45045682756E+02  0.00000000000E+00 0.  1.
         11    1    3    3    0    0 -0.55340819315E+00  0.14909324434E+02 -0.18986071650E+01  0.15039911074E+02  0.51100000000E-03 0. -1.
        -11    1    3    3    0    0  0.15342240389E+01  0.13860282997E+01  0.19147874631E+00  0.20764349787E+01  0.51100000000E-03 0.  1.
         12    1    3    3    0    0 -0.45473745658E+01  0.28608730883E+02  0.18354578249E+01  0.29025971191E+02  0.00000000000E+00 0. -1.
</event>
<event>
 7    1  0.1549900E-008  0.4614232E+02  0.7816164E-02  0.1320468E+00
        -11   -1    0    0    0    0  0.00000000000E+00  0.00000000000E+00  0.45593999997E+02  0.45594000000E+02  0.51100000000E-03 0.  1.
         11   -1    0    0    0    0 -0.00000000000E+00 -0.00000000000E+00 -0.45593999997E+02  0.45594000000E+02  0.51100000000E-03 0. -1.
    9900012    2    1    2    0    0 -0.24787846339E+01 -0.38185639741E+02 -0.23766067389E+02  0.46142318577E+02  0.10000007444E+02 0.  0.
        -12    1    1    2    0    0  0.24787846339E+01  0.38185639741E+02  0.23766067389E+02  0.45045681423E+02  0.00000000000E+00 0.  1.
         11    1    3    3    0    0  0.28550859060E+01 -0.17538340539E+02 -0.91204830523E+01  0.19973184918E+02  0.51100000000E-03 0.  1.
        -11    1    3    3    0    0 -0.14929852684E+01 -0.12272278747E+02 -0.96863296135E+01  0.15705502612E+02  0.51100000000E-03 0. -1.
        -12    1    3    3    0    0 -0.38408852714E+01 -0.83750204545E+01 -0.49592547237E+01  0.10463631047E+02  0.00000000000E+00 0.  1.
</event>
<event>
 7    1  0.1549900E-008  0.4614232E+02  0.7816164E-02  0.1320468E+00
        -11   -1    0    0    0    0  0.00000000000E+00  0.00000000000E+00  0.45593999997E+02  0.45594000000E+02  0.51100000000E-03 0.  1.
         11   -1    0    0    0    0 -0.00000000000E+00 -0.00000000000E+00 -0.45593999997E+02  0.45594000000E+02  0.51100000000E-03 0. -1.
    9900012    2    1    2    0    0 -0.21899416121E+02  0.33800252395E+02 -0.20176026022E+02  0.46142317472E+02  0.99999973606E+01 0.  0.
        -12    1    1    2    0    0  0.21899416121E+02 -0.33800252395E+02  0.20176026022E+02  0.45045682528E+02  0.00000000000E+00 0.  1.
         11    1    3    3    0    0 -0.15226823687E+01  0.23033879751E+01 -0.25163649361E+01  0.37358065411E+01  0.51100000000E-03 0. -1.
        -11    1    3    3    0    0 -0.94469590568E+01  0.71789058262E+01 -0.46965875112E+01  0.12760864343E+02  0.51100000000E-03 0.  1.
        -12    1    3    3    0    0 -0.10929774695E+02  0.24317958594E+02 -0.12963073574E+02  0.29645646587E+02  0.00000000000E+00 0.  1.
</event>
<event>
 7    1  0.1549900E-008  0.4614232E+02  0.7816164E-02  0.1320468E+00
        -11   -1    0    0    0    0  0.00000000000E+00  0.00000000000E+00  0.45593999997E+02  0.45594000000E+02  0.51100000000E-03 0. -1.
         11   -1    0    0    0    0 -0.00000000000E+00 -0.00000000000E+00 -0.45593999997E+02  0.45594000000E+02  0.51100000000E-03 0.  1.
    9900012    2    1    2    0    0 -0.27596349867E+02  0.82818068312E+01  0.34626098380E+02  0.46142317195E+02  0.99999948345E+01 0.  0.
        -12    1    1    2    0    0  0.27596349867E+02 -0.82818068312E+01 -0.34626098380E+02  0.45045682805E+02  0.00000000000E+00 0.  1.
         11    1    3    3    0    0 -0.19334092387E+02  0.80418672525E+01  0.27041604320E+02  0.34201273687E+02  0.51100000000E-03 0. -1.
        -11    1    3    3    0    0 -0.15396890008E+01 -0.83121854499E-01 -0.30397235173E+00  0.15716077480E+01  0.51100000000E-03 0.  1.
         12    1    3    3    0    0 -0.67225684791E+01  0.32306143311E+00  0.78884664117E+01  0.10369435760E+02  0.00000000000E+00 0. -1.
</event>
<event>
 7    1  0.1549900E-008  0.4614232E+02  0.7816164E-02  0.1320468E+00
        -11   -1    0    0    0    0  0.00000000000E+00  0.00000000000E+00  0.45593999997E+02  0.45594000000E+02  0.51100000000E-03 0.  1.
         11   -1    0    0    0    0 -0.00000000000E+00 -0.00000000000E+00 -0.45593999997E+02  0.45594000000E+02  0.51100000000E-03 0. -1.
    9900012    2    1    2    0    0  0.32867062440E+02  0.11587265324E+02 -0.28541284082E+02  0.46142318652E+02  0.10000008119E+02 0.  0.
        -12    1    1    2    0    0 -0.32867062440E+02 -0.11587265324E+02  0.28541284082E+02  0.45045681348E+02  0.00000000000E+00 0.  1.
         11    1    3    3    0    0  0.75415240620E+01  0.11483534292E+01 -0.80449268765E+01  0.11086665391E+02  0.51100000000E-03 0. -1.
        -11    1    3    3    0    0  0.59387096672E+01  0.34810282635E+00 -0.15914642873E+01  0.61581009189E+01  0.51100000000E-03 0.  1.
         12    1    3    3    0    0  0.19386828710E+02  0.10090809069E+02 -0.18904892918E+02  0.28897552342E+02  0.00000000000E+00 0. -1.
</event>
<event>
 7    1  0.1549900E-008  0.4614231E+02  0.7816164E-02  0.1320468E+00
        -11   -1    0    0    0    0  0.00000000000E+00  0.00000000000E+00  0.45593999997E+02  0.45594000000E+02  0.51100000000E-03 0. -1.
         11   -1    0    0    0    0 -0.00000000000E+00 -0.00000000000E+00 -0.45593999997E+02  0.45594000000E+02  0.51100000000E-03 0.  1.
    9900012    2    1    2    0    0  0.12530609270E+02 -0.38579374804E+02 -0.19589028743E+02  0.46142307908E+02  0.99999101531E+01 0.  0.
        -12    1    1    2    0    0 -0.12530609270E+02  0.38579374804E+02  0.19589028743E+02  0.45045692092E+02  0.00000000000E+00 0.  1.
         11    1    3    3    0    0  0.19652906120E+01 -0.13546101711E+02 -0.77295950507E+01  0.15719601733E+02  0.51100000000E-03 0. -1.
        -11    1    3    3    0    0  0.67687984321E+01 -0.81332000247E+01 -0.58356836480E+01  0.12083905774E+02  0.51100000000E-03 0.  1.
         12    1    3    3    0    0  0.37965202257E+01 -0.16900073068E+02 -0.60237500446E+01  0.18338800401E+02  0.00000000000E+00 0. -1.
</event>
<event>
 7    1  0.1549900E-008  0.4614232E+02  0.7816164E-02  0.1320468E+00
        -11   -1    0    0    0    0  0.00000000000E+00  0.00000000000E+00  0.45593999997E+02  0.45594000000E+02  0.51100000000E-03 0.  1.
         11   -1    0    0    0    0 -0.00000000000E+00 -0.00000000000E+00 -0.45593999997E+02  0.45594000000E+02  0.51100000000E-03 0. -1.
    9900012    2    1    2    0    0 -0.37154259271E+02  0.17574515178E+02 -0.18433961875E+02  0.46142317453E+02  0.99999971917E+01 0.  0.
        -12    1    1    2    0    0  0.37154259271E+02 -0.17574515178E+02  0.18433961875E+02  0.45045682547E+02  0.00000000000E+00 0.  1.
         11    1    3    3    0    0 -0.17122412737E+02  0.89274246022E+01 -0.95160111929E+01  0.21527433596E+02  0.51100000000E-03 0. -1.
        -11    1    3    3    0    0 -0.16643764481E+01 -0.23191052837E+00  0.97385506184E+00  0.19422475117E+01  0.51100000000E-03 0.  1.
        -12    1    3    3    0    0 -0.18367470085E+02  0.88790011044E+01 -0.98918057443E+01  0.22672636345E+02  0.00000000000E+00 0.  1.
</event>
<event>
 7    1  0.1549900E-008  0.4614232E+02  0.7816164E-02  0.1320468E+00
        -11   -1    0    0    0    0  0.00000000000E+00  0.00000000000E+00  0.45593999997E+02  0.45594000000E+02  0.51100000000E-03 0.  1.
         11   -1    0    0    0    0 -0.00000000000E+00 -0.00000000000E+00 -0.45593999997E+02  0.45594000000E+02  0.51100000000E-03 0. -1.
    9900012    2    1    2    0    0  0.64793900919E+01 -0.96525044511E+00 -0.44566795856E+02  0.46142317663E+02  0.99999991030E+01 0.  0.
        -12    1    1    2    0    0 -0.64793900919E+01  0.96525044511E+00  0.44566795856E+02  0.45045682337E+02  0.00000000000E+00 0.  1.
         11    1    3    3    0    0  0.28566393549E+01  0.22513931866E+01 -0.10374661880E+02  0.10993760461E+02  0.51100000000E-03 0. -1.
        -11    1    3    3    0    0 -0.13864814486E+01 -0.12945665778E+01 -0.34078532964E+01  0.39002176584E+01  0.51100000000E-03 0.  1.
        -12    1    3    3    0    0  0.50092321856E+01 -0.19220770539E+01 -0.30784280679E+02  0.31248339543E+02  0.00000000000E+00 0.  1.
</event>
<event>
 7    1  0.1549900E-008  0.4614232E+02  0.7816164E-02  0.1320468E+00
        -11   -1    0    0    0    0  0.00000000000E+00  0.00000000000E+00  0.45593999997E+02  0.45594000000E+02  0.51100000000E-03 0.  1.
         11   -1    0    0    0    0 -0.00000000000E+00 -0.00000000000E+00 -0.45593999997E+02  0.45594000000E+02  0.51100000000E-03 0. -1.
    9900012    2    1    2    0    0 -0.21558903491E+02  0.40809448453E+01 -0.39340477437E+02  0.46142316572E+02  0.99999891532E+01 0.  0.
        -12    1    1    2    0    0  0.21558903491E+02 -0.40809448453E+01  0.39340477437E+02  0.45045683428E+02  0.00000000000E+00 0.  1.
         11    1    3    3    0    0 -0.91837165894E+01  0.15167278389E+01 -0.93016592491E+01  0.13159102507E+02  0.51100000000E-03 0. -1.
        -11    1    3    3    0    0 -0.65963655307E+00  0.17589651875E+01 -0.42225320417E+01  0.46215642392E+01  0.51100000000E-03 0.  1.
         12    1    3    3    0    0 -0.11715550348E+02  0.80525181896E+00 -0.25816286146E+02  0.28361649826E+02  0.00000000000E+00 0. -1.
</event>
<event>
 7    1  0.1549900E-008  0.4614232E+02  0.7816164E-02  0.1320468E+00
        -11   -1    0    0    0    0  0.00000000000E+00  0.00000000000E+00  0.45593999997E+02  0.45594000000E+02  0.51100000000E-03 0. -1.
         11   -1    0    0    0    0 -0.00000000000E+00 -0.00000000000E+00 -0.45593999997E+02  0.45594000000E+02  0.51100000000E-03 0.  1.
    9900012    2    1    2    0    0  0.37342354962E+02 -0.25065235540E+02  0.25290272950E+01  0.46142317789E+02  0.10000000251E+02 0.  0.
        -12    1    1    2    0    0 -0.37342354962E+02  0.25065235540E+02 -0.25290272950E+01  0.45045682211E+02  0.00000000000E+00 0.  1.
         11    1    3    3    0    0  0.13328477479E+02 -0.62527714921E+01  0.20664435858E+01  0.14866595192E+02  0.51100000000E-03 0. -1.
        -11    1    3    3    0    0  0.58607646752E+01 -0.83708490091E+01 -0.10888485582E+01  0.10276442339E+02  0.51100000000E-03 0.  1.
        -12    1    3    3    0    0  0.18153112808E+02 -0.10441615039E+02  0.15514322674E+01  0.20999280257E+02  0.00000000000E+00 0.  1.
</event>
<event>
 7    1  0.1549900E-008  0.4614232E+02  0.7816164E-02  0.1320468E+00
        -11   -1    0    0    0    0  0.00000000000E+00  0.00000000000E+00  0.45593999997E+02  0.45594000000E+02  0.51100000000E-03 0.  1.
         11   -1    0    0    0    0 -0.00000000000E+00 -0.00000000000E+00 -0.45593999997E+02  0.45594000000E+02  0.51100000000E-03 0. -1.
    9900012    2    1    2    0    0  0.34252341596E+01 -0.35879404711E+02 -0.27019429491E+02  0.46142317838E+02  0.10000000700E+02 0.  0.
        -12    1    1    2    0    0 -0.34252341596E+01  0.35879404711E+02  0.27019429491E+02  0.45045682162E+02  0.00000000000E+00 0.  1.
         11    1    3    3    0    0  0.38289440590E+01 -0.15205828156E+02 -0.14365318271E+02  0.21265944413E+02  0.51100000000E-03 0. -1.
        -11    1    3    3    0    0  0.24388237558E+01 -0.61504510410E+01 -0.37369389620E+01  0.75987250500E+01  0.51100000000E-03 0.  1.
        -12    1    3    3    0    0 -0.28425336552E+01 -0.14523125514E+02 -0.89171722583E+01  0.17277648375E+02  0.00000000000E+00 0.  1.
</event>
<event>
 7    1  0.1549900E-008  0.4614232E+02  0.7816164E-02  0.1320468E+00
        -11   -1    0    0    0    0  0.00000000000E+00  0.00000000000E+00  0.45593999997E+02  0.45594000000E+02  0.51100000000E-03 0.  1.
         11   -1    0    0    0    0 -0.00000000000E+00 -0.00000000000E+00 -0.45593999997E+02  0.45594000000E+02  0.51100000000E-03 0. -1.
    9900012    2    1    2    0    0  0.26662318441E+02  0.13833334043E+01 -0.36281134590E+02  0.46142316932E+02  0.99999924379E+01 0.  0.
        -12    1    1    2    0    0 -0.26662318441E+02 -0.13833334043E+01  0.36281134590E+02  0.45045683068E+02  0.00000000000E+00 0.  1.
         11    1    3    3    0    0  0.20716513219E+02  0.40482209538E+01 -0.25137376599E+02  0.32824529173E+02  0.51100000000E-03 0. -1.
        -11    1    3    3    0    0  0.27049283303E+01 -0.18885489855E+01 -0.83185586991E+01  0.89488364402E+01  0.51100000000E-03 0.  1.
        -12    1    3    3    0    0  0.32408768909E+01 -0.77633856399E+00 -0.28251992916E+01  0.43689513187E+01  0.00000000000E+00 0.  1.
</event>
<event>
 7    1  0.1549900E-008  0.4614232E+02  0.7816164E-02  0.1320468E+00
        -11   -1    0    0    0    0  0.00000000000E+00  0.00000000000E+00  0.45593999997E+02  0.45594000000E+02  0.51100000000E-03 0. -1.
         11   -1    0    0    0    0 -0.00000000000E+00 -0.00000000000E+00 -0.45593999997E+02  0.45594000000E+02  0.51100000000E-03 0.  1.
    9900012    2    1    2    0    0 -0.44119012147E+02  0.68804399314E+01  0.59401924357E+01  0.46142316825E+02  0.99999914680E+01 0.  0.
        -12    1    1    2    0    0  0.44119012147E+02 -0.68804399314E+01 -0.59401924357E+01  0.45045683175E+02  0.00000000000E+00 0.  1.
         11    1    3    3    0    0 -0.28988815202E+02  0.77737678338E+01  0.12238309714E+01  0.30037986544E+02  0.51100000000E-03 0. -1.
        -11    1    3    3    0    0 -0.12572267124E+02 -0.16341526519E+01  0.44127292698E+01  0.13424028285E+02  0.51100000000E-03 0.  1.
        -12    1    3    3    0    0 -0.25579298217E+01  0.74082474948E+00  0.30363219456E+00  0.26803019963E+01  0.00000000000E+00 0.  1.
</event>
<event>
 7    1  0.1549900E-008  0.4614232E+02  0.7816164E-02  0.1320468E+00
        -11   -1    0    0    0    0  0.00000000000E+00  0.00000000000E+00  0.45593999997E+02  0.45594000000E+02  0.51100000000E-03 0. -1.
         11   -1    0    0    0    0 -0.00000000000E+00 -0.00000000000E+00 -0.45593999997E+02  0.45594000000E+02  0.51100000000E-03 0.  1.
    9900012    2    1    2    0    0  0.16359399598E+02  0.41754016690E+02 -0.42527260378E+01  0.46142317147E+02  0.99999944009E+01 0.  0.
        -12    1    1    2    0    0 -0.16359399598E+02 -0.41754016690E+02  0.42527260378E+01  0.45045682853E+02  0.00000000000E+00 0.  1.
         11    1    3    3    0    0  0.28195190149E+01  0.10899687266E+02 -0.50137231138E+01  0.12324377862E+02  0.51100000000E-03 0. -1.
        -11    1    3    3    0    0  0.11262105206E+02  0.23621303317E+02  0.14125580927E+01  0.26206798826E+02  0.51100000000E-03 0.  1.
         12    1    3    3    0    0  0.22777753780E+01  0.72330261067E+01 -0.65156101676E+00  0.76111404593E+01  0.00000000000E+00 0. -1.
</event>
<event>
 7    1  0.1549900E-008  0.4614232E+02  0.7816164E-02  0.1320468E+00
        -11   -1    0    0    0    0  0.00000000000E+00  0.00000000000E+00  0.45593999997E+02  0.45594000000E+02  0.51100000000E-03 0.  1.
         11   -1    0    0    0    0 -0.00000000000E+00 -0.00000000000E+00 -0.45593999997E+02  0.45594000000E+02  0.51100000000E-03 0. -1.
    9900012    2    1    2    0    0  0.26538578233E+01 -0.28306878064E+02 -0.34939822949E+02  0.46142317246E+02  0.99999953027E+01 0.  0.
        -12    1    1    2    0    0 -0.26538578233E+01  0.28306878064E+02  0.34939822949E+02  0.45045682754E+02  0.00000000000E+00 0.  1.
         11    1    3    3    0    0 -0.14971963262E-02 -0.19526970967E+02 -0.28546385705E+02  0.34586106090E+02  0.51100000000E-03 0. -1.
        -11    1    3    3    0    0  0.32775972729E+01 -0.76617036408E+01 -0.57441159132E+01  0.10121225936E+02  0.51100000000E-03 0.  1.
        -12    1    3    3    0    0 -0.62224225331E+00 -0.11182034562E+01 -0.64932133082E+00  0.14349852201E+01  0.00000000000E+00 0.  1.
</event>
<event>
 7    1  0.1549900E-008  0.4614231E+02  0.7816164E-02  0.1320468E+00
        -11   -1    0    0    0    0  0.00000000000E+00  0.00000000000E+00  0.45593999997E+02  0.45594000000E+02  0.51100000000E-03 0.  1.
         11   -1    0    0    0    0 -0.00000000000E+00 -0.00000000000E+00 -0.45593999997E+02  0.45594000000E+02  0.51100000000E-03 0. -1.
    9900012    2    1    2    0    0  0.10249489352E+02 -0.20423646303E+02 -0.38819280563E+02  0.46142313150E+02  0.99999579549E+01 0.  0.
        -12    1    1    2    0    0 -0.10249489352E+02  0.20423646303E+02  0.38819280563E+02  0.45045686850E+02  0.00000000000E+00 0.  1.
         11    1    3    3    0    0  0.45591258657E+01 -0.53072270230E+01 -0.88194575211E+01  0.11257669322E+02  0.51100000000E-03 0. -1.
        -11    1    3    3    0    0  0.20931183243E+01 -0.41417651120E+00 -0.72679402591E+01  0.75746711066E+01  0.51100000000E-03 0.  1.
        -12    1    3    3    0    0  0.35972451620E+01 -0.14702242769E+02 -0.22731882783E+02  0.27309972722E+02  0.00000000000E+00 0.  1.
</event>
<event>
 7    1  0.1549900E-008  0.4614232E+02  0.7816164E-02  0.1320468E+00
        -11   -1    0    0    0    0  0.00000000000E+00  0.00000000000E+00  0.45593999997E+02  0.45594000000E+02  0.51100000000E-03 0.  1.
         11   -1    0    0    0    0 -0.00000000000E+00 -0.00000000000E+00 -0.45593999997E+02  0.45594000000E+02  0.51100000000E-03 0. -1.
    9900012    2    1    2    0    0  0.58513529644E+01  0.36356280290E+02 -0.25944095607E+02  0.46142317134E+02  0.99999942785E+01 0.  0.
        -12    1    1    2    0    0 -0.58513529644E+01 -0.36356280290E+02  0.25944095607E+02  0.45045682866E+02  0.00000000000E+00 0.  1.
         11    1    3    3    0    0  0.46063818193E+00  0.57429771455E+01 -0.12201340025E+01  0.58892020914E+01  0.51100000000E-03 0.  1.
        -11    1    3    3    0    0 -0.44809554179E-01  0.17871000853E+02 -0.14939038709E+02  0.23292693214E+02  0.51100000000E-03 0. -1.
         12    1    3    3    0    0  0.54355243367E+01  0.12742302292E+02 -0.97849228961E+01  0.16960421828E+02  0.00000000000E+00 0. -1.
</event>
<event>
 7    1  0.1549900E-008  0.4614232E+02  0.7816164E-02  0.1320468E+00
        -11   -1    0    0    0    0  0.00000000000E+00  0.00000000000E+00  0.45593999997E+02  0.45594000000E+02  0.51100000000E-03 0. -1.
         11   -1    0    0    0    0 -0.00000000000E+00 -0.00000000000E+00 -0.45593999997E+02  0.45594000000E+02  0.51100000000E-03 0.  1.
    9900012    2    1    2    0    0 -0.42261395269E+02 -0.12285072692E+02 -0.96002563959E+01  0.46142318031E+02  0.10000002462E+02 0.  0.
        -12    1    1    2    0    0  0.42261395269E+02  0.12285072692E+02  0.96002563959E+01  0.45045681969E+02  0.00000000000E+00 0.  1.
         11    1    3    3    0    0 -0.29860227001E+02 -0.12181931771E+02 -0.48581758829E+01  0.32613409687E+02  0.51100000000E-03 0. -1.
        -11    1    3    3    0    0 -0.13805846690E+01 -0.74686077606E+00 -0.10501313846E+01  0.18885420919E+01  0.51100000000E-03 0.  1.
         12    1    3    3    0    0 -0.11020583599E+02  0.64371985448E+00 -0.36919491284E+01  0.11640366252E+02  0.00000000000E+00 0. -1.
</event>
<event>
 7    1  0.1549900E-008  0.4614232E+02  0.7816164E-02  0.1320468E+00
        -11   -1    0    0    0    0  0.00000000000E+00  0.00000000000E+00  0.45593999997E+02  0.45594000000E+02  0.51100000000E-03 0.  1.
         11   -1    0    0    0    0 -0.00000000000E+00 -0.00000000000E+00 -0.45593999997E+02  0.45594000000E+02  0.51100000000E-03 0. -1.
    9900012    2    1    2    0    0  0.11720700467E+02 -0.53723735213E+01 -0.43161051179E+02  0.46142317016E+02  0.99999932012E+01 0.  0.
        -12    1    1    2    0    0 -0.11720700467E+02  0.53723735213E+01  0.43161051179E+02  0.45045682984E+02  0.00000000000E+00 0.  1.
         11    1    3    3    0    0  0.25383012355E+01  0.51538885062E+00 -0.84465670995E+01  0.88347662594E+01  0.51100000000E-03 0. -1.
        -11    1    3    3    0    0  0.84347816873E+01 -0.69776895502E+01 -0.22498925889E+02  0.25020698631E+02  0.51100000000E-03 0.  1.
        -12    1    3    3    0    0  0.74761754457E+00  0.10899271783E+01 -0.12215558190E+02  0.12286852125E+02  0.00000000000E+00 0.  1.
</event>
<event>
 7    1  0.1549900E-008  0.4614232E+02  0.7816164E-02  0.1320468E+00
        -11   -1    0    0    0    0  0.00000000000E+00  0.00000000000E+00  0.45593999997E+02  0.45594000000E+02  0.51100000000E-03 0.  1.
         11   -1    0    0    0    0 -0.00000000000E+00 -0.00000000000E+00 -0.45593999997E+02  0.45594000000E+02  0.51100000000E-03 0. -1.
    9900012    2    1    2    0    0  0.25358168592E+01  0.53687833198E+01 -0.44652651466E+02  0.46142317805E+02  0.10000000399E+02 0.  0.
        -12    1    1    2    0    0 -0.25358168592E+01 -0.53687833198E+01  0.44652651466E+02  0.45045682195E+02  0.00000000000E+00 0.  1.
         11    1    3    3    0    0 -0.30050920384E+01  0.10009661864E+01 -0.21952353992E+02  0.22179683440E+02  0.51100000000E-03 0. -1.
        -11    1    3    3    0    0  0.42441176259E+01  0.28062881941E+01 -0.11434110083E+02  0.12515057392E+02  0.51100000000E-03 0.  1.
         12    1    3    3    0    0  0.12967912717E+01  0.15615289393E+01 -0.11266187391E+02  0.11447576973E+02  0.00000000000E+00 0. -1.
</event>
<event>
 7    1  0.1549900E-008  0.4614232E+02  0.7816164E-02  0.1320468E+00
        -11   -1    0    0    0    0  0.00000000000E+00  0.00000000000E+00  0.45593999997E+02  0.45594000000E+02  0.51100000000E-03 0.  1.
         11   -1    0    0    0    0 -0.00000000000E+00 -0.00000000000E+00 -0.45593999997E+02  0.45594000000E+02  0.51100000000E-03 0. -1.
    9900012    2    1    2    0    0  0.40742006802E+02 -0.16698978844E+02 -0.95050734635E+01  0.46142318362E+02  0.10000005481E+02 0.  0.
        -12    1    1    2    0    0 -0.40742006802E+02  0.16698978844E+02  0.95050734635E+01  0.45045681638E+02  0.00000000000E+00 0.  1.
         11    1    3    3    0    0  0.12529214466E+02 -0.58714954354E+01  0.31970518622E+00  0.13840443832E+02  0.51100000000E-03 0.  1.
        -11    1    3    3    0    0  0.27920451447E+02 -0.11116183630E+02 -0.89840705571E+01  0.31366138933E+02  0.51100000000E-03 0. -1.
        -12    1    3    3    0    0  0.29234088817E+00  0.28870022075E+00 -0.84070809255E+00  0.93573559793E+00  0.00000000000E+00 0.  1.
</event>
<event>
 7    1  0.1549900E-008  0.4614231E+02  0.7816164E-02  0.1320468E+00
        -11   -1    0    0    0    0  0.00000000000E+00  0.00000000000E+00  0.45593999997E+02  0.45594000000E+02  0.51100000000E-03 0.  1.
         11   -1    0    0    0    0 -0.00000000000E+00 -0.00000000000E+00 -0.45593999997E+02  0.45594000000E+02  0.51100000000E-03 0. -1.
    9900012    2    1    2    0    0  0.21420074495E+02  0.32532402067E+02 -0.22626024679E+02  0.46142314652E+02  0.99999716524E+01 0.  0.
        -12    1    1    2    0    0 -0.21420074495E+02 -0.32532402067E+02  0.22626024679E+02  0.45045685348E+02  0.00000000000E+00 0.  1.
         11    1    3    3    0    0  0.10995488679E+02  0.13161753059E+02 -0.72384644159E+01  0.18615259392E+02  0.51100000000E-03 0. -1.
        -11    1    3    3    0    0  0.52718743118E+01  0.86192689007E+01 -0.10699491288E+02  0.14716098981E+02  0.51100000000E-03 0.  1.
         12    1    3    3    0    0  0.51527115041E+01  0.10751380108E+02 -0.46880689757E+01  0.12810956279E+02  0.00000000000E+00 0. -1.
</event>
<event>
 7    1  0.1549900E-008  0.4614232E+02  0.7816164E-02  0.1320468E+00
        -11   -1    0    0    0    0  0.00000000000E+00  0.00000000000E+00  0.45593999997E+02  0.45594000000E+02  0.51100000000E-03 0.  1.
         11   -1    0    0    0    0 -0.00000000000E+00 -0.00000000000E+00 -0.45593999997E+02  0.45594000000E+02  0.51100000000E-03 0. -1.
    9900012    2    1    2    0    0  0.19049591342E+02  0.19550810382E+02 -0.35832839050E+02  0.46142317951E+02  0.10000001732E+02 0.  0.
        -12    1    1    2    0    0 -0.19049591342E+02 -0.19550810382E+02  0.35832839050E+02  0.45045682049E+02  0.00000000000E+00 0.  1.
         11    1    3    3    0    0  0.17762781038E+01  0.26140158126E+01 -0.73353315254E+01  0.79871979705E+01  0.51100000000E-03 0. -1.
        -11    1    3    3    0    0  0.24864256160E+01  0.72595902619E+01 -0.94288130273E+01  0.12156746213E+02  0.51100000000E-03 0.  1.
        -12    1    3    3    0    0  0.14786887622E+02  0.96772043074E+01 -0.19068694497E+02  0.25998373768E+02  0.00000000000E+00 0.  1.
</event>
<event>
 7    1  0.1549900E-008  0.4614232E+02  0.7816164E-02  0.1320468E+00
        -11   -1    0    0    0    0  0.00000000000E+00  0.00000000000E+00  0.45593999997E+02  0.45594000000E+02  0.51100000000E-03 0.  1.
         11   -1    0    0    0    0 -0.00000000000E+00 -0.00000000000E+00 -0.45593999997E+02  0.45594000000E+02  0.51100000000E-03 0. -1.
    9900012    2    1    2    0    0  0.41450777691E+02 -0.16720156737E+02 -0.56020414447E+01  0.46142317845E+02  0.10000000761E+02 0.  0.
        -12    1    1    2    0    0 -0.41450777691E+02  0.16720156737E+02  0.56020414447E+01  0.45045682155E+02  0.00000000000E+00 0.  1.
         11    1    3    3    0    0  0.22212778117E+02 -0.13005183264E+02 -0.59031045731E+01  0.26408122751E+02  0.51100000000E-03 0. -1.
        -11    1    3    3    0    0  0.53331655401E+01 -0.20250617814E+01  0.49073859539E+00  0.57257623533E+01  0.51100000000E-03 0.  1.
         12    1    3    3    0    0  0.13904834034E+02 -0.16899116915E+01 -0.18967546702E+00  0.14008432740E+02  0.00000000000E+00 0. -1.
</event>
<event>
 7    1  0.1549900E-008  0.4614232E+02  0.7816164E-02  0.1320468E+00
        -11   -1    0    0    0    0  0.00000000000E+00  0.00000000000E+00  0.45593999997E+02  0.45594000000E+02  0.51100000000E-03 0. -1.
         11   -1    0    0    0    0 -0.00000000000E+00 -0.00000000000E+00 -0.45593999997E+02  0.45594000000E+02  0.51100000000E-03 0.  1.
    9900012    2    1    2    0    0  0.41928726340E+01  0.43269157170E+02  0.11803109034E+02  0.46142317343E+02  0.99999961910E+01 0.  0.
        -12    1    1    2    0    0 -0.41928726340E+01 -0.43269157170E+02 -0.11803109034E+02  0.45045682657E+02  0.00000000000E+00 0.  1.
         11    1    3    3    0    0 -0.13314394486E+00  0.10493604261E+02  0.70569360816E+01  0.12646493776E+02  0.51100000000E-03 0. -1.
        -11    1    3    3    0    0  0.18996826903E+01  0.23274118420E+02  0.33340133229E+01  0.23588323969E+02  0.51100000000E-03 0.  1.
         12    1    3    3    0    0  0.24263338886E+01  0.95014344886E+01  0.14121596299E+01  0.99074995988E+01  0.00000000000E+00 0. -1.
</event>
<event>
 7    1  0.1549900E-008  0.4614232E+02  0.7816164E-02  0.1320468E+00
        -11   -1    0    0    0    0  0.00000000000E+00  0.00000000000E+00  0.45593999997E+02  0.45594000000E+02  0.51100000000E-03 0. -1.
         11   -1    0    0    0    0 -0.00000000000E+00 -0.00000000000E+00 -0.45593999997E+02  0.45594000000E+02  0.51100000000E-03 0.  1.
    9900012    2    1    2    0    0 -0.30442331902E+01 -0.16551053825E+02  0.41784069031E+02  0.46142321370E+02  0.10000032912E+02 0.  0.
        -12    1    1    2    0    0  0.30442331902E+01  0.16551053825E+02 -0.41784069031E+02  0.45045678630E+02  0.00000000000E+00 0.  1.
         11    1    3    3    0    0 -0.13393272603E+01  0.42412622608E+00  0.36851522652E+01  0.39438595366E+01  0.51100000000E-03 0. -1.
        -11    1    3    3    0    0 -0.26870853187E+01 -0.26677718406E+01  0.86942214070E+01  0.94829805567E+01  0.51100000000E-03 0.  1.
         12    1    3    3    0    0  0.98217938883E+00 -0.14307408210E+02  0.29404695359E+02  0.32715481277E+02  0.00000000000E+00 0. -1.
</event>
<event>
 7    1  0.1549900E-008  0.4614232E+02  0.7816164E-02  0.1320468E+00
        -11   -1    0    0    0    0  0.00000000000E+00  0.00000000000E+00  0.45593999997E+02  0.45594000000E+02  0.51100000000E-03 0.  1.
         11   -1    0    0    0    0 -0.00000000000E+00 -0.00000000000E+00 -0.45593999997E+02  0.45594000000E+02  0.51100000000E-03 0. -1.
    9900012    2    1    2    0    0 -0.11244625373E+02 -0.39932607964E+02 -0.17551598891E+02  0.46142318717E+02  0.10000008715E+02 0.  0.
        -12    1    1    2    0    0  0.11244625373E+02  0.39932607964E+02  0.17551598891E+02  0.45045681283E+02  0.00000000000E+00 0.  1.
         11    1    3    3    0    0 -0.77923898154E+01 -0.23213406538E+02 -0.65397680728E+01  0.25344667069E+02  0.51100000000E-03 0. -1.
        -11    1    3    3    0    0 -0.13479875656E+01 -0.88361135438E+01 -0.31777105108E+01  0.94864017091E+01  0.51100000000E-03 0.  1.
         12    1    3    3    0    0 -0.21042479923E+01 -0.78830878827E+01 -0.78341203079E+01  0.11311249939E+02  0.00000000000E+00 0. -1.
</event>
<event>
 7    1  0.1549900E-008  0.4614232E+02  0.7816164E-02  0.1320468E+00
        -11   -1    0    0    0    0  0.00000000000E+00  0.00000000000E+00  0.45593999997E+02  0.45594000000E+02  0.51100000000E-03 0.  1.
         11   -1    0    0    0    0 -0.00000000000E+00 -0.00000000000E+00 -0.45593999997E+02  0.45594000000E+02  0.51100000000E-03 0. -1.
    9900012    2    1    2    0    0  0.37257538866E+02 -0.12767369349E+02 -0.21862835756E+02  0.46142317524E+02  0.99999978380E+01 0.  0.
        -12    1    1    2    0    0 -0.37257538866E+02  0.12767369349E+02  0.21862835756E+02  0.45045682476E+02  0.00000000000E+00 0.  1.
         11    1    3    3    0    0  0.24513624206E+02 -0.12989541187E+02 -0.16542051376E+02  0.32299929039E+02  0.51100000000E-03 0. -1.
        -11    1    3    3    0    0  0.59346426220E+01  0.39179204226E+00 -0.20948291516E+01  0.63056953218E+01  0.51100000000E-03 0.  1.
         12    1    3    3    0    0  0.68092720378E+01 -0.16962020484E+00 -0.32259552286E+01  0.75366931631E+01  0.00000000000E+00 0. -1.
</event>
<event>
 7    1  0.1549900E-008  0.4614232E+02  0.7816164E-02  0.1320468E+00
        -11   -1    0    0    0    0  0.00000000000E+00  0.00000000000E+00  0.45593999997E+02  0.45594000000E+02  0.51100000000E-03 0.  1.
         11   -1    0    0    0    0 -0.00000000000E+00 -0.00000000000E+00 -0.45593999997E+02  0.45594000000E+02  0.51100000000E-03 0. -1.
    9900012    2    1    2    0    0  0.69753840905E+01  0.21524302712E+02 -0.38950763355E+02  0.46142317006E+02  0.99999931158E+01 0.  0.
        -12    1    1    2    0    0 -0.69753840905E+01 -0.21524302712E+02  0.38950763355E+02  0.45045682994E+02  0.00000000000E+00 0.  1.
         11    1    3    3    0    0 -0.65572915123E+00  0.95959284066E+01 -0.10747363495E+02  0.14422816821E+02  0.51100000000E-03 0.  1.
        -11    1    3    3    0    0  0.64224508915E+01  0.10032011224E+02 -0.25860535239E+02  0.28472028515E+02  0.51100000000E-03 0. -1.
         12    1    3    3    0    0  0.12086623502E+01  0.18963630821E+01 -0.23428646205E+01  0.32474716698E+01  0.00000000000E+00 0. -1.
</event>
<event>
 7    1  0.1549900E-008  0.4614232E+02  0.7816164E-02  0.1320468E+00
        -11   -1    0    0    0    0  0.00000000000E+00  0.00000000000E+00  0.45593999997E+02  0.45594000000E+02  0.51100000000E-03 0. -1.
         11   -1    0    0    0    0 -0.00000000000E+00 -0.00000000000E+00 -0.45593999997E+02  0.45594000000E+02  0.51100000000E-03 0.  1.
    9900012    2    1    2    0    0  0.39897731838E+02  0.74331392572E+01 -0.19545662398E+02  0.46142317813E+02  0.10000000477E+02 0.  0.
        -12    1    1    2    0    0 -0.39897731838E+02 -0.74331392572E+01  0.19545662398E+02  0.45045682187E+02  0.00000000000E+00 0.  1.
         11    1    3    3    0    0  0.52560455474E+01 -0.13967263443E+01 -0.11222876709E+01  0.55530522377E+01  0.51100000000E-03 0.  1.
        -11    1    3    3    0    0  0.32039650570E+02  0.95751321685E+01 -0.17397012087E+02  0.37694540646E+02  0.51100000000E-03 0. -1.
         12    1    3    3    0    0  0.26020357209E+01 -0.74526656707E+00 -0.10263626402E+01  0.28947249296E+01  0.00000000000E+00 0. -1.
</event>
<event>
 7    1  0.1549900E-008  0.4614232E+02  0.7816164E-02  0.1320468E+00
        -11   -1    0    0    0    0  0.00000000000E+00  0.00000000000E+00  0.45593999997E+02  0.45594000000E+02  0.51100000000E-03 0.  1.
         11   -1    0    0    0    0 -0.00000000000E+00 -0.00000000000E+00 -0.45593999997E+02  0.45594000000E+02  0.51100000000E-03 0. -1.
    9900012    2    1    2    0    0 -0.27946563262E+02  0.83221940266E+01 -0.34334300540E+02  0.46142317574E+02  0.99999982978E+01 0.  0.
        -12    1    1    2    0    0  0.27946563262E+02 -0.83221940266E+01  0.34334300540E+02  0.45045682426E+02  0.00000000000E+00 0.  1.
         11    1    3    3    0    0 -0.20233328365E+02  0.73994046906E+01 -0.21208114741E+02  0.30231157729E+02  0.51100000000E-03 0. -1.
        -11    1    3    3    0    0 -0.44922133459E+01  0.10355542375E+00 -0.11204705758E+02  0.12072122259E+02  0.51100000000E-03 0.  1.
        -12    1    3    3    0    0 -0.32210215512E+01  0.81923391232E+00 -0.19214800421E+01  0.38390375863E+01  0.00000000000E+00 0.  1.
</event>
<event>
 7    1  0.1549900E-008  0.4614232E+02  0.7816164E-02  0.1320468E+00
        -11   -1    0    0    0    0  0.00000000000E+00  0.00000000000E+00  0.45593999997E+02  0.45594000000E+02  0.51100000000E-03 0. -1.
         11   -1    0    0    0    0 -0.00000000000E+00 -0.00000000000E+00 -0.45593999997E+02  0.45594000000E+02  0.51100000000E-03 0.  1.
    9900012    2    1    2    0    0  0.17529098325E+00  0.14763272676E+02  0.42557356003E+02  0.46142317665E+02  0.99999991222E+01 0.  0.
        -12    1    1    2    0    0 -0.17529098325E+00 -0.14763272676E+02 -0.42557356003E+02  0.45045682335E+02  0.00000000000E+00 0.  1.
         11    1    3    3    0    0 -0.16488884227E+00  0.38738259340E+01  0.18265616533E+02  0.18672612653E+02  0.51100000000E-03 0. -1.
        -11    1    3    3    0    0  0.87594578517E+00  0.52854661958E+01  0.48411093388E+01  0.72207876174E+01  0.51100000000E-03 0.  1.
        -12    1    3    3    0    0 -0.53576595965E+00  0.56039805462E+01  0.19450630132E+02  0.20248917395E+02  0.00000000000E+00 0.  1.
</event>
<event>
 7    1  0.1549900E-008  0.4614232E+02  0.7816164E-02  0.1320468E+00
        -11   -1    0    0    0    0  0.00000000000E+00  0.00000000000E+00  0.45593999997E+02  0.45594000000E+02  0.51100000000E-03 0.  1.
         11   -1    0    0    0    0 -0.00000000000E+00 -0.00000000000E+00 -0.45593999997E+02  0.45594000000E+02  0.51100000000E-03 0. -1.
    9900012    2    1    2    0    0  0.37315536133E+02 -0.27487746462E+01 -0.25082033947E+02  0.46142318455E+02  0.10000006327E+02 0.  0.
        -12    1    1    2    0    0 -0.37315536133E+02  0.27487746462E+01  0.25082033947E+02  0.45045681545E+02  0.00000000000E+00 0.  1.
         11    1    3    3    0    0  0.96755252072E+01 -0.15074436376E+01 -0.12083657963E+02  0.15553230031E+02  0.51100000000E-03 0. -1.
        -11    1    3    3    0    0  0.26266528610E+02 -0.14159286915E+01 -0.12298301554E+02  0.29037623881E+02  0.51100000000E-03 0.  1.
        -12    1    3    3    0    0  0.13734823156E+01  0.17459768285E+00 -0.70007443010E+00  0.15514645435E+01  0.00000000000E+00 0.  1.
</event>
<event>
 7    1  0.1549900E-008  0.4614232E+02  0.7816164E-02  0.1320468E+00
        -11   -1    0    0    0    0  0.00000000000E+00  0.00000000000E+00  0.45593999997E+02  0.45594000000E+02  0.51100000000E-03 0.  1.
         11   -1    0    0    0    0 -0.00000000000E+00 -0.00000000000E+00 -0.45593999997E+02  0.45594000000E+02  0.51100000000E-03 0. -1.
    9900012    2    1    2    0    0 -0.42119894478E+02  0.37983973470E+01 -0.15511291104E+02  0.46142317799E+02  0.10000000343E+02 0.  0.
        -12    1    1    2    0    0  0.42119894478E+02 -0.37983973470E+01  0.15511291104E+02  0.45045682201E+02  0.00000000000E+00 0.  1.
         11    1    3    3    0    0 -0.11669245380E+02  0.52129251346E+00 -0.27229741407E+01  0.11994066118E+02  0.51100000000E-03 0. -1.
        -11    1    3    3    0    0 -0.83558331478E+01 -0.25801788632E+01 -0.26081469461E+01  0.91257712723E+01  0.51100000000E-03 0.  1.
        -12    1    3    3    0    0 -0.22094815951E+02  0.58572836968E+01 -0.10180170017E+02  0.25022480408E+02  0.00000000000E+00 0.  1.
</event>
<event>
 7    1  0.1549900E-008  0.4614232E+02  0.7816164E-02  0.1320468E+00
        -11   -1    0    0    0    0  0.00000000000E+00  0.00000000000E+00  0.45593999997E+02  0.45594000000E+02  0.51100000000E-03 0.  1.
         11   -1    0    0    0    0 -0.00000000000E+00 -0.00000000000E+00 -0.45593999997E+02  0.45594000000E+02  0.51100000000E-03 0. -1.
    9900012    2    1    2    0    0 -0.28501943421E+02 -0.87164989723E+01 -0.33775366648E+02  0.46142317351E+02  0.99999962593E+01 0.  0.
        -12    1    1    2    0    0  0.28501943421E+02  0.87164989723E+01  0.33775366648E+02  0.45045682649E+02  0.00000000000E+00 0.  1.
         11    1    3    3    0    0 -0.15969730146E+02 -0.20804079058E+01 -0.15921193162E+02  0.22646076260E+02  0.51100000000E-03 0.  1.
        -11    1    3    3    0    0 -0.92359703279E+01 -0.67814772188E+01 -0.16095226544E+02  0.19757223968E+02  0.51100000000E-03 0. -1.
         12    1    3    3    0    0 -0.32962429478E+01  0.14538615234E+00 -0.17589469416E+01  0.37390171232E+01  0.00000000000E+00 0. -1.
</event>
<event>
 7    1  0.1549900E-008  0.4614231E+02  0.7816164E-02  0.1320468E+00
        -11   -1    0    0    0    0  0.00000000000E+00  0.00000000000E+00  0.45593999997E+02  0.45594000000E+02  0.51100000000E-03 0. -1.
         11   -1    0    0    0    0 -0.00000000000E+00 -0.00000000000E+00 -0.45593999997E+02  0.45594000000E+02  0.51100000000E-03 0.  1.
    9900012    2    1    2    0    0 -0.90041482669E+01 -0.41688206576E+02  0.14495949797E+02  0.46142314146E+02  0.99999670364E+01 0.  0.
        -12    1    1    2    0    0  0.90041482669E+01  0.41688206576E+02 -0.14495949797E+02  0.45045685854E+02  0.00000000000E+00 0.  1.
         11    1    3    3    0    0 -0.28953277073E+01 -0.29037989851E+02  0.11988316450E+02  0.31548494555E+02  0.51100000000E-03 0. -1.
        -11    1    3    3    0    0 -0.57071021124E+01 -0.12657125624E+02  0.21381399796E+01  0.14047970900E+02  0.51100000000E-03 0.  1.
        -12    1    3    3    0    0 -0.40171844730E+00  0.69088998813E-02  0.36949336824E+00  0.54584869055E+00  0.00000000000E+00 0.  1.
</event>
<event>
 7    1  0.1549900E-008  0.4614232E+02  0.7816164E-02  0.1320468E+00
        -11   -1    0    0    0    0  0.00000000000E+00  0.00000000000E+00  0.45593999997E+02  0.45594000000E+02  0.51100000000E-03 0.  1.
         11   -1    0    0    0    0 -0.00000000000E+00 -0.00000000000E+00 -0.45593999997E+02  0.45594000000E+02  0.51100000000E-03 0. -1.
    9900012    2    1    2    0    0 -0.24228183801E+01 -0.40825130081E+02 -0.18882593927E+02  0.46142315984E+02  0.99999837952E+01 0.  0.
        -12    1    1    2    0    0  0.24228183801E+01  0.40825130081E+02  0.18882593927E+02  0.45045684016E+02  0.00000000000E+00 0.  1.
         11    1    3    3    0    0 -0.29644547269E+01 -0.16284509774E+02 -0.47456388698E+01  0.17219010974E+02  0.51100000000E-03 0. -1.
        -11    1    3    3    0    0  0.31806367254E+01 -0.12279444171E+02 -0.67839824239E+01  0.14384839829E+02  0.51100000000E-03 0.  1.
         12    1    3    3    0    0 -0.26390003787E+01 -0.12261176137E+02 -0.73529726328E+01  0.14538465181E+02  0.00000000000E+00 0. -1.
</event>
<event>
 7    1  0.1549900E-008  0.4614232E+02  0.7816164E-02  0.1320468E+00
        -11   -1    0    0    0    0  0.00000000000E+00  0.00000000000E+00  0.45593999997E+02  0.45594000000E+02  0.51100000000E-03 0.  1.
         11   -1    0    0    0    0 -0.00000000000E+00 -0.00000000000E+00 -0.45593999997E+02  0.45594000000E+02  0.51100000000E-03 0. -1.
    9900012    2    1    2    0    0 -0.92363067693E+01 -0.43829983791E+02  0.47682969334E+01  0.46142317660E+02  0.99999990770E+01 0.  0.
        -12    1    1    2    0    0  0.92363067693E+01  0.43829983791E+02 -0.47682969334E+01  0.45045682340E+02  0.00000000000E+00 0.  1.
         11    1    3    3    0    0 -0.56173141116E+00 -0.37124331483E+01  0.16741429769E+00  0.37584211935E+01  0.51100000000E-03 0. -1.
        -11    1    3    3    0    0 -0.35468157286E+01 -0.29534831276E+01  0.62551381919E+00  0.46577067529E+01  0.51100000000E-03 0.  1.
        -12    1    3    3    0    0 -0.51277596296E+01 -0.37164067515E+02  0.39753688166E+01  0.37726189714E+02  0.00000000000E+00 0.  1.
</event>
<event>
 7    1  0.1549900E-008  0.4614232E+02  0.7816164E-02  0.1320468E+00
        -11   -1    0    0    0    0  0.00000000000E+00  0.00000000000E+00  0.45593999997E+02  0.45594000000E+02  0.51100000000E-03 0.  1.
         11   -1    0    0    0    0 -0.00000000000E+00 -0.00000000000E+00 -0.45593999997E+02  0.45594000000E+02  0.51100000000E-03 0. -1.
    9900012    2    1    2    0    0 -0.25299849701E+02  0.33187685381E+02 -0.16959028204E+02  0.46142317705E+02  0.99999994884E+01 0.  0.
        -12    1    1    2    0    0  0.25299849701E+02 -0.33187685381E+02  0.16959028204E+02  0.45045682295E+02  0.00000000000E+00 0.  1.
         11    1    3    3    0    0 -0.61861622620E+01  0.12967062528E+02 -0.32991813721E+01  0.14741028191E+02  0.51100000000E-03 0.  1.
        -11    1    3    3    0    0 -0.13487797770E+02  0.13054186952E+02 -0.66787632836E+01  0.19923312097E+02  0.51100000000E-03 0. -1.
        -12    1    3    3    0    0 -0.56258896689E+01  0.71664359016E+01 -0.69810835480E+01  0.11477977418E+02  0.00000000000E+00 0.  1.
</event>
<event>
 7    1  0.1549900E-008  0.4614232E+02  0.7816164E-02  0.1320468E+00
        -11   -1    0    0    0    0  0.00000000000E+00  0.00000000000E+00  0.45593999997E+02  0.45594000000E+02  0.51100000000E-03 0.  1.
         11   -1    0    0    0    0 -0.00000000000E+00 -0.00000000000E+00 -0.45593999997E+02  0.45594000000E+02  0.51100000000E-03 0. -1.
    9900012    2    1    2    0    0 -0.12589301883E+01  0.57669827764E+01 -0.44657254688E+02  0.46142318833E+02  0.10000009773E+02 0.  0.
        -12    1    1    2    0    0  0.12589301883E+01 -0.57669827764E+01  0.44657254688E+02  0.45045681167E+02  0.00000000000E+00 0.  1.
         11    1    3    3    0    0 -0.53758354991E+01  0.16177200544E+01 -0.20284399691E+02  0.21046935563E+02  0.51100000000E-03 0. -1.
        -11    1    3    3    0    0  0.13017678191E+01  0.20054437399E+01 -0.82917002055E+01  0.86295247034E+01  0.51100000000E-03 0.  1.
         12    1    3    3    0    0  0.28151374916E+01  0.21438189821E+01 -0.16081154791E+02  0.16465858567E+02  0.00000000000E+00 0. -1.
</event>
<event>
 7    1  0.1549900E-008  0.4614232E+02  0.7816164E-02  0.1320468E+00
        -11   -1    0    0    0    0  0.00000000000E+00  0.00000000000E+00  0.45593999997E+02  0.45594000000E+02  0.51100000000E-03 0. -1.
         11   -1    0    0    0    0 -0.00000000000E+00 -0.00000000000E+00 -0.45593999997E+02  0.45594000000E+02  0.51100000000E-03 0.  1.
    9900012    2    1    2    0    0  0.27769543505E+02 -0.28395149133E+02  0.21252798373E+02  0.46142317860E+02  0.10000000905E+02 0.  0.
        -12    1    1    2    0    0 -0.27769543505E+02  0.28395149133E+02 -0.21252798373E+02  0.45045682140E+02  0.00000000000E+00 0.  1.
         11    1    3    3    0    0  0.19402545778E+02 -0.14504688302E+02  0.93145397455E+01  0.25953909461E+02  0.51100000000E-03 0. -1.
        -11    1    3    3    0    0  0.68352980198E+00 -0.20171434386E+01  0.17805131349E+01  0.27760237619E+01  0.51100000000E-03 0.  1.
         12    1    3    3    0    0  0.76834679251E+01 -0.11873317392E+02  0.10157745493E+02  0.17412384637E+02  0.00000000000E+00 0. -1.
</event>
<event>
 7    1  0.1549900E-008  0.4614232E+02  0.7816164E-02  0.1320468E+00
        -11   -1    0    0    0    0  0.00000000000E+00  0.00000000000E+00  0.45593999997E+02  0.45594000000E+02  0.51100000000E-03 0.  1.
         11   -1    0    0    0    0 -0.00000000000E+00 -0.00000000000E+00 -0.45593999997E+02  0.45594000000E+02  0.51100000000E-03 0. -1.
    9900012    2    1    2    0    0  0.35313860814E+02 -0.19211298186E+02 -0.20321682955E+02  0.46142317169E+02  0.99999946022E+01 0.  0.
        -12    1    1    2    0    0 -0.35313860814E+02  0.19211298186E+02  0.20321682955E+02  0.45045682831E+02  0.00000000000E+00 0.  1.
         11    1    3    3    0    0  0.21466206870E+01 -0.39213308154E+00 -0.27711720300E+01  0.35272005058E+01  0.51100000000E-03 0.  1.
        -11    1    3    3    0    0  0.21295715334E+02 -0.97186735889E+01 -0.13875516629E+02  0.27211947191E+02  0.51100000000E-03 0. -1.
        -12    1    3    3    0    0  0.11871524793E+02 -0.91004915153E+01 -0.36749942957E+01  0.15403169473E+02  0.00000000000E+00 0.  1.
</event>
<event>
 7    1  0.1549900E-008  0.4614232E+02  0.7816164E-02  0.1320468E+00
        -11   -1    0    0    0    0  0.00000000000E+00  0.00000000000E+00  0.45593999997E+02  0.45594000000E+02  0.51100000000E-03 0.  1.
         11   -1    0    0    0    0 -0.00000000000E+00 -0.00000000000E+00 -0.45593999997E+02  0.45594000000E+02  0.51100000000E-03 0. -1.
    9900012    2    1    2    0    0 -0.12954243622E+02  0.25709918084E+02 -0.34645361827E+02  0.46142318611E+02  0.10000007748E+02 0.  0.
        -12    1    1    2    0    0  0.12954243622E+02 -0.25709918084E+02  0.34645361827E+02  0.45045681389E+02  0.00000000000E+00 0.  1.
         11    1    3    3    0    0 -0.64187745222E+01  0.15377369817E+02 -0.15682822116E+02  0.22882637056E+02  0.51100000000E-03 0. -1.
        -11    1    3    3    0    0 -0.89704770212E+00  0.50486862173E+00  0.15088649039E+00  0.10403623884E+01  0.51100000000E-03 0.  1.
         12    1    3    3    0    0 -0.56384213980E+01  0.98276796448E+01 -0.19113426201E+02  0.22219319166E+02  0.00000000000E+00 0. -1.
</event>
<event>
 7    1  0.1549900E-008  0.4614231E+02  0.7816164E-02  0.1320468E+00
        -11   -1    0    0    0    0  0.00000000000E+00  0.00000000000E+00  0.45593999997E+02  0.45594000000E+02  0.51100000000E-03 0.  1.
         11   -1    0    0    0    0 -0.00000000000E+00 -0.00000000000E+00 -0.45593999997E+02  0.45594000000E+02  0.51100000000E-03 0. -1.
    9900012    2    1    2    0    0  0.29059279095E+02  0.21138207162E+02 -0.27163366889E+02  0.46142312034E+02  0.99999477779E+01 0.  0.
        -12    1    1    2    0    0 -0.29059279095E+02 -0.21138207162E+02  0.27163366889E+02  0.45045687966E+02  0.00000000000E+00 0.  1.
         11    1    3    3    0    0  0.27239507779E+02  0.19292815421E+02 -0.21230653020E+02  0.39559374853E+02  0.51100000000E-03 0. -1.
        -11    1    3    3    0    0  0.67959344899E+00  0.36272218820E-01 -0.19019867962E+01  0.20200784549E+01  0.51100000000E-03 0.  1.
         12    1    3    3    0    0  0.11401778676E+01  0.18091195221E+01 -0.40307270731E+01  0.45628587259E+01  0.00000000000E+00 0. -1.
</event>
<event>
 7    1  0.1549900E-008  0.4614232E+02  0.7816164E-02  0.1320468E+00
        -11   -1    0    0    0    0  0.00000000000E+00  0.00000000000E+00  0.45593999997E+02  0.45594000000E+02  0.51100000000E-03 0.  1.
         11   -1    0    0    0    0 -0.00000000000E+00 -0.00000000000E+00 -0.45593999997E+02  0.45594000000E+02  0.51100000000E-03 0. -1.
    9900012    2    1    2    0    0  0.12287468510E+02 -0.30552422020E+02 -0.30735663185E+02  0.46142319129E+02  0.10000012474E+02 0.  0.
        -12    1    1    2    0    0 -0.12287468510E+02  0.30552422020E+02  0.30735663185E+02  0.45045680871E+02  0.00000000000E+00 0.  1.
         11    1    3    3    0    0  0.63268855552E+01 -0.11202379550E+02 -0.78125350667E+01  0.15051860112E+02  0.51100000000E-03 0. -1.
        -11    1    3    3    0    0  0.30840951446E-01 -0.91888529770E+01 -0.89980216990E+01  0.12860807321E+02  0.51100000000E-03 0.  1.
         12    1    3    3    0    0  0.59297420039E+01 -0.10161189493E+02 -0.13925106420E+02  0.18229651696E+02  0.00000000000E+00 0. -1.
</event>
<event>
 7    1  0.1549900E-008  0.4614232E+02  0.7816164E-02  0.1320468E+00
        -11   -1    0    0    0    0  0.00000000000E+00  0.00000000000E+00  0.45593999997E+02  0.45594000000E+02  0.51100000000E-03 0.  1.
         11   -1    0    0    0    0 -0.00000000000E+00 -0.00000000000E+00 -0.45593999997E+02  0.45594000000E+02  0.51100000000E-03 0. -1.
    9900012    2    1    2    0    0 -0.22238875334E+02  0.27347114801E+02 -0.28047836311E+02  0.46142318899E+02  0.10000010378E+02 0.  0.
        -12    1    1    2    0    0  0.22238875334E+02 -0.27347114801E+02  0.28047836311E+02  0.45045681101E+02  0.00000000000E+00 0.  1.
         11    1    3    3    0    0 -0.69705715402E+01  0.52716572943E+01 -0.35544351980E+01  0.94346832519E+01  0.51100000000E-03 0. -1.
        -11    1    3    3    0    0 -0.14984497253E+02  0.21455745208E+02 -0.22209301184E+02  0.34324003550E+02  0.51100000000E-03 0.  1.
        -12    1    3    3    0    0 -0.28380654088E+00  0.61971229833E+00 -0.22840999299E+01  0.23836320973E+01  0.00000000000E+00 0.  1.
</event>
<event>
 7    1  0.1549900E-008  0.4614232E+02  0.7816164E-02  0.1320468E+00
        -11   -1    0    0    0    0  0.00000000000E+00  0.00000000000E+00  0.45593999997E+02  0.45594000000E+02  0.51100000000E-03 0.  1.
         11   -1    0    0    0    0 -0.00000000000E+00 -0.00000000000E+00 -0.45593999997E+02  0.45594000000E+02  0.51100000000E-03 0. -1.
    9900012    2    1    2    0    0 -0.40958550029E+02  0.14498978779E+02 -0.11886560440E+02  0.46142317352E+02  0.99999962709E+01 0.  0.
        -12    1    1    2    0    0  0.40958550029E+02 -0.14498978779E+02  0.11886560440E+02  0.45045682648E+02  0.00000000000E+00 0.  1.
         11    1    3    3    0    0 -0.13551453786E+02  0.21449947201E+01 -0.25373903022E+01  0.13952822362E+02  0.51100000000E-03 0. -1.
        -11    1    3    3    0    0 -0.60374947062E-01  0.32227650656E+00  0.61355425835E+00  0.69566972765E+00  0.51100000000E-03 0.  1.
         12    1    3    3    0    0 -0.27346721296E+02  0.12031707553E+02 -0.99627243957E+01  0.31493825263E+02  0.00000000000E+00 0. -1.
</event>
<event>
 7    1  0.1549900E-008  0.4614231E+02  0.7816164E-02  0.1320468E+00
        -11   -1    0    0    0    0  0.00000000000E+00  0.00000000000E+00  0.45593999997E+02  0.45594000000E+02  0.51100000000E-03 0.  1.
         11   -1    0    0    0    0 -0.00000000000E+00 -0.00000000000E+00 -0.45593999997E+02  0.45594000000E+02  0.51100000000E-03 0. -1.
    9900012    2    1    2    0    0  0.11300031901E+02  0.17314822037E+02 -0.40020246050E+02  0.46142313447E+02  0.99999606603E+01 0.  0.
        -12    1    1    2    0    0 -0.11300031901E+02 -0.17314822037E+02  0.40020246050E+02  0.45045686553E+02  0.00000000000E+00 0.  1.
         11    1    3    3    0    0  0.37407582614E+01  0.65407090139E+01 -0.11470243724E+02  0.13723725373E+02  0.51100000000E-03 0. -1.
        -11    1    3    3    0    0  0.19725169285E+01  0.29151566418E+01 -0.17057338958E+02  0.17416709617E+02  0.51100000000E-03 0.  1.
        -12    1    3    3    0    0  0.55867567107E+01  0.78589563814E+01 -0.11492663368E+02  0.15001878457E+02  0.00000000000E+00 0.  1.
</event>
<event>
 7    1  0.1549900E-008  0.4614232E+02  0.7816164E-02  0.1320468E+00
        -11   -1    0    0    0    0  0.00000000000E+00  0.00000000000E+00  0.45593999997E+02  0.45594000000E+02  0.51100000000E-03 0. -1.
         11   -1    0    0    0    0 -0.00000000000E+00 -0.00000000000E+00 -0.45593999997E+02  0.45594000000E+02  0.51100000000E-03 0.  1.
    9900012    2    1    2    0    0 -0.87046377325E+01 -0.43964140053E+02  0.45273719893E+01  0.46142318456E+02  0.10000006334E+02 0.  0.
        -12    1    1    2    0    0  0.87046377325E+01  0.43964140053E+02 -0.45273719893E+01  0.45045681544E+02  0.00000000000E+00 0.  1.
         11    1    3    3    0    0 -0.23933095095E+01 -0.13033412725E+02  0.19661453971E+01  0.13396398981E+02  0.51100000000E-03 0. -1.
        -11    1    3    3    0    0 -0.46469735874E-01 -0.20343942790E+02  0.15702432884E+01  0.20404505187E+02  0.51100000000E-03 0.  1.
        -12    1    3    3    0    0 -0.62648584871E+01 -0.10586784537E+02  0.99098330380E+00  0.12341414287E+02  0.00000000000E+00 0.  1.
</event>
<event>
 7    1  0.1549900E-008  0.4614232E+02  0.7816164E-02  0.1320468E+00
        -11   -1    0    0    0    0  0.00000000000E+00  0.00000000000E+00  0.45593999997E+02  0.45594000000E+02  0.51100000000E-03 0.  1.
         11   -1    0    0    0    0 -0.00000000000E+00 -0.00000000000E+00 -0.45593999997E+02  0.45594000000E+02  0.51100000000E-03 0. -1.
    9900012    2    1    2    0    0 -0.11749456644E+02 -0.42218721160E+02 -0.10423210359E+02  0.46142318054E+02  0.10000002671E+02 0.  0.
        -12    1    1    2    0    0  0.11749456644E+02  0.42218721160E+02  0.10423210359E+02  0.45045681946E+02  0.00000000000E+00 0.  1.
         11    1    3    3    0    0 -0.45200563686E+01 -0.13094105617E+02 -0.36434435299E+00  0.13857101376E+02  0.51100000000E-03 0. -1.
        -11    1    3    3    0    0 -0.80178141592E+01 -0.28517804219E+02 -0.93514280986E+01  0.31064444452E+02  0.51100000000E-03 0.  1.
        -12    1    3    3    0    0  0.78841388367E+00 -0.60681132352E+00 -0.70743790726E+00  0.12207722257E+01  0.00000000000E+00 0.  1.
</event>
<event>
 7    1  0.1549900E-008  0.4614233E+02  0.7816164E-02  0.1320468E+00
        -11   -1    0    0    0    0  0.00000000000E+00  0.00000000000E+00  0.45593999997E+02  0.45594000000E+02  0.51100000000E-03 0. -1.
         11   -1    0    0    0    0 -0.00000000000E+00 -0.00000000000E+00 -0.45593999997E+02  0.45594000000E+02  0.51100000000E-03 0.  1.
    9900012    2    1    2    0    0  0.12986910933E+01  0.21505696525E+02  0.39559211049E+02  0.46142325842E+02  0.10000073686E+02 0.  0.
        -12    1    1    2    0    0 -0.12986910933E+01 -0.21505696525E+02 -0.39559211049E+02  0.45045674158E+02  0.00000000000E+00 0.  1.
         11    1    3    3    0    0 -0.18599335616E+00  0.39424543105E+01  0.84734292234E+01  0.93475420611E+01  0.51100000000E-03 0. -1.
        -11    1    3    3    0    0 -0.15867345364E+01  0.15928620739E+02  0.27347259121E+02  0.31687714762E+02  0.51100000000E-03 0.  1.
        -12    1    3    3    0    0  0.30714189858E+01  0.16346214753E+01  0.37385227044E+01  0.51070690190E+01  0.00000000000E+00 0.  1.
</event>
<event>
 7    1  0.1549900E-008  0.4614232E+02  0.7816164E-02  0.1320468E+00
        -11   -1    0    0    0    0  0.00000000000E+00  0.00000000000E+00  0.45593999997E+02  0.45594000000E+02  0.51100000000E-03 0.  1.
         11   -1    0    0    0    0 -0.00000000000E+00 -0.00000000000E+00 -0.45593999997E+02  0.45594000000E+02  0.51100000000E-03 0. -1.
    9900012    2    1    2    0    0 -0.19614624801E+02 -0.27826583373E+02 -0.29496800385E+02  0.46142317841E+02  0.10000000725E+02 0.  0.
        -12    1    1    2    0    0  0.19614624801E+02  0.27826583373E+02  0.29496800385E+02  0.45045682159E+02  0.00000000000E+00 0.  1.
         11    1    3    3    0    0 -0.10134000645E+02 -0.11437179442E+02 -0.16468358265E+02  0.22465837773E+02  0.51100000000E-03 0. -1.
        -11    1    3    3    0    0 -0.97038482069E+01 -0.12538114599E+02 -0.11171001110E+02  0.19394851218E+02  0.51100000000E-03 0.  1.
        -12    1    3    3    0    0  0.22322405152E+00 -0.38512893320E+01 -0.18574410107E+01  0.42816288494E+01  0.00000000000E+00 0.  1.
</event>
<event>
 7    1  0.1549900E-008  0.4614231E+02  0.7816164E-02  0.1320468E+00
        -11   -1    0    0    0    0  0.00000000000E+00  0.00000000000E+00  0.45593999997E+02  0.45594000000E+02  0.51100000000E-03 0.  1.
         11   -1    0    0    0    0 -0.00000000000E+00 -0.00000000000E+00 -0.45593999997E+02  0.45594000000E+02  0.51100000000E-03 0. -1.
    9900012    2    1    2    0    0  0.17194956569E+02  0.25950161464E+02 -0.32558199239E+02  0.46142314867E+02  0.99999736115E+01 0.  0.
        -12    1    1    2    0    0 -0.17194956569E+02 -0.25950161464E+02  0.32558199239E+02  0.45045685133E+02  0.00000000000E+00 0.  1.
         11    1    3    3    0    0  0.14684810001E+01  0.13359920450E+01 -0.47081292415E+01  0.51095784961E+01  0.51100000000E-03 0. -1.
        -11    1    3    3    0    0  0.36963803511E+01  0.12581085396E+02 -0.12525553275E+02  0.18133847429E+02  0.51100000000E-03 0.  1.
         12    1    3    3    0    0  0.12030095218E+02  0.12033084023E+02 -0.15324516722E+02  0.22898888943E+02  0.00000000000E+00 0. -1.
</event>
<event>
 7    1  0.1549900E-008  0.4614231E+02  0.7816164E-02  0.1320468E+00
        -11   -1    0    0    0    0  0.00000000000E+00  0.00000000000E+00  0.45593999997E+02  0.45594000000E+02  0.51100000000E-03 0.  1.
         11   -1    0    0    0    0 -0.00000000000E+00 -0.00000000000E+00 -0.45593999997E+02  0.45594000000E+02  0.51100000000E-03 0. -1.
    9900012    2    1    2    0    0 -0.31887087892E+02  0.31781538001E+02  0.15039504219E+01  0.46142307655E+02  0.99999078431E+01 0.  0.
        -12    1    1    2    0    0  0.31887087892E+02 -0.31781538001E+02 -0.15039504219E+01  0.45045692345E+02  0.00000000000E+00 0.  1.
         11    1    3    3    0    0 -0.96181374209E+01  0.83265616786E+01 -0.79142892074E+00  0.12746236968E+02  0.51100000000E-03 0. -1.
        -11    1    3    3    0    0 -0.38567719255E+01  0.21218480679E+01 -0.20969047361E+01  0.48758526067E+01  0.51100000000E-03 0.  1.
        -12    1    3    3    0    0 -0.18412178546E+02  0.21333128255E+02  0.43922840788E+01  0.28520218081E+02  0.00000000000E+00 0.  1.
</event>
<event>
 7    1  0.1549900E-008  0.4614232E+02  0.7816164E-02  0.1320468E+00
        -11   -1    0    0    0    0  0.00000000000E+00  0.00000000000E+00  0.45593999997E+02  0.45594000000E+02  0.51100000000E-03 0. -1.
         11   -1    0    0    0    0 -0.00000000000E+00 -0.00000000000E+00 -0.45593999997E+02  0.45594000000E+02  0.51100000000E-03 0.  1.
    9900012    2    1    2    0    0  0.16095416404E+02 -0.41489004989E+02  0.69794815466E+01  0.46142321774E+02  0.10000036595E+02 0.  0.
        -12    1    1    2    0    0 -0.16095416404E+02  0.41489004989E+02 -0.69794815466E+01  0.45045678226E+02  0.00000000000E+00 0.  1.
         11    1    3    3    0    0  0.90602019621E+01 -0.27823552841E+02  0.26252216668E+01  0.29379059572E+02  0.51100000000E-03 0. -1.
        -11    1    3    3    0    0  0.49235016871E+01 -0.66687248674E+01  0.45425494919E+01  0.94523815183E+01  0.51100000000E-03 0.  1.
        -12    1    3    3    0    0  0.21117127545E+01 -0.69967272807E+01 -0.18828961205E+00  0.73108806841E+01  0.00000000000E+00 0.  1.
</event>
<event>
 7    1  0.1549900E-008  0.4614232E+02  0.7816164E-02  0.1320468E+00
        -11   -1    0    0    0    0  0.00000000000E+00  0.00000000000E+00  0.45593999997E+02  0.45594000000E+02  0.51100000000E-03 0.  1.
         11   -1    0    0    0    0 -0.00000000000E+00 -0.00000000000E+00 -0.45593999997E+02  0.45594000000E+02  0.51100000000E-03 0. -1.
    9900012    2    1    2    0    0 -0.24317182869E+02  0.26776761269E+02 -0.26847591069E+02  0.46142317932E+02  0.10000001560E+02 0.  0.
        -12    1    1    2    0    0  0.24317182869E+02 -0.26776761269E+02  0.26847591069E+02  0.45045682068E+02  0.00000000000E+00 0.  1.
         11    1    3    3    0    0 -0.43241312728E+01  0.10131812496E+02 -0.68754311326E+01  0.12985503042E+02  0.51100000000E-03 0. -1.
        -11    1    3    3    0    0 -0.20110173852E+01  0.11598646309E+00 -0.19434139724E+01  0.27990180265E+01  0.51100000000E-03 0.  1.
         12    1    3    3    0    0 -0.17982034211E+02  0.16528962309E+02 -0.18028745964E+02  0.30357796864E+02  0.00000000000E+00 0. -1.
</event>
<event>
 7    1  0.1549900E-008  0.4614232E+02  0.7816164E-02  0.1320468E+00
        -11   -1    0    0    0    0  0.00000000000E+00  0.00000000000E+00  0.45593999997E+02  0.45594000000E+02  0.51100000000E-03 0.  1.
         11   -1    0    0    0    0 -0.00000000000E+00 -0.00000000000E+00 -0.45593999997E+02  0.45594000000E+02  0.51100000000E-03 0. -1.
    9900012    2    1    2    0    0 -0.38842181316E+01 -0.43300570822E+02  0.11793508715E+02  0.46142318389E+02  0.10000005727E+02 0.  0.
        -12    1    1    2    0    0  0.38842181316E+01  0.43300570822E+02 -0.11793508715E+02  0.45045681611E+02  0.00000000000E+00 0.  1.
         11    1    3    3    0    0 -0.48343386562E+01 -0.36900388842E+02  0.74010803516E+01  0.37944505762E+02  0.51100000000E-03 0. -1.
        -11    1    3    3    0    0  0.17254248099E+01 -0.45773306431E+01  0.26708849516E+01  0.55733897474E+01  0.51100000000E-03 0.  1.
         12    1    3    3    0    0 -0.77530428531E+00 -0.18228513370E+01  0.17215434118E+01  0.26244228795E+01  0.00000000000E+00 0. -1.
</event>
<event>
 7    1  0.1549900E-008  0.4614232E+02  0.7816164E-02  0.1320468E+00
        -11   -1    0    0    0    0  0.00000000000E+00  0.00000000000E+00  0.45593999997E+02  0.45594000000E+02  0.51100000000E-03 0.  1.
         11   -1    0    0    0    0 -0.00000000000E+00 -0.00000000000E+00 -0.45593999997E+02  0.45594000000E+02  0.51100000000E-03 0. -1.
    9900012    2    1    2    0    0 -0.18028293131E+02  0.15258773980E+02 -0.38357058410E+02  0.46142318004E+02  0.10000002214E+02 0.  0.
        -12    1    1    2    0    0  0.18028293131E+02 -0.15258773980E+02  0.38357058410E+02  0.45045681996E+02  0.00000000000E+00 0.  1.
         11    1    3    3    0    0 -0.68319807980E+01  0.95033971104E+01 -0.15091681707E+02  0.19098412899E+02  0.51100000000E-03 0. -1.
        -11    1    3    3    0    0  0.36070378742E+00  0.11500715498E+01 -0.33698800776E+01  0.35789473019E+01  0.51100000000E-03 0.  1.
         12    1    3    3    0    0 -0.11557016120E+02  0.46053053203E+01 -0.19895496626E+02  0.23464957803E+02  0.00000000000E+00 0. -1.
</event>
<event>
 7    1  0.1549900E-008  0.4614232E+02  0.7816164E-02  0.1320468E+00
        -11   -1    0    0    0    0  0.00000000000E+00  0.00000000000E+00  0.45593999997E+02  0.45594000000E+02  0.51100000000E-03 0. -1.
         11   -1    0    0    0    0 -0.00000000000E+00 -0.00000000000E+00 -0.45593999997E+02  0.45594000000E+02  0.51100000000E-03 0.  1.
    9900012    2    1    2    0    0 -0.44991086327E+01  0.21551776988E+02  0.39298756845E+02  0.46142319193E+02  0.10000013055E+02 0.  0.
        -12    1    1    2    0    0  0.44991086327E+01 -0.21551776988E+02 -0.39298756845E+02  0.45045680807E+02  0.00000000000E+00 0.  1.
         11    1    3    3    0    0 -0.41738184568E+01  0.13053464135E+02  0.19447857524E+02  0.23791444869E+02  0.51100000000E-03 0. -1.
        -11    1    3    3    0    0 -0.22852093781E+01  0.33170860230E+01  0.45434432537E+01  0.60719122561E+01  0.51100000000E-03 0.  1.
         12    1    3    3    0    0  0.19599192022E+01  0.51812268305E+01  0.15307456067E+02  0.16278962067E+02  0.00000000000E+00 0. -1.
</event>
<event>
 7    1  0.1549900E-008  0.4614232E+02  0.7816164E-02  0.1320468E+00
        -11   -1    0    0    0    0  0.00000000000E+00  0.00000000000E+00  0.45593999997E+02  0.45594000000E+02  0.51100000000E-03 0.  1.
         11   -1    0    0    0    0 -0.00000000000E+00 -0.00000000000E+00 -0.45593999997E+02  0.45594000000E+02  0.51100000000E-03 0. -1.
    9900012    2    1    2    0    0 -0.19992604407E+02  0.27866920975E+02 -0.29203493096E+02  0.46142317359E+02  0.99999963325E+01 0.  0.
        -12    1    1    2    0    0  0.19992604407E+02 -0.27866920975E+02  0.29203493096E+02  0.45045682641E+02  0.00000000000E+00 0.  1.
         11    1    3    3    0    0 -0.77698035708E+01  0.61942219135E+01 -0.98475135773E+01  0.13989701804E+02  0.51100000000E-03 0. -1.
        -11    1    3    3    0    0 -0.55146433366E+01  0.48512294954E+01 -0.37516345479E+01  0.82474529880E+01  0.51100000000E-03 0.  1.
         12    1    3    3    0    0 -0.67081575000E+01  0.16821469566E+02 -0.15604344970E+02  0.23905162567E+02  0.00000000000E+00 0. -1.
</event>
<event>
 7    1  0.1549900E-008  0.4614232E+02  0.7816164E-02  0.1320468E+00
        -11   -1    0    0    0    0  0.00000000000E+00  0.00000000000E+00  0.45593999997E+02  0.45594000000E+02  0.51100000000E-03 0.  1.
         11   -1    0    0    0    0 -0.00000000000E+00 -0.00000000000E+00 -0.45593999997E+02  0.45594000000E+02  0.51100000000E-03 0. -1.
    9900012    2    1    2    0    0 -0.93252003176E+01 -0.23633664845E+02 -0.37196822957E+02  0.46142321927E+02  0.10000037989E+02 0.  0.
        -12    1    1    2    0    0  0.93252003176E+01  0.23633664845E+02  0.37196822957E+02  0.45045678073E+02  0.00000000000E+00 0.  1.
         11    1    3    3    0    0 -0.42113661686E+01 -0.88064877960E+01 -0.10635518527E+02  0.14436207497E+02  0.51100000000E-03 0. -1.
        -11    1    3    3    0    0 -0.13283258651E+01 -0.40640141356E+01 -0.14440218574E+02  0.15059899509E+02  0.51100000000E-03 0.  1.
        -12    1    3    3    0    0 -0.37855082839E+01 -0.10763162913E+02 -0.12121085856E+02  0.16646214921E+02  0.00000000000E+00 0.  1.
</event>
<event>
 7    1  0.1559154E-008  0.4614232E+02  0.7816164E-02  0.1320468E+00
        -11   -1    0    0    0    0  0.00000000000E+00  0.00000000000E+00  0.45593999997E+02  0.45594000000E+02  0.51100000000E-03 0.  1.
         11   -1    0    0    0    0 -0.00000000000E+00 -0.00000000000E+00 -0.45593999997E+02  0.45594000000E+02  0.51100000000E-03 0. -1.
    9900012    2    1    2    0    0  0.35663617736E+02  0.24768195196E+02 -0.11989846190E+02  0.46142317244E+02  0.99999952837E+01 0.  0.
        -12    1    1    2    0    0 -0.35663617736E+02 -0.24768195196E+02  0.11989846190E+02  0.45045682756E+02  0.00000000000E+00 0.  1.
         11    1    3    3    0    0  0.34257320169E+02  0.22278467807E+02 -0.11982225441E+02  0.42584831100E+02  0.51100000000E-03 0. -1.
        -11    1    3    3    0    0  0.77252553381E+00  0.23198727788E+01 -0.75874538325E+00  0.25601367596E+01  0.51100000000E-03 0.  1.
         12    1    3    3    0    0  0.63377203341E+00  0.16985460991E+00  0.75112463429E+00  0.99734938466E+00  0.00000000000E+00 0. -1.
</event>
<event>
 7    1  0.1549900E-008  0.4614232E+02  0.7816164E-02  0.1320468E+00
        -11   -1    0    0    0    0  0.00000000000E+00  0.00000000000E+00  0.45593999997E+02  0.45594000000E+02  0.51100000000E-03 0.  1.
         11   -1    0    0    0    0 -0.00000000000E+00 -0.00000000000E+00 -0.45593999997E+02  0.45594000000E+02  0.51100000000E-03 0. -1.
    9900012    2    1    2    0    0  0.17812801570E+02 -0.41597715895E+01 -0.41164473928E+02  0.46142317485E+02  0.99999974819E+01 0.  0.
        -12    1    1    2    0    0 -0.17812801570E+02  0.41597715895E+01  0.41164473928E+02  0.45045682515E+02  0.00000000000E+00 0.  1.
         11    1    3    3    0    0  0.61800759401E+01  0.23485029732E+01 -0.11166059789E+02  0.12976505551E+02  0.51100000000E-03 0. -1.
        -11    1    3    3    0    0  0.24062506717E+01 -0.15326159973E+01 -0.27165458672E+01  0.39393623596E+01  0.51100000000E-03 0.  1.
         12    1    3    3    0    0  0.92264749586E+01 -0.49756585653E+01 -0.27281868272E+02  0.29226449575E+02  0.00000000000E+00 0. -1.
</event>
<event>
 7    1  0.1549900E-008  0.4614232E+02  0.7816164E-02  0.1320468E+00
        -11   -1    0    0    0    0  0.00000000000E+00  0.00000000000E+00  0.45593999997E+02  0.45594000000E+02  0.51100000000E-03 0.  1.
         11   -1    0    0    0    0 -0.00000000000E+00 -0.00000000000E+00 -0.45593999997E+02  0.45594000000E+02  0.51100000000E-03 0. -1.
    9900012    2    1    2    0    0  0.11005488898E+01 -0.44869494233E+02  0.38250222428E+01  0.46142317457E+02  0.99999972291E+01 0.  0.
        -12    1    1    2    0    0 -0.11005488898E+01  0.44869494233E+02 -0.38250222428E+01  0.45045682543E+02  0.00000000000E+00 0.  1.
         11    1    3    3    0    0 -0.23965090066E+01 -0.60119863716E+01 -0.14475912627E+01  0.66319496587E+01  0.51100000000E-03 0. -1.
        -11    1    3    3    0    0  0.18131770686E+01 -0.13668005078E+02  0.33664947244E+01  0.14192789045E+02  0.51100000000E-03 0.  1.
         12    1    3    3    0    0  0.16838808278E+01 -0.25189502783E+02  0.19061187810E+01  0.25317578753E+02  0.00000000000E+00 0. -1.
</event>
<event>
 7    1  0.1549900E-008  0.4614232E+02  0.7816164E-02  0.1320468E+00
        -11   -1    0    0    0    0  0.00000000000E+00  0.00000000000E+00  0.45593999997E+02  0.45594000000E+02  0.51100000000E-03 0.  1.
         11   -1    0    0    0    0 -0.00000000000E+00 -0.00000000000E+00 -0.45593999997E+02  0.45594000000E+02  0.51100000000E-03 0. -1.
    9900012    2    1    2    0    0 -0.40667040767E+02 -0.62516685215E+01 -0.18336355968E+02  0.46142317474E+02  0.99999973854E+01 0.  0.
        -12    1    1    2    0    0  0.40667040767E+02  0.62516685215E+01  0.18336355968E+02  0.45045682526E+02  0.00000000000E+00 0.  1.
         11    1    3    3    0    0 -0.13502864658E+02 -0.38778628903E+01 -0.29084633172E+01  0.14346579164E+02  0.51100000000E-03 0. -1.
        -11    1    3    3    0    0 -0.12380265095E+02 -0.37783664281E+01 -0.75531190205E+01  0.14986548098E+02  0.51100000000E-03 0.  1.
        -12    1    3    3    0    0 -0.14783911013E+02  0.14045607969E+01 -0.78747736301E+01  0.16809190213E+02  0.00000000000E+00 0.  1.
</event>
<event>
 7    1  0.1549900E-008  0.4614232E+02  0.7816164E-02  0.1320468E+00
        -11   -1    0    0    0    0  0.00000000000E+00  0.00000000000E+00  0.45593999997E+02  0.45594000000E+02  0.51100000000E-03 0.  1.
         11   -1    0    0    0    0 -0.00000000000E+00 -0.00000000000E+00 -0.45593999997E+02  0.45594000000E+02  0.51100000000E-03 0. -1.
    9900012    2    1    2    0    0 -0.24737125548E+02 -0.23375038850E+02 -0.29509247479E+02  0.46142317539E+02  0.99999979787E+01 0.  0.
        -12    1    1    2    0    0  0.24737125548E+02  0.23375038850E+02  0.29509247479E+02  0.45045682461E+02  0.00000000000E+00 0.  1.
         11    1    3    3    0    0 -0.12045151338E+02 -0.15236064454E+02 -0.19038881244E+02  0.27197469186E+02  0.51100000000E-03 0. -1.
        -11    1    3    3    0    0 -0.32228581225E+01  0.13017565370E-01 -0.14487636969E+01  0.35335393652E+01  0.51100000000E-03 0.  1.
        -12    1    3    3    0    0 -0.94691160867E+01 -0.81519919612E+01 -0.90216025373E+01  0.15411308989E+02  0.00000000000E+00 0.  1.
</event>
<event>
 7    1  0.1549900E-008  0.4614232E+02  0.7816164E-02  0.1320468E+00
        -11   -1    0    0    0    0  0.00000000000E+00  0.00000000000E+00  0.45593999997E+02  0.45594000000E+02  0.51100000000E-03 0.  1.
         11   -1    0    0    0    0 -0.00000000000E+00 -0.00000000000E+00 -0.45593999997E+02  0.45594000000E+02  0.51100000000E-03 0. -1.
    9900012    2    1    2    0    0 -0.24301007727E+02 -0.26121172018E+02 -0.27500161828E+02  0.46142317580E+02  0.99999983473E+01 0.  0.
        -12    1    1    2    0    0  0.24301007727E+02  0.26121172018E+02  0.27500161828E+02  0.45045682420E+02  0.00000000000E+00 0.  1.
         11    1    3    3    0    0 -0.13136524347E+02 -0.11788598012E+02 -0.10062458231E+02  0.20317292657E+02  0.51100000000E-03 0. -1.
        -11    1    3    3    0    0  0.29763101211E+00 -0.12800496564E+01 -0.15868746030E+00  0.13237421627E+01  0.51100000000E-03 0.  1.
        -12    1    3    3    0    0 -0.11462114392E+02 -0.13052524349E+02 -0.17279016136E+02  0.24501282760E+02  0.00000000000E+00 0.  1.
</event>
<event>
 7    1  0.1549900E-008  0.4614232E+02  0.7816164E-02  0.1320468E+00
        -11   -1    0    0    0    0  0.00000000000E+00  0.00000000000E+00  0.45593999997E+02  0.45594000000E+02  0.51100000000E-03 0.  1.
         11   -1    0    0    0    0 -0.00000000000E+00 -0.00000000000E+00 -0.45593999997E+02  0.45594000000E+02  0.51100000000E-03 0. -1.
    9900012    2    1    2    0    0 -0.44097134511E+02  0.85473677001E+01  0.33909853249E+01  0.46142317097E+02  0.99999939469E+01 0.  0.
        -12    1    1    2    0    0  0.44097134511E+02 -0.85473677001E+01 -0.33909853249E+01  0.45045682903E+02  0.00000000000E+00 0.  1.
         11    1    3    3    0    0 -0.54707819840E+01 -0.13367193602E+01  0.64968794294E+00  0.56690712510E+01  0.51100000000E-03 0. -1.
        -11    1    3    3    0    0 -0.39624563374E+01  0.21200141687E+01  0.20609016429E+01  0.49439696747E+01  0.51100000000E-03 0.  1.
         12    1    3    3    0    0 -0.34663896190E+02  0.77640728917E+01  0.68039573907E+00  0.35529276172E+02  0.00000000000E+00 0. -1.
</event>
<event>
 7    1  0.1549900E-008  0.4614232E+02  0.7816164E-02  0.1320468E+00
        -11   -1    0    0    0    0  0.00000000000E+00  0.00000000000E+00  0.45593999997E+02  0.45594000000E+02  0.51100000000E-03 0. -1.
         11   -1    0    0    0    0 -0.00000000000E+00 -0.00000000000E+00 -0.45593999997E+02  0.45594000000E+02  0.51100000000E-03 0.  1.
    9900012    2    1    2    0    0 -0.27009758731E+01 -0.42339614117E+02  0.15138538917E+02  0.46142317024E+02  0.99999932810E+01 0.  0.
        -12    1    1    2    0    0  0.27009758731E+01  0.42339614117E+02 -0.15138538917E+02  0.45045682976E+02  0.00000000000E+00 0.  1.
         11    1    3    3    0    0  0.26606368177E+01 -0.21000873509E+02  0.84119185552E+01  0.22778850947E+02  0.51100000000E-03 0. -1.
        -11    1    3    3    0    0 -0.17060204079E+01 -0.21848727504E+01  0.16023004768E+01  0.32018028744E+01  0.51100000000E-03 0.  1.
         12    1    3    3    0    0 -0.36555922829E+01 -0.19153867857E+02  0.51243198850E+01  0.20161663203E+02  0.00000000000E+00 0. -1.
</event>
<event>
 7    1  0.1549900E-008  0.4614232E+02  0.7816164E-02  0.1320468E+00
        -11   -1    0    0    0    0  0.00000000000E+00  0.00000000000E+00  0.45593999997E+02  0.45594000000E+02  0.51100000000E-03 0.  1.
         11   -1    0    0    0    0 -0.00000000000E+00 -0.00000000000E+00 -0.45593999997E+02  0.45594000000E+02  0.51100000000E-03 0. -1.
    9900012    2    1    2    0    0 -0.17691138060E+02 -0.18888233355E+02 -0.36869659064E+02  0.46142317803E+02  0.10000000379E+02 0.  0.
        -12    1    1    2    0    0  0.17691138060E+02  0.18888233355E+02  0.36869659064E+02  0.45045682197E+02  0.00000000000E+00 0.  1.
         11    1    3    3    0    0 -0.16316950259E+02 -0.13056457519E+02 -0.32478439703E+02  0.38620758596E+02  0.51100000000E-03 0. -1.
        -11    1    3    3    0    0  0.19615198660E+00 -0.11830043649E+01 -0.90617394781E+00  0.15030390594E+01  0.51100000000E-03 0.  1.
         12    1    3    3    0    0 -0.15703397867E+01 -0.46487714706E+01 -0.34850454139E+01  0.60185201477E+01  0.00000000000E+00 0. -1.
</event>
<event>
 7    1  0.1549900E-008  0.4614232E+02  0.7816164E-02  0.1320468E+00
        -11   -1    0    0    0    0  0.00000000000E+00  0.00000000000E+00  0.45593999997E+02  0.45594000000E+02  0.51100000000E-03 0. -1.
         11   -1    0    0    0    0 -0.00000000000E+00 -0.00000000000E+00 -0.45593999997E+02  0.45594000000E+02  0.51100000000E-03 0.  1.
    9900012    2    1    2    0    0  0.36868301609E+02 -0.57380446810E+00  0.25874940485E+02  0.46142318074E+02  0.10000002850E+02 0.  0.
        -12    1    1    2    0    0 -0.36868301609E+02  0.57380446810E+00 -0.25874940485E+02  0.45045681926E+02  0.00000000000E+00 0.  1.
         11    1    3    3    0    0  0.12951570433E+02  0.12270366382E+01  0.11679669537E+02  0.17483234150E+02  0.51100000000E-03 0. -1.
        -11    1    3    3    0    0  0.30758341400E+01  0.19197038582E+01  0.12039523077E+01  0.38204083525E+01  0.51100000000E-03 0.  1.
         12    1    3    3    0    0  0.20840897036E+02 -0.37205449646E+01  0.12991318640E+02  0.24838675571E+02  0.00000000000E+00 0. -1.
</event>
<event>
 7    1  0.1549900E-008  0.4614232E+02  0.7816164E-02  0.1320468E+00
        -11   -1    0    0    0    0  0.00000000000E+00  0.00000000000E+00  0.45593999997E+02  0.45594000000E+02  0.51100000000E-03 0.  1.
         11   -1    0    0    0    0 -0.00000000000E+00 -0.00000000000E+00 -0.45593999997E+02  0.45594000000E+02  0.51100000000E-03 0. -1.
    9900012    2    1    2    0    0  0.33469888766E+02 -0.20141554894E+02 -0.22432070391E+02  0.46142317970E+02  0.10000001904E+02 0.  0.
        -12    1    1    2    0    0 -0.33469888766E+02  0.20141554894E+02  0.22432070391E+02  0.45045682030E+02  0.00000000000E+00 0.  1.
         11    1    3    3    0    0  0.14771667059E+01 -0.54431349470E+00 -0.29563147111E+01  0.33493425609E+01  0.51100000000E-03 0. -1.
        -11    1    3    3    0    0  0.23328993604E+02 -0.16557035004E+02 -0.17024208341E+02  0.33289653357E+02  0.51100000000E-03 0.  1.
        -12    1    3    3    0    0  0.86637284555E+01 -0.30402063948E+01 -0.24515473394E+01  0.95033220523E+01  0.00000000000E+00 0.  1.
</event>
<event>
 7    1  0.1549900E-008  0.4614232E+02  0.7816164E-02  0.1320468E+00
        -11   -1    0    0    0    0  0.00000000000E+00  0.00000000000E+00  0.45593999997E+02  0.45594000000E+02  0.51100000000E-03 0.  1.
         11   -1    0    0    0    0 -0.00000000000E+00 -0.00000000000E+00 -0.45593999997E+02  0.45594000000E+02  0.51100000000E-03 0. -1.
    9900012    2    1    2    0    0 -0.30171083594E+02  0.32394599133E+02 -0.83312248019E+01  0.46142316024E+02  0.99999841593E+01 0.  0.
        -12    1    1    2    0    0  0.30171083594E+02 -0.32394599133E+02  0.83312248019E+01  0.45045683976E+02  0.00000000000E+00 0.  1.
         11    1    3    3    0    0 -0.69464219632E+01  0.50823552394E+01 -0.36213063825E+01  0.93379319470E+01  0.51100000000E-03 0. -1.
        -11    1    3    3    0    0 -0.22746427430E+02  0.27426068435E+02 -0.53141901843E+01  0.36025405038E+02  0.51100000000E-03 0.  1.
        -12    1    3    3    0    0 -0.47823420073E+00 -0.11382454138E+00  0.60427176492E+00  0.77897903877E+00  0.00000000000E+00 0.  1.
</event>
<event>
 7    1  0.1549900E-008  0.4614232E+02  0.7816164E-02  0.1320468E+00
        -11   -1    0    0    0    0  0.00000000000E+00  0.00000000000E+00  0.45593999997E+02  0.45594000000E+02  0.51100000000E-03 0. -1.
         11   -1    0    0    0    0 -0.00000000000E+00 -0.00000000000E+00 -0.45593999997E+02  0.45594000000E+02  0.51100000000E-03 0.  1.
    9900012    2    1    2    0    0 -0.27015534592E+02  0.35370678549E+02  0.69418618167E+01  0.46142318123E+02  0.10000003298E+02 0.  0.
        -12    1    1    2    0    0  0.27015534592E+02 -0.35370678549E+02 -0.69418618167E+01  0.45045681877E+02  0.00000000000E+00 0.  1.
         11    1    3    3    0    0 -0.28183410594E+01  0.78100287110E+01  0.37501504559E+01  0.91106104898E+01  0.51100000000E-03 0. -1.
        -11    1    3    3    0    0 -0.63113861891E+01  0.95589619409E+01 -0.61974284513E-02  0.11454579333E+02  0.51100000000E-03 0.  1.
         12    1    3    3    0    0 -0.17885807344E+02  0.18001687897E+02  0.31979087892E+01  0.25577128300E+02  0.00000000000E+00 0. -1.
</event>
<event>
 7    1  0.1549900E-008  0.4614231E+02  0.7816164E-02  0.1320468E+00
        -11   -1    0    0    0    0  0.00000000000E+00  0.00000000000E+00  0.45593999997E+02  0.45594000000E+02  0.51100000000E-03 0.  1.
         11   -1    0    0    0    0 -0.00000000000E+00 -0.00000000000E+00 -0.45593999997E+02  0.45594000000E+02  0.51100000000E-03 0. -1.
    9900012    2    1    2    0    0  0.64742393973E+01 -0.21061792849E+02 -0.39288660953E+02  0.46142314599E+02  0.99999711657E+01 0.  0.
        -12    1    1    2    0    0 -0.64742393973E+01  0.21061792849E+02  0.39288660953E+02  0.45045685401E+02  0.00000000000E+00 0.  1.
         11    1    3    3    0    0  0.36708524629E+01 -0.15274387726E+02 -0.18977051587E+02  0.24635554903E+02  0.51100000000E-03 0.  1.
        -11    1    3    3    0    0 -0.20014112762E+00 -0.12133999313E+01 -0.71172765312E+01  0.72227433395E+01  0.51100000000E-03 0. -1.
        -12    1    3    3    0    0  0.30035280620E+01 -0.45740051916E+01 -0.13194332835E+02  0.14284016356E+02  0.00000000000E+00 0.  1.
</event>
<event>
 7    1  0.1549900E-008  0.4614232E+02  0.7816164E-02  0.1320468E+00
        -11   -1    0    0    0    0  0.00000000000E+00  0.00000000000E+00  0.45593999997E+02  0.45594000000E+02  0.51100000000E-03 0.  1.
         11   -1    0    0    0    0 -0.00000000000E+00 -0.00000000000E+00 -0.45593999997E+02  0.45594000000E+02  0.51100000000E-03 0. -1.
    9900012    2    1    2    0    0  0.10563050669E+02 -0.41680501147E+02 -0.13426519461E+02  0.46142316076E+02  0.99999846382E+01 0.  0.
        -12    1    1    2    0    0 -0.10563050669E+02  0.41680501147E+02  0.13426519461E+02  0.45045683924E+02  0.00000000000E+00 0.  1.
         11    1    3    3    0    0  0.37606773856E+01 -0.21331862274E+02 -0.32927236693E+01  0.21909657047E+02  0.51100000000E-03 0. -1.
        -11    1    3    3    0    0  0.58536350093E+01 -0.10029095580E+02 -0.60506654113E+01  0.13094210673E+02  0.51100000000E-03 0.  1.
        -12    1    3    3    0    0  0.94873827385E+00 -0.10319543293E+02 -0.40831303800E+01  0.11138448356E+02  0.00000000000E+00 0.  1.
</event>
<event>
 7    1  0.1549900E-008  0.4614232E+02  0.7816164E-02  0.1320468E+00
        -11   -1    0    0    0    0  0.00000000000E+00  0.00000000000E+00  0.45593999997E+02  0.45594000000E+02  0.51100000000E-03 0. -1.
         11   -1    0    0    0    0 -0.00000000000E+00 -0.00000000000E+00 -0.45593999997E+02  0.45594000000E+02  0.51100000000E-03 0.  1.
    9900012    2    1    2    0    0 -0.67101702419E+01  0.42410880389E+02 -0.13616327429E+02  0.46142317269E+02  0.99999955099E+01 0.  0.
        -12    1    1    2    0    0  0.67101702419E+01 -0.42410880389E+02  0.13616327429E+02  0.45045682731E+02  0.00000000000E+00 0.  1.
         11    1    3    3    0    0  0.16596467866E+01  0.30651029275E+01  0.37431582857E+00  0.35056234843E+01  0.51100000000E-03 0. -1.
        -11    1    3    3    0    0 -0.82043894097E+01  0.39027025661E+02 -0.14028641707E+02  0.42275566536E+02  0.51100000000E-03 0.  1.
        -12    1    3    3    0    0 -0.16542761883E+00  0.31875180088E+00  0.37998449051E-01  0.36112724872E+00  0.00000000000E+00 0.  1.
</event>
<event>
 7    1  0.1549900E-008  0.4614232E+02  0.7816164E-02  0.1320468E+00
        -11   -1    0    0    0    0  0.00000000000E+00  0.00000000000E+00  0.45593999997E+02  0.45594000000E+02  0.51100000000E-03 0.  1.
         11   -1    0    0    0    0 -0.00000000000E+00 -0.00000000000E+00 -0.45593999997E+02  0.45594000000E+02  0.51100000000E-03 0. -1.
    9900012    2    1    2    0    0 -0.35205371008E+02  0.22015322370E+02  0.17464848714E+02  0.46142317549E+02  0.99999980676E+01 0.  0.
        -12    1    1    2    0    0  0.35205371008E+02 -0.22015322370E+02 -0.17464848714E+02  0.45045682451E+02  0.00000000000E+00 0.  1.
         11    1    3    3    0    0 -0.19226413488E+02  0.12497906855E+02  0.49793379110E+01  0.23465857275E+02  0.51100000000E-03 0. -1.
        -11    1    3    3    0    0 -0.15652439031E+01  0.22995433429E+00  0.21018119022E+01  0.26306807114E+01  0.51100000000E-03 0.  1.
         12    1    3    3    0    0 -0.14413713617E+02  0.92874611801E+01  0.10383698901E+02  0.20045779563E+02  0.00000000000E+00 0. -1.
</event>
<event>
 7    1  0.1549900E-008  0.4614232E+02  0.7816164E-02  0.1320468E+00
        -11   -1    0    0    0    0  0.00000000000E+00  0.00000000000E+00  0.45593999997E+02  0.45594000000E+02  0.51100000000E-03 0. -1.
         11   -1    0    0    0    0 -0.00000000000E+00 -0.00000000000E+00 -0.45593999997E+02  0.45594000000E+02  0.51100000000E-03 0.  1.
    9900012    2    1    2    0    0 -0.21251421072E+02 -0.39525611692E+02  0.39008438208E+01  0.46142318079E+02  0.10000002899E+02 0.  0.
        -12    1    1    2    0    0  0.21251421072E+02  0.39525611692E+02 -0.39008438208E+01  0.45045681921E+02  0.00000000000E+00 0.  1.
         11    1    3    3    0    0 -0.51377502251E+01 -0.16119320945E+02  0.37146551783E+01  0.17321306200E+02  0.51100000000E-03 0. -1.
        -11    1    3    3    0    0 -0.77639194522E+01 -0.14276474449E+02 -0.15618296139E+01  0.16325914368E+02  0.51100000000E-03 0.  1.
        -12    1    3    3    0    0 -0.83497513947E+01 -0.91298162983E+01  0.17480182564E+01  0.12495097511E+02  0.00000000000E+00 0.  1.
</event>
<event>
 7    1  0.1549900E-008  0.4614232E+02  0.7816164E-02  0.1320468E+00
        -11   -1    0    0    0    0  0.00000000000E+00  0.00000000000E+00  0.45593999997E+02  0.45594000000E+02  0.51100000000E-03 0.  1.
         11   -1    0    0    0    0 -0.00000000000E+00 -0.00000000000E+00 -0.45593999997E+02  0.45594000000E+02  0.51100000000E-03 0. -1.
    9900012    2    1    2    0    0  0.10285667296E+02  0.10757879147E+02 -0.42515721206E+02  0.46142318019E+02  0.10000002355E+02 0.  0.
        -12    1    1    2    0    0 -0.10285667296E+02 -0.10757879147E+02  0.42515721206E+02  0.45045681981E+02  0.00000000000E+00 0.  1.
         11    1    3    3    0    0  0.52055425295E+01  0.50532532447E+01 -0.11039928710E+02  0.13210339419E+02  0.51100000000E-03 0. -1.
        -11    1    3    3    0    0  0.19708791720E+00  0.36211335253E-01 -0.12962929920E+02  0.12964478674E+02  0.51100000000E-03 0.  1.
        -12    1    3    3    0    0  0.48830368492E+01  0.56684145669E+01 -0.18512862576E+02  0.19967499927E+02  0.00000000000E+00 0.  1.
</event>
<event>
 7    1  0.1654589E-008  0.4614232E+02  0.7816164E-02  0.1320468E+00
        -11   -1    0    0    0    0  0.00000000000E+00  0.00000000000E+00  0.45593999997E+02  0.45594000000E+02  0.51100000000E-03 0.  1.
         11   -1    0    0    0    0 -0.00000000000E+00 -0.00000000000E+00 -0.45593999997E+02  0.45594000000E+02  0.51100000000E-03 0. -1.
    9900012    2    1    2    0    0 -0.36038024371E+02  0.26983109383E+02  0.15119698898E+01  0.46142318237E+02  0.10000004340E+02 0.  0.
        -12    1    1    2    0    0  0.36038024371E+02 -0.26983109383E+02 -0.15119698898E+01  0.45045681763E+02  0.00000000000E+00 0.  1.
         11    1    3    3    0    0 -0.31138972371E+02  0.21681281698E+02  0.36292586194E+01  0.38116729854E+02  0.51100000000E-03 0. -1.
        -11    1    3    3    0    0  0.34512450330E+00  0.50778496490E+00 -0.84947006619E-02  0.61402680269E+00  0.51100000000E-03 0.  1.
         12    1    3    3    0    0 -0.52441765037E+01  0.47940427200E+01 -0.21087940290E+01  0.74115615803E+01  0.00000000000E+00 0. -1.
</event>
<event>
 7    1  0.1549900E-008  0.4614231E+02  0.7816164E-02  0.1320468E+00
        -11   -1    0    0    0    0  0.00000000000E+00  0.00000000000E+00  0.45593999997E+02  0.45594000000E+02  0.51100000000E-03 0. -1.
         11   -1    0    0    0    0 -0.00000000000E+00 -0.00000000000E+00 -0.45593999997E+02  0.45594000000E+02  0.51100000000E-03 0.  1.
    9900012    2    1    2    0    0 -0.33340904644E+00  0.41202289643E+02  0.18203691104E+02  0.46142309826E+02  0.99999276454E+01 0.  0.
        -12    1    1    2    0    0  0.33340904644E+00 -0.41202289643E+02 -0.18203691104E+02  0.45045690174E+02  0.00000000000E+00 0.  1.
         11    1    3    3    0    0 -0.84373690157E+00  0.29965967357E+00  0.28026126304E+00  0.93820814094E+00  0.51100000000E-03 0. -1.
        -11    1    3    3    0    0  0.33107590141E+01  0.21934571545E+02  0.77445445164E+01  0.23496053373E+02  0.51100000000E-03 0.  1.
         12    1    3    3    0    0 -0.28004311590E+01  0.18968058425E+02  0.10178885324E+02  0.21708048312E+02  0.00000000000E+00 0. -1.
</event>
<event>
 7    1  0.1549900E-008  0.4614232E+02  0.7816164E-02  0.1320468E+00
        -11   -1    0    0    0    0  0.00000000000E+00  0.00000000000E+00  0.45593999997E+02  0.45594000000E+02  0.51100000000E-03 0.  1.
         11   -1    0    0    0    0 -0.00000000000E+00 -0.00000000000E+00 -0.45593999997E+02  0.45594000000E+02  0.51100000000E-03 0. -1.
    9900012    2    1    2    0    0  0.27490173714E+02 -0.32574261560E+02 -0.14571250021E+02  0.46142317697E+02  0.99999994133E+01 0.  0.
        -12    1    1    2    0    0 -0.27490173714E+02  0.32574261560E+02  0.14571250021E+02  0.45045682303E+02  0.00000000000E+00 0.  1.
         11    1    3    3    0    0  0.15671420934E+02 -0.22093402570E+02 -0.12130601693E+02  0.29679342461E+02  0.51100000000E-03 0. -1.
        -11    1    3    3    0    0  0.57137906302E+01 -0.42304574463E+01  0.77783735772E+00  0.71518672238E+01  0.51100000000E-03 0.  1.
        -12    1    3    3    0    0  0.61049621496E+01 -0.62504015435E+01 -0.32184856860E+01  0.93111080121E+01  0.00000000000E+00 0.  1.
</event>
<event>
 7    1  0.1549900E-008  0.4614232E+02  0.7816164E-02  0.1320468E+00
        -11   -1    0    0    0    0  0.00000000000E+00  0.00000000000E+00  0.45593999997E+02  0.45594000000E+02  0.51100000000E-03 0.  1.
         11   -1    0    0    0    0 -0.00000000000E+00 -0.00000000000E+00 -0.45593999997E+02  0.45594000000E+02  0.51100000000E-03 0. -1.
    9900012    2    1    2    0    0  0.26767617411E+02 -0.61334717217E+01 -0.35706984358E+02  0.46142317087E+02  0.99999938484E+01 0.  0.
        -12    1    1    2    0    0 -0.26767617411E+02  0.61334717217E+01  0.35706984358E+02  0.45045682913E+02  0.00000000000E+00 0.  1.
         11    1    3    3    0    0  0.17673558087E+02 -0.50639918289E+01 -0.28212743297E+02  0.33674286233E+02  0.51100000000E-03 0. -1.
        -11    1    3    3    0    0  0.31720683249E+01 -0.33967045414E+00 -0.42678530448E+00  0.32186238414E+01  0.51100000000E-03 0.  1.
        -12    1    3    3    0    0  0.59219909985E+01 -0.72980943862E+00 -0.70674557562E+01  0.92494070117E+01  0.00000000000E+00 0.  1.
</event>
<event>
 7    1  0.1549900E-008  0.4614232E+02  0.7816164E-02  0.1320468E+00
        -11   -1    0    0    0    0  0.00000000000E+00  0.00000000000E+00  0.45593999997E+02  0.45594000000E+02  0.51100000000E-03 0.  1.
         11   -1    0    0    0    0 -0.00000000000E+00 -0.00000000000E+00 -0.45593999997E+02  0.45594000000E+02  0.51100000000E-03 0. -1.
    9900012    2    1    2    0    0  0.22204706820E+02 -0.11388816066E+02 -0.37501457943E+02  0.46142317808E+02  0.10000000428E+02 0.  0.
        -12    1    1    2    0    0 -0.22204706820E+02  0.11388816066E+02  0.37501457943E+02  0.45045682192E+02  0.00000000000E+00 0.  1.
         11    1    3    3    0    0  0.66948332662E+01 -0.47280982063E+01 -0.12684478166E+02  0.15102042633E+02  0.51100000000E-03 0. -1.
        -11    1    3    3    0    0  0.47873262749E+01 -0.19837088034E+01 -0.23076678922E+01  0.56726470753E+01  0.51100000000E-03 0.  1.
        -12    1    3    3    0    0  0.10722547279E+02 -0.46770090559E+01 -0.22509311885E+02  0.25367628099E+02  0.00000000000E+00 0.  1.
</event>
<event>
 7    1  0.1549900E-008  0.4614232E+02  0.7816164E-02  0.1320468E+00
        -11   -1    0    0    0    0  0.00000000000E+00  0.00000000000E+00  0.45593999997E+02  0.45594000000E+02  0.51100000000E-03 0.  1.
         11   -1    0    0    0    0 -0.00000000000E+00 -0.00000000000E+00 -0.45593999997E+02  0.45594000000E+02  0.51100000000E-03 0. -1.
    9900012    2    1    2    0    0  0.35000695280E+02  0.20789791563E+02 -0.19283395992E+02  0.46142318029E+02  0.10000002442E+02 0.  0.
        -12    1    1    2    0    0 -0.35000695280E+02 -0.20789791563E+02  0.19283395992E+02  0.45045681971E+02  0.00000000000E+00 0.  1.
         11    1    3    3    0    0  0.12992642076E+02  0.12990779800E+02 -0.78105426971E+01  0.19964310291E+02  0.51100000000E-03 0. -1.
        -11    1    3    3    0    0  0.15569018867E+02  0.51250906290E+01 -0.94427666255E+01  0.18916308949E+02  0.51100000000E-03 0.  1.
         12    1    3    3    0    0  0.64390343363E+01  0.26739211337E+01 -0.20300866690E+01  0.72616987887E+01  0.00000000000E+00 0. -1.
</event>
<event>
 7    1  0.1549900E-008  0.4614232E+02  0.7816164E-02  0.1320468E+00
        -11   -1    0    0    0    0  0.00000000000E+00  0.00000000000E+00  0.45593999997E+02  0.45594000000E+02  0.51100000000E-03 0.  1.
         11   -1    0    0    0    0 -0.00000000000E+00 -0.00000000000E+00 -0.45593999997E+02  0.45594000000E+02  0.51100000000E-03 0. -1.
    9900012    2    1    2    0    0 -0.44315008368E+02 -0.65722824807E+01  0.47009148381E+01  0.46142318032E+02  0.10000002471E+02 0.  0.
        -12    1    1    2    0    0  0.44315008368E+02  0.65722824807E+01 -0.47009148381E+01  0.45045681968E+02  0.00000000000E+00 0.  1.
         11    1    3    3    0    0 -0.28096753293E+02 -0.36849791036E+01  0.23049502906E-01  0.28337380756E+02  0.51100000000E-03 0. -1.
        -11    1    3    3    0    0 -0.16092199981E+00 -0.16909693077E-01  0.10915493031E+01  0.11034772177E+01  0.51100000000E-03 0.  1.
        -12    1    3    3    0    0 -0.16057333075E+02 -0.28703936840E+01  0.35863160321E+01  0.16701460058E+02  0.00000000000E+00 0.  1.
</event>
<event>
 7    1  0.1549900E-008  0.4614232E+02  0.7816164E-02  0.1320468E+00
        -11   -1    0    0    0    0  0.00000000000E+00  0.00000000000E+00  0.45593999997E+02  0.45594000000E+02  0.51100000000E-03 0. -1.
         11   -1    0    0    0    0 -0.00000000000E+00 -0.00000000000E+00 -0.45593999997E+02  0.45594000000E+02  0.51100000000E-03 0.  1.
    9900012    2    1    2    0    0 -0.17346768911E+02  0.17816343805E+02  0.37560363717E+02  0.46142318512E+02  0.10000006844E+02 0.  0.
        -12    1    1    2    0    0  0.17346768911E+02 -0.17816343805E+02 -0.37560363717E+02  0.45045681488E+02  0.00000000000E+00 0.  1.
         11    1    3    3    0    0  0.25760535195E+00  0.25423192038E+01  0.79503361572E+01  0.83509037071E+01  0.51100000000E-03 0. -1.
        -11    1    3    3    0    0 -0.21137613531E+01  0.13918429419E+01  0.20163257659E+01  0.32358590340E+01  0.51100000000E-03 0.  1.
         12    1    3    3    0    0 -0.15490612910E+02  0.13882181659E+02  0.27593701794E+02  0.34555555771E+02  0.00000000000E+00 0. -1.
</event>
<event>
 7    1  0.1549900E-008  0.4614232E+02  0.7816164E-02  0.1320468E+00
        -11   -1    0    0    0    0  0.00000000000E+00  0.00000000000E+00  0.45593999997E+02  0.45594000000E+02  0.51100000000E-03 0.  1.
         11   -1    0    0    0    0 -0.00000000000E+00 -0.00000000000E+00 -0.45593999997E+02  0.45594000000E+02  0.51100000000E-03 0. -1.
    9900012    2    1    2    0    0 -0.30723026185E+02  0.60601967501E+01 -0.32380291094E+02  0.46142316811E+02  0.99999913369E+01 0.  0.
        -12    1    1    2    0    0  0.30723026185E+02 -0.60601967501E+01  0.32380291094E+02  0.45045683189E+02  0.00000000000E+00 0.  1.
         11    1    3    3    0    0 -0.73748524273E+01  0.21757195653E+01 -0.90771577419E+01  0.11896091664E+02  0.51100000000E-03 0.  1.
        -11    1    3    3    0    0 -0.21433881436E+02  0.56738742283E+01 -0.22281928743E+02  0.31433874578E+02  0.51100000000E-03 0. -1.
        -12    1    3    3    0    0 -0.19142923211E+01 -0.17893970435E+01 -0.10212046093E+01  0.28123505692E+01  0.00000000000E+00 0.  1.
</event>
<event>
 7    1  0.1549900E-008  0.4614232E+02  0.7816164E-02  0.1320468E+00
        -11   -1    0    0    0    0  0.00000000000E+00  0.00000000000E+00  0.45593999997E+02  0.45594000000E+02  0.51100000000E-03 0.  1.
         11   -1    0    0    0    0 -0.00000000000E+00 -0.00000000000E+00 -0.45593999997E+02  0.45594000000E+02  0.51100000000E-03 0. -1.
    9900012    2    1    2    0    0  0.29729349296E+02 -0.32494587581E+02 -0.94541546453E+01  0.46142317946E+02  0.10000001689E+02 0.  0.
        -12    1    1    2    0    0 -0.29729349296E+02  0.32494587581E+02  0.94541546453E+01  0.45045682054E+02  0.00000000000E+00 0.  1.
         11    1    3    3    0    0  0.48023540606E+01 -0.22520533803E+01 -0.14639956070E+01  0.55025114584E+01  0.51100000000E-03 0.  1.
        -11    1    3    3    0    0  0.14733735843E+02 -0.13672901742E+02 -0.16036880426E+01  0.20164400053E+02  0.51100000000E-03 0. -1.
        -12    1    3    3    0    0  0.10193259393E+02 -0.16569632459E+02 -0.63864709957E+01  0.20475406434E+02  0.00000000000E+00 0.  1.
</event>
<event>
 7    1  0.1549900E-008  0.4614232E+02  0.7816164E-02  0.1320468E+00
        -11   -1    0    0    0    0  0.00000000000E+00  0.00000000000E+00  0.45593999997E+02  0.45594000000E+02  0.51100000000E-03 0.  1.
         11   -1    0    0    0    0 -0.00000000000E+00 -0.00000000000E+00 -0.45593999997E+02  0.45594000000E+02  0.51100000000E-03 0. -1.
    9900012    2    1    2    0    0  0.41308113064E+02 -0.17940569617E+02 -0.94299407543E+00  0.46142317844E+02  0.10000000754E+02 0.  0.
        -12    1    1    2    0    0 -0.41308113064E+02  0.17940569617E+02  0.94299407543E+00  0.45045682156E+02  0.00000000000E+00 0.  1.
         11    1    3    3    0    0  0.34764783165E+02 -0.13358184130E+02  0.10192932863E+01  0.37256814019E+02  0.51100000000E-03 0. -1.
        -11    1    3    3    0    0  0.59629556218E+01 -0.49224164821E+01 -0.23842522365E+01  0.80914573940E+01  0.51100000000E-03 0.  1.
         12    1    3    3    0    0  0.58037427690E+00  0.34003099496E+00  0.42196487471E+00  0.79404643083E+00  0.00000000000E+00 0. -1.
</event>
<event>
 7    1  0.1549900E-008  0.4614232E+02  0.7816164E-02  0.1320468E+00
        -11   -1    0    0    0    0  0.00000000000E+00  0.00000000000E+00  0.45593999997E+02  0.45594000000E+02  0.51100000000E-03 0.  1.
         11   -1    0    0    0    0 -0.00000000000E+00 -0.00000000000E+00 -0.45593999997E+02  0.45594000000E+02  0.51100000000E-03 0. -1.
    9900012    2    1    2    0    0  0.29384491838E+01 -0.48647249283E+01 -0.44685717855E+02  0.46142318604E+02  0.10000007688E+02 0.  0.
        -12    1    1    2    0    0 -0.29384491838E+01  0.48647249283E+01  0.44685717855E+02  0.45045681396E+02  0.00000000000E+00 0.  1.
         11    1    3    3    0    0  0.20586684035E+01  0.22444783622E+01 -0.72408158099E+01  0.78552665498E+01  0.51100000000E-03 0. -1.
        -11    1    3    3    0    0  0.32877215863E+00 -0.71162132265E+01 -0.30524936027E+02  0.31345179878E+02  0.51100000000E-03 0.  1.
        -12    1    3    3    0    0  0.55100862170E+00  0.70099360698E-02 -0.69199660172E+01  0.69418721769E+01  0.00000000000E+00 0.  1.
</event>
<event>
 7    1  0.1549900E-008  0.4614232E+02  0.7816164E-02  0.1320468E+00
        -11   -1    0    0    0    0  0.00000000000E+00  0.00000000000E+00  0.45593999997E+02  0.45594000000E+02  0.51100000000E-03 0.  1.
         11   -1    0    0    0    0 -0.00000000000E+00 -0.00000000000E+00 -0.45593999997E+02  0.45594000000E+02  0.51100000000E-03 0. -1.
    9900012    2    1    2    0    0  0.74491127665E+01 -0.10986836414E+02 -0.43045484573E+02  0.46142316550E+02  0.99999889522E+01 0.  0.
        -12    1    1    2    0    0 -0.74491127665E+01  0.10986836414E+02  0.43045484573E+02  0.45045683450E+02  0.00000000000E+00 0.  1.
         11    1    3    3    0    0  0.25236092540E+01 -0.63356903086E+01 -0.30940578848E+02  0.31683260486E+02  0.51100000000E-03 0. -1.
        -11    1    3    3    0    0  0.45221357087E+01 -0.54059125436E+01 -0.10935754276E+02  0.13010162322E+02  0.51100000000E-03 0.  1.
        -12    1    3    3    0    0  0.40336780386E+00  0.75476643861E+00 -0.11691514497E+01  0.14488937416E+01  0.00000000000E+00 0.  1.
</event>
<event>
 7    1  0.1549900E-008  0.4614233E+02  0.7816164E-02  0.1320468E+00
        -11   -1    0    0    0    0  0.00000000000E+00  0.00000000000E+00  0.45593999997E+02  0.45594000000E+02  0.51100000000E-03 0.  1.
         11   -1    0    0    0    0 -0.00000000000E+00 -0.00000000000E+00 -0.45593999997E+02  0.45594000000E+02  0.51100000000E-03 0. -1.
    9900012    2    1    2    0    0  0.10731556284E+02 -0.18719104332E+02 -0.39541641994E+02  0.46142327413E+02  0.10000088009E+02 0.  0.
        -12    1    1    2    0    0 -0.10731556284E+02  0.18719104332E+02  0.39541641994E+02  0.45045672587E+02  0.00000000000E+00 0.  1.
         11    1    3    3    0    0  0.81460478086E+01 -0.12371288161E+02 -0.23021228240E+02  0.27374875627E+02  0.51100000000E-03 0. -1.
        -11    1    3    3    0    0  0.34304107300E-02 -0.63205690528E+01 -0.11902252152E+02  0.13476394602E+02  0.51100000000E-03 0.  1.
         12    1    3    3    0    0  0.25820780644E+01 -0.27247118789E-01 -0.46181616020E+01  0.52910571834E+01  0.00000000000E+00 0. -1.
</event>
<event>
 7    1  0.1549900E-008  0.4614232E+02  0.7816164E-02  0.1320468E+00
        -11   -1    0    0    0    0  0.00000000000E+00  0.00000000000E+00  0.45593999997E+02  0.45594000000E+02  0.51100000000E-03 0.  1.
         11   -1    0    0    0    0 -0.00000000000E+00 -0.00000000000E+00 -0.45593999997E+02  0.45594000000E+02  0.51100000000E-03 0. -1.
    9900012    2    1    2    0    0  0.43636015603E-01  0.41353306397E+01 -0.44855441704E+02  0.46142317476E+02  0.99999974019E+01 0.  0.
        -12    1    1    2    0    0 -0.43636015603E-01 -0.41353306397E+01  0.44855441704E+02  0.45045682524E+02  0.00000000000E+00 0.  1.
         11    1    3    3    0    0  0.32059454366E+01  0.21682866438E+01 -0.12470189882E+02  0.13056997705E+02  0.51100000000E-03 0. -1.
        -11    1    3    3    0    0 -0.31453081984E+01  0.14649061446E+01 -0.83158620431E+01  0.90106867362E+01  0.51100000000E-03 0.  1.
         12    1    3    3    0    0 -0.17001222566E-01  0.50213785124E+00 -0.24069389778E+02  0.24074633035E+02  0.00000000000E+00 0. -1.
</event>
<event>
 7    1  0.1849464E-008  0.4614232E+02  0.7816164E-02  0.1320468E+00
        -11   -1    0    0    0    0  0.00000000000E+00  0.00000000000E+00  0.45593999997E+02  0.45594000000E+02  0.51100000000E-03 0.  1.
         11   -1    0    0    0    0 -0.00000000000E+00 -0.00000000000E+00 -0.45593999997E+02  0.45594000000E+02  0.51100000000E-03 0. -1.
    9900012    2    1    2    0    0  0.19982642085E+01  0.42372113702E+02 -0.15156664744E+02  0.46142316904E+02  0.99999921825E+01 0.  0.
        -12    1    1    2    0    0 -0.19982642085E+01 -0.42372113702E+02  0.15156664744E+02  0.45045683096E+02  0.00000000000E+00 0.  1.
         11    1    3    3    0    0 -0.16194958932E+01  0.16171143489E+02 -0.34593910504E+01  0.16616137800E+02  0.51100000000E-03 0. -1.
        -11    1    3    3    0    0 -0.67903687279E-01  0.20097059011E+01 -0.28865402551E+01  0.35179032996E+01  0.51100000000E-03 0.  1.
         12    1    3    3    0    0  0.36856637889E+01  0.24191264312E+02 -0.88107334389E+01  0.26008275805E+02  0.00000000000E+00 0. -1.
</event>
<event>
 7    1  0.1549900E-008  0.4614232E+02  0.7816164E-02  0.1320468E+00
        -11   -1    0    0    0    0  0.00000000000E+00  0.00000000000E+00  0.45593999997E+02  0.45594000000E+02  0.51100000000E-03 0.  1.
         11   -1    0    0    0    0 -0.00000000000E+00 -0.00000000000E+00 -0.45593999997E+02  0.45594000000E+02  0.51100000000E-03 0. -1.
    9900012    2    1    2    0    0 -0.28863832145E+01  0.31114007107E+02 -0.32445350984E+02  0.46142318223E+02  0.10000004212E+02 0.  0.
        -12    1    1    2    0    0  0.28863832145E+01 -0.31114007107E+02  0.32445350984E+02  0.45045681777E+02  0.00000000000E+00 0.  1.
         11    1    3    3    0    0 -0.16404273904E+01  0.86243399166E+01 -0.82572202705E+01  0.12052050775E+02  0.51100000000E-03 0. -1.
        -11    1    3    3    0    0 -0.39892991723E+01  0.94147616585E+01 -0.13756464844E+02  0.17140378357E+02  0.51100000000E-03 0.  1.
        -12    1    3    3    0    0  0.27433433481E+01  0.13074905532E+02 -0.10431665869E+02  0.16949889091E+02  0.00000000000E+00 0.  1.
</event>
<event>
 7    1  0.1549900E-008  0.4614232E+02  0.7816164E-02  0.1320468E+00
        -11   -1    0    0    0    0  0.00000000000E+00  0.00000000000E+00  0.45593999997E+02  0.45594000000E+02  0.51100000000E-03 0. -1.
         11   -1    0    0    0    0 -0.00000000000E+00 -0.00000000000E+00 -0.45593999997E+02  0.45594000000E+02  0.51100000000E-03 0.  1.
    9900012    2    1    2    0    0 -0.57676005100E+01 -0.20915423969E+02  0.39476490734E+02  0.46142317675E+02  0.99999992177E+01 0.  0.
        -12    1    1    2    0    0  0.57676005100E+01  0.20915423969E+02 -0.39476490734E+02  0.45045682325E+02  0.00000000000E+00 0.  1.
         11    1    3    3    0    0  0.13482123285E+00 -0.45062556698E+01  0.43238171141E+01  0.62465920007E+01  0.51100000000E-03 0. -1.
        -11    1    3    3    0    0 -0.11409771105E+01 -0.10675108447E+02  0.25742241942E+02  0.27891267264E+02  0.51100000000E-03 0.  1.
        -12    1    3    3    0    0 -0.47614446324E+01 -0.57340598518E+01  0.94104316774E+01  0.12004458410E+02  0.00000000000E+00 0.  1.
</event>
<event>
 7    1  0.1549900E-008  0.4614231E+02  0.7816164E-02  0.1320468E+00
        -11   -1    0    0    0    0  0.00000000000E+00  0.00000000000E+00  0.45593999997E+02  0.45594000000E+02  0.51100000000E-03 0.  1.
         11   -1    0    0    0    0 -0.00000000000E+00 -0.00000000000E+00 -0.45593999997E+02  0.45594000000E+02  0.51100000000E-03 0. -1.
    9900012    2    1    2    0    0  0.38908095163E+02  0.87452862782E+01 -0.20947406762E+02  0.46142314842E+02  0.99999733838E+01 0.  0.
        -12    1    1    2    0    0 -0.38908095163E+02 -0.87452862782E+01  0.20947406762E+02  0.45045685158E+02  0.00000000000E+00 0.  1.
         11    1    3    3    0    0  0.11329991815E+02  0.28194932701E+01 -0.26812377711E+01  0.11979452954E+02  0.51100000000E-03 0. -1.
        -11    1    3    3    0    0  0.21778163526E+01  0.23703080522E+01 -0.18913582682E+01  0.37334274719E+01  0.51100000000E-03 0.  1.
         12    1    3    3    0    0  0.25400286995E+02  0.35554849558E+01 -0.16374810723E+02  0.30429434417E+02  0.00000000000E+00 0. -1.
</event>
<event>
 7    1  0.1549900E-008  0.4614232E+02  0.7816164E-02  0.1320468E+00
        -11   -1    0    0    0    0  0.00000000000E+00  0.00000000000E+00  0.45593999997E+02  0.45594000000E+02  0.51100000000E-03 0.  1.
         11   -1    0    0    0    0 -0.00000000000E+00 -0.00000000000E+00 -0.45593999997E+02  0.45594000000E+02  0.51100000000E-03 0. -1.
    9900012    2    1    2    0    0 -0.15273361243E+02  0.27904754236E+02 -0.31892987061E+02  0.46142317673E+02  0.99999991947E+01 0.  0.
        -12    1    1    2    0    0  0.15273361243E+02 -0.27904754236E+02  0.31892987061E+02  0.45045682327E+02  0.00000000000E+00 0.  1.
         11    1    3    3    0    0 -0.15537111806E+01  0.36770896666E+01 -0.11810223664E+01  0.41629101528E+01  0.51100000000E-03 0. -1.
        -11    1    3    3    0    0 -0.27842938670E+01  0.54208814043E+01 -0.31313647430E+01  0.68515467562E+01  0.51100000000E-03 0.  1.
         12    1    3    3    0    0 -0.10935356195E+02  0.18806783165E+02 -0.27580599952E+02  0.35127860764E+02  0.00000000000E+00 0. -1.
</event>
<event>
 7    1  0.1549900E-008  0.4614231E+02  0.7816164E-02  0.1320468E+00
        -11   -1    0    0    0    0  0.00000000000E+00  0.00000000000E+00  0.45593999997E+02  0.45594000000E+02  0.51100000000E-03 0. -1.
         11   -1    0    0    0    0 -0.00000000000E+00 -0.00000000000E+00 -0.45593999997E+02  0.45594000000E+02  0.51100000000E-03 0.  1.
    9900012    2    1    2    0    0 -0.22491863319E+01 -0.44542097582E+02  0.63290262493E+01  0.46142313531E+02  0.99999614276E+01 0.  0.
        -12    1    1    2    0    0  0.22491863319E+01  0.44542097582E+02 -0.63290262493E+01  0.45045686469E+02  0.00000000000E+00 0.  1.
         11    1    3    3    0    0 -0.47105127906E+01 -0.41370434397E+02  0.53768965328E+01  0.41983482341E+02  0.51100000000E-03 0. -1.
        -11    1    3    3    0    0  0.21436530963E+01 -0.25524533501E+01  0.63115703184E+00  0.33924366113E+01  0.51100000000E-03 0.  1.
         12    1    3    3    0    0  0.31767336237E+00 -0.61920983544E+00  0.32097268471E+00  0.76639457840E+00  0.00000000000E+00 0. -1.
</event>
<event>
 7    1  0.1549900E-008  0.4614232E+02  0.7816164E-02  0.1320468E+00
        -11   -1    0    0    0    0  0.00000000000E+00  0.00000000000E+00  0.45593999997E+02  0.45594000000E+02  0.51100000000E-03 0.  1.
         11   -1    0    0    0    0 -0.00000000000E+00 -0.00000000000E+00 -0.45593999997E+02  0.45594000000E+02  0.51100000000E-03 0. -1.
    9900012    2    1    2    0    0  0.34041981487E+02  0.70726486919E+01 -0.28639737742E+02  0.46142318286E+02  0.10000004788E+02 0.  0.
        -12    1    1    2    0    0 -0.34041981487E+02 -0.70726486919E+01  0.28639737742E+02  0.45045681714E+02  0.00000000000E+00 0.  1.
         11    1    3    3    0    0  0.26254647756E+01 -0.58918068014E+00 -0.42375887158E+01  0.50196969577E+01  0.51100000000E-03 0. -1.
        -11    1    3    3    0    0  0.49288547221E+01  0.12719555837E+01 -0.74805817181E+01  0.90482364569E+01  0.51100000000E-03 0.  1.
        -12    1    3    3    0    0  0.26487661990E+02  0.63898737883E+01 -0.16921567309E+02  0.32074384872E+02  0.00000000000E+00 0.  1.
</event>
<event>
 7    1  0.1549900E-008  0.4614232E+02  0.7816164E-02  0.1320468E+00
        -11   -1    0    0    0    0  0.00000000000E+00  0.00000000000E+00  0.45593999997E+02  0.45594000000E+02  0.51100000000E-03 0.  1.
         11   -1    0    0    0    0 -0.00000000000E+00 -0.00000000000E+00 -0.45593999997E+02  0.45594000000E+02  0.51100000000E-03 0. -1.
    9900012    2    1    2    0    0  0.35451169733E+02 -0.26415651512E+02 -0.86337366890E+01  0.46142317749E+02  0.99999998910E+01 0.  0.
        -12    1    1    2    0    0 -0.35451169733E+02  0.26415651512E+02  0.86337366890E+01  0.45045682251E+02  0.00000000000E+00 0.  1.
         11    1    3    3    0    0  0.16084636228E+02 -0.16433739447E+02 -0.41369941808E+01  0.23364460959E+02  0.51100000000E-03 0. -1.
        -11    1    3    3    0    0  0.39740573981E+01 -0.70104037435E+00 -0.23664452137E+01  0.46781035709E+01  0.51100000000E-03 0.  1.
         12    1    3    3    0    0  0.15392476106E+02 -0.92808716914E+01 -0.21302972946E+01  0.18099753219E+02  0.00000000000E+00 0. -1.
</event>
<event>
 7    1  0.1549900E-008  0.4614232E+02  0.7816164E-02  0.1320468E+00
        -11   -1    0    0    0    0  0.00000000000E+00  0.00000000000E+00  0.45593999997E+02  0.45594000000E+02  0.51100000000E-03 0.  1.
         11   -1    0    0    0    0 -0.00000000000E+00 -0.00000000000E+00 -0.45593999997E+02  0.45594000000E+02  0.51100000000E-03 0. -1.
    9900012    2    1    2    0    0 -0.49971147295E+01  0.23556691798E+01 -0.44705625941E+02  0.46142319589E+02  0.10000016667E+02 0.  0.
        -12    1    1    2    0    0  0.49971147295E+01 -0.23556691798E+01  0.44705625941E+02  0.45045680411E+02  0.00000000000E+00 0.  1.
         11    1    3    3    0    0 -0.44539381637E+01  0.43798626961E+01 -0.18979490848E+02  0.19981036897E+02  0.51100000000E-03 0. -1.
        -11    1    3    3    0    0  0.86898089312E+00 -0.21604482440E+01 -0.22699566695E+02  0.22818698316E+02  0.51100000000E-03 0.  1.
         12    1    3    3    0    0 -0.14121574590E+01  0.13625472766E+00 -0.30265683984E+01  0.33425843759E+01  0.00000000000E+00 0. -1.
</event>
<event>
 7    1  0.1549900E-008  0.4614232E+02  0.7816164E-02  0.1320468E+00
        -11   -1    0    0    0    0  0.00000000000E+00  0.00000000000E+00  0.45593999997E+02  0.45594000000E+02  0.51100000000E-03 0. -1.
         11   -1    0    0    0    0 -0.00000000000E+00 -0.00000000000E+00 -0.45593999997E+02  0.45594000000E+02  0.51100000000E-03 0.  1.
    9900012    2    1    2    0    0 -0.41996712395E+02  0.11871409542E+02  0.11156131694E+02  0.46142317733E+02  0.99999997436E+01 0.  0.
        -12    1    1    2    0    0  0.41996712395E+02 -0.11871409542E+02 -0.11156131694E+02  0.45045682267E+02  0.00000000000E+00 0.  1.
         11    1    3    3    0    0 -0.22499199168E+02  0.54973904835E+01  0.66706453895E+01  0.24102547075E+02  0.51100000000E-03 0. -1.
        -11    1    3    3    0    0 -0.17152861015E+02  0.69768165533E+01  0.56404723306E+01  0.19357467257E+02  0.51100000000E-03 0.  1.
        -12    1    3    3    0    0 -0.23446522126E+01 -0.60279749476E+00 -0.11549860262E+01  0.26823034017E+01  0.00000000000E+00 0.  1.
</event>
<event>
 7    1  0.1549900E-008  0.4614233E+02  0.7816164E-02  0.1320468E+00
        -11   -1    0    0    0    0  0.00000000000E+00  0.00000000000E+00  0.45593999997E+02  0.45594000000E+02  0.51100000000E-03 0. -1.
         11   -1    0    0    0    0 -0.00000000000E+00 -0.00000000000E+00 -0.45593999997E+02  0.45594000000E+02  0.51100000000E-03 0.  1.
    9900012    2    1    2    0    0 -0.15890390036E+02 -0.12828490515E+02  0.40150191440E+02  0.46142328321E+02  0.10000096291E+02 0.  0.
        -12    1    1    2    0    0  0.15890390036E+02  0.12828490515E+02 -0.40150191440E+02  0.45045671679E+02  0.00000000000E+00 0.  1.
         11    1    3    3    0    0 -0.38938573159E+01 -0.90243242620E+00  0.14446583806E+02  0.14989339311E+02  0.51100000000E-03 0. -1.
        -11    1    3    3    0    0 -0.25941586041E+01 -0.11482570871E+01  0.73917789137E+01  0.79174837525E+01  0.51100000000E-03 0.  1.
         12    1    3    3    0    0 -0.94023741157E+01 -0.10777801002E+02  0.18311828720E+02  0.23235505257E+02  0.00000000000E+00 0. -1.
</event>
<event>
 7    1  0.1549900E-008  0.4614232E+02  0.7816164E-02  0.1320468E+00
        -11   -1    0    0    0    0  0.00000000000E+00  0.00000000000E+00  0.45593999997E+02  0.45594000000E+02  0.51100000000E-03 0.  1.
         11   -1    0    0    0    0 -0.00000000000E+00 -0.00000000000E+00 -0.45593999997E+02  0.45594000000E+02  0.51100000000E-03 0. -1.
    9900012    2    1    2    0    0  0.43962514076E+02  0.84578263067E+01  0.49875714962E+01  0.46142319417E+02  0.10000015101E+02 0.  0.
        -12    1    1    2    0    0 -0.43962514076E+02 -0.84578263067E+01 -0.49875714962E+01  0.45045680583E+02  0.00000000000E+00 0.  1.
         11    1    3    3    0    0  0.18250783467E+02  0.73691956761E+01  0.11357893381E+01  0.19715125152E+02  0.51100000000E-03 0. -1.
        -11    1    3    3    0    0  0.17682617653E+01 -0.35565363207E+00 -0.83343705360E+00  0.19869214278E+01  0.51100000000E-03 0.  1.
        -12    1    3    3    0    0  0.23943468843E+02  0.14442842627E+01  0.46852192117E+01  0.24440272837E+02  0.00000000000E+00 0.  1.
</event>
<event>
 7    1  0.1549900E-008  0.4614232E+02  0.7816164E-02  0.1320468E+00
        -11   -1    0    0    0    0  0.00000000000E+00  0.00000000000E+00  0.45593999997E+02  0.45594000000E+02  0.51100000000E-03 0.  1.
         11   -1    0    0    0    0 -0.00000000000E+00 -0.00000000000E+00 -0.45593999997E+02  0.45594000000E+02  0.51100000000E-03 0. -1.
    9900012    2    1    2    0    0  0.29359361106E+02  0.51497422644E+01 -0.33773087129E+02  0.46142319362E+02  0.10000014599E+02 0.  0.
        -12    1    1    2    0    0 -0.29359361106E+02 -0.51497422644E+01  0.33773087129E+02  0.45045680638E+02  0.00000000000E+00 0.  1.
         11    1    3    3    0    0  0.14223704209E+00  0.10865122197E+01 -0.37252239281E+01  0.38830443926E+01  0.51100000000E-03 0. -1.
        -11    1    3    3    0    0  0.65086393064E+01 -0.48165470560E+00 -0.58417628652E+01  0.87590279432E+01  0.51100000000E-03 0.  1.
         12    1    3    3    0    0  0.22708484757E+02  0.45448847504E+01 -0.24206100336E+02  0.33500247026E+02  0.00000000000E+00 0. -1.
</event>
<event>
 7    1  0.1549900E-008  0.4614232E+02  0.7816164E-02  0.1320468E+00
        -11   -1    0    0    0    0  0.00000000000E+00  0.00000000000E+00  0.45593999997E+02  0.45594000000E+02  0.51100000000E-03 0.  1.
         11   -1    0    0    0    0 -0.00000000000E+00 -0.00000000000E+00 -0.45593999997E+02  0.45594000000E+02  0.51100000000E-03 0. -1.
    9900012    2    1    2    0    0  0.67106029401E+01  0.13850807750E+02 -0.42334815233E+02  0.46142315990E+02  0.99999838485E+01 0.  0.
        -12    1    1    2    0    0 -0.67106029401E+01 -0.13850807750E+02  0.42334815233E+02  0.45045684010E+02  0.00000000000E+00 0.  1.
         11    1    3    3    0    0  0.61767245804E+01  0.96771784956E+01 -0.30757661177E+02  0.32830373613E+02  0.51100000000E-03 0. -1.
        -11    1    3    3    0    0  0.12856233405E+01 -0.68560730087E+00 -0.14570613861E+01  0.20605613043E+01  0.51100000000E-03 0.  1.
         12    1    3    3    0    0 -0.75174498086E+00  0.48592365548E+01 -0.10120092669E+02  0.11251381073E+02  0.00000000000E+00 0. -1.
</event>
<event>
 7    1  0.1549900E-008  0.4614232E+02  0.7816164E-02  0.1320468E+00
        -11   -1    0    0    0    0  0.00000000000E+00  0.00000000000E+00  0.45593999997E+02  0.45594000000E+02  0.51100000000E-03 0.  1.
         11   -1    0    0    0    0 -0.00000000000E+00 -0.00000000000E+00 -0.45593999997E+02  0.45594000000E+02  0.51100000000E-03 0. -1.
    9900012    2    1    2    0    0 -0.21966026706E+02  0.17738781162E+02 -0.35099043569E+02  0.46142317123E+02  0.99999941800E+01 0.  0.
        -12    1    1    2    0    0  0.21966026706E+02 -0.17738781162E+02  0.35099043569E+02  0.45045682877E+02  0.00000000000E+00 0.  1.
         11    1    3    3    0    0 -0.17961815908E+02  0.10562605025E+02 -0.24857154407E+02  0.32435683762E+02  0.51100000000E-03 0. -1.
        -11    1    3    3    0    0 -0.12650644951E+00  0.37166138902E+01 -0.56948501278E+01  0.68015101948E+01  0.51100000000E-03 0.  1.
        -12    1    3    3    0    0 -0.38777043493E+01  0.34595622472E+01 -0.45470390344E+01  0.69051231664E+01  0.00000000000E+00 0.  1.
</event>
<event>
 7    1  0.1549900E-008  0.4614232E+02  0.7816164E-02  0.1320468E+00
        -11   -1    0    0    0    0  0.00000000000E+00  0.00000000000E+00  0.45593999997E+02  0.45594000000E+02  0.51100000000E-03 0. -1.
         11   -1    0    0    0    0 -0.00000000000E+00 -0.00000000000E+00 -0.45593999997E+02  0.45594000000E+02  0.51100000000E-03 0.  1.
    9900012    2    1    2    0    0 -0.36381729128E+00  0.38408866558E+02  0.23531682792E+02  0.46142317762E+02  0.10000000007E+02 0.  0.
        -12    1    1    2    0    0  0.36381729128E+00 -0.38408866558E+02 -0.23531682792E+02  0.45045682238E+02  0.00000000000E+00 0.  1.
         11    1    3    3    0    0  0.83938285868E+00  0.15324100146E+01 -0.67503295810E+00  0.18731027179E+01  0.51100000000E-03 0.  1.
        -11    1    3    3    0    0 -0.24637648862E+01  0.23289799036E+02  0.15318423778E+02  0.27984620488E+02  0.51100000000E-03 0. -1.
        -12    1    3    3    0    0  0.12605647362E+01  0.13586657507E+02  0.88882919725E+01  0.16284594556E+02  0.00000000000E+00 0.  1.
</event>
<event>
 7    1  0.1549900E-008  0.4614232E+02  0.7816164E-02  0.1320468E+00
        -11   -1    0    0    0    0  0.00000000000E+00  0.00000000000E+00  0.45593999997E+02  0.45594000000E+02  0.51100000000E-03 0.  1.
         11   -1    0    0    0    0 -0.00000000000E+00 -0.00000000000E+00 -0.45593999997E+02  0.45594000000E+02  0.51100000000E-03 0. -1.
    9900012    2    1    2    0    0  0.26853362451E+02  0.26438481831E+01 -0.36069660980E+02  0.46142318172E+02  0.10000003749E+02 0.  0.
        -12    1    1    2    0    0 -0.26853362451E+02 -0.26438481831E+01  0.36069660980E+02  0.45045681828E+02  0.00000000000E+00 0.  1.
         11    1    3    3    0    0  0.12883881689E+02  0.43553529364E+01 -0.18662068227E+02  0.23091909781E+02  0.51100000000E-03 0. -1.
        -11    1    3    3    0    0  0.56598453272E+01 -0.32564466659E+01 -0.61229433835E+01  0.89514652406E+01  0.51100000000E-03 0.  1.
        -12    1    3    3    0    0  0.83096354343E+01  0.15449419126E+01 -0.11284649369E+02  0.14098943150E+02  0.00000000000E+00 0.  1.
</event>
<event>
 7    1  0.1549900E-008  0.4614232E+02  0.7816164E-02  0.1320468E+00
        -11   -1    0    0    0    0  0.00000000000E+00  0.00000000000E+00  0.45593999997E+02  0.45594000000E+02  0.51100000000E-03 0.  1.
         11   -1    0    0    0    0 -0.00000000000E+00 -0.00000000000E+00 -0.45593999997E+02  0.45594000000E+02  0.51100000000E-03 0. -1.
    9900012    2    1    2    0    0 -0.56005905360E+01  0.30796510580E+02 -0.32393232408E+02  0.46142321139E+02  0.10000030800E+02 0.  0.
        -12    1    1    2    0    0  0.56005905360E+01 -0.30796510580E+02  0.32393232408E+02  0.45045678861E+02  0.00000000000E+00 0.  1.
         11    1    3    3    0    0 -0.16054154428E+01  0.16455402080E+02 -0.18991422811E+02  0.25179987232E+02  0.51100000000E-03 0. -1.
        -11    1    3    3    0    0 -0.21651008607E+01  0.28791886117E+01 -0.54875895783E+00  0.36439711104E+01  0.51100000000E-03 0.  1.
        -12    1    3    3    0    0 -0.18300742325E+01  0.11461919888E+02 -0.12853050639E+02  0.17318362796E+02  0.00000000000E+00 0.  1.
</event>
<event>
 7    1  0.1549900E-008  0.4614232E+02  0.7816164E-02  0.1320468E+00
        -11   -1    0    0    0    0  0.00000000000E+00  0.00000000000E+00  0.45593999997E+02  0.45594000000E+02  0.51100000000E-03 0.  1.
         11   -1    0    0    0    0 -0.00000000000E+00 -0.00000000000E+00 -0.45593999997E+02  0.45594000000E+02  0.51100000000E-03 0. -1.
    9900012    2    1    2    0    0 -0.17040446707E+02  0.40735720635E+02  0.89071644779E+01  0.46142319422E+02  0.10000015148E+02 0.  0.
        -12    1    1    2    0    0  0.17040446707E+02 -0.40735720635E+02 -0.89071644779E+01  0.45045680578E+02  0.00000000000E+00 0.  1.
         11    1    3    3    0    0 -0.75649975983E+01  0.14785334202E+02  0.53196372978E+01  0.17439433402E+02  0.51100000000E-03 0. -1.
        -11    1    3    3    0    0 -0.66381182471E+01  0.23783135781E+02  0.19326821419E+01  0.24767668884E+02  0.51100000000E-03 0.  1.
        -12    1    3    3    0    0 -0.28373308618E+01  0.21672506522E+01  0.16548450381E+01  0.39352171362E+01  0.00000000000E+00 0.  1.
</event>
<event>
 7    1  0.1549900E-008  0.4614232E+02  0.7816164E-02  0.1320468E+00
        -11   -1    0    0    0    0  0.00000000000E+00  0.00000000000E+00  0.45593999997E+02  0.45594000000E+02  0.51100000000E-03 0. -1.
         11   -1    0    0    0    0 -0.00000000000E+00 -0.00000000000E+00 -0.45593999997E+02  0.45594000000E+02  0.51100000000E-03 0.  1.
    9900012    2    1    2    0    0  0.43881618895E+02  0.58277969504E+01 -0.83398910055E+01  0.46142317897E+02  0.10000001239E+02 0.  0.
        -12    1    1    2    0    0 -0.43881618895E+02 -0.58277969504E+01  0.83398910055E+01  0.45045682103E+02  0.00000000000E+00 0.  1.
         11    1    3    3    0    0  0.23000542756E+02  0.24057632323E+01 -0.47937853819E+01  0.23617642608E+02  0.51100000000E-03 0.  1.
        -11    1    3    3    0    0  0.10983599853E+02  0.36685193035E+01  0.10141419486E+01  0.11624370252E+02  0.51100000000E-03 0. -1.
        -12    1    3    3    0    0  0.98974762864E+01 -0.24648558546E+00 -0.45602475722E+01  0.10900305037E+02  0.00000000000E+00 0.  1.
</event>
<event>
 7    1  0.1549900E-008  0.4614232E+02  0.7816164E-02  0.1320468E+00
        -11   -1    0    0    0    0  0.00000000000E+00  0.00000000000E+00  0.45593999997E+02  0.45594000000E+02  0.51100000000E-03 0.  1.
         11   -1    0    0    0    0 -0.00000000000E+00 -0.00000000000E+00 -0.45593999997E+02  0.45594000000E+02  0.51100000000E-03 0. -1.
    9900012    2    1    2    0    0 -0.82694441248E+01 -0.42936785928E+02 -0.10824149179E+02  0.46142317660E+02  0.99999990820E+01 0.  0.
        -12    1    1    2    0    0  0.82694441248E+01  0.42936785928E+02  0.10824149179E+02  0.45045682340E+02  0.00000000000E+00 0.  1.
         11    1    3    3    0    0  0.16944532731E+01 -0.12139657494E+02 -0.27552349813E+01  0.12563191316E+02  0.51100000000E-03 0.  1.
        -11    1    3    3    0    0 -0.96458824300E+01 -0.30116117119E+02 -0.72041205145E+01  0.32433361078E+02  0.51100000000E-03 0. -1.
         12    1    3    3    0    0 -0.31801496787E+00 -0.68101131452E+00 -0.86479368322E+00  0.11457652660E+01  0.00000000000E+00 0. -1.
</event>
<event>
 7    1  0.1549900E-008  0.4614232E+02  0.7816164E-02  0.1320468E+00
        -11   -1    0    0    0    0  0.00000000000E+00  0.00000000000E+00  0.45593999997E+02  0.45594000000E+02  0.51100000000E-03 0. -1.
         11   -1    0    0    0    0 -0.00000000000E+00 -0.00000000000E+00 -0.45593999997E+02  0.45594000000E+02  0.51100000000E-03 0.  1.
    9900012    2    1    2    0    0  0.29655995871E+02  0.23032132045E+02  0.24882851898E+02  0.46142317452E+02  0.99999971797E+01 0.  0.
        -12    1    1    2    0    0 -0.29655995871E+02 -0.23032132045E+02 -0.24882851898E+02  0.45045682548E+02  0.00000000000E+00 0.  1.
         11    1    3    3    0    0  0.38724761050E+01  0.62826311915E+01  0.78991217364E+01  0.10810349224E+02  0.51100000000E-03 0. -1.
        -11    1    3    3    0    0  0.12810542282E+02  0.67919881840E+01  0.95912334030E+01  0.17384845570E+02  0.51100000000E-03 0.  1.
         12    1    3    3    0    0  0.12972977484E+02  0.99575126695E+01  0.73924967588E+01  0.17947122658E+02  0.00000000000E+00 0. -1.
</event>
<event>
 7    1  0.1549900E-008  0.4614231E+02  0.7816164E-02  0.1320468E+00
        -11   -1    0    0    0    0  0.00000000000E+00  0.00000000000E+00  0.45593999997E+02  0.45594000000E+02  0.51100000000E-03 0.  1.
         11   -1    0    0    0    0 -0.00000000000E+00 -0.00000000000E+00 -0.45593999997E+02  0.45594000000E+02  0.51100000000E-03 0. -1.
    9900012    2    1    2    0    0  0.26965845099E+02 -0.44915074040E+01 -0.35802009109E+02  0.46142308787E+02  0.99999181623E+01 0.  0.
        -12    1    1    2    0    0 -0.26965845099E+02  0.44915074040E+01  0.35802009109E+02  0.45045691213E+02  0.00000000000E+00 0.  1.
         11    1    3    3    0    0  0.60978884412E+01 -0.29574679232E+01 -0.88088649490E+01  0.11114268393E+02  0.51100000000E-03 0. -1.
        -11    1    3    3    0    0  0.30837810997E+01 -0.32139695774E+01 -0.57138651116E+01  0.72448299560E+01  0.51100000000E-03 0.  1.
         12    1    3    3    0    0  0.17784175558E+02  0.16799300966E+01 -0.21279279048E+02  0.27783210438E+02  0.00000000000E+00 0. -1.
</event>
<event>
 7    1  0.1549900E-008  0.4614232E+02  0.7816164E-02  0.1320468E+00
        -11   -1    0    0    0    0  0.00000000000E+00  0.00000000000E+00  0.45593999997E+02  0.45594000000E+02  0.51100000000E-03 0.  1.
         11   -1    0    0    0    0 -0.00000000000E+00 -0.00000000000E+00 -0.45593999997E+02  0.45594000000E+02  0.51100000000E-03 0. -1.
    9900012    2    1    2    0    0 -0.42187882688E+02  0.22548147760E+01 -0.15627278217E+02  0.46142318077E+02  0.10000002883E+02 0.  0.
        -12    1    1    2    0    0  0.42187882688E+02 -0.22548147760E+01  0.15627278217E+02  0.45045681923E+02  0.00000000000E+00 0.  1.
         11    1    3    3    0    0 -0.24316569528E+02 -0.24612576353E+01 -0.11881228331E+02  0.27175667971E+02  0.51100000000E-03 0. -1.
        -11    1    3    3    0    0 -0.64724935934E+01  0.26057701155E+01 -0.95009076447E+00  0.70417245000E+01  0.51100000000E-03 0.  1.
         12    1    3    3    0    0 -0.11398819567E+02  0.21103022958E+01 -0.27959591214E+01  0.11924925606E+02  0.00000000000E+00 0. -1.
</event>
<event>
 7    1  0.1701610E-008  0.4614232E+02  0.7816164E-02  0.1320468E+00
        -11   -1    0    0    0    0  0.00000000000E+00  0.00000000000E+00  0.45593999997E+02  0.45594000000E+02  0.51100000000E-03 0.  1.
         11   -1    0    0    0    0 -0.00000000000E+00 -0.00000000000E+00 -0.45593999997E+02  0.45594000000E+02  0.51100000000E-03 0. -1.
    9900012    2    1    2    0    0  0.96248331573E+01 -0.43966226630E+02 -0.18566083698E+01  0.46142317721E+02  0.99999996318E+01 0.  0.
        -12    1    1    2    0    0 -0.96248331573E+01  0.43966226630E+02  0.18566083698E+01  0.45045682279E+02  0.00000000000E+00 0.  1.
         11    1    3    3    0    0 -0.17426625083E+00 -0.15277044921E+02  0.22589149657E+01  0.15444130514E+02  0.51100000000E-03 0. -1.
        -11    1    3    3    0    0  0.45536065429E+01 -0.98356653304E+01 -0.10406058853E+01  0.10888457462E+02  0.51100000000E-03 0.  1.
         12    1    3    3    0    0  0.52454928652E+01 -0.18853516378E+02 -0.30749174502E+01  0.19809729744E+02  0.00000000000E+00 0. -1.
</event>
<event>
 7    1  0.1549900E-008  0.4614233E+02  0.7816164E-02  0.1320468E+00
        -11   -1    0    0    0    0  0.00000000000E+00  0.00000000000E+00  0.45593999997E+02  0.45594000000E+02  0.51100000000E-03 0.  1.
         11   -1    0    0    0    0 -0.00000000000E+00 -0.00000000000E+00 -0.45593999997E+02  0.45594000000E+02  0.51100000000E-03 0. -1.
    9900012    2    1    2    0    0  0.27968480936E+01 -0.40533608007E+02 -0.19450369718E+02  0.46142327406E+02  0.10000087948E+02 0.  0.
        -12    1    1    2    0    0 -0.27968480936E+01  0.40533608007E+02  0.19450369718E+02  0.45045672594E+02  0.00000000000E+00 0.  1.
         11    1    3    3    0    0 -0.14552905157E+01 -0.14260921333E+02 -0.10011566048E+02  0.17484942172E+02  0.51100000000E-03 0. -1.
        -11    1    3    3    0    0  0.29268147259E+01 -0.14699109717E+02 -0.27926631944E+01  0.15245623598E+02  0.51100000000E-03 0.  1.
        -12    1    3    3    0    0  0.13253238835E+01 -0.11573576956E+02 -0.66461404747E+01  0.13411761635E+02  0.00000000000E+00 0.  1.
</event>
<event>
 7    1  0.1549900E-008  0.4614232E+02  0.7816164E-02  0.1320468E+00
        -11   -1    0    0    0    0  0.00000000000E+00  0.00000000000E+00  0.45593999997E+02  0.45594000000E+02  0.51100000000E-03 0.  1.
         11   -1    0    0    0    0 -0.00000000000E+00 -0.00000000000E+00 -0.45593999997E+02  0.45594000000E+02  0.51100000000E-03 0. -1.
    9900012    2    1    2    0    0 -0.38215773945E+02 -0.20794983047E+02 -0.11672049430E+02  0.46142318342E+02  0.10000005295E+02 0.  0.
        -12    1    1    2    0    0  0.38215773945E+02  0.20794983047E+02  0.11672049430E+02  0.45045681658E+02  0.00000000000E+00 0.  1.
         11    1    3    3    0    0 -0.26085208657E+02 -0.12779459890E+02 -0.74020129059E+01  0.29975698508E+02  0.51100000000E-03 0. -1.
        -11    1    3    3    0    0 -0.46021234635E+01 -0.61274643333E+01 -0.93945962365E+00  0.77206181213E+01  0.51100000000E-03 0.  1.
        -12    1    3    3    0    0 -0.75284418250E+01 -0.18880588244E+01 -0.33305769004E+01  0.84460017124E+01  0.00000000000E+00 0.  1.
</event>
<event>
 7    1  0.1549900E-008  0.4614232E+02  0.7816164E-02  0.1320468E+00
        -11   -1    0    0    0    0  0.00000000000E+00  0.00000000000E+00  0.45593999997E+02  0.45594000000E+02  0.51100000000E-03 0. -1.
         11   -1    0    0    0    0 -0.00000000000E+00 -0.00000000000E+00 -0.45593999997E+02  0.45594000000E+02  0.51100000000E-03 0.  1.
    9900012    2    1    2    0    0  0.53753026707E+01 -0.32741580325E+02  0.30466505946E+02  0.46142323786E+02  0.10000054939E+02 0.  0.
        -12    1    1    2    0    0 -0.53753026707E+01  0.32741580325E+02 -0.30466505946E+02  0.45045676214E+02  0.00000000000E+00 0.  1.
         11    1    3    3    0    0  0.38097082012E+01 -0.20895610218E+02  0.21746269252E+02  0.30398036607E+02  0.51100000000E-03 0. -1.
        -11    1    3    3    0    0 -0.23405058533E+00 -0.56026669467E+01  0.10727054697E+01  0.57092340886E+01  0.51100000000E-03 0.  1.
        -12    1    3    3    0    0  0.17996450549E+01 -0.62433031610E+01  0.76475312251E+01  0.10035053090E+02  0.00000000000E+00 0.  1.
</event>
<event>
 7    1  0.2021937E-008  0.4614232E+02  0.7816164E-02  0.1320468E+00
        -11   -1    0    0    0    0  0.00000000000E+00  0.00000000000E+00  0.45593999997E+02  0.45594000000E+02  0.51100000000E-03 0.  1.
         11   -1    0    0    0    0 -0.00000000000E+00 -0.00000000000E+00 -0.45593999997E+02  0.45594000000E+02  0.51100000000E-03 0. -1.
    9900012    2    1    2    0    0  0.40783501435E+02  0.84472728473E+01 -0.17159925743E+02  0.46142318083E+02  0.10000002938E+02 0.  0.
        -12    1    1    2    0    0 -0.40783501435E+02 -0.84472728473E+01  0.17159925743E+02  0.45045681917E+02  0.00000000000E+00 0.  1.
         11    1    3    3    0    0  0.34815530306E+02  0.91299461258E+01 -0.14569399031E+02  0.38829685231E+02  0.51100000000E-03 0. -1.
        -11    1    3    3    0    0 -0.14894692098E+00  0.51102619640E+00  0.68713957941E-01  0.53670739496E+00  0.51100000000E-03 0.  1.
         12    1    3    3    0    0  0.61169180503E+01 -0.11936994750E+01 -0.26592406695E+01  0.67759254577E+01  0.00000000000E+00 0. -1.
</event>
<event>
 7    1  0.1549900E-008  0.4614232E+02  0.7816164E-02  0.1320468E+00
        -11   -1    0    0    0    0  0.00000000000E+00  0.00000000000E+00  0.45593999997E+02  0.45594000000E+02  0.51100000000E-03 0.  1.
         11   -1    0    0    0    0 -0.00000000000E+00 -0.00000000000E+00 -0.45593999997E+02  0.45594000000E+02  0.51100000000E-03 0. -1.
    9900012    2    1    2    0    0  0.87278622460E+01 -0.43970082587E+02 -0.44237771060E+01  0.46142317121E+02  0.99999941645E+01 0.  0.
        -12    1    1    2    0    0 -0.87278622460E+01  0.43970082587E+02  0.44237771060E+01  0.45045682879E+02  0.00000000000E+00 0.  1.
         11    1    3    3    0    0  0.66209020488E+01 -0.33670254397E+02 -0.35814790710E+01  0.34501440082E+02  0.51100000000E-03 0. -1.
        -11    1    3    3    0    0  0.19308910275E+01 -0.10105751648E+01  0.54623522847E+00  0.22467700171E+01  0.51100000000E-03 0.  1.
        -12    1    3    3    0    0  0.17606916972E+00 -0.92892530256E+01 -0.13885332635E+01  0.93941070225E+01  0.00000000000E+00 0.  1.
</event>
<event>
 7    1  0.1549900E-008  0.4614232E+02  0.7816164E-02  0.1320468E+00
        -11   -1    0    0    0    0  0.00000000000E+00  0.00000000000E+00  0.45593999997E+02  0.45594000000E+02  0.51100000000E-03 0.  1.
         11   -1    0    0    0    0 -0.00000000000E+00 -0.00000000000E+00 -0.45593999997E+02  0.45594000000E+02  0.51100000000E-03 0. -1.
    9900012    2    1    2    0    0  0.44500878467E+02 -0.69633768264E+01 -0.54464497032E+00  0.46142318305E+02  0.10000004964E+02 0.  0.
        -12    1    1    2    0    0 -0.44500878467E+02  0.69633768264E+01  0.54464497032E+00  0.45045681695E+02  0.00000000000E+00 0.  1.
         11    1    3    3    0    0  0.22739520779E+02 -0.54805381401E+01 -0.18696281069E+01  0.23465242659E+02  0.51100000000E-03 0. -1.
        -11    1    3    3    0    0  0.65360153694E+01 -0.61938778626E+00 -0.23804813627E+01  0.69835399274E+01  0.51100000000E-03 0.  1.
         12    1    3    3    0    0  0.15225342319E+02 -0.86345090005E+00  0.37054644993E+01  0.15693535719E+02  0.00000000000E+00 0. -1.
</event>
<event>
 7    1  0.1549900E-008  0.4614232E+02  0.7816164E-02  0.1320468E+00
        -11   -1    0    0    0    0  0.00000000000E+00  0.00000000000E+00  0.45593999997E+02  0.45594000000E+02  0.51100000000E-03 0.  1.
         11   -1    0    0    0    0 -0.00000000000E+00 -0.00000000000E+00 -0.45593999997E+02  0.45594000000E+02  0.51100000000E-03 0. -1.
    9900012    2    1    2    0    0 -0.26171470572E+02 -0.31308373592E+02 -0.19077561741E+02  0.46142317734E+02  0.99999997485E+01 0.  0.
        -12    1    1    2    0    0  0.26171470572E+02  0.31308373592E+02  0.19077561741E+02  0.45045682266E+02  0.00000000000E+00 0.  1.
         11    1    3    3    0    0 -0.23017162550E+02 -0.21336982992E+02 -0.12474500246E+02  0.33773803039E+02  0.51100000000E-03 0. -1.
        -11    1    3    3    0    0 -0.91194211042E+00 -0.28265695688E+01 -0.18779941744E+01  0.35139715879E+01  0.51100000000E-03 0.  1.
         12    1    3    3    0    0 -0.22423659114E+01 -0.71448210306E+01 -0.47250673208E+01  0.88545431066E+01  0.00000000000E+00 0. -1.
</event>
<event>
 7    1  0.1549900E-008  0.4614232E+02  0.7816164E-02  0.1320468E+00
        -11   -1    0    0    0    0  0.00000000000E+00  0.00000000000E+00  0.45593999997E+02  0.45594000000E+02  0.51100000000E-03 0. -1.
         11   -1    0    0    0    0 -0.00000000000E+00 -0.00000000000E+00 -0.45593999997E+02  0.45594000000E+02  0.51100000000E-03 0.  1.
    9900012    2    1    2    0    0 -0.38786665000E+02  0.11344492516E+02  0.19900011371E+02  0.46142319354E+02  0.10000014526E+02 0.  0.
        -12    1    1    2    0    0  0.38786665000E+02 -0.11344492516E+02 -0.19900011371E+02  0.45045680646E+02  0.00000000000E+00 0.  1.
         11    1    3    3    0    0 -0.10579872875E+02  0.34075481604E+01  0.78250099135E+01  0.13593229010E+02  0.51100000000E-03 0. -1.
        -11    1    3    3    0    0 -0.19820270392E+02  0.82765179165E+01  0.10859689347E+02  0.24068168193E+02  0.51100000000E-03 0.  1.
        -12    1    3    3    0    0 -0.83865217342E+01 -0.33957356094E+00  0.12153121107E+01  0.84809221508E+01  0.00000000000E+00 0.  1.
</event>
<event>
 7    1  0.1549900E-008  0.4614232E+02  0.7816164E-02  0.1320468E+00
        -11   -1    0    0    0    0  0.00000000000E+00  0.00000000000E+00  0.45593999997E+02  0.45594000000E+02  0.51100000000E-03 0. -1.
         11   -1    0    0    0    0 -0.00000000000E+00 -0.00000000000E+00 -0.45593999997E+02  0.45594000000E+02  0.51100000000E-03 0.  1.
    9900012    2    1    2    0    0 -0.27774400906E+02  0.34678070839E+02  0.74247898437E+01  0.46142318220E+02  0.10000004182E+02 0.  0.
        -12    1    1    2    0    0  0.27774400906E+02 -0.34678070839E+02 -0.74247898437E+01  0.45045681780E+02  0.00000000000E+00 0.  1.
         11    1    3    3    0    0 -0.15749623879E+02  0.24872172556E+02  0.61378100312E+01  0.30072384877E+02  0.51100000000E-03 0. -1.
        -11    1    3    3    0    0 -0.87147282288E+01  0.47531298375E+01  0.17631013487E+00  0.99282333211E+01  0.51100000000E-03 0.  1.
        -12    1    3    3    0    0 -0.33100487985E+01  0.50527684462E+01  0.11106696777E+01  0.61417000214E+01  0.00000000000E+00 0.  1.
</event>
<event>
 7    1  0.1549900E-008  0.4614232E+02  0.7816164E-02  0.1320468E+00
        -11   -1    0    0    0    0  0.00000000000E+00  0.00000000000E+00  0.45593999997E+02  0.45594000000E+02  0.51100000000E-03 0.  1.
         11   -1    0    0    0    0 -0.00000000000E+00 -0.00000000000E+00 -0.45593999997E+02  0.45594000000E+02  0.51100000000E-03 0. -1.
    9900012    2    1    2    0    0  0.22215830853E+02  0.33285890925E+02 -0.20678974419E+02  0.46142315876E+02  0.99999828084E+01 0.  0.
        -12    1    1    2    0    0 -0.22215830853E+02 -0.33285890925E+02  0.20678974419E+02  0.45045684124E+02  0.00000000000E+00 0.  1.
         11    1    3    3    0    0  0.16224366662E+02  0.28121185281E+02 -0.17767400981E+02  0.37009615954E+02  0.51100000000E-03 0. -1.
        -11    1    3    3    0    0  0.38459305776E+01  0.49462970563E+01 -0.11999858437E+01  0.63794202608E+01  0.51100000000E-03 0.  1.
         12    1    3    3    0    0  0.21455336139E+01  0.21840858824E+00 -0.17115875944E+01  0.27532796613E+01  0.00000000000E+00 0. -1.
</event>
<event>
 7    1  0.1549900E-008  0.4614232E+02  0.7816164E-02  0.1320468E+00
        -11   -1    0    0    0    0  0.00000000000E+00  0.00000000000E+00  0.45593999997E+02  0.45594000000E+02  0.51100000000E-03 0.  1.
         11   -1    0    0    0    0 -0.00000000000E+00 -0.00000000000E+00 -0.45593999997E+02  0.45594000000E+02  0.51100000000E-03 0. -1.
    9900012    2    1    2    0    0 -0.18748231769E+02 -0.14405552520E+01 -0.40933385763E+02  0.46142318032E+02  0.10000002472E+02 0.  0.
        -12    1    1    2    0    0  0.18748231769E+02  0.14405552520E+01  0.40933385763E+02  0.45045681968E+02  0.00000000000E+00 0.  1.
         11    1    3    3    0    0 -0.75842082268E+01 -0.89438065513E+00 -0.21793065221E+02  0.23092375867E+02  0.51100000000E-03 0. -1.
        -11    1    3    3    0    0 -0.11988491936E+02 -0.46621045356E+00 -0.18177057163E+02  0.21779501795E+02  0.51100000000E-03 0.  1.
         12    1    3    3    0    0  0.82446839353E+00 -0.79964143352E-01 -0.96326337965E+00  0.12704403704E+01  0.00000000000E+00 0. -1.
</event>
<event>
 7    1  0.1549900E-008  0.4614232E+02  0.7816164E-02  0.1320468E+00
        -11   -1    0    0    0    0  0.00000000000E+00  0.00000000000E+00  0.45593999997E+02  0.45594000000E+02  0.51100000000E-03 0.  1.
         11   -1    0    0    0    0 -0.00000000000E+00 -0.00000000000E+00 -0.45593999997E+02  0.45594000000E+02  0.51100000000E-03 0. -1.
    9900012    2    1    2    0    0 -0.23005157317E+02  0.11127222000E+02 -0.37095298629E+02  0.46142317488E+02  0.99999975076E+01 0.  0.
        -12    1    1    2    0    0  0.23005157317E+02 -0.11127222000E+02  0.37095298629E+02  0.45045682512E+02  0.00000000000E+00 0.  1.
         11    1    3    3    0    0 -0.20321691804E+02  0.80955151197E+01 -0.35470281206E+02  0.41673125296E+02  0.51100000000E-03 0. -1.
        -11    1    3    3    0    0 -0.24990087590E+01  0.22811916538E+01 -0.12215869848E+01  0.35973817092E+01  0.51100000000E-03 0.  1.
         12    1    3    3    0    0 -0.18445675340E+00  0.75051522656E+00 -0.40343043856E+00  0.87181048281E+00  0.00000000000E+00 0. -1.
</event>
<event>
 7    1  0.1549900E-008  0.4614232E+02  0.7816164E-02  0.1320468E+00
        -11   -1    0    0    0    0  0.00000000000E+00  0.00000000000E+00  0.45593999997E+02  0.45594000000E+02  0.51100000000E-03 0.  1.
         11   -1    0    0    0    0 -0.00000000000E+00 -0.00000000000E+00 -0.45593999997E+02  0.45594000000E+02  0.51100000000E-03 0. -1.
    9900012    2    1    2    0    0  0.39325259094E+02 -0.11432190163E+02 -0.18760113733E+02  0.46142324935E+02  0.10000065420E+02 0.  0.
        -12    1    1    2    0    0 -0.39325259094E+02  0.11432190163E+02  0.18760113733E+02  0.45045675065E+02  0.00000000000E+00 0.  1.
         11    1    3    3    0    0  0.30129823749E+02 -0.10329683345E+02 -0.11646896254E+02  0.33913991652E+02  0.51100000000E-03 0. -1.
        -11    1    3    3    0    0  0.43811803890E+01  0.11567691436E+01 -0.41281815323E+01  0.61298237721E+01  0.51100000000E-03 0.  1.
        -12    1    3    3    0    0  0.48142549565E+01 -0.22592759618E+01 -0.29850359472E+01  0.60985095117E+01  0.00000000000E+00 0.  1.
</event>
<event>
 7    1  0.1549900E-008  0.4614232E+02  0.7816164E-02  0.1320468E+00
        -11   -1    0    0    0    0  0.00000000000E+00  0.00000000000E+00  0.45593999997E+02  0.45594000000E+02  0.51100000000E-03 0.  1.
         11   -1    0    0    0    0 -0.00000000000E+00 -0.00000000000E+00 -0.45593999997E+02  0.45594000000E+02  0.51100000000E-03 0. -1.
    9900012    2    1    2    0    0  0.44321469862E+02  0.17362240947E+01 -0.78553280743E+01  0.46142319363E+02  0.10000014609E+02 0.  0.
        -12    1    1    2    0    0 -0.44321469862E+02 -0.17362240947E+01  0.78553280743E+01  0.45045680637E+02  0.00000000000E+00 0.  1.
         11    1    3    3    0    0  0.16069840561E+02  0.17306698819E+01 -0.74336251049E+01  0.17790271958E+02  0.51100000000E-03 0. -1.
        -11    1    3    3    0    0  0.90664582297E+01  0.10410892203E+01  0.21206952133E+00  0.91284996214E+01  0.51100000000E-03 0.  1.
         12    1    3    3    0    0  0.19185171072E+02 -0.10355350075E+01 -0.63377249067E+00  0.19223547784E+02  0.00000000000E+00 0. -1.
</event>
<event>
 7    1  0.1549900E-008  0.4614232E+02  0.7816164E-02  0.1320468E+00
        -11   -1    0    0    0    0  0.00000000000E+00  0.00000000000E+00  0.45593999997E+02  0.45594000000E+02  0.51100000000E-03 0. -1.
         11   -1    0    0    0    0 -0.00000000000E+00 -0.00000000000E+00 -0.45593999997E+02  0.45594000000E+02  0.51100000000E-03 0.  1.
    9900012    2    1    2    0    0 -0.25999313437E+02 -0.28375778073E+02  0.23408638777E+02  0.46142318189E+02  0.10000003901E+02 0.  0.
        -12    1    1    2    0    0  0.25999313437E+02  0.28375778073E+02 -0.23408638777E+02  0.45045681811E+02  0.00000000000E+00 0.  1.
         11    1    3    3    0    0 -0.19322197046E+02 -0.23283062671E+02  0.19389281292E+02  0.35935950458E+02  0.51100000000E-03 0. -1.
        -11    1    3    3    0    0  0.67333457768E-01 -0.49838532642E+00 -0.63635837456E+00  0.81109430408E+00  0.51100000000E-03 0.  1.
        -12    1    3    3    0    0 -0.67444498481E+01 -0.45943300756E+01  0.46557158594E+01  0.93952734266E+01  0.00000000000E+00 0.  1.
</event>
<event>
 7    1  0.1549900E-008  0.4614232E+02  0.7816164E-02  0.1320468E+00
        -11   -1    0    0    0    0  0.00000000000E+00  0.00000000000E+00  0.45593999997E+02  0.45594000000E+02  0.51100000000E-03 0.  1.
         11   -1    0    0    0    0 -0.00000000000E+00 -0.00000000000E+00 -0.45593999997E+02  0.45594000000E+02  0.51100000000E-03 0. -1.
    9900012    2    1    2    0    0 -0.25266437595E+02  0.12948451723E+02 -0.34972249182E+02  0.46142317814E+02  0.10000000479E+02 0.  0.
        -12    1    1    2    0    0  0.25266437595E+02 -0.12948451723E+02  0.34972249182E+02  0.45045682186E+02  0.00000000000E+00 0.  1.
         11    1    3    3    0    0 -0.90228986780E+01  0.68479991432E+01 -0.17056550392E+02  0.20475197297E+02  0.51100000000E-03 0. -1.
        -11    1    3    3    0    0 -0.11100810140E+02  0.11238787071E+01 -0.98389540759E+01  0.14876024559E+02  0.51100000000E-03 0.  1.
        -12    1    3    3    0    0 -0.51427287775E+01  0.49765738724E+01 -0.80767447139E+01  0.10791095957E+02  0.00000000000E+00 0.  1.
</event>
<event>
 7    1  0.1549900E-008  0.4614232E+02  0.7816164E-02  0.1320468E+00
        -11   -1    0    0    0    0  0.00000000000E+00  0.00000000000E+00  0.45593999997E+02  0.45594000000E+02  0.51100000000E-03 0.  1.
         11   -1    0    0    0    0 -0.00000000000E+00 -0.00000000000E+00 -0.45593999997E+02  0.45594000000E+02  0.51100000000E-03 0. -1.
    9900012    2    1    2    0    0  0.41555028574E+02 -0.53281881190E+01 -0.16550030436E+02  0.46142317679E+02  0.99999992470E+01 0.  0.
        -12    1    1    2    0    0 -0.41555028574E+02  0.53281881190E+01  0.16550030436E+02  0.45045682321E+02  0.00000000000E+00 0.  1.
         11    1    3    3    0    0  0.61974832281E+01  0.17960950543E+01 -0.11570193042E+01  0.65554137732E+01  0.51100000000E-03 0. -1.
        -11    1    3    3    0    0  0.53175142820E+01 -0.31197497650E+01 -0.25097398627E+01  0.66563947581E+01  0.51100000000E-03 0.  1.
         12    1    3    3    0    0  0.30040031063E+02 -0.40045334083E+01 -0.12883271269E+02  0.32930509147E+02  0.00000000000E+00 0. -1.
</event>
<event>
 7    1  0.1549900E-008  0.4614232E+02  0.7816164E-02  0.1320468E+00
        -11   -1    0    0    0    0  0.00000000000E+00  0.00000000000E+00  0.45593999997E+02  0.45594000000E+02  0.51100000000E-03 0. -1.
         11   -1    0    0    0    0 -0.00000000000E+00 -0.00000000000E+00 -0.45593999997E+02  0.45594000000E+02  0.51100000000E-03 0.  1.
    9900012    2    1    2    0    0 -0.27882587823E+02  0.20499678342E+02  0.28834667164E+02  0.46142317119E+02  0.99999941414E+01 0.  0.
        -12    1    1    2    0    0  0.27882587823E+02 -0.20499678342E+02 -0.28834667164E+02  0.45045682881E+02  0.00000000000E+00 0.  1.
         11    1    3    3    0    0 -0.23341080011E-02 -0.25476019739E+00  0.42926076891E-01  0.25836237233E+00  0.51100000000E-03 0.  1.
        -11    1    3    3    0    0 -0.13082196358E+02  0.69633509964E+01  0.78601635943E+01  0.16775407317E+02  0.51100000000E-03 0. -1.
         12    1    3    3    0    0 -0.14798057357E+02  0.13791087543E+02  0.20931577492E+02  0.29108547430E+02  0.00000000000E+00 0. -1.
</event>
<event>
 7    1  0.1549900E-008  0.4614232E+02  0.7816164E-02  0.1320468E+00
        -11   -1    0    0    0    0  0.00000000000E+00  0.00000000000E+00  0.45593999997E+02  0.45594000000E+02  0.51100000000E-03 0.  1.
         11   -1    0    0    0    0 -0.00000000000E+00 -0.00000000000E+00 -0.45593999997E+02  0.45594000000E+02  0.51100000000E-03 0. -1.
    9900012    2    1    2    0    0 -0.21764992184E+02 -0.38303025564E+02  0.93955757023E+01  0.46142317689E+02  0.99999993432E+01 0.  0.
        -12    1    1    2    0    0  0.21764992184E+02  0.38303025564E+02 -0.93955757023E+01  0.45045682311E+02  0.00000000000E+00 0.  1.
         11    1    3    3    0    0 -0.15695408591E+02 -0.18289701238E+02  0.38211834501E+01  0.24402058631E+02  0.51100000000E-03 0. -1.
        -11    1    3    3    0    0 -0.62096078124E+01 -0.19700354228E+02  0.53753042635E+01  0.21343783219E+02  0.51100000000E-03 0.  1.
         12    1    3    3    0    0  0.14002421968E+00 -0.31297009764E+00  0.19908798875E+00  0.39647583959E+00  0.00000000000E+00 0. -1.
</event>
<event>
 7    1  0.1549900E-008  0.4614232E+02  0.7816164E-02  0.1320468E+00
        -11   -1    0    0    0    0  0.00000000000E+00  0.00000000000E+00  0.45593999997E+02  0.45594000000E+02  0.51100000000E-03 0. -1.
         11   -1    0    0    0    0 -0.00000000000E+00 -0.00000000000E+00 -0.45593999997E+02  0.45594000000E+02  0.51100000000E-03 0.  1.
    9900012    2    1    2    0    0  0.44653707854E+02 -0.31386221441E+01  0.50307989982E+01  0.46142317492E+02  0.99999975457E+01 0.  0.
        -12    1    1    2    0    0 -0.44653707854E+02  0.31386221441E+01 -0.50307989982E+01  0.45045682508E+02  0.00000000000E+00 0.  1.
         11    1    3    3    0    0  0.24587251151E+02 -0.10683573047E+01  0.54558758064E+01  0.25207952863E+02  0.51100000000E-03 0. -1.
        -11    1    3    3    0    0  0.62823252151E+01  0.16488425626E+01  0.10572130237E+01  0.65805768397E+01  0.51100000000E-03 0.  1.
        -12    1    3    3    0    0  0.13784131488E+02 -0.37191074021E+01 -0.14822898320E+01  0.14353787789E+02  0.00000000000E+00 0.  1.
</event>
<event>
 7    1  0.1549900E-008  0.4614232E+02  0.7816164E-02  0.1320468E+00
        -11   -1    0    0    0    0  0.00000000000E+00  0.00000000000E+00  0.45593999997E+02  0.45594000000E+02  0.51100000000E-03 0.  1.
         11   -1    0    0    0    0 -0.00000000000E+00 -0.00000000000E+00 -0.45593999997E+02  0.45594000000E+02  0.51100000000E-03 0. -1.
    9900012    2    1    2    0    0 -0.56642233749E+01 -0.14662794560E+02 -0.42214125830E+02  0.46142318849E+02  0.10000009923E+02 0.  0.
        -12    1    1    2    0    0  0.56642233749E+01  0.14662794560E+02  0.42214125830E+02  0.45045681151E+02  0.00000000000E+00 0.  1.
         11    1    3    3    0    0  0.15602330589E+01  0.10056197836E+00 -0.24526962184E+01  0.29086352316E+01  0.51100000000E-03 0. -1.
        -11    1    3    3    0    0 -0.29838198322E+01 -0.98884173335E+01 -0.21254808730E+02  0.23631565173E+02  0.51100000000E-03 0.  1.
        -12    1    3    3    0    0 -0.42406366015E+01 -0.48749392050E+01 -0.18506620882E+02  0.19602118444E+02  0.00000000000E+00 0.  1.
</event>
<event>
 7    1  0.1549900E-008  0.4614232E+02  0.7816164E-02  0.1320468E+00
        -11   -1    0    0    0    0  0.00000000000E+00  0.00000000000E+00  0.45593999997E+02  0.45594000000E+02  0.51100000000E-03 0. -1.
         11   -1    0    0    0    0 -0.00000000000E+00 -0.00000000000E+00 -0.45593999997E+02  0.45594000000E+02  0.51100000000E-03 0.  1.
    9900012    2    1    2    0    0 -0.36583289738E+02  0.23698737696E+02  0.11364251178E+02  0.46142318062E+02  0.10000002740E+02 0.  0.
        -12    1    1    2    0    0  0.36583289738E+02 -0.23698737696E+02 -0.11364251178E+02  0.45045681938E+02  0.00000000000E+00 0.  1.
         11    1    3    3    0    0 -0.12017378504E+02  0.85313784654E+01 -0.62329909393E+00  0.14750942568E+02  0.51100000000E-03 0. -1.
        -11    1    3    3    0    0 -0.17297523709E+02  0.10391553466E+02  0.97510240755E+01  0.22411407379E+02  0.51100000000E-03 0.  1.
        -12    1    3    3    0    0 -0.72683875248E+01  0.47758057647E+01  0.22365261967E+01  0.89799681147E+01  0.00000000000E+00 0.  1.
</event>
<event>
 7    1  0.1549900E-008  0.4614232E+02  0.7816164E-02  0.1320468E+00
        -11   -1    0    0    0    0  0.00000000000E+00  0.00000000000E+00  0.45593999997E+02  0.45594000000E+02  0.51100000000E-03 0. -1.
         11   -1    0    0    0    0 -0.00000000000E+00 -0.00000000000E+00 -0.45593999997E+02  0.45594000000E+02  0.51100000000E-03 0.  1.
    9900012    2    1    2    0    0 -0.44148607141E+02  0.32966048806E+01  0.83154352136E+01  0.46142316755E+02  0.99999908281E+01 0.  0.
        -12    1    1    2    0    0  0.44148607141E+02 -0.32966048806E+01 -0.83154352136E+01  0.45045683245E+02  0.00000000000E+00 0.  1.
         11    1    3    3    0    0 -0.14254611947E+02  0.27943768801E+01  0.55520870164E+01  0.15550825522E+02  0.51100000000E-03 0. -1.
        -11    1    3    3    0    0 -0.28451550297E+02  0.15868974638E+01  0.33541402009E+01  0.28692494047E+02  0.51100000000E-03 0.  1.
        -12    1    3    3    0    0 -0.14424448960E+01 -0.10846694633E+01 -0.59079200371E+00  0.18989971865E+01  0.00000000000E+00 0.  1.
</event>
<event>
 7    1  0.1549900E-008  0.4614232E+02  0.7816164E-02  0.1320468E+00
        -11   -1    0    0    0    0  0.00000000000E+00  0.00000000000E+00  0.45593999997E+02  0.45594000000E+02  0.51100000000E-03 0.  1.
         11   -1    0    0    0    0 -0.00000000000E+00 -0.00000000000E+00 -0.45593999997E+02  0.45594000000E+02  0.51100000000E-03 0. -1.
    9900012    2    1    2    0    0  0.11548290692E+02  0.45452067500E+01 -0.43302327738E+02  0.46142317523E+02  0.99999978259E+01 0.  0.
        -12    1    1    2    0    0 -0.11548290692E+02 -0.45452067500E+01  0.43302327738E+02  0.45045682477E+02  0.00000000000E+00 0.  1.
         11    1    3    3    0    0 -0.17751869212E+00  0.24615154039E+01 -0.69564333761E+01  0.73812286611E+01  0.51100000000E-03 0. -1.
        -11    1    3    3    0    0  0.25061533792E+01 -0.16173046514E+01 -0.13875297171E+02  0.14192263771E+02  0.51100000000E-03 0.  1.
        -12    1    3    3    0    0  0.92196560048E+01  0.37009959975E+01 -0.22470597191E+02  0.24568825091E+02  0.00000000000E+00 0.  1.
</event>
<event>
 7    1  0.1549900E-008  0.4614232E+02  0.7816164E-02  0.1320468E+00
        -11   -1    0    0    0    0  0.00000000000E+00  0.00000000000E+00  0.45593999997E+02  0.45594000000E+02  0.51100000000E-03 0.  1.
         11   -1    0    0    0    0 -0.00000000000E+00 -0.00000000000E+00 -0.45593999997E+02  0.45594000000E+02  0.51100000000E-03 0. -1.
    9900012    2    1    2    0    0  0.27121665599E+02 -0.32650047756E+02 -0.15083206423E+02  0.46142317861E+02  0.10000000912E+02 0.  0.
        -12    1    1    2    0    0 -0.27121665599E+02  0.32650047756E+02  0.15083206423E+02  0.45045682139E+02  0.00000000000E+00 0.  1.
         11    1    3    3    0    0  0.26162586577E+01 -0.54088959072E+01  0.72473646021E+00  0.60519589801E+01  0.51100000000E-03 0. -1.
        -11    1    3    3    0    0  0.70058584095E+01 -0.76658068044E+01 -0.26336977330E+01  0.10713683308E+02  0.51100000000E-03 0.  1.
         12    1    3    3    0    0  0.17499548532E+02 -0.19575345045E+02 -0.13174245150E+02  0.29376675573E+02  0.00000000000E+00 0. -1.
</event>
<event>
 7    1  0.1549900E-008  0.4614232E+02  0.7816164E-02  0.1320468E+00
        -11   -1    0    0    0    0  0.00000000000E+00  0.00000000000E+00  0.45593999997E+02  0.45594000000E+02  0.51100000000E-03 0.  1.
         11   -1    0    0    0    0 -0.00000000000E+00 -0.00000000000E+00 -0.45593999997E+02  0.45594000000E+02  0.51100000000E-03 0. -1.
    9900012    2    1    2    0    0  0.21449592379E+02 -0.15762286138E+02 -0.36339769928E+02  0.46142317010E+02  0.99999931550E+01 0.  0.
        -12    1    1    2    0    0 -0.21449592379E+02  0.15762286138E+02  0.36339769928E+02  0.45045682990E+02  0.00000000000E+00 0.  1.
         11    1    3    3    0    0  0.89234542080E+01 -0.83435976025E+01 -0.22137877448E+02  0.25284961422E+02  0.51100000000E-03 0. -1.
        -11    1    3    3    0    0  0.17354175400E+01 -0.22444548197E+01 -0.92727042211E+00  0.29848085655E+01  0.51100000000E-03 0.  1.
        -12    1    3    3    0    0  0.10790720632E+02 -0.51742337160E+01 -0.13274622058E+02  0.17872547023E+02  0.00000000000E+00 0.  1.
</event>
<event>
 7    1  0.1549900E-008  0.4614232E+02  0.7816164E-02  0.1320468E+00
        -11   -1    0    0    0    0  0.00000000000E+00  0.00000000000E+00  0.45593999997E+02  0.45594000000E+02  0.51100000000E-03 0.  1.
         11   -1    0    0    0    0 -0.00000000000E+00 -0.00000000000E+00 -0.45593999997E+02  0.45594000000E+02  0.51100000000E-03 0. -1.
    9900012    2    1    2    0    0 -0.30752219883E+02 -0.17634215130E+02 -0.27792962441E+02  0.46142319494E+02  0.10000015803E+02 0.  0.
        -12    1    1    2    0    0  0.30752219883E+02  0.17634215130E+02  0.27792962441E+02  0.45045680506E+02  0.00000000000E+00 0.  1.
         11    1    3    3    0    0 -0.39433431395E+01 -0.22663702505E+01 -0.34751806236E+01  0.57239208465E+01  0.51100000000E-03 0. -1.
        -11    1    3    3    0    0 -0.10455425253E+01 -0.29896440086E+01 -0.48686552104E+00  0.32043983471E+01  0.51100000000E-03 0.  1.
        -12    1    3    3    0    0 -0.25763334218E+02 -0.12378200871E+02 -0.23830916296E+02  0.37214000300E+02  0.00000000000E+00 0.  1.
</event>
<event>
 7    1  0.1549900E-008  0.4614232E+02  0.7816164E-02  0.1320468E+00
        -11   -1    0    0    0    0  0.00000000000E+00  0.00000000000E+00  0.45593999997E+02  0.45594000000E+02  0.51100000000E-03 0.  1.
         11   -1    0    0    0    0 -0.00000000000E+00 -0.00000000000E+00 -0.45593999997E+02  0.45594000000E+02  0.51100000000E-03 0. -1.
    9900012    2    1    2    0    0  0.15116200760E+01 -0.32692870777E+02 -0.30951650830E+02  0.46142317810E+02  0.10000000442E+02 0.  0.
        -12    1    1    2    0    0 -0.15116200760E+01  0.32692870777E+02  0.30951650830E+02  0.45045682190E+02  0.00000000000E+00 0.  1.
         11    1    3    3    0    0 -0.16499299008E+01 -0.77805059588E+01 -0.10149775843E+02  0.12894824216E+02  0.51100000000E-03 0. -1.
        -11    1    3    3    0    0  0.12559403716E+01 -0.33635438083E+01 -0.58392090305E+00  0.36375509686E+01  0.51100000000E-03 0.  1.
         12    1    3    3    0    0  0.19056096053E+01 -0.21548821010E+02 -0.20217954084E+02  0.29609942625E+02  0.00000000000E+00 0. -1.
</event>
<event>
 7    1  0.1549900E-008  0.4614232E+02  0.7816164E-02  0.1320468E+00
        -11   -1    0    0    0    0  0.00000000000E+00  0.00000000000E+00  0.45593999997E+02  0.45594000000E+02  0.51100000000E-03 0. -1.
         11   -1    0    0    0    0 -0.00000000000E+00 -0.00000000000E+00 -0.45593999997E+02  0.45594000000E+02  0.51100000000E-03 0.  1.
    9900012    2    1    2    0    0  0.43760573892E+02 -0.52124322889E+01  0.93250296428E+01  0.46142318125E+02  0.10000003323E+02 0.  0.
        -12    1    1    2    0    0 -0.43760573892E+02  0.52124322889E+01 -0.93250296428E+01  0.45045681875E+02  0.00000000000E+00 0.  1.
         11    1    3    3    0    0  0.61374822590E+01 -0.23564578191E+01  0.29356182979E+01  0.71999609016E+01  0.51100000000E-03 0. -1.
        -11    1    3    3    0    0  0.13584273050E+02  0.15213461216E+01  0.46814299011E+01  0.14448624658E+02  0.51100000000E-03 0.  1.
        -12    1    3    3    0    0  0.24038818583E+02 -0.43773205914E+01  0.17079814438E+01  0.24493732566E+02  0.00000000000E+00 0.  1.
</event>
<event>
 7    1  0.1549900E-008  0.4614232E+02  0.7816164E-02  0.1320468E+00
        -11   -1    0    0    0    0  0.00000000000E+00  0.00000000000E+00  0.45593999997E+02  0.45594000000E+02  0.51100000000E-03 0.  1.
         11   -1    0    0    0    0 -0.00000000000E+00 -0.00000000000E+00 -0.45593999997E+02  0.45594000000E+02  0.51100000000E-03 0. -1.
    9900012    2    1    2    0    0 -0.83189665116E+00  0.43500287689E+02 -0.11668173217E+02  0.46142319327E+02  0.10000014279E+02 0.  0.
        -12    1    1    2    0    0  0.83189665116E+00 -0.43500287689E+02  0.11668173217E+02  0.45045680673E+02  0.00000000000E+00 0.  1.
         11    1    3    3    0    0  0.23889482513E+01  0.14882675371E+02 -0.29977251952E+01  0.15368391475E+02  0.51100000000E-03 0. -1.
        -11    1    3    3    0    0 -0.30486343025E+00  0.29593520386E-01 -0.97936645066E+00  0.10261463801E+01  0.51100000000E-03 0.  1.
         12    1    3    3    0    0 -0.29159814722E+01  0.28588018798E+02 -0.76910815712E+01  0.29747781472E+02  0.00000000000E+00 0. -1.
</event>
<event>
 7    1  0.1549900E-008  0.4614232E+02  0.7816164E-02  0.1320468E+00
        -11   -1    0    0    0    0  0.00000000000E+00  0.00000000000E+00  0.45593999997E+02  0.45594000000E+02  0.51100000000E-03 0. -1.
         11   -1    0    0    0    0 -0.00000000000E+00 -0.00000000000E+00 -0.45593999997E+02  0.45594000000E+02  0.51100000000E-03 0.  1.
    9900012    2    1    2    0    0 -0.27753733967E+02  0.20393006536E+01  0.35421525356E+02  0.46142323684E+02  0.10000054005E+02 0.  0.
        -12    1    1    2    0    0  0.27753733967E+02 -0.20393006536E+01 -0.35421525356E+02  0.45045676316E+02  0.00000000000E+00 0.  1.
         11    1    3    3    0    0 -0.10685724070E+02  0.10173681279E+00  0.15433995784E+02  0.18772407288E+02  0.51100000000E-03 0. -1.
        -11    1    3    3    0    0 -0.11538804020E+02  0.73509163534E+00  0.78413268867E+01  0.13970353092E+02  0.51100000000E-03 0.  1.
        -12    1    3    3    0    0 -0.55292058775E+01  0.12024722055E+01  0.12146202685E+02  0.13399563303E+02  0.00000000000E+00 0.  1.
</event>
<event>
 7    1  0.1549900E-008  0.4614232E+02  0.7816164E-02  0.1320468E+00
        -11   -1    0    0    0    0  0.00000000000E+00  0.00000000000E+00  0.45593999997E+02  0.45594000000E+02  0.51100000000E-03 0. -1.
         11   -1    0    0    0    0 -0.00000000000E+00 -0.00000000000E+00 -0.45593999997E+02  0.45594000000E+02  0.51100000000E-03 0.  1.
    9900012    2    1    2    0    0  0.33767796074E+02 -0.29605060189E+02 -0.35199158030E+01  0.46142318212E+02  0.10000004115E+02 0.  0.
        -12    1    1    2    0    0 -0.33767796074E+02  0.29605060189E+02  0.35199158030E+01  0.45045681788E+02  0.00000000000E+00 0.  1.
         11    1    3    3    0    0  0.21026233040E+02 -0.16774242923E+02 -0.42806508113E+01  0.27236036296E+02  0.51100000000E-03 0. -1.
        -11    1    3    3    0    0  0.67003297476E+01 -0.32013642669E+01  0.12395057332E+01  0.75285806511E+01  0.51100000000E-03 0.  1.
         12    1    3    3    0    0  0.60412332860E+01 -0.96294529987E+01 -0.47877072498E+00  0.11377701265E+02  0.00000000000E+00 0. -1.
</event>
<event>
 7    1  0.1549900E-008  0.4614232E+02  0.7816164E-02  0.1320468E+00
        -11   -1    0    0    0    0  0.00000000000E+00  0.00000000000E+00  0.45593999997E+02  0.45594000000E+02  0.51100000000E-03 0. -1.
         11   -1    0    0    0    0 -0.00000000000E+00 -0.00000000000E+00 -0.45593999997E+02  0.45594000000E+02  0.51100000000E-03 0.  1.
    9900012    2    1    2    0    0  0.11278112250E+02 -0.34831070271E+02  0.26243363731E+02  0.46142318608E+02  0.10000007723E+02 0.  0.
        -12    1    1    2    0    0 -0.11278112250E+02  0.34831070271E+02 -0.26243363731E+02  0.45045681392E+02  0.00000000000E+00 0.  1.
         11    1    3    3    0    0 -0.11086402335E+01 -0.64450678451E+01  0.49250626047E+01  0.81868323921E+01  0.51100000000E-03 0. -1.
        -11    1    3    3    0    0  0.88805288188E+01 -0.23811388566E+02  0.19052841622E+02  0.31762506067E+02  0.51100000000E-03 0.  1.
        -12    1    3    3    0    0  0.35062236651E+01 -0.45746138601E+01  0.22654595049E+01  0.61929801491E+01  0.00000000000E+00 0.  1.
</event>
<event>
 7    1  0.1549900E-008  0.4614232E+02  0.7816164E-02  0.1320468E+00
        -11   -1    0    0    0    0  0.00000000000E+00  0.00000000000E+00  0.45593999997E+02  0.45594000000E+02  0.51100000000E-03 0.  1.
         11   -1    0    0    0    0 -0.00000000000E+00 -0.00000000000E+00 -0.45593999997E+02  0.45594000000E+02  0.51100000000E-03 0. -1.
    9900012    2    1    2    0    0  0.21294300124E+02 -0.22246718062E+02 -0.32874759838E+02  0.46142317447E+02  0.99999971338E+01 0.  0.
        -12    1    1    2    0    0 -0.21294300124E+02  0.22246718062E+02  0.32874759838E+02  0.45045682553E+02  0.00000000000E+00 0.  1.
         11    1    3    3    0    0  0.90549286303E+01 -0.48829450554E+01 -0.89569649730E+01  0.13640458449E+02  0.51100000000E-03 0. -1.
        -11    1    3    3    0    0  0.46258544620E+01 -0.67416179253E+01 -0.52586637762E+01  0.97211875163E+01  0.51100000000E-03 0.  1.
         12    1    3    3    0    0  0.76135170313E+01 -0.10622155082E+02 -0.18659131089E+02  0.22780671481E+02  0.00000000000E+00 0. -1.
</event>
<event>
 7    1  0.2164743E-008  0.4614232E+02  0.7816164E-02  0.1320468E+00
        -11   -1    0    0    0    0  0.00000000000E+00  0.00000000000E+00  0.45593999997E+02  0.45594000000E+02  0.51100000000E-03 0. -1.
         11   -1    0    0    0    0 -0.00000000000E+00 -0.00000000000E+00 -0.45593999997E+02  0.45594000000E+02  0.51100000000E-03 0.  1.
    9900012    2    1    2    0    0  0.26734639216E+02  0.22277341972E+02  0.28602307564E+02  0.46142324322E+02  0.10000059823E+02 0.  0.
        -12    1    1    2    0    0 -0.26734639216E+02 -0.22277341972E+02 -0.28602307564E+02  0.45045675678E+02  0.00000000000E+00 0.  1.
         11    1    3    3    0    0  0.25572068489E+02  0.17665892932E+02  0.25337322931E+02  0.40099805404E+02  0.51100000000E-03 0. -1.
        -11    1    3    3    0    0  0.10369145312E+01  0.26151257091E+01  0.91890264641E+00  0.29594689649E+01  0.51100000000E-03 0.  1.
         12    1    3    3    0    0  0.12565619569E+00  0.19963233305E+01  0.23460819867E+01  0.30830499523E+01  0.00000000000E+00 0. -1.
</event>
<event>
 7    1  0.1549900E-008  0.4614232E+02  0.7816164E-02  0.1320468E+00
        -11   -1    0    0    0    0  0.00000000000E+00  0.00000000000E+00  0.45593999997E+02  0.45594000000E+02  0.51100000000E-03 0. -1.
         11   -1    0    0    0    0 -0.00000000000E+00 -0.00000000000E+00 -0.45593999997E+02  0.45594000000E+02  0.51100000000E-03 0.  1.
    9900012    2    1    2    0    0  0.17229098301E+02 -0.37535176356E+02  0.17982833756E+02  0.46142316497E+02  0.99999884770E+01 0.  0.
        -12    1    1    2    0    0 -0.17229098301E+02  0.37535176356E+02 -0.17982833756E+02  0.45045683503E+02  0.00000000000E+00 0.  1.
         11    1    3    3    0    0  0.12724787059E+02 -0.25692586307E+02  0.14533319495E+02  0.32144153009E+02  0.51100000000E-03 0. -1.
        -11    1    3    3    0    0  0.75421880013E+00 -0.71848707976E+00  0.18870137837E+01  0.21554328946E+01  0.51100000000E-03 0.  1.
        -12    1    3    3    0    0  0.37500924413E+01 -0.11124102969E+02  0.15625004777E+01  0.11842730594E+02  0.00000000000E+00 0.  1.
</event>
<event>
 7    1  0.1549900E-008  0.4614232E+02  0.7816164E-02  0.1320468E+00
        -11   -1    0    0    0    0  0.00000000000E+00  0.00000000000E+00  0.45593999997E+02  0.45594000000E+02  0.51100000000E-03 0.  1.
         11   -1    0    0    0    0 -0.00000000000E+00 -0.00000000000E+00 -0.45593999997E+02  0.45594000000E+02  0.51100000000E-03 0. -1.
    9900012    2    1    2    0    0 -0.22790782417E+02  0.38854312086E+02  0.19022622993E+00  0.46142317445E+02  0.99999971195E+01 0.  0.
        -12    1    1    2    0    0  0.22790782417E+02 -0.38854312086E+02 -0.19022622993E+00  0.45045682555E+02  0.00000000000E+00 0.  1.
         11    1    3    3    0    0 -0.70236963241E+01  0.95548024003E+01 -0.21789779445E+01  0.12057134987E+02  0.51100000000E-03 0. -1.
        -11    1    3    3    0    0 -0.32765406731E+01  0.78106259182E+01 -0.23408213590E+01  0.87875503363E+01  0.51100000000E-03 0.  1.
        -12    1    3    3    0    0 -0.12490545420E+02  0.21488883767E+02  0.47100255334E+01  0.25297632122E+02  0.00000000000E+00 0.  1.
</event>
<event>
 7    1  0.1549900E-008  0.4614232E+02  0.7816164E-02  0.1320468E+00
        -11   -1    0    0    0    0  0.00000000000E+00  0.00000000000E+00  0.45593999997E+02  0.45594000000E+02  0.51100000000E-03 0. -1.
         11   -1    0    0    0    0 -0.00000000000E+00 -0.00000000000E+00 -0.45593999997E+02  0.45594000000E+02  0.51100000000E-03 0.  1.
    9900012    2    1    2    0    0 -0.15409782024E+02 -0.39778970116E+02  0.14466709044E+02  0.46142317453E+02  0.99999971931E+01 0.  0.
        -12    1    1    2    0    0  0.15409782024E+02  0.39778970116E+02 -0.14466709044E+02  0.45045682547E+02  0.00000000000E+00 0.  1.
         11    1    3    3    0    0 -0.10479603219E+02 -0.27204460702E+02  0.11678444974E+02  0.31405267759E+02  0.51100000000E-03 0. -1.
        -11    1    3    3    0    0 -0.20239815254E+01 -0.89362585902E+00  0.14048775098E+01  0.26208299200E+01  0.51100000000E-03 0.  1.
         12    1    3    3    0    0 -0.29061972795E+01 -0.11680883555E+02  0.13833865609E+01  0.12116219775E+02  0.00000000000E+00 0. -1.
</event>
<event>
 7    1  0.1549900E-008  0.4614232E+02  0.7816164E-02  0.1320468E+00
        -11   -1    0    0    0    0  0.00000000000E+00  0.00000000000E+00  0.45593999997E+02  0.45594000000E+02  0.51100000000E-03 0. -1.
         11   -1    0    0    0    0 -0.00000000000E+00 -0.00000000000E+00 -0.45593999997E+02  0.45594000000E+02  0.51100000000E-03 0.  1.
    9900012    2    1    2    0    0 -0.70721659174E+01  0.42226020770E+02  0.14002183442E+02  0.46142317610E+02  0.99999986252E+01 0.  0.
        -12    1    1    2    0    0  0.70721659174E+01 -0.42226020770E+02 -0.14002183442E+02  0.45045682390E+02  0.00000000000E+00 0.  1.
         11    1    3    3    0    0 -0.20097938081E+01  0.64786165174E+01  0.51488230581E+01  0.85159921486E+01  0.51100000000E-03 0. -1.
        -11    1    3    3    0    0 -0.50283091394E+00  0.13422572167E+02  0.78714015878E+00  0.13455031490E+02  0.51100000000E-03 0.  1.
        -12    1    3    3    0    0 -0.45595411954E+01  0.22324832086E+02  0.80662202251E+01  0.24171293972E+02  0.00000000000E+00 0.  1.
</event>
<event>
 7    1  0.1549900E-008  0.4614232E+02  0.7816164E-02  0.1320468E+00
        -11   -1    0    0    0    0  0.00000000000E+00  0.00000000000E+00  0.45593999997E+02  0.45594000000E+02  0.51100000000E-03 0. -1.
         11   -1    0    0    0    0 -0.00000000000E+00 -0.00000000000E+00 -0.45593999997E+02  0.45594000000E+02  0.51100000000E-03 0.  1.
    9900012    2    1    2    0    0 -0.41502460025E+02  0.16180069743E+02  0.66981007889E+01  0.46142318751E+02  0.10000009029E+02 0.  0.
        -12    1    1    2    0    0  0.41502460025E+02 -0.16180069743E+02 -0.66981007889E+01  0.45045681249E+02  0.00000000000E+00 0.  1.
         11    1    3    3    0    0 -0.23153141048E+02  0.58935404441E+01 -0.29686595744E+00  0.23893302179E+02  0.51100000000E-03 0. -1.
        -11    1    3    3    0    0 -0.16527022063E+02  0.92974188230E+01  0.56854640264E+01  0.19796690544E+02  0.51100000000E-03 0.  1.
        -12    1    3    3    0    0 -0.18222969133E+01  0.98911047577E+00  0.13095027200E+01  0.24523260279E+01  0.00000000000E+00 0.  1.
</event>
<event>
 7    1  0.1549900E-008  0.4614232E+02  0.7816164E-02  0.1320468E+00
        -11   -1    0    0    0    0  0.00000000000E+00  0.00000000000E+00  0.45593999997E+02  0.45594000000E+02  0.51100000000E-03 0.  1.
         11   -1    0    0    0    0 -0.00000000000E+00 -0.00000000000E+00 -0.45593999997E+02  0.45594000000E+02  0.51100000000E-03 0. -1.
    9900012    2    1    2    0    0 -0.33509593020E+02 -0.27432496409E+02 -0.12396725193E+02  0.46142317864E+02  0.10000000938E+02 0.  0.
        -12    1    1    2    0    0  0.33509593020E+02  0.27432496409E+02  0.12396725193E+02  0.45045682136E+02  0.00000000000E+00 0.  1.
         11    1    3    3    0    0 -0.10429821333E+02 -0.90914073602E+01 -0.48133884334E+01  0.14649353887E+02  0.51100000000E-03 0. -1.
        -11    1    3    3    0    0 -0.23159401214E+02 -0.17289933958E+02 -0.58858686794E+01  0.29494798376E+02  0.51100000000E-03 0.  1.
        -12    1    3    3    0    0  0.79629527520E-01 -0.10511550908E+01 -0.16974680799E+01  0.19981656010E+01  0.00000000000E+00 0.  1.
</event>
<event>
 7    1  0.1549900E-008  0.4614232E+02  0.7816164E-02  0.1320468E+00
        -11   -1    0    0    0    0  0.00000000000E+00  0.00000000000E+00  0.45593999997E+02  0.45594000000E+02  0.51100000000E-03 0.  1.
         11   -1    0    0    0    0 -0.00000000000E+00 -0.00000000000E+00 -0.45593999997E+02  0.45594000000E+02  0.51100000000E-03 0. -1.
    9900012    2    1    2    0    0  0.35562591162E+01 -0.84099626807E+01 -0.44110532880E+02  0.46142316942E+02  0.99999925318E+01 0.  0.
        -12    1    1    2    0    0 -0.35562591162E+01  0.84099626807E+01  0.44110532880E+02  0.45045683058E+02  0.00000000000E+00 0.  1.
         11    1    3    3    0    0  0.90044618249E+00 -0.81452987829E+00 -0.51708680028E+00  0.13197125711E+01  0.51100000000E-03 0. -1.
        -11    1    3    3    0    0  0.24899788102E+01 -0.57826954271E+01 -0.16379783465E+02  0.17548130029E+02  0.51100000000E-03 0.  1.
         12    1    3    3    0    0  0.16583412358E+00 -0.18127373753E+01 -0.27213662615E+02  0.27274474342E+02  0.00000000000E+00 0. -1.
</event>
<event>
 7    1  0.1549900E-008  0.4614232E+02  0.7816164E-02  0.1320468E+00
        -11   -1    0    0    0    0  0.00000000000E+00  0.00000000000E+00  0.45593999997E+02  0.45594000000E+02  0.51100000000E-03 0.  1.
         11   -1    0    0    0    0 -0.00000000000E+00 -0.00000000000E+00 -0.45593999997E+02  0.45594000000E+02  0.51100000000E-03 0. -1.
    9900012    2    1    2    0    0 -0.31884656798E+02 -0.23113391681E+02 -0.21869003940E+02  0.46142317105E+02  0.99999940192E+01 0.  0.
        -12    1    1    2    0    0  0.31884656798E+02  0.23113391681E+02  0.21869003940E+02  0.45045682895E+02  0.00000000000E+00 0.  1.
         11    1    3    3    0    0 -0.84193249399E+01 -0.43221182458E+01 -0.45197305085E+01  0.10487788266E+02  0.51100000000E-03 0.  1.
        -11    1    3    3    0    0 -0.13604166671E+02 -0.14110617641E+02 -0.76113853571E+01  0.21026556265E+02  0.51100000000E-03 0. -1.
        -12    1    3    3    0    0 -0.98611651864E+01 -0.46806557945E+01 -0.97378880747E+01  0.14627972575E+02  0.00000000000E+00 0.  1.
</event>
<event>
 7    1  0.1549900E-008  0.4614232E+02  0.7816164E-02  0.1320468E+00
        -11   -1    0    0    0    0  0.00000000000E+00  0.00000000000E+00  0.45593999997E+02  0.45594000000E+02  0.51100000000E-03 0.  1.
         11   -1    0    0    0    0 -0.00000000000E+00 -0.00000000000E+00 -0.45593999997E+02  0.45594000000E+02  0.51100000000E-03 0. -1.
    9900012    2    1    2    0    0  0.31437925594E+02 -0.10729652033E+02 -0.30424411684E+02  0.46142318467E+02  0.10000006439E+02 0.  0.
        -12    1    1    2    0    0 -0.31437925594E+02  0.10729652033E+02  0.30424411684E+02  0.45045681533E+02  0.00000000000E+00 0.  1.
         11    1    3    3    0    0  0.11470124769E+02 -0.19359151208E+01 -0.62725236074E+01  0.13215751293E+02  0.51100000000E-03 0. -1.
        -11    1    3    3    0    0  0.55607937878E+01 -0.48456562989E+01 -0.91924784750E+01  0.11785774191E+02  0.51100000000E-03 0.  1.
         12    1    3    3    0    0  0.14407007037E+02 -0.39480806137E+01 -0.14959409601E+02  0.21140792983E+02  0.00000000000E+00 0. -1.
</event>
<event>
 7    1  0.1549900E-008  0.4614233E+02  0.7816164E-02  0.1320468E+00
        -11   -1    0    0    0    0  0.00000000000E+00  0.00000000000E+00  0.45593999997E+02  0.45594000000E+02  0.51100000000E-03 0. -1.
         11   -1    0    0    0    0 -0.00000000000E+00 -0.00000000000E+00 -0.45593999997E+02  0.45594000000E+02  0.51100000000E-03 0.  1.
    9900012    2    1    2    0    0 -0.42980847528E+02 -0.23562170582E+01 -0.13274327797E+02  0.46142325496E+02  0.10000070534E+02 0.  0.
        -12    1    1    2    0    0  0.42980847528E+02  0.23562170582E+01  0.13274327797E+02  0.45045674504E+02  0.00000000000E+00 0.  1.
         11    1    3    3    0    0 -0.24858143071E+02  0.82351761195E+00 -0.59479779570E+01  0.25573108928E+02  0.51100000000E-03 0. -1.
        -11    1    3    3    0    0 -0.78553344011E+00  0.26712791307E+00  0.76525539388E+00  0.11287321146E+01  0.51100000000E-03 0.  1.
        -12    1    3    3    0    0 -0.17337171017E+02 -0.34468625833E+01 -0.80916052340E+01  0.19440484453E+02  0.00000000000E+00 0.  1.
</event>
<event>
 7    1  0.1549900E-008  0.4614232E+02  0.7816164E-02  0.1320468E+00
        -11   -1    0    0    0    0  0.00000000000E+00  0.00000000000E+00  0.45593999997E+02  0.45594000000E+02  0.51100000000E-03 0. -1.
         11   -1    0    0    0    0 -0.00000000000E+00 -0.00000000000E+00 -0.45593999997E+02  0.45594000000E+02  0.51100000000E-03 0.  1.
    9900012    2    1    2    0    0 -0.23049984018E+02 -0.10520925383E+02  0.37244084438E+02  0.46142318079E+02  0.10000002899E+02 0.  0.
        -12    1    1    2    0    0  0.23049984018E+02  0.10520925383E+02 -0.37244084438E+02  0.45045681921E+02  0.00000000000E+00 0.  1.
         11    1    3    3    0    0 -0.90944171120E+01 -0.31616468906E+01  0.13198264812E+02  0.16337032410E+02  0.51100000000E-03 0. -1.
        -11    1    3    3    0    0 -0.83093781052E+01 -0.43609651635E+01  0.20377953738E+02  0.22434900947E+02  0.51100000000E-03 0.  1.
        -12    1    3    3    0    0 -0.56461888003E+01 -0.29983133284E+01  0.36678658876E+01  0.73703847222E+01  0.00000000000E+00 0.  1.
</event>
<event>
 7    1  0.1549900E-008  0.4614232E+02  0.7816164E-02  0.1320468E+00
        -11   -1    0    0    0    0  0.00000000000E+00  0.00000000000E+00  0.45593999997E+02  0.45594000000E+02  0.51100000000E-03 0.  1.
         11   -1    0    0    0    0 -0.00000000000E+00 -0.00000000000E+00 -0.45593999997E+02  0.45594000000E+02  0.51100000000E-03 0. -1.
    9900012    2    1    2    0    0  0.18535874997E+02 -0.34519800900E+02 -0.22224270327E+02  0.46142317547E+02  0.99999980451E+01 0.  0.
        -12    1    1    2    0    0 -0.18535874997E+02  0.34519800900E+02  0.22224270327E+02  0.45045682453E+02  0.00000000000E+00 0.  1.
         11    1    3    3    0    0  0.14748087031E+02 -0.24783971684E+02 -0.15614411530E+02  0.32795749286E+02  0.51100000000E-03 0. -1.
        -11    1    3    3    0    0 -0.11012164052E+01 -0.29729513142E+01 -0.11419172751E+01  0.33697318012E+01  0.51100000000E-03 0.  1.
        -12    1    3    3    0    0  0.48890043715E+01 -0.67628779017E+01 -0.54679415217E+01  0.99768364596E+01  0.00000000000E+00 0.  1.
</event>
<event>
 7    1  0.1549900E-008  0.4614231E+02  0.7816164E-02  0.1320468E+00
        -11   -1    0    0    0    0  0.00000000000E+00  0.00000000000E+00  0.45593999997E+02  0.45594000000E+02  0.51100000000E-03 0. -1.
         11   -1    0    0    0    0 -0.00000000000E+00 -0.00000000000E+00 -0.45593999997E+02  0.45594000000E+02  0.51100000000E-03 0.  1.
    9900012    2    1    2    0    0  0.31212059540E+02  0.24817142050E+02  0.20953063962E+02  0.46142311087E+02  0.99999391429E+01 0.  0.
        -12    1    1    2    0    0 -0.31212059540E+02 -0.24817142050E+02 -0.20953063962E+02  0.45045688913E+02  0.00000000000E+00 0.  1.
         11    1    3    3    0    0  0.12623771174E+02  0.73883904560E+01  0.11661143438E+02  0.18706420789E+02  0.51100000000E-03 0. -1.
        -11    1    3    3    0    0  0.71307678879E+01  0.83544282633E+01  0.22485582431E+01  0.11211616151E+02  0.51100000000E-03 0.  1.
        -12    1    3    3    0    0  0.11457520477E+02  0.90743233305E+01  0.70433622808E+01  0.16224274147E+02  0.00000000000E+00 0.  1.
</event>
<event>
 7    1  0.1787057E-008  0.4614232E+02  0.7816164E-02  0.1320468E+00
        -11   -1    0    0    0    0  0.00000000000E+00  0.00000000000E+00  0.45593999997E+02  0.45594000000E+02  0.51100000000E-03 0. -1.
         11   -1    0    0    0    0 -0.00000000000E+00 -0.00000000000E+00 -0.45593999997E+02  0.45594000000E+02  0.51100000000E-03 0.  1.
    9900012    2    1    2    0    0  0.56526934536E+01  0.23998421556E+02  0.37699289007E+02  0.46142316832E+02  0.99999915263E+01 0.  0.
        -12    1    1    2    0    0 -0.56526934536E+01 -0.23998421556E+02 -0.37699289007E+02  0.45045683168E+02  0.00000000000E+00 0.  1.
         11    1    3    3    0    0  0.39897507437E+00  0.97882005168E+01  0.17926278275E+02  0.20428399436E+02  0.51100000000E-03 0. -1.
        -11    1    3    3    0    0  0.64214452427E-01  0.57640314028E+00 -0.48081715629E+00  0.75335879561E+00  0.51100000000E-03 0.  1.
         12    1    3    3    0    0  0.51895039268E+01  0.13633817899E+02  0.20253827888E+02  0.24960558600E+02  0.00000000000E+00 0. -1.
</event>
<event>
 7    1  0.1549900E-008  0.4614232E+02  0.7816164E-02  0.1320468E+00
        -11   -1    0    0    0    0  0.00000000000E+00  0.00000000000E+00  0.45593999997E+02  0.45594000000E+02  0.51100000000E-03 0.  1.
         11   -1    0    0    0    0 -0.00000000000E+00 -0.00000000000E+00 -0.45593999997E+02  0.45594000000E+02  0.51100000000E-03 0. -1.
    9900012    2    1    2    0    0 -0.14804065895E+02  0.38196414848E+02 -0.18734648615E+02  0.46142317266E+02  0.99999954851E+01 0.  0.
        -12    1    1    2    0    0  0.14804065895E+02 -0.38196414848E+02  0.18734648615E+02  0.45045682734E+02  0.00000000000E+00 0.  1.
         11    1    3    3    0    0 -0.13129240515E+02  0.26429686092E+02 -0.92361340268E+01  0.30922668634E+02  0.51100000000E-03 0. -1.
        -11    1    3    3    0    0 -0.25740993132E+00  0.30211215048E+01 -0.24412561551E+01  0.38927068854E+01  0.51100000000E-03 0.  1.
         12    1    3    3    0    0 -0.14174154487E+01  0.87456072511E+01 -0.70572584328E+01  0.11326941747E+02  0.00000000000E+00 0. -1.
</event>
<event>
 7    1  0.1549900E-008  0.4614232E+02  0.7816164E-02  0.1320468E+00
        -11   -1    0    0    0    0  0.00000000000E+00  0.00000000000E+00  0.45593999997E+02  0.45594000000E+02  0.51100000000E-03 0. -1.
         11   -1    0    0    0    0 -0.00000000000E+00 -0.00000000000E+00 -0.45593999997E+02  0.45594000000E+02  0.51100000000E-03 0.  1.
    9900012    2    1    2    0    0 -0.39251395347E+02  0.18610422265E+02  0.11920302388E+02  0.46142318048E+02  0.10000002613E+02 0.  0.
        -12    1    1    2    0    0  0.39251395347E+02 -0.18610422265E+02 -0.11920302388E+02  0.45045681952E+02  0.00000000000E+00 0.  1.
         11    1    3    3    0    0 -0.69087673893E+01  0.52736121937E+00  0.20610980684E+01  0.72289212337E+01  0.51100000000E-03 0.  1.
        -11    1    3    3    0    0 -0.17317654991E+02  0.13313639463E+02  0.65652095352E+01  0.22809124197E+02  0.51100000000E-03 0. -1.
         12    1    3    3    0    0 -0.15024972966E+02  0.47694215821E+01  0.32939947844E+01  0.16104272616E+02  0.00000000000E+00 0. -1.
</event>
<event>
 7    1  0.1669848E-008  0.4614232E+02  0.7816164E-02  0.1320468E+00
        -11   -1    0    0    0    0  0.00000000000E+00  0.00000000000E+00  0.45593999997E+02  0.45594000000E+02  0.51100000000E-03 0. -1.
         11   -1    0    0    0    0 -0.00000000000E+00 -0.00000000000E+00 -0.45593999997E+02  0.45594000000E+02  0.51100000000E-03 0.  1.
    9900012    2    1    2    0    0 -0.16242432510E+02  0.41703692111E+02  0.51087097162E+01  0.46142318026E+02  0.10000002420E+02 0.  0.
        -12    1    1    2    0    0  0.16242432510E+02 -0.41703692111E+02 -0.51087097162E+01  0.45045681974E+02  0.00000000000E+00 0.  1.
         11    1    3    3    0    0 -0.15790243955E+01  0.13249922691E+02  0.27006547804E+01  0.13614231740E+02  0.51100000000E-03 0. -1.
        -11    1    3    3    0    0 -0.50902016135E+01  0.56637166428E+01 -0.53860604344E+00  0.76339986513E+01  0.51100000000E-03 0.  1.
         12    1    3    3    0    0 -0.95732065012E+01  0.22790052776E+02  0.29466609793E+01  0.24894087635E+02  0.00000000000E+00 0. -1.
</event>
<event>
 7    1  0.1549900E-008  0.4614232E+02  0.7816164E-02  0.1320468E+00
        -11   -1    0    0    0    0  0.00000000000E+00  0.00000000000E+00  0.45593999997E+02  0.45594000000E+02  0.51100000000E-03 0. -1.
         11   -1    0    0    0    0 -0.00000000000E+00 -0.00000000000E+00 -0.45593999997E+02  0.45594000000E+02  0.51100000000E-03 0.  1.
    9900012    2    1    2    0    0 -0.12964579964E+02 -0.19583838158E+02  0.38438346027E+02  0.46142317677E+02  0.99999992347E+01 0.  0.
        -12    1    1    2    0    0  0.12964579964E+02  0.19583838158E+02 -0.38438346027E+02  0.45045682323E+02  0.00000000000E+00 0.  1.
         11    1    3    3    0    0 -0.73106526848E+01 -0.62400756630E+01  0.19148781918E+02  0.21425686364E+02  0.51100000000E-03 0. -1.
        -11    1    3    3    0    0 -0.18694328830E+01 -0.86668330503E+01  0.80850334158E+01  0.11999022461E+02  0.51100000000E-03 0.  1.
        -12    1    3    3    0    0 -0.37844943961E+01 -0.46769294446E+01  0.11204530693E+02  0.12717608852E+02  0.00000000000E+00 0.  1.
</event>
<event>
 7    1  0.1549900E-008  0.4614231E+02  0.7816164E-02  0.1320468E+00
        -11   -1    0    0    0    0  0.00000000000E+00  0.00000000000E+00  0.45593999997E+02  0.45594000000E+02  0.51100000000E-03 0.  1.
         11   -1    0    0    0    0 -0.00000000000E+00 -0.00000000000E+00 -0.45593999997E+02  0.45594000000E+02  0.51100000000E-03 0. -1.
    9900012    2    1    2    0    0  0.74048128628E+01  0.37387054153E+02 -0.24010226855E+02  0.46142311356E+02  0.99999415919E+01 0.  0.
        -12    1    1    2    0    0 -0.74048128628E+01 -0.37387054153E+02  0.24010226855E+02  0.45045688644E+02  0.00000000000E+00 0.  1.
         11    1    3    3    0    0  0.42757823568E+01  0.46876559514E+01 -0.41804518349E+01  0.75981978710E+01  0.51100000000E-03 0. -1.
        -11    1    3    3    0    0  0.27167023528E+01  0.16196377264E+02 -0.82411096621E+01  0.18374411470E+02  0.51100000000E-03 0.  1.
        -12    1    3    3    0    0  0.41232815325E+00  0.16503020937E+02 -0.11588665358E+02  0.20169702014E+02  0.00000000000E+00 0.  1.
</event>
<event>
 7    1  0.1549900E-008  0.4614232E+02  0.7816164E-02  0.1320468E+00
        -11   -1    0    0    0    0  0.00000000000E+00  0.00000000000E+00  0.45593999997E+02  0.45594000000E+02  0.51100000000E-03 0.  1.
         11   -1    0    0    0    0 -0.00000000000E+00 -0.00000000000E+00 -0.45593999997E+02  0.45594000000E+02  0.51100000000E-03 0. -1.
    9900012    2    1    2    0    0 -0.33648029514E+02  0.19335106776E+02 -0.22870883245E+02  0.46142317137E+02  0.99999943071E+01 0.  0.
        -12    1    1    2    0    0  0.33648029514E+02 -0.19335106776E+02  0.22870883245E+02  0.45045682863E+02  0.00000000000E+00 0.  1.
         11    1    3    3    0    0 -0.23457160140E+02  0.87502064525E+01 -0.16777864407E+02  0.30138035920E+02  0.51100000000E-03 0. -1.
        -11    1    3    3    0    0 -0.29723241355E+01  0.41264050844E+01 -0.16373656917E+01  0.53425552273E+01  0.51100000000E-03 0.  1.
         12    1    3    3    0    0 -0.72185452382E+01  0.64584952394E+01 -0.44556531454E+01  0.10661725989E+02  0.00000000000E+00 0. -1.
</event>
<event>
 7    1  0.1549900E-008  0.4614232E+02  0.7816164E-02  0.1320468E+00
        -11   -1    0    0    0    0  0.00000000000E+00  0.00000000000E+00  0.45593999997E+02  0.45594000000E+02  0.51100000000E-03 0.  1.
         11   -1    0    0    0    0 -0.00000000000E+00 -0.00000000000E+00 -0.45593999997E+02  0.45594000000E+02  0.51100000000E-03 0. -1.
    9900012    2    1    2    0    0  0.94185803805E+01  0.23621902949E+02 -0.37180767706E+02  0.46142318270E+02  0.10000004641E+02 0.  0.
        -12    1    1    2    0    0 -0.94185803805E+01 -0.23621902949E+02  0.37180767706E+02  0.45045681730E+02  0.00000000000E+00 0.  1.
         11    1    3    3    0    0  0.32093862835E+01  0.16062788207E+01 -0.98250244812E+01  0.10459990358E+02  0.51100000000E-03 0. -1.
        -11    1    3    3    0    0  0.13923527759E+01  0.64097451893E+01 -0.71919027126E+01  0.97338042169E+01  0.51100000000E-03 0.  1.
         12    1    3    3    0    0  0.48168413211E+01  0.15605878939E+02 -0.20163840512E+02  0.25948523695E+02  0.00000000000E+00 0. -1.
</event>
<event>
 7    1  0.1549900E-008  0.4614232E+02  0.7816164E-02  0.1320468E+00
        -11   -1    0    0    0    0  0.00000000000E+00  0.00000000000E+00  0.45593999997E+02  0.45594000000E+02  0.51100000000E-03 0.  1.
         11   -1    0    0    0    0 -0.00000000000E+00 -0.00000000000E+00 -0.45593999997E+02  0.45594000000E+02  0.51100000000E-03 0. -1.
    9900012    2    1    2    0    0  0.26221149727E+01 -0.42458913532E+02 -0.14814802988E+02  0.46142320820E+02  0.10000027890E+02 0.  0.
        -12    1    1    2    0    0 -0.26221149727E+01  0.42458913532E+02  0.14814802988E+02  0.45045679180E+02  0.00000000000E+00 0.  1.
         11    1    3    3    0    0 -0.11050181814E+01 -0.72090562066E+01 -0.34802782402E+01  0.80810824437E+01  0.51100000000E-03 0. -1.
        -11    1    3    3    0    0  0.14204420472E+01 -0.23382765055E+02 -0.35776932608E+01  0.23697494521E+02  0.51100000000E-03 0.  1.
        -12    1    3    3    0    0  0.23066911069E+01 -0.11867092270E+02 -0.77568314875E+01  0.14363743855E+02  0.00000000000E+00 0.  1.
</event>
<event>
 7    1  0.1549900E-008  0.4614232E+02  0.7816164E-02  0.1320468E+00
        -11   -1    0    0    0    0  0.00000000000E+00  0.00000000000E+00  0.45593999997E+02  0.45594000000E+02  0.51100000000E-03 0.  1.
         11   -1    0    0    0    0 -0.00000000000E+00 -0.00000000000E+00 -0.45593999997E+02  0.45594000000E+02  0.51100000000E-03 0. -1.
    9900012    2    1    2    0    0 -0.15336756849E+02  0.19415474644E+01 -0.42309901153E+02  0.46142318156E+02  0.10000003598E+02 0.  0.
        -12    1    1    2    0    0  0.15336756849E+02 -0.19415474644E+01  0.42309901153E+02  0.45045681844E+02  0.00000000000E+00 0.  1.
         11    1    3    3    0    0 -0.27222711152E+01 -0.12053922790E+01 -0.25521970046E+01  0.39214079592E+01  0.51100000000E-03 0. -1.
        -11    1    3    3    0    0 -0.65929346972E-01  0.15479166792E+01 -0.48772044075E+01  0.51173739182E+01  0.51100000000E-03 0.  1.
        -12    1    3    3    0    0 -0.12548556387E+02  0.15990230642E+01 -0.34880499741E+02  0.37103536278E+02  0.00000000000E+00 0.  1.
</event>
<event>
 7    1  0.1549900E-008  0.4614232E+02  0.7816164E-02  0.1320468E+00
        -11   -1    0    0    0    0  0.00000000000E+00  0.00000000000E+00  0.45593999997E+02  0.45594000000E+02  0.51100000000E-03 0.  1.
         11   -1    0    0    0    0 -0.00000000000E+00 -0.00000000000E+00 -0.45593999997E+02  0.45594000000E+02  0.51100000000E-03 0. -1.
    9900012    2    1    2    0    0 -0.20590751377E+02  0.27931003100E+02 -0.28722699615E+02  0.46142318191E+02  0.10000003924E+02 0.  0.
        -12    1    1    2    0    0  0.20590751377E+02 -0.27931003100E+02  0.28722699615E+02  0.45045681809E+02  0.00000000000E+00 0.  1.
         11    1    3    3    0    0 -0.36018857105E+01  0.62887279981E+01 -0.77703249427E+01  0.10625423779E+02  0.51100000000E-03 0. -1.
        -11    1    3    3    0    0 -0.11521326887E+02  0.19646775846E+02 -0.17736179861E+02  0.28867089405E+02  0.51100000000E-03 0.  1.
        -12    1    3    3    0    0 -0.54675387787E+01  0.19954992562E+01 -0.32161948114E+01  0.66498050079E+01  0.00000000000E+00 0.  1.
</event>
<event>
 7    1  0.1549900E-008  0.4614232E+02  0.7816164E-02  0.1320468E+00
        -11   -1    0    0    0    0  0.00000000000E+00  0.00000000000E+00  0.45593999997E+02  0.45594000000E+02  0.51100000000E-03 0.  1.
         11   -1    0    0    0    0 -0.00000000000E+00 -0.00000000000E+00 -0.45593999997E+02  0.45594000000E+02  0.51100000000E-03 0. -1.
    9900012    2    1    2    0    0 -0.16771954364E+01  0.42463674138E+02 -0.14937767469E+02  0.46142317601E+02  0.99999985419E+01 0.  0.
        -12    1    1    2    0    0  0.16771954364E+01 -0.42463674138E+02  0.14937767469E+02  0.45045682399E+02  0.00000000000E+00 0.  1.
         11    1    3    3    0    0 -0.22014612166E+01  0.25614226185E+02 -0.10205881291E+02  0.27660351186E+02  0.51100000000E-03 0. -1.
        -11    1    3    3    0    0  0.12390580747E+01  0.13812108095E+02 -0.14334263434E+01  0.13941459977E+02  0.51100000000E-03 0.  1.
        -12    1    3    3    0    0 -0.71479229459E+00  0.30373398575E+01 -0.32984598347E+01  0.45405064382E+01  0.00000000000E+00 0.  1.
</event>
<event>
 7    1  0.1866597E-008  0.4614231E+02  0.7816164E-02  0.1320468E+00
        -11   -1    0    0    0    0  0.00000000000E+00  0.00000000000E+00  0.45593999997E+02  0.45594000000E+02  0.51100000000E-03 0.  1.
         11   -1    0    0    0    0 -0.00000000000E+00 -0.00000000000E+00 -0.45593999997E+02  0.45594000000E+02  0.51100000000E-03 0. -1.
    9900012    2    1    2    0    0  0.33852392093E+01  0.37086668380E+02 -0.25342316670E+02  0.46142313967E+02  0.99999653981E+01 0.  0.
        -12    1    1    2    0    0 -0.33852392093E+01 -0.37086668380E+02  0.25342316670E+02  0.45045686033E+02  0.00000000000E+00 0.  1.
         11    1    3    3    0    0  0.23326407545E+01  0.32012427824E+02 -0.17326489714E+02  0.36475251804E+02  0.51100000000E-03 0. -1.
        -11    1    3    3    0    0  0.48648381861E+00  0.42493331706E+01 -0.55563732739E+01  0.70119029600E+01  0.51100000000E-03 0.  1.
         12    1    3    3    0    0  0.56611463618E+00  0.82490738477E+00 -0.24594536825E+01  0.26551592026E+01  0.00000000000E+00 0. -1.
</event>
<event>
 7    1  0.1549900E-008  0.4614232E+02  0.7816164E-02  0.1320468E+00
        -11   -1    0    0    0    0  0.00000000000E+00  0.00000000000E+00  0.45593999997E+02  0.45594000000E+02  0.51100000000E-03 0.  1.
         11   -1    0    0    0    0 -0.00000000000E+00 -0.00000000000E+00 -0.45593999997E+02  0.45594000000E+02  0.51100000000E-03 0. -1.
    9900012    2    1    2    0    0 -0.29422661153E+02  0.17546013450E+02 -0.29249918427E+02  0.46142319793E+02  0.10000018527E+02 0.  0.
        -12    1    1    2    0    0  0.29422661153E+02 -0.17546013450E+02  0.29249918427E+02  0.45045680207E+02  0.00000000000E+00 0.  1.
         11    1    3    3    0    0 -0.17424508140E+02  0.91227021825E+01 -0.15088318432E+02  0.24789000230E+02  0.51100000000E-03 0. -1.
        -11    1    3    3    0    0 -0.13424344658E+01  0.47201013181E+00  0.54863092001E+00  0.15250967206E+01  0.51100000000E-03 0.  1.
        -12    1    3    3    0    0 -0.10655718548E+02  0.79513011356E+01 -0.14710230915E+02  0.19828222842E+02  0.00000000000E+00 0.  1.
</event>
<event>
 7    1  0.2268281E-008  0.4614232E+02  0.7816164E-02  0.1320468E+00
        -11   -1    0    0    0    0  0.00000000000E+00  0.00000000000E+00  0.45593999997E+02  0.45594000000E+02  0.51100000000E-03 0. -1.
         11   -1    0    0    0    0 -0.00000000000E+00 -0.00000000000E+00 -0.45593999997E+02  0.45594000000E+02  0.51100000000E-03 0.  1.
    9900012    2    1    2    0    0  0.28364729870E+02  0.87685992283E+01  0.33877237865E+02  0.46142317872E+02  0.10000001011E+02 0.  0.
        -12    1    1    2    0    0 -0.28364729870E+02 -0.87685992283E+01 -0.33877237865E+02  0.45045682128E+02  0.00000000000E+00 0.  1.
         11    1    3    3    0    0  0.16299887821E+02  0.58167555676E+01  0.26407078953E+02  0.31573007577E+02  0.51100000000E-03 0. -1.
        -11    1    3    3    0    0  0.43538874386E+01  0.80339507553E+00  0.19030656017E+01  0.48190702859E+01  0.51100000000E-03 0.  1.
         12    1    3    3    0    0  0.77109546099E+01  0.21484485852E+01  0.55670933099E+01  0.97502400093E+01  0.00000000000E+00 0. -1.
</event>
<event>
 7    1  0.1549900E-008  0.4614232E+02  0.7816164E-02  0.1320468E+00
        -11   -1    0    0    0    0  0.00000000000E+00  0.00000000000E+00  0.45593999997E+02  0.45594000000E+02  0.51100000000E-03 0. -1.
         11   -1    0    0    0    0 -0.00000000000E+00 -0.00000000000E+00 -0.45593999997E+02  0.45594000000E+02  0.51100000000E-03 0.  1.
    9900012    2    1    2    0    0  0.20579957858E+01  0.31242195156E+02  0.32385234124E+02  0.46142317697E+02  0.99999994184E+01 0.  0.
        -12    1    1    2    0    0 -0.20579957858E+01 -0.31242195156E+02 -0.32385234124E+02  0.45045682303E+02  0.00000000000E+00 0.  1.
         11    1    3    3    0    0  0.31461042777E+01  0.11304250185E+02  0.12089318799E+02  0.16847423354E+02  0.51100000000E-03 0. -1.
        -11    1    3    3    0    0 -0.21360723869E+01  0.10693255519E+02  0.66279304683E+01  0.12760798619E+02  0.51100000000E-03 0.  1.
        -12    1    3    3    0    0  0.10479638950E+01  0.92446894527E+01  0.13667984856E+02  0.16534095725E+02  0.00000000000E+00 0.  1.
</event>
<event>
 7    1  0.1549900E-008  0.4614232E+02  0.7816164E-02  0.1320468E+00
        -11   -1    0    0    0    0  0.00000000000E+00  0.00000000000E+00  0.45593999997E+02  0.45594000000E+02  0.51100000000E-03 0.  1.
         11   -1    0    0    0    0 -0.00000000000E+00 -0.00000000000E+00 -0.45593999997E+02  0.45594000000E+02  0.51100000000E-03 0. -1.
    9900012    2    1    2    0    0 -0.76169260388E+01 -0.37436967863E+02 -0.23865650938E+02  0.46142318523E+02  0.10000006948E+02 0.  0.
        -12    1    1    2    0    0  0.76169260388E+01  0.37436967863E+02  0.23865650938E+02  0.45045681477E+02  0.00000000000E+00 0.  1.
         11    1    3    3    0    0 -0.55912540425E+01 -0.34518517224E+02 -0.19561859530E+02  0.40068148218E+02  0.51100000000E-03 0. -1.
        -11    1    3    3    0    0 -0.14700836930E+01 -0.12199661467E+01 -0.37411015737E+01  0.42006314655E+01  0.51100000000E-03 0.  1.
         12    1    3    3    0    0 -0.55558830330E+00 -0.16984844924E+01 -0.56268983422E+00  0.18735388395E+01  0.00000000000E+00 0. -1.
</event>
<event>
 7    1  0.1549900E-008  0.4614232E+02  0.7816164E-02  0.1320468E+00
        -11   -1    0    0    0    0  0.00000000000E+00  0.00000000000E+00  0.45593999997E+02  0.45594000000E+02  0.51100000000E-03 0.  1.
         11   -1    0    0    0    0 -0.00000000000E+00 -0.00000000000E+00 -0.45593999997E+02  0.45594000000E+02  0.51100000000E-03 0. -1.
    9900012    2    1    2    0    0 -0.43096529731E+02  0.13081309973E+02 -0.82580785912E+00  0.46142317587E+02  0.99999984102E+01 0.  0.
        -12    1    1    2    0    0  0.43096529731E+02 -0.13081309973E+02  0.82580785912E+00  0.45045682413E+02  0.00000000000E+00 0.  1.
         11    1    3    3    0    0 -0.30528262140E+02  0.63209266040E+01  0.23951247668E+00  0.31176694323E+02  0.51100000000E-03 0. -1.
        -11    1    3    3    0    0 -0.90138044561E+01  0.66493725923E+01  0.16611825530E+00  0.11202250764E+02  0.51100000000E-03 0.  1.
        -12    1    3    3    0    0 -0.35544631351E+01  0.11101077700E+00 -0.12314385911E+01  0.37633725002E+01  0.00000000000E+00 0.  1.
</event>
<event>
 7    1  0.1549900E-008  0.4614232E+02  0.7816164E-02  0.1320468E+00
        -11   -1    0    0    0    0  0.00000000000E+00  0.00000000000E+00  0.45593999997E+02  0.45594000000E+02  0.51100000000E-03 0.  1.
         11   -1    0    0    0    0 -0.00000000000E+00 -0.00000000000E+00 -0.45593999997E+02  0.45594000000E+02  0.51100000000E-03 0. -1.
    9900012    2    1    2    0    0  0.22368218510E+02 -0.11685088935E+01 -0.39082105607E+02  0.46142316622E+02  0.99999896106E+01 0.  0.
        -12    1    1    2    0    0 -0.22368218510E+02  0.11685088935E+01  0.39082105607E+02  0.45045683378E+02  0.00000000000E+00 0.  1.
         11    1    3    3    0    0  0.78234792901E+01 -0.26485433398E+01 -0.18515327134E+02  0.20274095520E+02  0.51100000000E-03 0. -1.
        -11    1    3    3    0    0  0.51510934637E+01  0.30410571799E+01 -0.60576960373E+01  0.85133703188E+01  0.51100000000E-03 0.  1.
         12    1    3    3    0    0  0.93936457561E+01 -0.15610227337E+01 -0.14509082436E+02  0.17354850783E+02  0.00000000000E+00 0. -1.
</event>
<event>
 7    1  0.1549900E-008  0.4614232E+02  0.7816164E-02  0.1320468E+00
        -11   -1    0    0    0    0  0.00000000000E+00  0.00000000000E+00  0.45593999997E+02  0.45594000000E+02  0.51100000000E-03 0. -1.
         11   -1    0    0    0    0 -0.00000000000E+00 -0.00000000000E+00 -0.45593999997E+02  0.45594000000E+02  0.51100000000E-03 0.  1.
    9900012    2    1    2    0    0 -0.28411440624E+02 -0.48429833100E+00  0.34952383250E+02  0.46142316544E+02  0.99999888973E+01 0.  0.
        -12    1    1    2    0    0  0.28411440624E+02  0.48429833100E+00 -0.34952383250E+02  0.45045683456E+02  0.00000000000E+00 0.  1.
         11    1    3    3    0    0 -0.26389629358E+02 -0.45510714544E+00  0.34544663678E+02  0.43473594849E+02  0.51100000000E-03 0. -1.
        -11    1    3    3    0    0 -0.18063424152E+01 -0.57138845771E-01  0.98051655932E+00  0.20561008616E+01  0.51100000000E-03 0.  1.
         12    1    3    3    0    0 -0.21546885044E+00  0.27947660209E-01 -0.57279698706E+00  0.61262083347E+00  0.00000000000E+00 0. -1.
</event>
<event>
 7    1  0.1549900E-008  0.4614232E+02  0.7816164E-02  0.1320468E+00
        -11   -1    0    0    0    0  0.00000000000E+00  0.00000000000E+00  0.45593999997E+02  0.45594000000E+02  0.51100000000E-03 0.  1.
         11   -1    0    0    0    0 -0.00000000000E+00 -0.00000000000E+00 -0.45593999997E+02  0.45594000000E+02  0.51100000000E-03 0. -1.
    9900012    2    1    2    0    0 -0.38895294291E+01  0.37750198695E+02 -0.24267417749E+02  0.46142317578E+02  0.99999983261E+01 0.  0.
        -12    1    1    2    0    0  0.38895294291E+01 -0.37750198695E+02  0.24267417749E+02  0.45045682422E+02  0.00000000000E+00 0.  1.
         11    1    3    3    0    0 -0.13430295669E+01  0.53086259222E+01 -0.56714992617E+01  0.78835995418E+01  0.51100000000E-03 0. -1.
        -11    1    3    3    0    0 -0.20415649437E+01  0.31736067633E+02 -0.19248366303E+02  0.37173183639E+02  0.51100000000E-03 0.  1.
        -12    1    3    3    0    0 -0.50493491853E+00  0.70550513936E+00  0.65244781598E+00  0.10855343966E+01  0.00000000000E+00 0.  1.
</event>
<event>
 7    1  0.1549900E-008  0.4614232E+02  0.7816164E-02  0.1320468E+00
        -11   -1    0    0    0    0  0.00000000000E+00  0.00000000000E+00  0.45593999997E+02  0.45594000000E+02  0.51100000000E-03 0. -1.
         11   -1    0    0    0    0 -0.00000000000E+00 -0.00000000000E+00 -0.45593999997E+02  0.45594000000E+02  0.51100000000E-03 0.  1.
    9900012    2    1    2    0    0 -0.26146868770E+02  0.32100595225E+02 -0.17748424909E+02  0.46142317110E+02  0.99999940646E+01 0.  0.
        -12    1    1    2    0    0  0.26146868770E+02 -0.32100595225E+02  0.17748424909E+02  0.45045682890E+02  0.00000000000E+00 0.  1.
         11    1    3    3    0    0 -0.11181453833E+02  0.17859570230E+02 -0.10471479356E+02  0.23529577956E+02  0.51100000000E-03 0. -1.
        -11    1    3    3    0    0 -0.26193696879E+01  0.29353711955E+01  0.81727966232E+00  0.40181398588E+01  0.51100000000E-03 0.  1.
         12    1    3    3    0    0 -0.12346045249E+02  0.11305653799E+02 -0.80942252147E+01  0.18594599295E+02  0.00000000000E+00 0. -1.
</event>
<event>
 7    1  0.1549900E-008  0.4614232E+02  0.7816164E-02  0.1320468E+00
        -11   -1    0    0    0    0  0.00000000000E+00  0.00000000000E+00  0.45593999997E+02  0.45594000000E+02  0.51100000000E-03 0.  1.
         11   -1    0    0    0    0 -0.00000000000E+00 -0.00000000000E+00 -0.45593999997E+02  0.45594000000E+02  0.51100000000E-03 0. -1.
    9900012    2    1    2    0    0 -0.10089183287E+02  0.18438481905E+02 -0.39841489518E+02  0.46142317395E+02  0.99999966608E+01 0.  0.
        -12    1    1    2    0    0  0.10089183287E+02 -0.18438481905E+02  0.39841489518E+02  0.45045682605E+02  0.00000000000E+00 0.  1.
         11    1    3    3    0    0  0.14543365867E+00  0.67402761437E+01 -0.15476523095E+02  0.16881209697E+02  0.51100000000E-03 0. -1.
        -11    1    3    3    0    0 -0.64179792009E+01  0.45606243312E+01 -0.95290889205E+01  0.12360958184E+02  0.51100000000E-03 0.  1.
        -12    1    3    3    0    0 -0.38166377451E+01  0.71375814302E+01 -0.14835877502E+02  0.16900149514E+02  0.00000000000E+00 0.  1.
</event>
<event>
 7    1  0.1549900E-008  0.4614232E+02  0.7816164E-02  0.1320468E+00
        -11   -1    0    0    0    0  0.00000000000E+00  0.00000000000E+00  0.45593999997E+02  0.45594000000E+02  0.51100000000E-03 0. -1.
         11   -1    0    0    0    0 -0.00000000000E+00 -0.00000000000E+00 -0.45593999997E+02  0.45594000000E+02  0.51100000000E-03 0.  1.
    9900012    2    1    2    0    0 -0.32935543327E+02  0.20830966125E+02  0.22592794173E+02  0.46142317493E+02  0.99999975584E+01 0.  0.
        -12    1    1    2    0    0  0.32935543327E+02 -0.20830966125E+02 -0.22592794173E+02  0.45045682507E+02  0.00000000000E+00 0.  1.
         11    1    3    3    0    0 -0.12215243077E+02  0.90822543375E+01  0.13730745761E+02  0.20499582598E+02  0.51100000000E-03 0. -1.
        -11    1    3    3    0    0 -0.75590413688E+01  0.60523153105E+01  0.28669472612E+01  0.10098961030E+02  0.51100000000E-03 0.  1.
         12    1    3    3    0    0 -0.13161258881E+02  0.56963964771E+01  0.59951011514E+01  0.15543773865E+02  0.00000000000E+00 0. -1.
</event>
<event>
 7    1  0.1549900E-008  0.4614232E+02  0.7816164E-02  0.1320468E+00
        -11   -1    0    0    0    0  0.00000000000E+00  0.00000000000E+00  0.45593999997E+02  0.45594000000E+02  0.51100000000E-03 0.  1.
         11   -1    0    0    0    0 -0.00000000000E+00 -0.00000000000E+00 -0.45593999997E+02  0.45594000000E+02  0.51100000000E-03 0. -1.
    9900012    2    1    2    0    0 -0.23943667531E+02 -0.18902803912E+02 -0.33143601055E+02  0.46142317616E+02  0.99999986726E+01 0.  0.
        -12    1    1    2    0    0  0.23943667531E+02  0.18902803912E+02  0.33143601055E+02  0.45045682384E+02  0.00000000000E+00 0.  1.
         11    1    3    3    0    0 -0.22852950441E+02 -0.13975083381E+02 -0.29142898434E+02  0.39583693975E+02  0.51100000000E-03 0. -1.
        -11    1    3    3    0    0 -0.11856462146E+01 -0.49107276594E+01 -0.37545542943E+01  0.62942578039E+01  0.51100000000E-03 0.  1.
         12    1    3    3    0    0  0.94929124765E-01 -0.16992872019E-01 -0.24614832713E+00  0.26436583625E+00  0.00000000000E+00 0. -1.
</event>
<event>
 7    1  0.1549900E-008  0.4614232E+02  0.7816164E-02  0.1320468E+00
        -11   -1    0    0    0    0  0.00000000000E+00  0.00000000000E+00  0.45593999997E+02  0.45594000000E+02  0.51100000000E-03 0. -1.
         11   -1    0    0    0    0 -0.00000000000E+00 -0.00000000000E+00 -0.45593999997E+02  0.45594000000E+02  0.51100000000E-03 0.  1.
    9900012    2    1    2    0    0  0.39033167778E+02 -0.17012331946E+02  0.14700538419E+02  0.46142318133E+02  0.10000003394E+02 0.  0.
        -12    1    1    2    0    0 -0.39033167778E+02  0.17012331946E+02 -0.14700538419E+02  0.45045681867E+02  0.00000000000E+00 0.  1.
         11    1    3    3    0    0  0.13484595276E+02 -0.26319720242E+01  0.12026388820E+01  0.13791588996E+02  0.51100000000E-03 0. -1.
        -11    1    3    3    0    0  0.90402793240E+01 -0.55326961340E+01  0.59709117137E+01  0.12165079684E+02  0.51100000000E-03 0.  1.
         12    1    3    3    0    0  0.16508293178E+02 -0.88476637882E+01  0.75269878231E+01  0.20185649453E+02  0.00000000000E+00 0. -1.
</event>
<event>
 7    1  0.1549900E-008  0.4614232E+02  0.7816164E-02  0.1320468E+00
        -11   -1    0    0    0    0  0.00000000000E+00  0.00000000000E+00  0.45593999997E+02  0.45594000000E+02  0.51100000000E-03 0.  1.
         11   -1    0    0    0    0 -0.00000000000E+00 -0.00000000000E+00 -0.45593999997E+02  0.45594000000E+02  0.51100000000E-03 0. -1.
    9900012    2    1    2    0    0  0.37541167686E+01 -0.71166118716E+01 -0.44321258334E+02  0.46142317659E+02  0.99999990684E+01 0.  0.
        -12    1    1    2    0    0 -0.37541167686E+01  0.71166118716E+01  0.44321258334E+02  0.45045682341E+02  0.00000000000E+00 0.  1.
         11    1    3    3    0    0 -0.43152111323E-01  0.21358673826E+01 -0.11721362450E+02  0.11914450450E+02  0.51100000000E-03 0. -1.
        -11    1    3    3    0    0  0.41734290047E+01 -0.72678377033E+01 -0.25191446351E+02  0.26548972561E+02  0.51100000000E-03 0.  1.
        -12    1    3    3    0    0 -0.37616012471E+00 -0.19846415509E+01 -0.74084495339E+01  0.76788946484E+01  0.00000000000E+00 0.  1.
</event>
<event>
 7    1  0.1549900E-008  0.4614232E+02  0.7816164E-02  0.1320468E+00
        -11   -1    0    0    0    0  0.00000000000E+00  0.00000000000E+00  0.45593999997E+02  0.45594000000E+02  0.51100000000E-03 0.  1.
         11   -1    0    0    0    0 -0.00000000000E+00 -0.00000000000E+00 -0.45593999997E+02  0.45594000000E+02  0.51100000000E-03 0. -1.
    9900012    2    1    2    0    0  0.25956780418E+02  0.51382384523E+01 -0.36454868982E+02  0.46142318558E+02  0.10000007269E+02 0.  0.
        -12    1    1    2    0    0 -0.25956780418E+02 -0.51382384523E+01  0.36454868982E+02  0.45045681442E+02  0.00000000000E+00 0.  1.
         11    1    3    3    0    0  0.21708515520E+02  0.66910990460E+01 -0.27602743122E+02  0.35748312976E+02  0.51100000000E-03 0. -1.
        -11    1    3    3    0    0 -0.30620911863E+00 -0.27459044594E-01  0.16888008698E-01  0.30790175287E+00  0.51100000000E-03 0.  1.
         12    1    3    3    0    0  0.45544740172E+01 -0.15254015491E+01 -0.88690138684E+01  0.10086103829E+02  0.00000000000E+00 0. -1.
</event>
<event>
 7    1  0.1549900E-008  0.4614232E+02  0.7816164E-02  0.1320468E+00
        -11   -1    0    0    0    0  0.00000000000E+00  0.00000000000E+00  0.45593999997E+02  0.45594000000E+02  0.51100000000E-03 0. -1.
         11   -1    0    0    0    0 -0.00000000000E+00 -0.00000000000E+00 -0.45593999997E+02  0.45594000000E+02  0.51100000000E-03 0.  1.
    9900012    2    1    2    0    0  0.31785327305E+02 -0.15310173183E+02  0.28007232500E+02  0.46142317553E+02  0.99999981057E+01 0.  0.
        -12    1    1    2    0    0 -0.31785327305E+02  0.15310173183E+02 -0.28007232500E+02  0.45045682447E+02  0.00000000000E+00 0.  1.
         11    1    3    3    0    0  0.72287083545E+01 -0.58612286201E+01  0.40993682011E+01  0.10169220487E+02  0.51100000000E-03 0. -1.
        -11    1    3    3    0    0  0.17774337681E+01 -0.16607569855E+01  0.69275615018E+00  0.25292876289E+01  0.51100000000E-03 0.  1.
         12    1    3    3    0    0  0.22779185183E+02 -0.77881875772E+01  0.23215108148E+02  0.33443809437E+02  0.00000000000E+00 0. -1.
</event>
<event>
 7    1  0.1622681E-008  0.4614232E+02  0.7816164E-02  0.1320468E+00
        -11   -1    0    0    0    0  0.00000000000E+00  0.00000000000E+00  0.45593999997E+02  0.45594000000E+02  0.51100000000E-03 0. -1.
         11   -1    0    0    0    0 -0.00000000000E+00 -0.00000000000E+00 -0.45593999997E+02  0.45594000000E+02  0.51100000000E-03 0.  1.
    9900012    2    1    2    0    0 -0.34819262531E+02 -0.18056678781E+02  0.22151494305E+02  0.46142318833E+02  0.10000009775E+02 0.  0.
        -12    1    1    2    0    0  0.34819262531E+02  0.18056678781E+02 -0.22151494305E+02  0.45045681167E+02  0.00000000000E+00 0.  1.
         11    1    3    3    0    0 -0.18812400662E+02 -0.11862978198E+02  0.72954457544E+01  0.23406413638E+02  0.51100000000E-03 0. -1.
        -11    1    3    3    0    0 -0.90046645329E+01 -0.30070601158E+01  0.88047073993E+01  0.12947944491E+02  0.51100000000E-03 0.  1.
         12    1    3    3    0    0 -0.70021973366E+01 -0.31866404676E+01  0.60513411516E+01  0.97879607040E+01  0.00000000000E+00 0. -1.
</event>
<event>
 7    1  0.1549900E-008  0.4614232E+02  0.7816164E-02  0.1320468E+00
        -11   -1    0    0    0    0  0.00000000000E+00  0.00000000000E+00  0.45593999997E+02  0.45594000000E+02  0.51100000000E-03 0.  1.
         11   -1    0    0    0    0 -0.00000000000E+00 -0.00000000000E+00 -0.45593999997E+02  0.45594000000E+02  0.51100000000E-03 0. -1.
    9900012    2    1    2    0    0 -0.10200134113E+01  0.29573777903E+02 -0.33962696130E+02  0.46142317685E+02  0.99999993065E+01 0.  0.
        -12    1    1    2    0    0  0.10200134113E+01 -0.29573777903E+02  0.33962696130E+02  0.45045682315E+02  0.00000000000E+00 0.  1.
         11    1    3    3    0    0 -0.40656095617E+01  0.19764999826E+02 -0.21623491661E+02  0.29576338365E+02  0.51100000000E-03 0. -1.
        -11    1    3    3    0    0  0.28898745202E+01  0.48529738217E+01 -0.42124909636E+01  0.70461202116E+01  0.51100000000E-03 0.  1.
         12    1    3    3    0    0  0.15572163032E+00  0.49558042554E+01 -0.81267135052E+01  0.95198591082E+01  0.00000000000E+00 0. -1.
</event>
<event>
 7    1  0.1549900E-008  0.4614232E+02  0.7816164E-02  0.1320468E+00
        -11   -1    0    0    0    0  0.00000000000E+00  0.00000000000E+00  0.45593999997E+02  0.45594000000E+02  0.51100000000E-03 0.  1.
         11   -1    0    0    0    0 -0.00000000000E+00 -0.00000000000E+00 -0.45593999997E+02  0.45594000000E+02  0.51100000000E-03 0. -1.
    9900012    2    1    2    0    0  0.21033175262E+02  0.39797015608E+02 -0.17078022622E+01  0.46142317616E+02  0.99999986735E+01 0.  0.
        -12    1    1    2    0    0 -0.21033175262E+02 -0.39797015608E+02  0.17078022622E+01  0.45045682384E+02  0.00000000000E+00 0.  1.
         11    1    3    3    0    0  0.97385032844E+01  0.16882277681E+02 -0.23655493712E+01  0.19632767762E+02  0.51100000000E-03 0. -1.
        -11    1    3    3    0    0  0.69257898610E+01  0.66952337912E+01  0.11729576532E+01  0.97040481571E+01  0.51100000000E-03 0.  1.
        -12    1    3    3    0    0  0.43688821168E+01  0.16219504136E+02 -0.51521054423E+00  0.16805501697E+02  0.00000000000E+00 0.  1.
</event>
<event>
 7    1  0.1549900E-008  0.4614232E+02  0.7816164E-02  0.1320468E+00
        -11   -1    0    0    0    0  0.00000000000E+00  0.00000000000E+00  0.45593999997E+02  0.45594000000E+02  0.51100000000E-03 0. -1.
         11   -1    0    0    0    0 -0.00000000000E+00 -0.00000000000E+00 -0.45593999997E+02  0.45594000000E+02  0.51100000000E-03 0.  1.
    9900012    2    1    2    0    0  0.74303557801E+01 -0.17320217855E+02  0.40913486652E+02  0.46142317371E+02  0.99999964391E+01 0.  0.
        -12    1    1    2    0    0 -0.74303557801E+01  0.17320217855E+02 -0.40913486652E+02  0.45045682629E+02  0.00000000000E+00 0.  1.
         11    1    3    3    0    0  0.30548413071E+01 -0.11563424443E+01  0.78699315206E+01  0.85208570966E+01  0.51100000000E-03 0. -1.
        -11    1    3    3    0    0 -0.16630308482E+01 -0.49977412344E+01  0.88142920569E+01  0.10268146560E+02  0.51100000000E-03 0.  1.
         12    1    3    3    0    0  0.60385453212E+01 -0.11166134176E+02  0.24229263074E+02  0.27353313714E+02  0.00000000000E+00 0. -1.
</event>
<event>
 7    1  0.1549900E-008  0.4614232E+02  0.7816164E-02  0.1320468E+00
        -11   -1    0    0    0    0  0.00000000000E+00  0.00000000000E+00  0.45593999997E+02  0.45594000000E+02  0.51100000000E-03 0.  1.
         11   -1    0    0    0    0 -0.00000000000E+00 -0.00000000000E+00 -0.45593999997E+02  0.45594000000E+02  0.51100000000E-03 0. -1.
    9900012    2    1    2    0    0 -0.85387289202E+01  0.13505404285E+02 -0.42116595654E+02  0.46142318010E+02  0.10000002271E+02 0.  0.
        -12    1    1    2    0    0  0.85387289202E+01 -0.13505404285E+02  0.42116595654E+02  0.45045681990E+02  0.00000000000E+00 0.  1.
         11    1    3    3    0    0 -0.38194905772E+01  0.13543838860E+01 -0.13515343356E+02  0.14109832397E+02  0.51100000000E-03 0. -1.
        -11    1    3    3    0    0 -0.23014395381E+01  0.31373841474E+00 -0.40253898550E+01  0.46474530106E+01  0.51100000000E-03 0.  1.
         12    1    3    3    0    0 -0.24177988049E+01  0.11837281984E+02 -0.24575862443E+02  0.27385032602E+02  0.00000000000E+00 0. -1.
</event>
<event>
 7    1  0.1549900E-008  0.4614232E+02  0.7816164E-02  0.1320468E+00
        -11   -1    0    0    0    0  0.00000000000E+00  0.00000000000E+00  0.45593999997E+02  0.45594000000E+02  0.51100000000E-03 0.  1.
         11   -1    0    0    0    0 -0.00000000000E+00 -0.00000000000E+00 -0.45593999997E+02  0.45594000000E+02  0.51100000000E-03 0. -1.
    9900012    2    1    2    0    0  0.35985062699E+02 -0.59312319003E+01 -0.26438782595E+02  0.46142317916E+02  0.10000001414E+02 0.  0.
        -12    1    1    2    0    0 -0.35985062699E+02  0.59312319003E+01  0.26438782595E+02  0.45045682084E+02  0.00000000000E+00 0.  1.
         11    1    3    3    0    0  0.25171778834E+02 -0.51869575110E+01 -0.20781696507E+02  0.33051503565E+02  0.51100000000E-03 0. -1.
        -11    1    3    3    0    0  0.11283765491E+02 -0.78114475036E+00 -0.52598296148E+01  0.12473947195E+02  0.51100000000E-03 0.  1.
        -12    1    3    3    0    0 -0.47048162622E+00  0.36870361127E-01 -0.39725647283E+00  0.61686715697E+00  0.00000000000E+00 0.  1.
</event>
<event>
 7    1  0.1555919E-008  0.4614232E+02  0.7816164E-02  0.1320468E+00
        -11   -1    0    0    0    0  0.00000000000E+00  0.00000000000E+00  0.45593999997E+02  0.45594000000E+02  0.51100000000E-03 0.  1.
         11   -1    0    0    0    0 -0.00000000000E+00 -0.00000000000E+00 -0.45593999997E+02  0.45594000000E+02  0.51100000000E-03 0. -1.
    9900012    2    1    2    0    0 -0.19129746232E+02 -0.33919416956E+02 -0.22641543617E+02  0.46142317245E+02  0.99999952910E+01 0.  0.
        -12    1    1    2    0    0  0.19129746232E+02  0.33919416956E+02  0.22641543617E+02  0.45045682755E+02  0.00000000000E+00 0.  1.
         11    1    3    3    0    0 -0.10987732770E+02 -0.26576449516E+02 -0.17842789922E+02  0.33843804348E+02  0.51100000000E-03 0. -1.
        -11    1    3    3    0    0 -0.32658438178E+01 -0.13599916349E+01 -0.21423832248E+01  0.41358335595E+01  0.51100000000E-03 0.  1.
         12    1    3    3    0    0 -0.48761696443E+01 -0.59829758053E+01 -0.26563704705E+01  0.81626793373E+01  0.00000000000E+00 0. -1.
</event>
<event>
 7    1  0.1549900E-008  0.4614232E+02  0.7816164E-02  0.1320468E+00
        -11   -1    0    0    0    0  0.00000000000E+00  0.00000000000E+00  0.45593999997E+02  0.45594000000E+02  0.51100000000E-03 0.  1.
         11   -1    0    0    0    0 -0.00000000000E+00 -0.00000000000E+00 -0.45593999997E+02  0.45594000000E+02  0.51100000000E-03 0. -1.
    9900012    2    1    2    0    0  0.25946763475E+02  0.41849386071E+01 -0.36583675834E+02  0.46142316705E+02  0.99999903698E+01 0.  0.
        -12    1    1    2    0    0 -0.25946763475E+02 -0.41849386071E+01  0.36583675834E+02  0.45045683295E+02  0.00000000000E+00 0.  1.
         11    1    3    3    0    0  0.11748057107E+02  0.35911248389E+01 -0.23050264980E+02  0.26119489645E+02  0.51100000000E-03 0. -1.
        -11    1    3    3    0    0  0.11971284561E+02 -0.80632667924E+00 -0.12039252629E+02  0.16997218034E+02  0.51100000000E-03 0.  1.
         12    1    3    3    0    0  0.22274218072E+01  0.14001404475E+01 -0.14941582245E+01  0.30256090263E+01  0.00000000000E+00 0. -1.
</event>
<event>
 7    1  0.1549900E-008  0.4614232E+02  0.7816164E-02  0.1320468E+00
        -11   -1    0    0    0    0  0.00000000000E+00  0.00000000000E+00  0.45593999997E+02  0.45594000000E+02  0.51100000000E-03 0. -1.
         11   -1    0    0    0    0 -0.00000000000E+00 -0.00000000000E+00 -0.45593999997E+02  0.45594000000E+02  0.51100000000E-03 0.  1.
    9900012    2    1    2    0    0 -0.19384914308E+02  0.39272026787E+02  0.10537860678E+02  0.46142317650E+02  0.99999989867E+01 0.  0.
        -12    1    1    2    0    0  0.19384914308E+02 -0.39272026787E+02 -0.10537860678E+02  0.45045682350E+02  0.00000000000E+00 0.  1.
         11    1    3    3    0    0 -0.33492459359E+00  0.36049711629E+00  0.12612541337E+01  0.13538444907E+01  0.51100000000E-03 0. -1.
        -11    1    3    3    0    0 -0.65453040570E+00 -0.10116946733E+00 -0.32737821943E-01  0.66311186026E+00  0.51100000000E-03 0.  1.
         12    1    3    3    0    0 -0.18395459309E+02  0.39012699138E+02  0.93093443659E+01  0.44125361299E+02  0.00000000000E+00 0. -1.
</event>
<event>
 7    1  0.1549900E-008  0.4614232E+02  0.7816164E-02  0.1320468E+00
        -11   -1    0    0    0    0  0.00000000000E+00  0.00000000000E+00  0.45593999997E+02  0.45594000000E+02  0.51100000000E-03 0. -1.
         11   -1    0    0    0    0 -0.00000000000E+00 -0.00000000000E+00 -0.45593999997E+02  0.45594000000E+02  0.51100000000E-03 0.  1.
    9900012    2    1    2    0    0 -0.22624696398E+01  0.20677406533E+02  0.39955469890E+02  0.46142317811E+02  0.10000000452E+02 0.  0.
        -12    1    1    2    0    0  0.22624696398E+01 -0.20677406533E+02 -0.39955469890E+02  0.45045682189E+02  0.00000000000E+00 0.  1.
         11    1    3    3    0    0  0.12626039640E+01  0.76066113329E+01  0.17137298735E+02  0.18792065159E+02  0.51100000000E-03 0. -1.
        -11    1    3    3    0    0 -0.21444166069E+01  0.13358709134E+02  0.19394021608E+02  0.23647023211E+02  0.51100000000E-03 0.  1.
        -12    1    3    3    0    0 -0.13806569969E+01 -0.28791393464E+00  0.34241495468E+01  0.37032294414E+01  0.00000000000E+00 0.  1.
</event>
<event>
 7    1  0.1549900E-008  0.4614232E+02  0.7816164E-02  0.1320468E+00
        -11   -1    0    0    0    0  0.00000000000E+00  0.00000000000E+00  0.45593999997E+02  0.45594000000E+02  0.51100000000E-03 0.  1.
         11   -1    0    0    0    0 -0.00000000000E+00 -0.00000000000E+00 -0.45593999997E+02  0.45594000000E+02  0.51100000000E-03 0. -1.
    9900012    2    1    2    0    0  0.11674991330E+02 -0.24955602384E+02 -0.35637422798E+02  0.46142318558E+02  0.10000007264E+02 0.  0.
        -12    1    1    2    0    0 -0.11674991330E+02  0.24955602384E+02  0.35637422798E+02  0.45045681442E+02  0.00000000000E+00 0.  1.
         11    1    3    3    0    0  0.10096847552E+02 -0.14574127258E+02 -0.16756354668E+02  0.24395223668E+02  0.51100000000E-03 0. -1.
        -11    1    3    3    0    0  0.14563516509E+01 -0.10510669872E+02 -0.18511103452E+02  0.21336731066E+02  0.51100000000E-03 0.  1.
        -12    1    3    3    0    0  0.12179212712E+00  0.12919474594E+00 -0.36996467828E+00  0.41036382367E+00  0.00000000000E+00 0.  1.
</event>
<event>
 7    1  0.2095320E-008  0.4614232E+02  0.7816164E-02  0.1320468E+00
        -11   -1    0    0    0    0  0.00000000000E+00  0.00000000000E+00  0.45593999997E+02  0.45594000000E+02  0.51100000000E-03 0.  1.
         11   -1    0    0    0    0 -0.00000000000E+00 -0.00000000000E+00 -0.45593999997E+02  0.45594000000E+02  0.51100000000E-03 0. -1.
    9900012    2    1    2    0    0  0.36682555583E+02  0.20711849684E+02 -0.15953774813E+02  0.46142317274E+02  0.99999955603E+01 0.  0.
        -12    1    1    2    0    0 -0.36682555583E+02 -0.20711849684E+02  0.15953774813E+02  0.45045682726E+02  0.00000000000E+00 0.  1.
         11    1    3    3    0    0  0.32771973445E+02  0.16045056824E+02 -0.15361082461E+02  0.39590515867E+02  0.51100000000E-03 0. -1.
        -11    1    3    3    0    0 -0.32051733088E+00  0.23560090534E+00 -0.20015186328E-01  0.39829639064E+00  0.51100000000E-03 0.  1.
         12    1    3    3    0    0  0.42310994694E+01  0.44311919546E+01 -0.57267716556E+00  0.61535050170E+01  0.00000000000E+00 0. -1.
</event>
<event>
 7    1  0.1549900E-008  0.4614232E+02  0.7816164E-02  0.1320468E+00
        -11   -1    0    0    0    0  0.00000000000E+00  0.00000000000E+00  0.45593999997E+02  0.45594000000E+02  0.51100000000E-03 0.  1.
         11   -1    0    0    0    0 -0.00000000000E+00 -0.00000000000E+00 -0.45593999997E+02  0.45594000000E+02  0.51100000000E-03 0. -1.
    9900012    2    1    2    0    0  0.43825453515E+02 -0.10183458562E+02 -0.21771966418E+01  0.46142318861E+02  0.10000010029E+02 0.  0.
        -12    1    1    2    0    0 -0.43825453515E+02  0.10183458562E+02  0.21771966418E+01  0.45045681139E+02  0.00000000000E+00 0.  1.
         11    1    3    3    0    0 -0.31965096761E+00  0.26767304787E+00  0.29616271385E+00  0.51140807175E+00  0.51100000000E-03 0. -1.
        -11    1    3    3    0    0  0.15513209213E+02 -0.54457728321E+01 -0.19850701166E+01  0.16560694594E+02  0.51100000000E-03 0.  1.
         12    1    3    3    0    0  0.28631895270E+02 -0.50053587778E+01 -0.48828923906E+00  0.29070216195E+02  0.00000000000E+00 0. -1.
</event>
<event>
 7    1  0.1549900E-008  0.4614232E+02  0.7816164E-02  0.1320468E+00
        -11   -1    0    0    0    0  0.00000000000E+00  0.00000000000E+00  0.45593999997E+02  0.45594000000E+02  0.51100000000E-03 0. -1.
         11   -1    0    0    0    0 -0.00000000000E+00 -0.00000000000E+00 -0.45593999997E+02  0.45594000000E+02  0.51100000000E-03 0.  1.
    9900012    2    1    2    0    0  0.44492243357E+01  0.40648168495E+02  0.18895613586E+02  0.46142318609E+02  0.10000007730E+02 0.  0.
        -12    1    1    2    0    0 -0.44492243357E+01 -0.40648168495E+02 -0.18895613586E+02  0.45045681391E+02  0.00000000000E+00 0.  1.
         11    1    3    3    0    0  0.90439098568E+00  0.78708692208E+01  0.60767600485E+01  0.99847643084E+01  0.51100000000E-03 0. -1.
        -11    1    3    3    0    0 -0.19038006850E+01  0.16080088118E+02  0.71593688802E+01  0.17704526369E+02  0.51100000000E-03 0.  1.
        -12    1    3    3    0    0  0.54486340350E+01  0.16697211157E+02  0.56594846569E+01  0.18453027931E+02  0.00000000000E+00 0.  1.
</event>
<event>
 7    1  0.1549900E-008  0.4614232E+02  0.7816164E-02  0.1320468E+00
        -11   -1    0    0    0    0  0.00000000000E+00  0.00000000000E+00  0.45593999997E+02  0.45594000000E+02  0.51100000000E-03 0.  1.
         11   -1    0    0    0    0 -0.00000000000E+00 -0.00000000000E+00 -0.45593999997E+02  0.45594000000E+02  0.51100000000E-03 0. -1.
    9900012    2    1    2    0    0  0.31836627932E+02  0.27586158392E+02 -0.15954518873E+02  0.46142315574E+02  0.99999800558E+01 0.  0.
        -12    1    1    2    0    0 -0.31836627932E+02 -0.27586158392E+02  0.15954518873E+02  0.45045684426E+02  0.00000000000E+00 0.  1.
         11    1    3    3    0    0  0.12645136326E+02  0.92875781028E+01 -0.68460102129E+01  0.17118014949E+02  0.51100000000E-03 0. -1.
        -11    1    3    3    0    0  0.78414621478E+01  0.12636326915E+02 -0.47253190834E+01  0.15604291949E+02  0.51100000000E-03 0.  1.
        -12    1    3    3    0    0  0.11350029459E+02  0.56622533741E+01 -0.43831895764E+01  0.13420008676E+02  0.00000000000E+00 0.  1.
</event>
<event>
 7    1  0.1549900E-008  0.4614232E+02  0.7816164E-02  0.1320468E+00
        -11   -1    0    0    0    0  0.00000000000E+00  0.00000000000E+00  0.45593999997E+02  0.45594000000E+02  0.51100000000E-03 0.  1.
         11   -1    0    0    0    0 -0.00000000000E+00 -0.00000000000E+00 -0.45593999997E+02  0.45594000000E+02  0.51100000000E-03 0. -1.
    9900012    2    1    2    0    0 -0.56151126385E+01 -0.33189405531E+02 -0.29934049952E+02  0.46142317899E+02  0.10000001254E+02 0.  0.
        -12    1    1    2    0    0  0.56151126385E+01  0.33189405531E+02  0.29934049952E+02  0.45045682101E+02  0.00000000000E+00 0.  1.
         11    1    3    3    0    0 -0.60114907295E+01 -0.28215545651E+02 -0.20978754624E+02  0.35670200209E+02  0.51100000000E-03 0. -1.
        -11    1    3    3    0    0 -0.40044888104E+00 -0.26392740349E+01 -0.63291597374E+01  0.68690894579E+01  0.51100000000E-03 0.  1.
        -12    1    3    3    0    0  0.79682697200E+00 -0.23345858455E+01 -0.26261355912E+01  0.36030282314E+01  0.00000000000E+00 0.  1.
</event>
<event>
 7    1  0.1549900E-008  0.4614232E+02  0.7816164E-02  0.1320468E+00
        -11   -1    0    0    0    0  0.00000000000E+00  0.00000000000E+00  0.45593999997E+02  0.45594000000E+02  0.51100000000E-03 0.  1.
         11   -1    0    0    0    0 -0.00000000000E+00 -0.00000000000E+00 -0.45593999997E+02  0.45594000000E+02  0.51100000000E-03 0. -1.
    9900012    2    1    2    0    0  0.18790999977E+02  0.36254686104E+02 -0.19016025616E+02  0.46142321241E+02  0.10000031729E+02 0.  0.
        -12    1    1    2    0    0 -0.18790999977E+02 -0.36254686104E+02  0.19016025616E+02  0.45045678759E+02  0.00000000000E+00 0.  1.
         11    1    3    3    0    0  0.94585714765E+01  0.10950455707E+02 -0.40425997357E+01  0.15023969764E+02  0.51100000000E-03 0. -1.
        -11    1    3    3    0    0  0.89565923291E+01  0.25063823629E+02 -0.14059290845E+02  0.30101153805E+02  0.51100000000E-03 0.  1.
         12    1    3    3    0    0  0.37583617160E+00  0.24040676797E+00 -0.91413503504E+00  0.10171976722E+01  0.00000000000E+00 0. -1.
</event>
<event>
 7    1  0.1549900E-008  0.4614232E+02  0.7816164E-02  0.1320468E+00
        -11   -1    0    0    0    0  0.00000000000E+00  0.00000000000E+00  0.45593999997E+02  0.45594000000E+02  0.51100000000E-03 0.  1.
         11   -1    0    0    0    0 -0.00000000000E+00 -0.00000000000E+00 -0.45593999997E+02  0.45594000000E+02  0.51100000000E-03 0. -1.
    9900012    2    1    2    0    0 -0.40715036076E+02  0.48887069684E+01 -0.18641354790E+02  0.46142315113E+02  0.99999758569E+01 0.  0.
        -12    1    1    2    0    0  0.40715036076E+02 -0.48887069684E+01  0.18641354790E+02  0.45045684887E+02  0.00000000000E+00 0.  1.
         11    1    3    3    0    0 -0.19968665748E+02  0.53435835964E+01 -0.63178436671E+01  0.21615194801E+02  0.51100000000E-03 0. -1.
        -11    1    3    3    0    0 -0.19127425341E+02  0.18965113237E+00 -0.12377604484E+02  0.22783754317E+02  0.51100000000E-03 0.  1.
        -12    1    3    3    0    0 -0.16189449868E+01 -0.64452776037E+00  0.54093361813E-01  0.17433659960E+01  0.00000000000E+00 0.  1.
</event>
<event>
 7    1  0.1549900E-008  0.4614232E+02  0.7816164E-02  0.1320468E+00
        -11   -1    0    0    0    0  0.00000000000E+00  0.00000000000E+00  0.45593999997E+02  0.45594000000E+02  0.51100000000E-03 0. -1.
         11   -1    0    0    0    0 -0.00000000000E+00 -0.00000000000E+00 -0.45593999997E+02  0.45594000000E+02  0.51100000000E-03 0.  1.
    9900012    2    1    2    0    0 -0.64015732674E+01 -0.59882160763E+01  0.44184551481E+02  0.46142318058E+02  0.10000002705E+02 0.  0.
        -12    1    1    2    0    0  0.64015732674E+01  0.59882160763E+01 -0.44184551481E+02  0.45045681942E+02  0.00000000000E+00 0.  1.
         11    1    3    3    0    0 -0.46654120500E+00 -0.17843390525E+01  0.88570678574E+00  0.20459724636E+01  0.51100000000E-03 0. -1.
        -11    1    3    3    0    0 -0.11677592308E+01 -0.78791209426E+00  0.24296988232E+01  0.28085412088E+01  0.51100000000E-03 0.  1.
         12    1    3    3    0    0 -0.47672728316E+01 -0.34159649295E+01  0.40869145872E+02  0.41287804385E+02  0.00000000000E+00 0. -1.
</event>
<event>
 7    1  0.1549900E-008  0.4614232E+02  0.7816164E-02  0.1320468E+00
        -11   -1    0    0    0    0  0.00000000000E+00  0.00000000000E+00  0.45593999997E+02  0.45594000000E+02  0.51100000000E-03 0.  1.
         11   -1    0    0    0    0 -0.00000000000E+00 -0.00000000000E+00 -0.45593999997E+02  0.45594000000E+02  0.51100000000E-03 0. -1.
    9900012    2    1    2    0    0 -0.32678031581E+02  0.17426252910E+02 -0.25643428960E+02  0.46142317773E+02  0.10000000107E+02 0.  0.
        -12    1    1    2    0    0  0.32678031581E+02 -0.17426252910E+02  0.25643428960E+02  0.45045682227E+02  0.00000000000E+00 0.  1.
         11    1    3    3    0    0 -0.79152514342E+01  0.63840863765E+01 -0.11442995715E+02  0.15308491608E+02  0.51100000000E-03 0. -1.
        -11    1    3    3    0    0 -0.11649735806E+02  0.71636620736E+01 -0.76678943379E+01  0.15678998772E+02  0.51100000000E-03 0.  1.
         12    1    3    3    0    0 -0.13113044341E+02  0.38785044599E+01 -0.65325389074E+01  0.15154827393E+02  0.00000000000E+00 0. -1.
</event>
<event>
 7    1  0.1549900E-008  0.4614232E+02  0.7816164E-02  0.1320468E+00
        -11   -1    0    0    0    0  0.00000000000E+00  0.00000000000E+00  0.45593999997E+02  0.45594000000E+02  0.51100000000E-03 0.  1.
         11   -1    0    0    0    0 -0.00000000000E+00 -0.00000000000E+00 -0.45593999997E+02  0.45594000000E+02  0.51100000000E-03 0. -1.
    9900012    2    1    2    0    0 -0.19474123792E+02 -0.33197599924E+02 -0.23404942316E+02  0.46142318043E+02  0.10000002570E+02 0.  0.
        -12    1    1    2    0    0  0.19474123792E+02  0.33197599924E+02  0.23404942316E+02  0.45045681957E+02  0.00000000000E+00 0.  1.
         11    1    3    3    0    0 -0.94882084057E+01 -0.14488688898E+02 -0.11458589618E+02  0.20766499007E+02  0.51100000000E-03 0. -1.
        -11    1    3    3    0    0 -0.19280245576E+01 -0.67737678858E+01 -0.75367296796E+01  0.10315207443E+02  0.51100000000E-03 0.  1.
        -12    1    3    3    0    0 -0.80578908282E+01 -0.11935143141E+02 -0.44096230187E+01  0.15060611593E+02  0.00000000000E+00 0.  1.
</event>
<event>
 7    1  0.1549900E-008  0.4614232E+02  0.7816164E-02  0.1320468E+00
        -11   -1    0    0    0    0  0.00000000000E+00  0.00000000000E+00  0.45593999997E+02  0.45594000000E+02  0.51100000000E-03 0. -1.
         11   -1    0    0    0    0 -0.00000000000E+00 -0.00000000000E+00 -0.45593999997E+02  0.45594000000E+02  0.51100000000E-03 0.  1.
    9900012    2    1    2    0    0 -0.28534777878E+02  0.19117051448E+02  0.29144781486E+02  0.46142317716E+02  0.99999995854E+01 0.  0.
        -12    1    1    2    0    0  0.28534777878E+02 -0.19117051448E+02 -0.29144781486E+02  0.45045682284E+02  0.00000000000E+00 0.  1.
         11    1    3    3    0    0 -0.15706908829E+02  0.78318128035E+01  0.16945908751E+02  0.24396887105E+02  0.51100000000E-03 0. -1.
        -11    1    3    3    0    0 -0.77203348875E+01  0.97550322791E+01  0.10066199973E+02  0.16002893729E+02  0.51100000000E-03 0.  1.
        -12    1    3    3    0    0 -0.51075341607E+01  0.15302063652E+01  0.21326727616E+01  0.57425368811E+01  0.00000000000E+00 0.  1.
</event>
<event>
 7    1  0.1549900E-008  0.4614232E+02  0.7816164E-02  0.1320468E+00
        -11   -1    0    0    0    0  0.00000000000E+00  0.00000000000E+00  0.45593999997E+02  0.45594000000E+02  0.51100000000E-03 0. -1.
         11   -1    0    0    0    0 -0.00000000000E+00 -0.00000000000E+00 -0.45593999997E+02  0.45594000000E+02  0.51100000000E-03 0.  1.
    9900012    2    1    2    0    0  0.10653501184E+02  0.24255146108E+02  0.36432181353E+02  0.46142322756E+02  0.10000045547E+02 0.  0.
        -12    1    1    2    0    0 -0.10653501184E+02 -0.24255146108E+02 -0.36432181353E+02  0.45045677244E+02  0.00000000000E+00 0.  1.
         11    1    3    3    0    0  0.66241858308E+01  0.74033280415E+01  0.18825879895E+02  0.21286212864E+02  0.51100000000E-03 0. -1.
        -11    1    3    3    0    0  0.57957674845E+00  0.32915363368E+00  0.67531061377E+00  0.94883929518E+00  0.51100000000E-03 0.  1.
         12    1    3    3    0    0  0.34497386050E+01  0.16522664433E+02  0.16930990845E+02  0.23907270597E+02  0.00000000000E+00 0. -1.
</event>
<event>
 7    1  0.1549900E-008  0.4614232E+02  0.7816164E-02  0.1320468E+00
        -11   -1    0    0    0    0  0.00000000000E+00  0.00000000000E+00  0.45593999997E+02  0.45594000000E+02  0.51100000000E-03 0.  1.
         11   -1    0    0    0    0 -0.00000000000E+00 -0.00000000000E+00 -0.45593999997E+02  0.45594000000E+02  0.51100000000E-03 0. -1.
    9900012    2    1    2    0    0  0.27846677994E+02 -0.35341731455E+02 -0.21535686917E+01  0.46142319678E+02  0.10000017481E+02 0.  0.
        -12    1    1    2    0    0 -0.27846677994E+02  0.35341731455E+02  0.21535686917E+01  0.45045680322E+02  0.00000000000E+00 0.  1.
         11    1    3    3    0    0  0.23227883322E+02 -0.30529275034E+02 -0.48120460939E+01  0.38661699207E+02  0.51100000000E-03 0. -1.
        -11    1    3    3    0    0  0.35359594909E+00 -0.15490991292E+01  0.91874541364E+00  0.18354377144E+01  0.51100000000E-03 0.  1.
         12    1    3    3    0    0  0.42651987229E+01 -0.32633572918E+01  0.17397319885E+01  0.56451827563E+01  0.00000000000E+00 0. -1.
</event>
<event>
 7    1  0.1549900E-008  0.4614232E+02  0.7816164E-02  0.1320468E+00
        -11   -1    0    0    0    0  0.00000000000E+00  0.00000000000E+00  0.45593999997E+02  0.45594000000E+02  0.51100000000E-03 0. -1.
         11   -1    0    0    0    0 -0.00000000000E+00 -0.00000000000E+00 -0.45593999997E+02  0.45594000000E+02  0.51100000000E-03 0.  1.
    9900012    2    1    2    0    0 -0.33821098997E+02  0.28801299584E+02  0.74653824028E+01  0.46142317305E+02  0.99999958392E+01 0.  0.
        -12    1    1    2    0    0  0.33821098997E+02 -0.28801299584E+02 -0.74653824028E+01  0.45045682695E+02  0.00000000000E+00 0.  1.
         11    1    3    3    0    0 -0.17306011300E+02  0.10702305656E+02  0.25490418549E+01  0.20506949752E+02  0.51100000000E-03 0. -1.
        -11    1    3    3    0    0 -0.70863588140E+01  0.69423449778E+01  0.48165580125E+01  0.11027777037E+02  0.51100000000E-03 0.  1.
        -12    1    3    3    0    0 -0.94287288825E+01  0.11156648950E+02  0.99782535353E-01  0.14607590516E+02  0.00000000000E+00 0.  1.
</event>
